Membrane in water
40347
    1TMC1    C1    1   0.507   4.475  11.653 -0.7611  0.8464  0.3428
    1TMC1    C2    2   0.465   4.574  11.565 -0.0952 -0.6650 -0.4740
    1TMC1    C3    3   0.500   4.564  11.428 -0.1335  0.3261  0.0179
    1TMC1    C4    4   0.572   4.366  11.603  0.7026  0.7688  0.2836
    1TMC1    C5    5   0.596   4.354  11.470 -0.4869  0.0854  0.2498
    1TMC1    C6    6   0.565   4.450  11.382  0.1167 -0.4907  0.7442
    1TMC1     C    7   0.438   4.463  11.782 -0.7270  0.7801  0.5797
    1TMC1     O    8   0.350   4.548  11.797 -0.2635  1.0300 -0.3382
    1TMC1     H    9   0.423   4.668  11.599  0.4785 -0.0055 -1.6056
    1TMC1    H1   10   0.592   4.283  11.670  1.2035  2.6467  2.4990
    1TMC1    H2   11   0.582   4.440  11.275 -2.4163 -0.7672  0.3719
    1TMC1    C7   12   0.667   4.241  11.417  0.3369  0.4144 -0.6966
    1TMC1    C8   13   0.537   4.687  11.363 -0.8401  0.2492 -0.6849
    1TMC1    O1   14   0.748   4.256  11.328 -0.1714 -0.2226 -0.0785
    1TMC1    O2   15   0.622   4.689  11.275 -0.5806  0.0102 -0.2934
    1TMC1    O3   16   0.576   4.140  11.427  0.3545 -0.0321  0.5668
    1TMC1    H3   17   0.512   4.149  11.502 -1.3000  1.4098 -1.0060
    1TMC1    O5   18   0.418   0.008  11.327  0.4771 -0.0445 -0.0785
    1TMC1    H5   19   0.338   4.713  11.375  1.2931 -2.3942 -0.2177
    2MPD2     C   20   0.352   4.293  12.249  0.0745  0.3323  0.7323
    2MPD2    C1   21   0.263   4.343  12.148  0.1811  0.5394 -0.4333
    2MPD2    C2   22   0.321   4.382  12.029  1.0235 -0.2420 -0.9481
    2MPD2    C3   23   0.449   4.355  12.003  0.5529  0.3270 -0.8651
    2MPD2    C4   24   0.530   4.296  12.094  0.0932 -0.0794 -0.1927
    2MPD2    C5   25   0.482   4.271  12.221  0.1649 -0.2921  0.8530
    2MPD2     H   26   0.250   4.409  11.951  0.4396 -1.2176 -0.7570
    2MPD2    H1   27   0.637   4.284  12.080  0.0071 -1.0474  0.0011
    2MPD2    H2   28   0.312   4.262  12.345 -2.4422 -1.4637 -0.8763
    2MPD2    H3   29   0.543   4.215  12.291  2.8922  0.6193 -0.8015
    2MPD2     N   30   0.504   4.389  11.874 -0.6222  0.1128 -0.2190
    2MPD2    H5   31   0.597   4.360  11.845 -1.0717 -2.1702  0.6273
    2MPD2    N1   32   0.122   4.356  12.160 -0.5912  0.0183  0.4750
    2MPD2    H7   33   0.076   4.408  12.086  0.6668  1.1013  0.4432
    3TMC1    C1   34   3.570   0.714  10.611  0.1937  0.0378 -0.7061
    3TMC1    C2   35   3.586   0.620  10.517  0.2245  0.0120  0.1544
    3TMC1    C3   36   3.548   0.652  10.391  0.4848  0.6538  0.2897
    3TMC1    C4   37   3.510   0.833  10.590  0.4602  0.2932  0.5263
    3TMC1    C5   38   3.466   0.856  10.462 -0.0028 -0.0398 -0.9149
    3TMC1    C6   39   3.479   0.772  10.365 -0.1658  0.3344 -0.3714
    3TMC1     C   40   3.630   0.677  10.735 -0.3484 -0.7238 -0.4371
    3TMC1     O   41   3.655   0.558  10.749 -0.3857 -0.2370 -0.3832
    3TMC1     H   42   3.652   0.535  10.530 -0.7727 -1.1906 -2.6127
    3TMC1    H1   43   3.474   0.900  10.668 -1.7959  0.6380 -0.8070
    3TMC1    H2   44   3.446   0.791  10.264 -0.6288 -0.2766 -0.3367
    3TMC1    C7   45   3.362   0.956  10.468 -0.3966  0.2982  0.3728
    3TMC1    C8   46   3.569   0.556  10.281  0.8623 -0.4515  0.3339
    3TMC1    O1   47   3.369   1.058  10.537  0.5134  0.3403 -0.0287
    3TMC1    O2   48   3.650   0.462  10.299 -0.1725  0.1674  0.1009
    3TMC1    O3   49   3.251   0.920  10.403  0.2403 -0.5248  0.1179
    3TMC1    H3   50   3.243   0.828  10.369 -1.5496  0.4645 -2.1602
    3TMC1    O5   51   3.440   0.541  10.253 -0.0574 -0.4746 -0.0156
    3TMC1    H5   52   3.384   0.615  10.285  0.3056 -0.3422  0.3127
    4MPD2     C   53   3.668   0.769  11.234 -0.2192  0.2543 -0.2890
    4MPD2    C1   54   3.662   0.892  11.175 -0.2866  0.5696 -0.2774
    4MPD2    C2   55   3.658   0.889  11.034 -0.0324  0.2683  0.0373
    4MPD2    C3   56   3.658   0.767  10.963  0.1874 -0.7966  0.1071
    4MPD2    C4   57   3.665   0.643  11.032  0.7352  0.3684  0.4330
    4MPD2    C5   58   3.662   0.647  11.171 -0.0741 -0.5103 -0.6941
    4MPD2     H   59   3.646   0.977  10.971 -0.8893  1.2764  1.6227
    4MPD2    H1   60   3.646   0.550  10.980  1.3334  0.1085  0.6814
    4MPD2    H2   61   3.670   0.754  11.341 -0.8820  1.1346 -0.1552
    4MPD2    H3   62   3.657   0.552  11.224 -1.8748 -0.7133 -1.2265
    4MPD2     N   63   3.625   0.779  10.824 -0.5144 -0.3450 -0.3122
    4MPD2    H5   64   3.616   0.867  10.775 -0.4329 -1.0337 -1.5776
    4MPD2    N1   65   3.643   1.011  11.247 -0.0938  0.8449  0.0237
    4MPD2    H7   66   3.628   1.087  11.182  0.4356  0.0575 -1.0289
    5TCq1    O1   67   3.529   2.687  11.646 -0.0907  0.3564 -0.5005
    5TCq1    C1   68   3.488   2.574  11.582  0.0425  0.1015 -0.9463
    5TCq1    O2   69   3.377   2.520  11.593 -0.4064 -0.3521  0.0766
    5TCq1    C2   70   3.619   2.502  11.569  0.7070  0.6482  0.0563
    5TCq1    C3   71   3.647   2.384  11.634 -0.4485  0.2343  0.5409
    5TCq1    C4   72   3.776   2.328  11.621 -0.0005 -0.3597 -0.1876
    5TCq1    C5   73   3.872   2.388  11.535 -0.2173 -0.8034 -0.2349
    5TCq1    C6   74   3.840   2.514  11.491  0.3920  0.1256 -0.2320
    5TCq1    C7   75   3.711   2.565  11.500  0.0277  0.1190  0.7273
    5TCq1    C8   76   3.956   2.576  11.430 -0.7087 -0.5798  0.8563
    5TCq1    O4   77   4.055   2.509  11.404 -0.2911  0.0025 -0.4503
    5TCq1    C9   78   3.816   2.210  11.697  0.5274  0.1280  0.2292
    5TCq1    O5   79   3.734   2.174  11.786 -0.6037  0.1860 -0.4859
    5TCq1    O6   80   3.939   2.180  11.700 -0.0711  0.4022  0.4519
    5TCq1    H1   81   3.622   2.694  11.676 -0.4395  0.8709  0.4608
    5TCq1    H2   82   3.566   2.334  11.687  0.4686  0.9044  2.5485
    5TCq1    H3   83   3.969   2.342  11.547 -1.1734 -2.4162  1.3025
    5TCq1    H4   84   3.687   2.663  11.460 -0.5256 -0.0741  0.5829
    6MPD2     C   85   4.022   2.940  11.429  0.0452 -0.1370 -0.0164
    6MPD2    C1   86   4.040   2.808  11.401  0.1671 -0.2976 -0.0235
    6MPD2    C2   87   4.153   2.776  11.328 -0.4835 -0.2514 -0.3650
    6MPD2    C3   88   4.242   2.873  11.289  0.2371 -0.4627 -0.9304
    6MPD2    C4   89   4.232   2.997  11.338 -0.2578  1.0843  0.0658
    6MPD2    C5   90   4.121   3.037  11.399  0.2718 -0.0843 -0.5889
    6MPD2     H   91   4.169   2.676  11.288  3.3492 -0.0393  0.6065
    6MPD2    H1   92   4.300   3.078  11.314 -0.4603  1.3368  0.3324
    6MPD2    H2   93   3.937   2.988  11.475 -0.7665  0.2435 -1.9049
    6MPD2    H3   94   4.097   3.142  11.414 -0.6744  0.0604 -3.1702
    6MPD2     N   95   4.357   2.828  11.212 -0.1291 -0.2486 -0.0539
    6MPD2    H5   96   4.354   2.728  11.193 -0.5847 -0.4588  1.1516
    6MPD2    N1   97   3.937   2.718  11.434 -0.0361  0.3432 -0.5657
    6MPD2    H7   98   3.847   2.752  11.465  1.1109  0.3586  2.6756
    7TCq1    O1   99   2.602   2.190  12.220 -0.4180 -0.2765  0.0101
    7TCq1    C1  100   2.477   2.136  12.242  0.5981 -0.0835 -0.1163
    7TCq1    O2  101   2.451   2.017  12.212  0.1189  0.3041  0.0461
    7TCq1    C2  102   2.434   2.193  12.369  0.3698 -0.1346  0.4034
    7TCq1    C3  103   2.447   2.329  12.399 -0.8120  0.4698 -0.1478
    7TCq1    C4  104   2.420   2.379  12.525 -0.0431  0.4039 -0.2669
    7TCq1    C5  105   2.373   2.292  12.622 -0.2380  0.1946 -0.8752
    7TCq1    C6  106   2.369   2.159  12.587 -0.2739  0.0266  0.2027
    7TCq1    C7  107   2.393   2.109  12.462  1.0701  0.1979  0.2929
    7TCq1    C8  108   2.325   2.072  12.685 -0.7668  0.4461 -0.2810
    7TCq1    O4  109   2.284   1.969  12.648 -0.0510 -0.3180  0.1931
    7TCq1    C9  110   2.444   2.524  12.547  0.6490 -0.1173  0.4933
    7TCq1    O5  111   2.411   2.574  12.656  0.5092 -0.2844 -0.2215
    7TCq1    O6  112   2.482   2.590  12.447  0.0303  0.6304  0.3737
    7TCq1    H1  113   2.622   2.278  12.260 -0.7381 -1.1845  2.1982
    7TCq1    H2  114   2.505   2.390  12.331  2.5082 -3.9934 -1.3447
    7TCq1    H3  115   2.350   2.339  12.717  0.0963 -1.5943  0.0843
    7TCq1    H4  116   2.376   2.007  12.430  5.4315 -0.9135  1.5720
    8MPD2     C  117   2.279   1.964  13.182  0.9097 -0.0770 -0.0049
    8MPD2    C1  118   2.268   1.880  13.069 -0.3704  0.1640  0.2121
    8MPD2    C2  119   2.288   1.934  12.943 -0.2136 -0.4944 -0.5583
    8MPD2    C3  120   2.324   2.066  12.932 -0.3059  0.1236  0.4116
    8MPD2    C4  121   2.325   2.149  13.044 -0.5073  0.4470  0.2717
    8MPD2    C5  122   2.308   2.100  13.172  0.9755 -0.3175  0.5200
    8MPD2     H  123   2.295   1.865  12.860 -0.7617  1.5888 -2.3494
    8MPD2    H1  124   2.353   2.253  13.033  0.7604  0.0633 -0.0665
    8MPD2    H2  125   2.265   1.930  13.284  0.0511  0.9010  0.2054
    8MPD2    H3  126   2.310   2.158  13.264  0.1753  1.2236 -0.4362
    8MPD2     N  127   2.338   2.126  12.811 -0.3680 -0.0651 -0.0255
    8MPD2    H5  128   2.367   2.223  12.813  2.6043 -0.9570  1.9253
    8MPD2    N1  129   2.242   1.740  13.088  0.2583  0.0261  0.1582
    8MPD2    H7  130   2.250   1.706  13.184  0.6226  1.5652  0.6627
    9TMC1    C1  131   4.367   0.886  10.724  0.0011  0.2973  0.0709
    9TMC1    C2  132   4.356   0.750  10.740 -0.2479 -0.5899 -0.4263
    9TMC1    C3  133   4.338   0.671  10.630 -0.5821  0.0533  0.9103
    9TMC1    C4  134   4.360   0.949  10.604  0.0837  0.4929  0.0591
    9TMC1    C5  135   4.351   0.863  10.494 -0.2128  0.0904 -0.0944
    9TMC1    C6  136   4.326   0.732  10.502  0.6413 -0.5843  0.0044
    9TMC1     C  137   4.374   0.973  10.840  0.3278  0.1033  0.1631
    9TMC1     O  138   4.358   1.091  10.829  0.2314  0.0399 -0.8347
    9TMC1     H  139   4.334   0.705  10.836 -3.7115  1.0129 -0.4673
    9TMC1    H1  140   4.368   1.057  10.613  4.2005  0.5247 -4.0709
    9TMC1    H2  141   4.308   0.667  10.417  1.9040 -0.7713 -0.1172
    9TMC1    C7  142   4.369   0.916  10.356 -0.6980 -0.5185  0.2877
    9TMC1    C8  143   4.306   0.532  10.644  0.5735 -0.2365  0.3620
    9TMC1    O1  144   4.292   0.883  10.265 -0.0721  0.1144  0.0126
    9TMC1    O2  145   4.274   0.481  10.752 -0.5437  0.0660 -0.3374
    9TMC1    O3  146   4.432   1.033  10.359  0.2244  0.0086 -0.3129
    9TMC1    H3  147   4.478   1.065  10.439 -1.3151  0.1344  0.5257
    9TMC1    O5  148   4.392   0.483  10.553 -0.2058  0.2308  0.1248
    9TMC1    H5  149   4.415   0.543  10.479 -0.2020  2.4147  1.9240
   10MPD2     C  150   4.403   1.080  11.106 -0.0495 -0.0143  0.0928
   10MPD2    C1  151   4.390   0.950  11.080 -0.2310 -0.9036  0.1026
   10MPD2    C2  152   4.382   0.864  11.182  0.2549  0.0811  0.1757
   10MPD2    C3  153   4.401   0.910  11.314 -0.7957  0.6100  0.0467
   10MPD2    C4  154   4.422   1.041  11.340  0.3573  0.1745 -0.5229
   10MPD2    C5  155   4.423   1.126  11.231  0.3892  0.3823 -0.5182
   10MPD2     H  156   4.373   0.757  11.170 -1.0470 -0.0238  2.0559
   10MPD2    H1  157   4.434   1.086  11.438 -0.5411 -5.2438  2.0415
   10MPD2    H2  158   4.405   1.153  11.026  0.3133  2.0924  2.0225
   10MPD2    H3  159   4.434   1.234  11.237  0.3653  0.1946  2.5628
   10MPD2     N  160   4.403   0.815  11.422  0.4843 -0.1833  0.1344
   10MPD2    H5  161   4.436   0.851  11.511  0.3034 -1.6787  0.8141
   10MPD2    N1  162   4.395   0.897  10.950  0.2733 -0.2857  0.1121
   10MPD2    H7  163   4.399   0.795  10.950 -2.7736 -0.3938  0.8499
   11TCq1    O1  164   0.385   0.848  14.509 -0.4693  0.1083 -0.7565
   11TCq1    C1  165   0.493   0.920  14.472  0.0396  1.0797  0.0993
   11TCq1    O2  166   0.587   0.945  14.549  0.3696  0.0258 -0.3016
   11TCq1    C2  167   0.498   0.891  14.327 -0.1621  0.0128  0.5619
   11TCq1    C3  168   0.388   0.887  14.244 -0.7421  0.4442 -0.1007
   11TCq1    C4  169   0.391   0.853  14.117  0.4016 -0.1132 -0.4271
   11TCq1    C5  170   0.514   0.828  14.060  0.1611  0.1358 -0.1021
   11TCq1    C6  171   0.624   0.838  14.143 -1.0267  0.8437  0.1765
   11TCq1    C7  172   0.619   0.876  14.269 -0.2030  1.0546 -0.2766
   11TCq1    C8  173   0.715   0.731  14.119 -0.1598  0.2132 -0.4360
   11TCq1    O4  174   0.829   0.737  14.161 -0.2509  0.5621  0.3976
   11TCq1    C9  175   0.267   0.842  14.035  0.0167 -0.2167  0.4299
   11TCq1    O5  176   0.157   0.834  14.093  0.5905 -0.4629  0.0005
   11TCq1    O6  177   0.286   0.826  13.910  0.0591 -0.1204 -0.2082
   11TCq1    H1  178   0.320   0.822  14.441 -0.7860  1.9865 -1.1811
   11TCq1    H2  179   0.291   0.918  14.282 -1.3502  0.8646 -2.0025
   11TCq1    H3  180   0.530   0.814  13.954  0.7914 -3.2759  0.4268
   11TCq1    H4  181   0.709   0.872  14.328  0.7127 -0.2685 -1.7585
   12MPD2     C  182   0.851   0.474  14.047  0.2551 -0.1616 -0.2110
   12MPD2    C1  183   0.714   0.501  14.037  0.0267  0.4337 -0.5557
   12MPD2    C2  184   0.628   0.412  13.980  0.2051  0.2174 -0.0705
   12MPD2    C3  185   0.672   0.282  13.945 -0.1815 -0.2691 -0.3135
   12MPD2    C4  186   0.813   0.262  13.949  0.7814 -0.9704 -0.4763
   12MPD2    C5  187   0.895   0.352  14.002 -0.2416 -0.1671 -0.0427
   12MPD2     H  188   0.522   0.435  13.973  0.3957  0.6853 -1.3476
   12MPD2    H1  189   0.854   0.165  13.924  1.3757 -0.1796 -2.5853
   12MPD2    H2  190   0.925   0.536  14.097  0.1412 -0.9664  0.9674
   12MPD2    H3  191   1.000   0.332  14.016  0.1269 -0.2489 -2.9301
   12MPD2     N  192   0.593   0.177  13.891 -0.1451  0.0282  0.4493
   12MPD2    H5  193   0.638   0.089  13.870 -0.1434 -0.4220  2.3621
   12MPD2    N1  194   0.649   0.620  14.074 -0.1366 -0.4399 -0.3400
   12MPD2    H7  195   0.551   0.630  14.049 -0.0490 -1.8069 -1.2897
   13TCq1    O1  196   3.853   1.150   9.812 -0.2316  0.4104  0.2389
   13TCq1    C1  197   3.976   1.126   9.869 -0.5523  0.1699 -0.1631
   13TCq1    O2  198   4.044   1.022   9.850  0.1567 -0.2322  0.1262
   13TCq1    C2  199   3.959   1.185  10.003  0.5145 -0.4093 -0.6964
   13TCq1    C3  200   3.931   1.317  10.008  0.6093  0.1352 -0.1637
   13TCq1    C4  201   3.954   1.383  10.131  0.4080 -0.6438  0.4717
   13TCq1    C5  202   3.988   1.320  10.241 -0.7715 -0.1062  0.7640
   13TCq1    C6  203   4.026   1.193  10.231  0.6204 -0.6134  0.0383
   13TCq1    C7  204   4.005   1.124  10.114  0.2635  0.3011  0.5031
   13TCq1    C8  205   4.046   1.114  10.348  0.6003  1.0961  0.1592
   13TCq1    O4  206   4.077   1.170  10.450  0.0699  0.0775 -0.4029
   13TCq1    C9  207   3.894   1.515  10.141 -0.1408  0.0735  0.0034
   13TCq1    O5  208   3.850   1.554  10.252 -0.3877  0.5990  0.3778
   13TCq1    O6  209   3.897   1.583  10.036 -0.5479  0.2268  0.5267
   13TCq1    H1  210   3.795   1.186   9.882 -0.9949  0.6258 -0.5070
   13TCq1    H2  211   3.927   1.370   9.914  2.0886 -1.5022 -1.1696
   13TCq1    H3  212   3.988   1.376  10.334 -3.2171  1.2170 -0.0376
   13TCq1    H4  213   4.038   1.021  10.105 -2.3833 -0.4358 -0.9055
   14MPD2     C  214   3.942   0.758  10.384 -0.3154 -0.1677  0.1521
   14MPD2    C1  215   3.992   0.883  10.427 -0.6710 -0.2128 -0.3456
   14MPD2    C2  216   4.008   0.902  10.561  0.4902  0.2106 -0.1453
   14MPD2    C3  217   3.976   0.803  10.657 -0.1094 -0.3590 -0.3557
   14MPD2    C4  218   3.938   0.677  10.603 -0.1216  0.3021 -0.2088
   14MPD2    C5  219   3.920   0.655  10.467 -0.4367  0.1915  0.2665
   14MPD2     H  220   4.048   0.998  10.591  2.4689 -0.2165 -1.4338
   14MPD2    H1  221   3.928   0.584  10.658  1.9702  1.7672  2.6799
   14MPD2    H2  222   3.914   0.743  10.280 -2.0664 -0.9399  0.7387
   14MPD2    H3  223   3.886   0.556  10.440 -2.8182  0.9735  0.4424
   14MPD2     N  224   4.000   0.835  10.796  0.0377 -0.7703 -0.6805
   14MPD2    H5  225   4.011   0.933  10.822 -2.8014 -1.1160  1.7983
   14MPD2    N1  226   4.006   0.985  10.332  0.2322  0.2798 -0.3303
   14MPD2    H7  227   3.998   0.951  10.237 -2.1323  0.4459 -0.1808
   15TCq1    O1  228   1.704   4.639   1.441 -0.2861  0.1373  0.3902
   15TCq1    C1  229   1.577   4.684   1.409 -0.9039 -0.2977 -0.4845
   15TCq1    O2  230   1.543   0.065   1.385  0.3121  0.8351 -0.4302
   15TCq1    C2  231   1.504   4.579   1.346 -0.0690  0.3798  0.5383
   15TCq1    C3  232   1.386   4.625   1.303  0.0172  0.0526  0.0731
   15TCq1    C4  233   1.301   4.539   1.234 -0.6562 -0.1527 -0.4703
   15TCq1    C5  234   1.351   4.428   1.180  0.5909 -0.3646  0.9894
   15TCq1    C6  235   1.484   4.394   1.211  0.3258 -0.0045  0.2797
   15TCq1    C7  236   1.561   4.465   1.298  0.7367  0.4178  0.5790
   15TCq1    C8  237   1.537   4.271   1.159  0.0541  0.1189 -0.8402
   15TCq1    O4  238   1.640   4.231   1.212  0.1026  0.1293 -0.1459
   15TCq1    C9  239   1.161   4.577   1.212  0.1348  0.6448  0.0953
   15TCq1    O5  240   1.102   4.524   1.114 -0.3559  0.0497 -0.8222
   15TCq1    O6  241   1.118   4.676   1.278 -0.4722  0.2649  0.1749
   15TCq1    H1  242   1.713   4.542   1.449  1.5534  0.2827  0.0739
   15TCq1    H2  243   1.348   4.720   1.336 -2.3283 -1.1233  0.7208
   15TCq1    H3  244   1.283   4.365   1.125  1.6507 -0.3027 -0.3885
   15TCq1    H4  245   1.657   4.436   1.341 -0.5545 -1.3521  2.2635
   16MPD2     C  246   1.421   4.132   0.856  0.1444  0.1050  0.4362
   16MPD2    C1  247   1.507   4.137   0.958 -0.7893 -0.1764  0.1490
   16MPD2    C2  248   1.602   4.045   0.985 -0.0586  0.0847  0.2944
   16MPD2    C3  249   1.609   3.940   0.894  0.2896  0.4950  0.2992
   16MPD2    C4  250   1.510   3.925   0.794 -0.0087  0.2423 -0.6980
   16MPD2    C5  251   1.421   4.028   0.773 -0.5919  0.8153 -0.3912
   16MPD2     H  252   1.663   4.046   1.075 -0.6402  4.6056  0.6807
   16MPD2    H1  253   1.518   3.846   0.720  0.8265 -0.0525 -0.2913
   16MPD2    H2  254   1.346   4.209   0.844  0.1250 -0.1271 -0.9138
   16MPD2    H3  255   1.351   4.016   0.691  0.7794  1.4381 -1.6679
   16MPD2     N  256   1.716   3.849   0.913 -0.0640 -0.5751 -0.1819
   16MPD2    H5  257   1.780   3.868   0.988 -0.8981  0.0963  0.3596
   16MPD2    N1  258   1.492   4.251   1.035  0.0504 -0.7525 -0.8917
   16MPD2    H7  259   1.418   4.313   1.004  1.7248  2.3396  1.2705
   17TMC1    C1  260   4.215   0.233  11.471  0.6603 -0.3176  0.4568
   17TMC1    C2  261   4.153   0.266  11.349 -0.2757 -0.5307 -0.1365
   17TMC1    C3  262   4.013   0.258  11.343 -0.5633  0.0705 -0.2105
   17TMC1    C4  263   4.147   0.184  11.576 -0.1770 -0.8904 -0.4932
   17TMC1    C5  264   4.010   0.179  11.566 -0.8585  0.0725 -0.3400
   17TMC1    C6  265   3.946   0.203  11.448 -0.5924 -0.6978  0.1007
   17TMC1     C  266   4.358   0.212  11.482  0.1974  0.4460 -0.0200
   17TMC1     O  267   4.409   0.165  11.583 -0.6251 -0.1818 -0.2952
   17TMC1     H  268   4.209   0.292  11.260  0.0769  0.6004  0.4043
   17TMC1    H1  269   4.194   0.146  11.667  0.8424  1.2867 -0.0965
   17TMC1    H2  270   3.839   0.188  11.438 -0.8779  1.1678  0.3543
   17TMC1    C7  271   3.936   0.096  11.652  0.2901  0.0061  0.1152
   17TMC1    C8  272   3.956   0.226  11.212  0.3030 -0.0116 -0.2652
   17TMC1    O1  273   3.852   0.017  11.610 -0.0466  0.0626  0.3983
   17TMC1    O2  274   3.915   0.113  11.201 -0.8446 -0.2205  0.0436
   17TMC1    O3  275   3.924   0.165  11.766  0.0077  0.1275  0.3557
   17TMC1    H3  276   3.986   0.239  11.783  0.2650 -0.0196  0.0566
   17TMC1    O5  277   3.889   0.338  11.172  0.1144  0.9377 -0.2643
   17TMC1    H5  278   3.908   0.418  11.225  1.5181  1.7480 -2.0235
   18MPD2     C  279   4.656   0.239  11.458  0.0254  0.3366 -0.4866
   18MPD2    C1  280   4.572   0.261  11.353 -0.6319 -0.1274  0.2849
   18MPD2    C2  281   4.619   0.295  11.226  0.5262  0.0720 -0.2630
   18MPD2    C3  282   0.019   0.290  11.206  0.5037 -0.5414 -0.2629
   18MPD2    C4  283   0.109   0.257  11.308 -0.2242 -0.4082 -0.0709
   18MPD2    C5  284   0.057   0.235  11.442  0.1223  0.7227 -0.5687
   18MPD2     H  285   4.549   0.324  11.149  1.0991  2.0095 -0.0478
   18MPD2    H1  286   0.217   0.255  11.302 -0.1703  2.1832 -0.2845
   18MPD2    H2  287   4.627   0.213  11.559  0.3393 -1.9551 -0.9935
   18MPD2    H3  288   0.122   0.216  11.527  0.4070  0.4678 -0.8461
   18MPD2     N  289   0.082   0.332  11.088 -0.6083  0.0047 -0.3251
   18MPD2    H5  290   0.183   0.328  11.088 -0.4786  3.1865  2.0614
   18MPD2    N1  291   4.430   0.264  11.373  0.1147 -0.1276 -0.1287
   18MPD2    H7  292   4.371   0.290  11.295  2.1610 -0.5904 -1.8370
   19TMC2    C1  293   1.378   0.258  13.459  0.4138  0.6162  0.3766
   19TMC2    C2  294   1.323   0.278  13.338 -1.0664 -0.2127  0.4895
   19TMC2    C3  295   1.259   0.170  13.275 -0.2701 -1.4903 -0.7594
   19TMC2    C4  296   1.375   0.138  13.523 -0.8192  0.0878  0.1334
   19TMC2    C5  297   1.300   0.034  13.461  0.5548  0.1259 -0.2420
   19TMC2    C6  298   1.247   0.051  13.335  0.3083 -0.1947 -0.3738
   19TMC2     C  299   1.452   0.370  13.521  0.3153  0.4585  0.6913
   19TMC2     O  300   1.490   0.465  13.454  0.1547  0.9014  0.7454
   19TMC2     H  301   1.334   0.375  13.292 -1.2288 -0.6172 -0.4004
   19TMC2    H1  302   1.427   0.119  13.616  1.1764 -0.7487 -1.1399
   19TMC2    H2  303   1.195   4.708  13.281  1.3117 -1.1325  0.0090
   19TMC2    C7  304   1.266   4.653  13.549  0.0157  0.5991 -0.0076
   19TMC2    C8  305   1.249   0.164  13.128  0.3695 -0.6731  0.9372
   19TMC2    O1  306   1.238   4.547  13.489  0.0453  0.4727  0.2523
   19TMC2    O2  307   1.314   0.090  13.054 -0.0581 -0.5535  0.0483
   19TMC2    O5  308   1.213   0.292  13.094 -0.0359 -0.1265  0.0602
   19TMC2    H5  309   1.163   0.342  13.161  1.3436 -1.2033  1.8739
   20MPD2     C  310   1.663   0.504  13.665 -0.2673  0.0419 -0.1463
   20MPD2    C1  311   1.567   0.424  13.726 -0.2320  0.0152 -0.2428
   20MPD2    C2  312   1.574   0.411  13.864 -0.3314 -0.4444 -0.4532
   20MPD2    C3  313   1.674   0.475  13.939  0.1211 -0.3721 -0.0770
   20MPD2    C4  314   1.763   0.567  13.882 -0.4328  0.6771 -0.0059
   20MPD2    C5  315   1.756   0.570  13.743  0.1755  0.4896 -0.3468
   20MPD2     H  316   1.499   0.355  13.918  0.0699  0.7168  1.2791
   20MPD2    H1  317   1.823   0.630  13.946  0.9175  0.7846 -1.3662
   20MPD2    H2  318   1.694   0.513  13.561 -2.2428  1.3083 -0.6319
   20MPD2    H3  319   1.827   0.636  13.695  0.9158  0.6507  0.9716
   20MPD2     N  320   1.672   0.478  14.081 -0.1132  0.5304  0.3345
   20MPD2    H5  321   1.745   0.538  14.116 -0.5196  0.0556  2.0400
   20MPD2    N1  322   1.469   0.351  13.655 -0.3459 -0.6622 -0.0417
   20MPD2    H7  323   1.418   0.280  13.705  0.0976 -0.2462  0.9982
   21TMC2    C1  324   4.084   0.550  13.742  0.1342 -0.3988 -0.1588
   21TMC2    C2  325   3.966   0.516  13.679  0.0202  0.3850 -0.6170
   21TMC2    C3  326   3.849   0.591  13.709  0.9308 -0.9763  0.5518
   21TMC2    C4  327   4.084   0.644  13.842  0.2691  0.4906 -0.5436
   21TMC2    C5  328   3.967   0.711  13.878  0.2332 -0.3573  0.8098
   21TMC2    C6  329   3.847   0.688  13.804 -0.0417 -0.1018 -0.4329
   21TMC2     C  330   4.216   0.492  13.714 -0.1801  0.4106  0.4087
   21TMC2     O  331   4.312   0.540  13.775  0.3497  0.0870  0.3048
   21TMC2     H  332   3.964   0.427  13.617 -1.1089 -0.5143  0.7011
   21TMC2    H1  333   4.176   0.667  13.894 -0.2010  0.5602  0.2686
   21TMC2    H2  334   3.755   0.730  13.841 -0.9335  0.7474 -3.6016
   21TMC2    C7  335   3.973   0.787  14.000  0.1589 -0.0359 -0.9688
   21TMC2    C8  336   3.723   0.540  13.648  0.1531 -0.3992  0.0854
   21TMC2    O1  337   4.072   0.760  14.073  0.3102 -0.2833  0.4100
   21TMC2    O2  338   3.713   0.490  13.533 -0.1073 -0.0063  0.1633
   21TMC2    O5  339   3.645   0.505  13.755 -0.4927  0.3524  0.3949
   21TMC2    H5  340   3.649   0.565  13.833 -1.6777  0.6530  0.2230
   22MPD2     C  341   4.508   0.101  13.556 -0.1400 -0.4997 -0.0474
   22MPD2    C1  342   4.522   0.187  13.664 -0.0001  0.1985 -0.5094
   22MPD2    C2  343   4.436   0.295  13.679  0.1249  0.1496 -0.4493
   22MPD2    C3  344   4.329   0.310  13.589  0.1601 -0.2652 -0.2312
   22MPD2    C4  345   4.319   0.219  13.488 -0.7724 -0.6490  0.6949
   22MPD2    C5  346   4.404   0.113  13.474 -0.3862  0.3434 -0.3438
   22MPD2     H  347   4.440   0.357  13.769 -0.8021 -1.1123  0.4653
   22MPD2    H1  348   4.231   0.213  13.424 -0.5916 -1.2715  0.4973
   22MPD2    H2  349   4.572   0.014  13.545  0.1289 -0.4509  1.1908
   22MPD2    H3  350   4.402   0.038  13.396 -0.9328 -0.8815  0.8463
   22MPD2     N  351   4.219   0.401  13.619  0.1652  0.3071  0.1635
   22MPD2    H5  352   4.138   0.391  13.559  1.0225  0.2607 -0.9813
   22MPD2    N1  353   4.615   0.168  13.764  0.5546 -0.5411 -0.4050
   22MPD2    H7  354   4.613   0.238  13.837  0.1220  1.5415 -2.4191
   23TMC2    C1  355   0.757   2.097  14.803 -0.5592 -0.1390 -0.0073
   23TMC2    C2  356   0.884   2.149  14.791 -0.3931  0.1204  0.3410
   23TMC2    C3  357   0.927   2.158  14.669 -0.5033  0.0885 -0.0060
   23TMC2    C4  358   0.668   2.086  14.702 -0.6190 -0.0861  0.6045
   23TMC2    C5  359   0.712   2.111  14.578 -0.1229  0.4991  1.0701
   23TMC2    C6  360   0.841   2.148  14.559  0.7549  0.0160  0.0614
   23TMC2     C  361   0.705   2.111  14.933 -0.2103 -0.0856  0.6821
   23TMC2     O  362   0.794   2.102  15.021  0.1811  0.2920  0.6040
   23TMC2     H  363   0.949   2.169  14.875  0.1923 -1.3282  0.2168
   23TMC2    H1  364   0.577   2.026  14.704  0.2270 -1.3409  1.6085
   23TMC2    H2  365   0.872   2.178  14.459 -1.3986 -0.3752 -0.7156
   23TMC2    C7  366   0.626   2.077  14.468  0.6777  0.0746  0.1346
   23TMC2    C8  367   1.035   2.248  14.648  0.8257  0.7071 -0.0170
   23TMC2    O1  368   0.692   2.040  14.369 -0.2713  0.0287  0.5492
   23TMC2    O2  369   1.030   2.335  14.561 -0.0791  0.3814  0.0013
   23TMC2    O5  370   1.113   2.256  14.764  0.1736  0.0176 -0.1618
   23TMC2    H5  371   1.117   2.171  14.813  1.8309  0.5700  0.6598
   24MPD2     C  372   0.349   2.151  15.294  0.1475  1.1059  0.4113
   24MPD2    C1  373   0.478   2.106  15.298  0.2273  0.7192  0.0531
   24MPD2    C2  374   0.557   2.086  15.183 -0.7272  0.7385  0.1843
   24MPD2    C3  375   0.499   2.124  15.060  0.2030 -0.0379  0.1806
   24MPD2    C4  376   0.360   2.149  15.056  0.3425  0.6422 -0.4847
   24MPD2    C5  377   0.292   2.170  15.171  0.2900  0.5251 -0.2031
   24MPD2     H  378   0.660   2.053  15.189 -0.8591  0.0977 -1.1202
   24MPD2    H1  379   0.299   2.163  14.967  0.9571  1.4815 -0.7691
   24MPD2    H2  380   0.294   2.173  15.385 -0.5328 -0.5870  0.4172
   24MPD2    H3  381   0.189   2.201  15.160 -0.2675 -1.2226 -0.0309
   24MPD2     N  382   0.571   2.126  14.941  0.1499  0.2139 -0.5842
   24MPD2    H5  383   0.521   2.157  14.858 -1.9061  3.1196  1.7247
   24MPD2    N1  384   0.543   2.064  15.420 -0.6515  0.2217  0.3138
   24MPD2    H7  385   0.636   2.026  15.413 -1.0760 -0.4194 -1.7365
   25TMC2    C1  386   3.468   4.352  11.531 -0.2688  0.3685 -0.4503
   25TMC2    C2  387   3.448   4.488  11.506  0.0840  0.2576 -0.5485
   25TMC2    C3  388   3.394   4.570  11.606  0.1623 -0.1336  0.1007
   25TMC2    C4  389   3.448   4.306  11.657  0.1367 -0.4301 -0.2694
   25TMC2    C5  390   3.386   4.391  11.747 -0.0392 -0.4337 -0.2770
   25TMC2    C6  391   3.364   4.521  11.728  0.1756 -0.3907 -0.3881
   25TMC2     C  392   3.507   4.275  11.415 -0.0463 -0.7213 -0.3001
   25TMC2     O  393   3.537   4.343  11.318 -0.5873  0.6836  0.3261
   25TMC2     H  394   3.441   4.525  11.404  1.3833  3.3043  0.4716
   25TMC2    H1  395   3.446   4.200  11.680 -0.4236 -0.0294  1.5308
   25TMC2    H2  396   3.300   4.577  11.795  0.9449 -0.8071  0.7006
   25TMC2    C7  397   3.365   4.331  11.878  0.3009  0.1013 -0.0615
   25TMC2    C8  398   3.304   4.681  11.564  0.0262  0.0268  0.8568
   25TMC2    O1  399   3.422   4.230  11.912  0.3269 -0.3263  0.4010
   25TMC2    O2  400   3.232   4.658  11.470  0.0227  0.0838  0.1218
   25TMC2    O5  401   3.283   0.042  11.658 -0.1862 -0.8739  0.3983
   25TMC2    H5  402   3.364   0.036  11.714  1.2186 -1.3274 -1.7096
   26MPD2     C  403   3.578   3.860  11.111  0.9149  0.5977 -0.2891
   26MPD2    C1  404   3.549   3.808  11.245 -0.1372 -0.6858  0.3007
   26MPD2    C2  405   3.526   3.902  11.343 -0.3437  0.2128 -0.5929
   26MPD2    C3  406   3.528   4.041  11.320 -0.1234 -0.0222 -0.5446
   26MPD2    C4  407   3.565   4.082  11.200 -0.1424  0.3001  0.2823
   26MPD2    C5  408   3.575   3.995  11.091 -0.0275 -0.6472 -0.5355
   26MPD2     H  409   3.498   3.872  11.444  0.7126 -2.0258 -0.9610
   26MPD2    H1  410   3.577   4.187  11.175 -1.6100  0.2370 -0.6531
   26MPD2    H2  411   3.604   3.811  11.018 -1.4521 -2.3819  0.6531
   26MPD2    H3  412   3.607   4.020  10.991  0.1533  0.7866 -0.1194
   26MPD2     N  413   3.505   4.138  11.429 -0.1094 -0.7222  0.4100
   26MPD2    H5  414   3.483   4.099  11.520 -1.9181  0.7577  0.6063
   26MPD2    N1  415   3.553   3.670  11.262 -0.2066 -0.2648 -0.1571
   26MPD2    H7  416   3.580   3.621  11.177  1.0208  1.6789 -0.8827
   27TMC2    C1  417   3.131   1.694  11.840  0.8662  0.4971 -0.2077
   27TMC2    C2  418   3.171   1.793  11.753  0.1379  0.8933  0.9080
   27TMC2    C3  419   3.270   1.880  11.794 -1.0861 -0.1548  0.4036
   27TMC2    C4  420   3.182   1.680  11.964  0.3988  0.0604  0.4796
   27TMC2    C5  421   3.278   1.772  12.000 -0.0229  0.1719  0.3661
   27TMC2    C6  422   3.327   1.871  11.917 -0.1933 -0.0495  0.4549
   27TMC2     C  423   2.995   1.653  11.821 -0.0864  0.2795  0.7085
   27TMC2     O  424   2.939   1.695  11.724  0.1514  0.1974  0.1318
   27TMC2     H  425   3.130   1.803  11.653 -0.0216  0.1486  0.8930
   27TMC2    H1  426   3.158   1.606  12.039  2.9900  0.2359  1.4654
   27TMC2    H2  427   3.397   1.948  11.944 -1.7241  1.3893  0.3479
   27TMC2    C7  428   3.329   1.761  12.139  0.3691 -0.2306 -0.1203
   27TMC2    C8  429   3.284   1.995  11.715  0.7962  0.0265 -0.5994
   27TMC2    O1  430   3.328   1.653  12.200 -0.2066 -0.0064 -0.4029
   27TMC2    O2  431   3.273   2.003  11.595 -0.5187 -0.0933 -0.4718
   27TMC2    O5  432   3.265   2.103  11.792 -0.0869  0.1680  0.4298
   27TMC2    H5  433   3.283   2.087  11.888 -0.4237 -3.0366 -0.0585
   28MPD2     C  434   2.535   1.485  11.986  0.5115 -0.1907 -0.8127
   28MPD2    C1  435   2.626   1.474  12.084  0.2348  0.4905  0.3772
   28MPD2    C2  436   2.765   1.502  12.063  0.6307  0.1693  0.0049
   28MPD2    C3  437   2.811   1.552  11.945  0.4490  0.3635  0.2868
   28MPD2    C4  438   2.717   1.562  11.846 -0.1755 -0.8144  0.4962
   28MPD2    C5  439   2.583   1.518  11.866 -0.4373 -0.0123  0.0406
   28MPD2     H  440   2.839   1.503  12.142 -2.2619  0.1440  2.7091
   28MPD2    H1  441   2.742   1.578  11.742  0.0713 -1.3927  0.4670
   28MPD2    H2  442   2.428   1.474  12.002  0.3412  1.2009 -0.9407
   28MPD2    H3  443   2.517   1.515  11.780 -0.3319 -4.5247  0.1270
   28MPD2     N  444   2.945   1.577  11.921  1.3059 -0.5175  0.2259
   28MPD2    H5  445   3.010   1.539  11.988  0.7289 -2.1552 -0.1403
   28MPD2    N1  446   2.581   1.432  12.212 -0.3829 -0.4153  0.1179
   28MPD2    H7  447   2.482   1.410  12.222 -0.5628  1.0091  1.5215
   29TMC2    C1  448   2.506   3.930  14.341 -0.1253 -0.1650  0.2457
   29TMC2    C2  449   2.409   4.008  14.392 -0.3506  0.3330  0.1169
   29TMC2    C3  450   2.444   4.139  14.428  0.3122  0.3721  0.0200
   29TMC2    C4  451   2.636   3.971  14.326  0.3308 -0.0159  1.4758
   29TMC2    C5  452   2.659   4.100  14.359  0.6029  0.7958 -0.1172
   29TMC2    C6  453   2.568   4.184  14.413 -0.4538 -0.0330  0.4515
   29TMC2     C  454   2.489   3.793  14.313  0.5246 -0.2944  0.0017
   29TMC2     O  455   2.586   3.722  14.304  0.4578 -0.2939  0.0768
   29TMC2     H  456   2.307   3.974  14.409 -0.2559 -0.2804 -0.5370
   29TMC2    H1  457   2.715   3.907  14.289 -0.6494 -0.7101  0.5830
   29TMC2    H2  458   2.590   4.287  14.437 -0.1540 -0.2392  1.0569
   29TMC2    C7  459   2.799   4.146  14.340  0.1785 -0.0218 -0.2200
   29TMC2    C8  460   2.344   4.215  14.502 -1.1742  0.4241 -0.1757
   29TMC2    O1  461   2.874   4.075  14.272 -0.2827 -0.0494  0.4734
   29TMC2    O2  462   2.226   4.194  14.480  0.3029  0.8801 -0.1700
   29TMC2    O5  463   2.401   4.258  14.608 -0.3064  0.2008 -0.9990
   29TMC2    H5  464   2.490   4.219  14.621 -0.8638 -0.6419  0.2432
   30MPD2     C  465   2.184   3.399  14.215  0.7347  0.1324 -0.2054
   30MPD2    C1  466   2.318   3.399  14.244  0.2014 -0.2703  0.6395
   30MPD2    C2  467   2.381   3.527  14.259  0.5476 -0.3142  0.5561
   30MPD2    C3  468   2.302   3.642  14.267  0.1647  0.0742 -0.7620
   30MPD2    C4  469   2.164   3.635  14.245 -0.8042  0.4313  0.0337
   30MPD2    C5  470   2.113   3.515  14.213  0.2915  0.4596  0.2723
   30MPD2     H  471   2.489   3.526  14.261  0.5632 -0.4590 -0.2961
   30MPD2    H1  472   2.107   3.726  14.251 -1.6313 -0.0714 -0.1811
   30MPD2    H2  473   2.135   3.305  14.191  0.3753  0.3126 -0.1846
   30MPD2    H3  474   2.009   3.503  14.185  0.2897  1.1302  0.0060
   30MPD2     N  475   2.357   3.769  14.291  0.1282 -0.1654 -0.4068
   30MPD2    H5  476   2.290   3.845  14.292 -0.0505 -0.3454  1.0177
   30MPD2    N1  477   2.405   3.285  14.241  0.3019 -0.5101  0.2934
   30MPD2    H7  478   2.505   3.302  14.245  0.2393 -0.4871  1.9302
   31TMC2    C1  479   0.228   2.402  16.084 -0.6042  0.0339  0.0138
   31TMC2    C2  480   0.132   2.498  16.092  0.2500  0.3381  0.5233
   31TMC2    C3  481   0.075   2.512  16.212  0.2021 -0.4655 -0.2157
   31TMC2    C4  482   0.263   2.319  16.191  0.0196 -0.3343  0.2827
   31TMC2    C5  483   0.188   2.325  16.308  0.2389 -0.1945  0.0667
   31TMC2    C6  484   0.092   2.419  16.321 -0.3296 -0.6870 -0.2754
   31TMC2     C  485   0.296   2.388  15.957 -0.2887 -0.0387 -0.2335
   31TMC2     O  486   0.226   2.424  15.860  0.5832 -0.7759 -0.9754
   31TMC2     H  487   0.106   2.554  16.003 -0.5435 -1.7558 -0.5621
   31TMC2    H1  488   0.334   2.238  16.177 -0.6130 -0.8185 -0.0685
   31TMC2    H2  489   0.038   2.438  16.413  0.9727 -0.2226  0.3956
   31TMC2    C7  490   0.221   2.221  16.401 -0.5278 -0.4653 -0.0460
   31TMC2    C8  491   4.691   2.597  16.218  0.3336  0.4813  0.1866
   31TMC2    O1  492   0.319   2.150  16.372  1.3228 -0.7002  0.6785
   31TMC2    O2  493   4.605   2.583  16.301 -0.0794 -0.0707 -0.1245
   31TMC2    O5  494   4.687   2.697  16.124  0.1217 -0.3127  0.6202
   31TMC2    H5  495   0.031   2.702  16.066 -1.0842 -1.3733 -1.0903
   32MPD2     C  496   0.714   2.411  15.665 -0.1424  0.2065 -0.0304
   32MPD2    C1  497   0.586   2.429  15.625 -0.1091 -0.0895  0.0009
   32MPD2    C2  498   0.488   2.416  15.726 -0.1031 -0.2226 -0.7050
   32MPD2    C3  499   0.517   2.380  15.857 -0.1781 -0.2992  0.8863
   32MPD2    C4  500   0.651   2.354  15.881  0.3742 -0.3387  0.0963
   32MPD2    C5  501   0.749   2.373  15.788 -0.1662 -0.0211  0.1609
   32MPD2     H  502   0.385   2.427  15.692  0.0780  0.3114 -1.0898
   32MPD2    H1  503   0.685   2.323  15.979  1.1196  1.0033  0.2563
   32MPD2    H2  504   0.791   2.424  15.590  0.1487 -0.4033  0.1578
   32MPD2    H3  505   0.856   2.375  15.808  0.1245 -0.5554 -1.3349
   32MPD2     N  506   0.428   2.366  15.963  0.0809  0.0888  0.0880
   32MPD2    H5  507   0.478   2.331  16.044 -1.0018  2.7275  1.8898
   32MPD2    N1  508   0.561   2.458  15.490 -0.0109  0.1842 -0.6026
   32MPD2    H7  509   0.649   2.476  15.442  1.0605  2.0174  2.0889
   33TMC2    C1  510   0.029   1.137  10.114 -0.7830  0.0782 -0.2170
   33TMC2    C2  511   4.631   1.131  10.093  0.4762  0.7274 -0.0311
   33TMC2    C3  512   4.575   1.241  10.030  0.3750 -0.5996  0.0310
   33TMC2    C4  513   0.110   1.233  10.064 -0.6879  0.1286  0.5373
   33TMC2    C5  514   0.052   1.341  10.002 -0.7792 -0.2110  0.5184
   33TMC2    C6  515   4.653   1.348   9.980 -0.3683  0.1794 -0.3171
   33TMC2     C  516   0.080   1.029  10.202  0.7712  0.6466  0.1495
   33TMC2     O  517   0.006   0.972  10.277 -0.1144  0.5056  0.0908
   33TMC2     H  518   4.564   1.052  10.125  1.6320 -0.5920 -0.8192
   33TMC2    H1  519   0.213   1.232  10.098  0.0542  0.8927 -1.6653
   33TMC2    H2  520   4.606   1.439   9.943 -0.4444 -0.0997 -0.8981
   33TMC2    C7  521   0.155   1.439   9.946 -0.2312 -0.3289  0.2611
   33TMC2    C8  522   4.432   1.259  10.004 -0.5260 -0.5628 -0.3171
   33TMC2    O1  523   0.271   1.413   9.968  0.3417  0.0536 -0.2015
   33TMC2    O2  524   4.377   1.330   9.924 -0.4584  0.2734 -0.0811
   33TMC2    O5  525   4.363   1.162  10.068 -0.3057  0.1393  0.0046
   33TMC2    H5  526   4.408   1.117  10.143  2.6436  2.2882 -0.4829
   34MPD2     C  527   0.456   0.741  10.402  0.0975  0.5504  0.0521
   34MPD2    C1  528   0.324   0.725  10.418 -0.4990  0.3969  0.0427
   34MPD2    C2  529   0.235   0.817  10.358  0.1393  0.1285 -0.1266
   34MPD2    C3  530   0.285   0.911  10.267  0.2800 -0.2835  0.3280
   34MPD2    C4  531   0.419   0.909  10.237  0.9255 -0.9039 -0.1554
   34MPD2    C5  532   0.506   0.830  10.309 -0.4545  0.1636  0.1636
   34MPD2     H  533   0.130   0.809  10.384  0.6568 -0.9039  1.6444
   34MPD2    H1  534   0.465   0.975  10.165 -0.8544 -0.0586 -0.5234
   34MPD2    H2  535   0.526   0.681  10.459 -0.3804  1.8614  2.0165
   34MPD2    H3  536   0.613   0.829  10.291 -0.3164 -1.1263  1.0687
   34MPD2     N  537   0.209   0.992  10.186 -0.3837  0.1696 -0.3654
   34MPD2    H5  538   0.257   1.042  10.112  1.7558  0.4721  1.2043
   34MPD2    N1  539   0.289   0.630  10.519  0.1405  0.7869  0.2834
   34MPD2    H7  540   0.368   0.577  10.553  0.1385 -0.3576 -1.5590
   35TMC2    C1  541   1.947   1.773  11.150 -0.6827  0.3407  0.5299
   35TMC2    C2  542   1.902   1.879  11.080 -0.3774 -0.1328  0.3385
   35TMC2    C3  543   1.786   1.877  11.012 -0.5355 -0.4923  0.5041
   35TMC2    C4  544   1.860   1.669  11.162 -0.1963  0.4953  0.0662
   35TMC2    C5  545   1.738   1.667  11.098  0.7501  0.1649 -0.4868
   35TMC2    C6  546   1.700   1.771  11.021 -0.5210 -0.4037  0.1208
   35TMC2     C  547   2.038   1.791  11.263  0.7662 -1.1672  0.4837
   35TMC2     O  548   2.145   1.852  11.248 -0.3012  0.4691 -0.0936
   35TMC2     H  549   1.967   1.966  11.081  0.8510 -1.0530  0.3301
   35TMC2    H1  550   1.900   1.578  11.204  0.6016  0.7130 -0.2203
   35TMC2    H2  551   1.603   1.777  10.973 -0.4908  0.6359  0.1883
   35TMC2    C7  552   1.653   1.548  11.117  0.0108 -0.0583 -0.0388
   35TMC2    C8  553   1.737   2.001  10.970  0.1091 -0.2065  0.0372
   35TMC2    O1  554   1.707   1.444  11.152  0.2752  0.5156 -0.1226
   35TMC2    O2  555   1.771   2.047  10.859 -0.1725  0.1288 -0.0275
   35TMC2    O5  556   1.708   2.073  11.083 -0.0049 -0.2474  0.1886
   35TMC2    H5  557   1.677   2.024  11.162 -1.9241  3.5092  1.7547
   36MPD2     C  558   2.199   1.589  11.710 -0.8132  0.1841 -0.1788
   36MPD2    C1  559   2.061   1.575  11.701 -0.6260  0.5539  0.6913
   36MPD2    C2  560   1.995   1.611  11.589  0.3935 -0.4217 -0.4421
   36MPD2    C3  561   2.062   1.676  11.486 -0.0469 -1.3916 -0.7779
   36MPD2    C4  562   2.197   1.706  11.505 -0.2912 -0.4951 -0.4515
   36MPD2    C5  563   2.263   1.667  11.621 -0.3912  0.2025 -0.1874
   36MPD2     H  564   1.892   1.582  11.574  0.4891 -1.5616  1.0446
   36MPD2    H1  565   2.252   1.750  11.423  0.2784  2.6384  1.6013
   36MPD2    H2  566   2.260   1.558  11.794  0.0626  1.3536 -0.3754
   36MPD2    H3  567   2.368   1.690  11.630 -0.3705  0.2696 -0.5641
   36MPD2     N  568   1.987   1.720  11.373  0.1757 -0.2288  0.0948
   36MPD2    H5  569   1.886   1.712  11.375 -0.0431  2.1676 -1.4327
   36MPD2    N1  570   1.993   1.514  11.809 -0.6142 -0.1873 -0.2911
   36MPD2    H7  571   2.056   1.460  11.868  1.2424 -1.1103 -3.1270
   37TMC2    C1  572   4.043   2.269  12.239  0.4416 -0.3523  0.2250
   37TMC2    C2  573   3.980   2.363  12.162 -0.2445 -0.8638 -0.1358
   37TMC2    C3  574   4.054   2.452  12.089 -0.0763 -0.0978 -0.2319
   37TMC2    C4  575   4.176   2.267  12.247  0.9281 -0.5919 -0.2154
   37TMC2    C5  576   4.247   2.351  12.164 -0.1895  0.0586 -0.7719
   37TMC2    C6  577   4.189   2.446  12.084  0.4278  0.0068 -0.3796
   37TMC2     C  578   3.960   2.199  12.337  0.3275 -0.2234  0.2069
   37TMC2     O  579   3.841   2.220  12.329  0.1081  0.2950  0.2135
   37TMC2     H  580   3.877   2.348  12.132 -0.2376 -2.0587  0.4193
   37TMC2    H1  581   4.233   2.193  12.303  0.3377  0.3351  1.6276
   37TMC2    H2  582   4.233   2.519  12.017  3.9433  1.5380  3.6051
   37TMC2    C7  583   4.390   2.327  12.153  0.1674  0.0322  0.0336
   37TMC2    C8  584   3.993   2.539  11.997 -0.2263  0.5959  0.2443
   37TMC2    O1  585   4.441   2.264  12.246 -0.1915 -0.8212 -0.3142
   37TMC2    O2  586   3.904   2.607  12.033  0.2445  0.3284 -0.6626
   37TMC2    O5  587   3.973   2.465  11.885  0.4166  0.0564 -0.0323
   37TMC2    H5  588   4.040   2.394  11.877 -0.4210 -0.7863  0.4119
   38MPD2     C  589   3.870   1.791  12.634  0.1027  0.0488  1.3661
   38MPD2    C1  590   3.994   1.767  12.565  1.2320  0.3643 -0.1043
   38MPD2    C2  591   4.039   1.866  12.482 -0.0125  0.3216  0.0119
   38MPD2    C3  592   3.970   1.991  12.472  0.1733  0.2525  0.6150
   38MPD2    C4  593   3.862   2.017  12.552 -0.3316  0.0721  0.6213
   38MPD2    C5  594   3.809   1.912  12.627 -0.0589  0.5409  0.4791
   38MPD2     H  595   4.118   1.846  12.410 -0.6877  3.0738 -1.5332
   38MPD2    H1  596   3.807   2.110  12.548  1.1364  0.9223  0.2595
   38MPD2    H2  597   3.825   1.718  12.700  1.5832 -0.6897  1.5630
   38MPD2    H3  598   3.708   1.930  12.662 -0.3028  0.2985 -0.0870
   38MPD2     N  599   4.026   2.090  12.389  0.3258 -0.0558  0.1569
   38MPD2    H5  600   4.116   2.066  12.348 -0.4212 -2.4739 -0.1066
   38MPD2    N1  601   4.063   1.645  12.568  0.1134 -0.4101  0.1781
   38MPD2    H7  602   4.140   1.634  12.502  0.6736 -0.5205  0.8464
   39TMC2    C1  603   2.160   3.774   1.333 -0.3606  0.0165 -0.0139
   39TMC2    C2  604   2.089   3.850   1.426  0.0077  0.3562  0.4163
   39TMC2    C3  605   2.146   3.968   1.472 -0.9594 -0.2906 -0.2850
   39TMC2    C4  606   2.275   3.824   1.278 -0.2321 -0.1756 -0.3239
   39TMC2    C5  607   2.339   3.932   1.338  0.6158  0.4043  0.1225
   39TMC2    C6  608   2.272   4.008   1.436 -0.5478  0.7378 -0.3043
   39TMC2     C  609   2.094   3.660   1.274 -0.0856 -0.4977  0.0046
   39TMC2     O  610   1.975   3.635   1.297  0.0838 -0.4545 -0.6460
   39TMC2     H  611   1.993   3.811   1.456  0.8888 -1.9054  0.2518
   39TMC2    H1  612   2.323   3.779   1.192 -1.5668 -0.2765 -1.0158
   39TMC2    H2  613   2.299   4.099   1.487  0.7597 -0.8529  1.8063
   39TMC2    C7  614   2.479   3.962   1.307 -0.5364  0.0639  0.7134
   39TMC2    C8  615   2.071   4.062   1.549 -0.3459 -0.5922  0.0361
   39TMC2    O1  616   2.543   3.875   1.254  0.2488  0.0762 -0.2320
   39TMC2    O2  617   2.103   4.079   1.668 -0.0789 -0.1146  0.1030
   39TMC2    O5  618   2.049   4.159   1.460 -0.3992 -0.1179  0.3371
   39TMC2    H5  619   2.040   4.120   1.371 -3.0876  0.0234  0.5265
   40MPD2     C  620   2.258   3.389   1.099 -0.0549  0.0010  0.2468
   40MPD2    C1  621   2.161   3.449   1.172  0.3731 -0.0945 -0.1173
   40MPD2    C2  622   2.043   3.379   1.193 -0.9095  0.8564 -0.1068
   40MPD2    C3  623   2.012   3.265   1.122 -0.5561 -0.2902  0.0530
   40MPD2    C4  624   2.110   3.215   1.035  0.1963  0.0984 -0.3366
   40MPD2    C5  625   2.232   3.282   1.024 -0.1216  0.2526  0.4803
   40MPD2     H  626   1.971   3.421   1.263 -0.1776  1.3485  0.3504
   40MPD2    H1  627   2.089   3.141   0.959  2.6027 -1.8493  0.9162
   40MPD2    H2  628   2.351   3.436   1.068 -0.8749  1.2357 -0.3591
   40MPD2    H3  629   2.301   3.255   0.944  0.5414  1.6451  0.5790
   40MPD2     N  630   1.896   3.183   1.147 -0.5036 -0.0656  0.0759
   40MPD2    H5  631   1.895   3.095   1.097  0.4612 -0.3617  0.5948
   40MPD2    N1  632   2.189   3.581   1.220 -0.5715  0.2342 -0.0881
   40MPD2    H7  633   2.283   3.616   1.203 -1.0868  1.3443 -0.5822
   41TMC2    C1  634   1.585   1.847  13.478 -0.1129 -0.1585 -0.2231
   41TMC2    C2  635   1.665   1.922  13.562 -0.2086 -0.8328  0.1378
   41TMC2    C3  636   1.706   2.051  13.518  0.5412 -0.4453  0.3625
   41TMC2    C4  637   1.553   1.883  13.352  0.8302 -0.1404  0.1483
   41TMC2    C5  638   1.601   2.009  13.309  0.3814  0.2784  0.1757
   41TMC2    C6  639   1.661   2.095  13.395  0.0121  0.0877  0.2118
   41TMC2     C  640   1.518   1.728  13.527  0.3126 -0.0044  0.0865
   41TMC2     O  641   1.453   1.664  13.442  0.7540 -0.5304 -0.1584
   41TMC2     H  642   1.680   1.894  13.665 -0.5550  1.1747  0.7375
   41TMC2    H1  643   1.489   1.822  13.289  0.8132  2.6844 -2.5323
   41TMC2    H2  644   1.691   2.189  13.349  1.0318  0.3328  1.3757
   41TMC2    C7  645   1.570   2.051  13.172 -0.3249 -0.1014 -0.1145
   41TMC2    C8  646   1.785   2.134  13.607 -0.1849  0.4787 -0.2147
   41TMC2    O1  647   1.540   2.167  13.166  0.8702 -0.5850 -0.6874
   41TMC2    O2  648   1.897   2.103  13.645 -0.4858 -0.4746  0.1640
   41TMC2    O5  649   1.693   2.209  13.677  0.6177 -0.3792  0.1137
   41TMC2    H5  650   1.620   2.232  13.616  0.0814 -0.4664  0.7180
   42MPD2     C  651   1.348   1.532  13.707 -0.5219 -0.5464 -0.2034
   42MPD2    C1  652   1.453   1.617  13.748 -0.5904  0.7556 -0.1640
   42MPD2    C2  653   1.492   1.603  13.879  0.0597 -0.2860  0.1448
   42MPD2    C3  654   1.433   1.522  13.973 -0.5788 -0.0286  0.3886
   42MPD2    C4  655   1.326   1.449  13.926  0.2665 -0.1404  0.7995
   42MPD2    C5  656   1.279   1.453  13.796  0.1617  0.0830  0.6167
   42MPD2     H  657   1.578   1.664  13.905 -1.4339  0.8109  2.6100
   42MPD2    H1  658   1.267   1.392  13.997  0.2512 -2.7768 -1.3182
   42MPD2    H2  659   1.304   1.553  13.610 -1.1239 -0.8805  0.0007
   42MPD2    H3  660   1.187   1.400  13.775  0.9448 -1.0610  0.0638
   42MPD2     N  661   1.478   1.497  14.102  0.0747 -0.3413  0.2187
   42MPD2    H5  662   1.424   1.422  14.145 -0.6130 -0.4088 -0.7624
   42MPD2    N1  663   1.523   1.712  13.665 -0.1064  0.1914  0.0720
   42MPD2    H7  664   1.587   1.771  13.718  0.5003 -1.2759  0.9535
   43TMC2    C1  665   2.724   4.508   0.176 -0.4922 -0.2369 -0.3123
   43TMC2    C2  666   2.596   4.534   0.143 -0.7280  0.6258 -0.5330
   43TMC2    C3  667   2.521   4.562   0.255 -0.0211  0.0503  0.3284
   43TMC2    C4  668   2.781   4.511   0.305  0.0907 -0.2972 -0.2871
   43TMC2    C5  669   2.701   4.546   0.410  0.0561 -0.2664 -0.0292
   43TMC2    C6  670   2.569   4.580   0.383  0.2750 -0.0863 -0.0788
   43TMC2     C  671   2.819   4.467   0.072  0.5701  0.6089  1.0061
   43TMC2     O  672   2.911   4.390   0.106 -0.5132  0.3354 -0.3756
   43TMC2     H  673   2.548   4.498   0.053 -0.7859 -2.0432  0.5789
   43TMC2    H1  674   2.881   4.481   0.333  1.2366  1.6540 -2.2579
   43TMC2    H2  675   2.499   4.603   0.463 -0.4903 -0.7523 -0.5531
   43TMC2    C7  676   2.754   4.533   0.543  0.3912  0.7204 -0.4516
   43TMC2    C8  677   2.371   4.574   0.237  0.3171  0.0703 -0.4072
   43TMC2    O1  678   2.844   4.449   0.565  0.3705  0.0841 -0.6643
   43TMC2    O2  679   2.320   4.623   0.132  0.4556 -0.1420  0.2325
   43TMC2    O5  680   2.333   4.471   0.308  0.3111  0.3022 -0.4403
   43TMC2    H5  681   2.402   4.423   0.360  1.2842  0.0365 -1.9690
   44MPD2     C  682   2.946   4.441  17.321  0.7753  0.3537 -0.1819
   44MPD2    C1  683   3.011   4.393  17.434 -0.1647 -0.4437 -0.0861
   44MPD2    C2  684   2.951   4.425  17.554  0.1739  0.5427 -0.0343
   44MPD2    C3  685   2.820   4.479  17.560 -0.4556  0.2355 -0.1503
   44MPD2    C4  686   2.754   4.519  17.449  0.2665 -0.0188  0.3703
   44MPD2    C5  687   2.815   4.489  17.329  0.4266  0.0771  1.1804
   44MPD2     H  688   3.000   4.400  17.647 -1.1754  1.4654  0.9249
   44MPD2    H1  689   2.654   4.563  17.447 -0.1435 -0.8745  2.0353
   44MPD2    H2  690   2.985   4.427  17.221  2.4450 -1.4077  0.7182
   44MPD2    H3  691   2.768   4.512  17.234 -0.0492 -2.4205  0.8258
   44MPD2     N  692   2.770   4.509  17.687  0.4797 -1.5544 -0.1605
   44MPD2    H5  693   2.687   4.567  17.689  2.9558  1.9259 -0.1503
   44MPD2    N1  694   3.137   4.326  17.431  0.7457  0.0215  0.4078
   44MPD2    H7  695   3.178   4.307  17.522 -2.4302 -3.6372  1.0723
   45TMC2    C1  696   3.720   1.309  10.460 -0.2659  0.4506  0.2251
   45TMC2    C2  697   3.759   1.198  10.535  0.2522  0.6958 -0.8852
   45TMC2    C3  698   3.809   1.219  10.658 -0.2853  0.2261  0.1822
   45TMC2    C4  699   3.753   1.433  10.496 -0.1363  0.0592  1.0118
   45TMC2    C5  700   3.835   1.446  10.608 -0.0429  0.3700  0.4549
   45TMC2    C6  701   3.856   1.347  10.698 -0.0761  0.4879  0.1894
   45TMC2     C  702   3.643   1.288  10.335 -0.0714 -0.6852 -0.3775
   45TMC2     O  703   3.592   1.178  10.324  0.2682 -0.1897 -0.2785
   45TMC2     H  704   3.719   1.100  10.512  1.7704 -0.0705 -0.3082
   45TMC2    H1  705   3.734   1.526  10.445 -0.2964  1.5049  3.6918
   45TMC2    H2  706   3.908   1.367  10.791 -0.4945 -3.5155  1.3012
   45TMC2    C7  707   3.905   1.576  10.637 -0.3671  0.1928  0.0095
   45TMC2    C8  708   3.814   1.107  10.738 -0.9209 -0.2030 -0.4246
   45TMC2    O1  709   3.944   1.595  10.753  0.6952 -0.2331 -0.1073
   45TMC2    O2  710   3.727   1.021  10.737 -0.4059  0.1765 -0.4298
   45TMC2    O5  711   3.912   1.128  10.823  0.3834 -0.0516 -0.1498
   45TMC2    H5  712   3.976   1.194  10.788 -1.1480  1.1935 -0.5835
   46MPD2     C  713   3.441   1.300  10.115  0.1324  0.1518 -0.1440
   46MPD2    C1  714   3.528   1.402  10.156 -0.5862 -0.1412  0.0791
   46MPD2    C2  715   3.521   1.521  10.088 -0.1620  0.3630 -0.4333
   46MPD2    C3  716   3.429   1.543   9.988 -0.4185 -0.2365 -0.6071
   46MPD2    C4  717   3.349   1.438   9.944 -0.6018 -0.6320 -0.8977
   46MPD2    C5  718   3.352   1.320  10.012  0.0098 -0.4822  0.0790
   46MPD2     H  719   3.573   1.605  10.132 -0.0938  0.1664 -0.1372
   46MPD2    H1  720   3.265   1.458   9.878 -0.5906 -0.0443 -0.7332
   46MPD2    H2  721   3.435   1.204  10.164  2.6761  0.2407  0.3325
   46MPD2    H3  722   3.276   1.246   9.989  1.1116 -1.5278 -0.2576
   46MPD2     N  723   3.424   1.679   9.934 -0.4691  0.1147  0.4335
   46MPD2    H5  724   3.495   1.740   9.973  0.0133  0.4525 -0.9508
   46MPD2    N1  725   3.618   1.392  10.257 -0.6194  0.2055 -0.0844
   46MPD2    H7  726   3.681   1.470  10.274  0.8694 -0.7058 -1.4530
   47TMC2    C1  727   1.290   3.374   9.069 -0.4579 -0.0230  0.0560
   47TMC2    C2  728   1.280   3.252   9.001 -0.6905  0.4349  0.1184
   47TMC2    C3  729   1.249   3.267   8.868 -0.3721 -0.2580  0.1402
   47TMC2    C4  730   1.244   3.496   9.019  0.2655 -0.3067 -0.1925
   47TMC2    C5  731   1.193   3.489   8.892  0.0271 -0.3897 -0.3052
   47TMC2    C6  732   1.198   3.382   8.812  0.3409 -0.7500 -0.2597
   47TMC2     C  733   1.366   3.385   9.190  0.2947 -0.6401 -0.1031
   47TMC2     O  734   1.388   3.495   9.245 -0.6265 -0.1016 -0.0913
   47TMC2     H  735   1.337   3.164   9.028 -1.0863  0.0630 -0.2486
   47TMC2    H1  736   1.243   3.584   9.083  0.6300 -1.2523  1.1175
   47TMC2    H2  737   1.165   3.393   8.710  0.7778  0.2998 -0.2810
   47TMC2    C7  738   1.142   3.610   8.835  0.5233  0.3356  0.1226
   47TMC2    C8  739   1.272   3.148   8.794 -0.1523  0.4019 -0.0572
   47TMC2    O1  740   1.151   3.627   8.714 -0.3763  0.2595  1.1333
   47TMC2    O2  741   1.352   3.060   8.830 -0.1098 -0.0375 -0.7751
   47TMC2    O5  742   1.174   3.145   8.703 -0.2652  0.0398  0.5069
   47TMC2    H5  743   1.118   3.226   8.703  0.8028  0.7859 -0.7900
   48MPD2     C  744   1.545   3.332   9.432  0.3993 -0.1226  0.2528
   48MPD2    C1  745   1.499   3.237   9.336  0.9855 -0.0316  0.3637
   48MPD2    C2  746   1.538   3.111   9.356  0.2563  0.1908 -0.2791
   48MPD2    C3  747   1.621   3.067   9.456 -0.4243 -0.0295 -0.0206
   48MPD2    C4  748   1.669   3.156   9.552  0.2894 -0.6803 -0.8275
   48MPD2    C5  749   1.621   3.284   9.541  0.0732 -0.7107 -0.6253
   48MPD2     H  750   1.480   3.044   9.293  0.7836 -1.3897  0.9318
   48MPD2    H1  751   1.734   3.132   9.636 -0.2638 -0.6439 -0.3954
   48MPD2    H2  752   1.509   3.434   9.424 -2.1107 -1.0889 -0.8042
   48MPD2    H3  753   1.647   3.353   9.621  0.6013 -1.2782 -0.3068
   48MPD2     N  754   1.654   2.926   9.452 -0.5981 -0.0757  0.3021
   48MPD2    H5  755   1.580   2.877   9.402 -0.6593  1.1667 -0.8260
   48MPD2    N1  756   1.422   3.267   9.225 -0.0863 -0.1485 -0.0639
   48MPD2    H7  757   1.402   3.187   9.166 -0.9887  0.5470 -0.7032
   49TMC2    C1  758   2.680   0.153   9.997  0.1107  0.2289 -0.2852
   49TMC2    C2  759   2.638   0.045  10.056 -0.0290  0.4128 -0.3040
   49TMC2    C3  760   2.526   4.721   9.997  0.7474  0.5939 -0.2433
   49TMC2    C4  761   2.623   0.205   9.891  0.1296 -0.5104  1.0447
   49TMC2    C5  762   2.515   0.151   9.833 -0.1736 -0.2386 -0.1943
   49TMC2    C6  763   2.463   0.033   9.879  0.4838  0.0064 -0.0142
   49TMC2     C  764   2.811   0.209  10.032 -0.2356  0.0845  0.0158
   49TMC2     O  765   2.864   0.279   9.944 -0.8486 -0.3737 -0.3221
   49TMC2     H  766   2.678   0.008  10.150 -0.1917  2.7553  0.7052
   49TMC2    H1  767   2.655   0.304   9.861 -0.9984 -1.0451 -1.9135
   49TMC2    H2  768   2.371   4.725   9.841  0.4376 -1.1419  1.4087
   49TMC2    C7  769   2.467   0.212   9.711  0.1044  0.8769 -0.0054
   49TMC2    C8  770   2.467   4.602  10.063  0.1016  0.0793  0.1606
   49TMC2    O1  771   2.480   0.333   9.704  0.6506 -0.2357 -0.2085
   49TMC2    O2  772   2.347   4.580  10.045  0.3067 -0.0184  0.1088
   49TMC2    O5  773   2.571   4.521  10.083  0.2788 -0.1903 -0.2114
   49TMC2    H5  774   2.663   4.555  10.072  0.0882  0.8869  1.4850
   50MPD2     C  775   3.090   0.282  10.136 -0.4868  0.1887 -0.2463
   50MPD2    C1  776   2.987   0.214  10.205  0.6088 -0.3569  0.1319
   50MPD2    C2  777   3.014   0.150  10.331  0.0793  0.1125 -0.3605
   50MPD2    C3  778   3.140   0.163  10.388  0.4174  0.6571 -0.2340
   50MPD2    C4  779   3.233   0.238  10.318 -0.2834 -0.3801 -0.0912
   50MPD2    C5  780   3.212   0.292  10.198 -0.2503  0.7602 -0.8025
   50MPD2     H  781   2.937   0.091  10.379 -0.0530  0.7802  0.2346
   50MPD2    H1  782   3.328   0.269  10.362 -1.2389  0.8159  1.1679
   50MPD2    H2  783   3.075   0.335  10.043  0.6005 -0.7554 -0.9646
   50MPD2    H3  784   3.283   0.349  10.139 -0.9111  0.9702 -1.3938
   50MPD2     N  785   3.171   0.108  10.516 -0.1381  0.3729 -0.1348
   50MPD2    H5  786   3.251   0.145  10.566  0.5814  1.9015 -2.3842
   50MPD2    N1  787   2.860   0.193  10.158  0.2793  0.0654 -0.2355
   50MPD2    H7  788   2.802   0.147  10.228 -0.8594  0.1949 -1.0984
   51TMC2    C1  789   3.914   3.278   1.097  0.1199 -0.5722  0.1742
   51TMC2    C2  790   3.788   3.332   1.079  0.4633 -0.5566 -0.1348
   51TMC2    C3  791   3.760   3.407   0.970  0.4888  0.3063  0.5843
   51TMC2    C4  792   4.018   3.318   1.015  0.1304 -0.3817  0.8789
   51TMC2    C5  793   3.988   3.391   0.909 -0.6995 -0.1645  0.0071
   51TMC2    C6  794   3.857   3.422   0.873 -0.1851 -0.1720  0.2006
   51TMC2     C  795   3.953   3.204   1.216  0.2068 -0.0405 -0.5886
   51TMC2     O  796   4.076   3.173   1.230  0.0792  0.0144 -0.3398
   51TMC2     H  797   3.704   3.314   1.146  1.3219 -0.8863  0.8563
   51TMC2    H1  798   4.120   3.286   1.034  0.4903  1.0867  1.3787
   51TMC2    H2  799   3.829   3.493   0.797  1.4527 -0.6921 -0.8991
   51TMC2    C7  800   4.095   3.438   0.825 -0.2095 -0.2668  0.7949
   51TMC2    C8  801   3.629   3.389   0.932 -0.4370  0.3848 -0.2049
   51TMC2    O1  802   4.209   3.402   0.849 -0.0598 -0.4262  0.2833
   51TMC2    O2  803   3.538   3.443   0.990  0.2341  0.2413  0.1593
   51TMC2    O5  804   3.641   3.359   0.803  0.2450 -0.1674 -0.0164
   51TMC2    H5  805   3.723   3.307   0.792  0.2554 -0.3111  0.7426
   52MPD2     C  806   3.841   2.919   1.634  0.0566  0.5140  0.3728
   52MPD2    C1  807   3.960   2.947   1.571  0.4106  0.1558  0.1687
   52MPD2    C2  808   3.968   3.032   1.467 -0.5267 -0.1137  0.7205
   52MPD2    C3  809   3.857   3.099   1.426  0.3743 -0.4336 -0.1705
   52MPD2    C4  810   3.739   3.083   1.493 -1.0271 -0.4282 -0.2670
   52MPD2    C5  811   3.729   2.986   1.589  0.0363 -0.6212 -0.7723
   52MPD2     H  812   4.065   3.029   1.419 -1.0900  1.4174 -0.4807
   52MPD2    H1  813   3.645   3.123   1.457 -1.1733  1.3005  2.0187
   52MPD2    H2  814   3.835   2.849   1.717 -0.1923 -1.5874 -1.3937
   52MPD2    H3  815   3.636   2.963   1.640  1.3150 -1.1351  1.3338
   52MPD2     N  816   3.849   3.182   1.309 -0.4771 -0.1603 -0.3546
   52MPD2    H5  817   3.760   3.228   1.291 -0.0684  0.7483 -0.0322
   52MPD2    N1  818   4.078   2.893   1.612 -0.0463 -0.3734 -0.5189
   52MPD2    H7  819   4.150   2.907   1.542  1.6894 -0.8481  1.1602
   53TMC2    C1  820   0.280   1.977  12.220  0.4447  0.1360  0.1815
   53TMC2    C2  821   0.395   1.907  12.196 -0.0013  0.2682 -0.4641
   53TMC2    C3  822   0.416   1.796  12.274 -0.6953 -0.0044 -0.0818
   53TMC2    C4  823   0.182   1.938  12.310 -0.3677  0.5828  0.1616
   53TMC2    C5  824   0.210   1.836  12.398 -0.6801 -0.1354  1.2116
   53TMC2    C6  825   0.333   1.762  12.380 -0.2348 -0.7720  0.1690
   53TMC2     C  826   0.249   2.075  12.111 -0.2812  0.5879  0.1085
   53TMC2     O  827   0.317   2.080  12.008 -0.0780  0.0210  0.1803
   53TMC2     H  828   0.460   1.916  12.110 -0.8979  0.8326 -1.0741
   53TMC2    H1  829   0.091   1.995  12.322 -0.6777  0.0218  0.4868
   53TMC2    H2  830   0.368   1.681  12.442 -1.9586 -2.1459 -0.6491
   53TMC2    C7  831   0.121   1.818  12.517 -0.1490  0.7355 -0.0600
   53TMC2    C8  832   0.494   1.689  12.205 -0.5099 -0.4237  0.1717
   53TMC2    O1  833   0.054   1.910  12.564  0.4981  0.0438 -0.0379
   53TMC2    O2  834   0.506   1.685  12.084 -0.0176 -0.2587 -0.0063
   53TMC2    O5  835   0.594   1.663  12.291 -0.0790  0.5513  0.2169
   53TMC2    H5  836   0.572   1.693  12.382  1.7170 -2.2584  1.5853
   54MPD2     C  837   0.094   2.236  11.894  1.0178 -0.7652  0.2896
   54MPD2    C1  838   0.053   2.206  12.025  0.0134  0.0137 -0.7792
   54MPD2    C2  839   4.666   2.254  12.068 -0.7801 -0.7308 -0.2132
   54MPD2    C3  840   4.579   2.326  11.985 -0.3411 -0.3145 -0.2280
   54MPD2    C4  841   4.625   2.353  11.857 -0.2410  0.4818 -0.7894
   54MPD2    C5  842   0.014   2.315  11.815 -0.2386  0.4395 -0.0486
   54MPD2     H  843   4.642   2.243  12.173 -0.4433  1.6624  0.1159
   54MPD2    H1  844   4.561   2.410  11.791 -2.8848  0.0524  1.3936
   54MPD2    H2  845   0.183   2.191  11.853  0.9198 -1.5199  0.9032
   54MPD2    H3  846   0.046   2.341  11.715 -1.1903 -2.1227 -1.0428
   54MPD2     N  847   4.447   2.366  12.027 -0.0150  0.8439 -0.0554
   54MPD2    H5  848   4.386   2.420  11.966  2.6266  2.6522 -1.1280
   54MPD2    N1  849   0.121   2.126  12.123 -0.1480 -0.1042 -0.2143
   54MPD2    H7  850   0.064   2.116  12.206 -0.7006 -1.3277 -0.7298
   55TMC2    C1  851   0.764   0.427   0.207 -0.7218 -0.0795 -0.0084
   55TMC2    C2  852   0.785   0.464   0.076 -0.4305 -0.0406  0.0433
   55TMC2    C3  853   0.855   0.384  17.738  0.4235 -0.0970  0.6949
   55TMC2    C4  854   0.804   0.306   0.249 -0.5278 -0.7742  0.0884
   55TMC2    C5  855   0.873   0.218   0.166 -0.1806  0.0858  0.3030
   55TMC2    C6  856   0.894   0.255   0.036  0.0406 -0.0820 -0.2613
   55TMC2     C  857   0.642   0.475   0.279  0.1789 -0.2668 -0.2244
   55TMC2     O  858   0.587   0.397   0.354  0.0795  0.1776  0.4799
   55TMC2     H  859   0.774   0.566   0.043 -1.7867  0.1355  1.0338
   55TMC2    H1  860   0.801   0.281   0.354 -1.3986  1.0505  0.4944
   55TMC2    H2  861   0.958   0.200  17.708  0.3598  1.5294 -1.2674
   55TMC2    C7  862   0.892   0.074   0.193  0.4202  0.6104  0.2788
   55TMC2    C8  863   0.932   0.445  17.631  0.2661  0.3581  0.2669
   55TMC2    O1  864   0.956   0.016   0.104 -0.4987 -0.0410 -0.2663
   55TMC2    O2  865   0.889   0.528  17.561  0.0358 -0.0029  0.2436
   55TMC2    O5  866   1.052   0.436  17.677  0.1991 -0.7300 -0.6514
   55TMC2    H5  867   1.069   0.388   0.021 -1.6307  1.9580  1.2587
   56MPD2     C  868   0.487   0.793   0.224 -0.2548 -0.0785  1.8009
   56MPD2    C1  869   0.496   0.661   0.255  0.5345 -0.5755 -0.2286
   56MPD2    C2  870   0.387   0.592   0.309 -0.1753 -0.4138  0.2661
   56MPD2    C3  871   0.268   0.662   0.321 -0.2182 -0.0028 -0.4053
   56MPD2    C4  872   0.246   0.785   0.257  0.1965 -0.0198 -0.3405
   56MPD2    C5  873   0.365   0.849   0.217  0.5974  0.3643 -0.1558
   56MPD2     H  874   0.388   0.484   0.325  1.6102 -0.3686  0.5011
   56MPD2    H1  875   0.154   0.843   0.259 -0.8745 -1.6944 -0.5924
   56MPD2    H2  876   0.575   0.853   0.203  0.4680 -1.7783 -0.0422
   56MPD2    H3  877   0.362   0.955   0.195 -0.0615  0.3617 -0.0677
   56MPD2     N  878   0.158   0.586   0.380 -0.3798  0.2082  0.1853
   56MPD2    H5  879   0.179   0.488   0.397 -0.0176  0.4500  1.1151
   56MPD2    N1  880   0.617   0.600   0.234  0.1524  0.0416 -0.4818
   56MPD2    H7  881   0.686   0.651   0.181 -0.5619 -0.4342 -1.8570
   57TMC2    C1  882   0.178   0.788  13.537 -0.6915  0.0757  0.4996
   57TMC2    C2  883   0.238   0.714  13.643 -0.3040 -1.2875 -0.5568
   57TMC2    C3  884   0.349   0.645  13.608  0.5988 -0.3387 -0.4092
   57TMC2    C4  885   0.211   0.795  13.410  0.0505 -0.1615 -0.0385
   57TMC2    C5  886   0.325   0.720  13.379  0.4347  0.3250 -0.1744
   57TMC2    C6  887   0.392   0.642  13.475  0.0686 -0.7461 -0.9585
   57TMC2     C  888   0.055   0.855  13.566 -0.2524 -0.2374  0.1292
   57TMC2     O  889   4.732   0.903  13.471 -0.6974  0.4317 -0.1662
   57TMC2     H  890   0.181   0.700  13.734 -1.1183 -0.6279 -0.9669
   57TMC2    H1  891   0.148   0.836  13.331 -0.3584  0.7641  0.7694
   57TMC2    H2  892   0.472   0.572  13.453  0.4173 -0.0851 -1.7642
   57TMC2    C7  893   0.340   0.679  13.240  0.6638  0.0706  0.6235
   57TMC2    C8  894   0.431   0.581  13.702 -0.1111  0.2185 -0.8017
   57TMC2    O1  895   0.324   0.760  13.150 -0.2832 -0.4943  0.6442
   57TMC2    O2  896   0.492   0.482  13.677 -0.0589  0.6115 -0.6438
   57TMC2    O5  897   0.412   0.623  13.832 -1.0176  0.3484  0.0928
   57TMC2    H5  898   0.357   0.702  13.849 -2.2521 -0.3530 -0.5804
   58MPD2     C  899   4.420   1.000  13.872 -0.4801 -0.2758  0.7149
   58MPD2    C1  900   4.407   0.966  13.738 -0.0113 -0.1713 -0.3185
   58MPD2    C2  901   4.524   0.925  13.675  0.5737  0.2271  0.3385
   58MPD2    C3  902   4.647   0.924  13.746 -0.6785 -0.8103 -0.0074
   58MPD2    C4  903   4.655   0.959  13.878 -0.0498  0.2537  0.1706
   58MPD2    C5  904   4.542   1.009  13.938 -0.4514 -0.4379  0.0626
   58MPD2     H  905   4.518   0.876  13.578  0.6859  3.5666 -1.3467
   58MPD2    H1  906   0.013   0.953  13.932 -0.1564 -1.5824  0.1626
   58MPD2    H2  907   4.331   1.031  13.927  0.0541  1.8883  0.3793
   58MPD2    H3  908   4.535   1.037  14.043 -0.6055 -2.4461  0.6037
   58MPD2     N  909   0.037   0.882  13.697 -0.4454 -0.5460  0.7891
   58MPD2    H5  910   0.116   0.874  13.760  1.0101 -0.6488 -1.0558
   58MPD2    N1  911   4.281   0.963  13.676  0.1400  0.0102 -0.2128
   58MPD2    H7  912   4.277   0.919  13.585  1.1476 -0.1114 -0.2025
   59TMC2    C1  913   2.356   0.970  12.707  0.2099  0.5075  0.0251
   59TMC2    C2  914   2.364   0.864  12.782 -0.1625 -0.5688 -0.1358
   59TMC2    C3  915   2.289   0.754  12.743  0.0427 -0.1103 -0.2025
   59TMC2    C4  916   2.262   0.987  12.614 -0.1420 -0.0241  0.2002
   59TMC2    C5  917   2.184   0.883  12.586  0.0580 -0.2610 -0.1116
   59TMC2    C6  918   2.198   0.758  12.648  0.1611  0.9895  1.5969
   59TMC2     C  919   2.408   1.096  12.761  0.4494  0.5922  0.2378
   59TMC2     O  920   2.463   1.170  12.684 -0.1554 -0.1808 -0.0610
   59TMC2     H  921   2.435   0.863  12.864 -1.7251 -1.2384  1.2046
   59TMC2    H1  922   2.259   1.082  12.561  0.0854  0.3159  0.7952
   59TMC2    H2  923   2.133   0.675  12.620  0.1282  2.2882 -2.2009
   59TMC2    C7  924   2.105   0.900  12.465 -1.1125  1.4609 -0.3408
   59TMC2    C8  925   2.245   0.681  12.860  0.4334 -0.0352 -0.3567
   59TMC2    O1  926   2.122   1.010  12.410  0.0289  0.1935 -0.4299
   59TMC2    O2  927   2.125   0.671  12.889  0.2477  0.6043 -0.7604
   59TMC2    O5  928   2.351   0.637  12.930  0.0957  0.0637  0.4387
   59TMC2    H5  929   2.440   0.651  12.890  1.0872 -1.0765  2.1881
   60MPD2     C  930   2.551   1.302  12.923  0.6073 -0.2000 -0.1430
   60MPD2    C1  931   2.492   1.193  12.980  0.0851  0.0368 -0.0752
   60MPD2    C2  932   2.495   1.175  13.116  0.1837  0.6648 -0.4723
   60MPD2    C3  933   2.536   1.277  13.200  0.2058 -0.7345 -0.5061
   60MPD2    C4  934   2.576   1.395  13.140  0.6897  0.4595 -0.5977
   60MPD2    C5  935   2.586   1.400  13.004  0.9211 -0.0608 -0.2918
   60MPD2     H  936   2.460   1.079  13.152 -0.2788  0.9134 -0.2672
   60MPD2    H1  937   2.613   1.475  13.204 -1.6914 -1.0604  2.6890
   60MPD2    H2  938   2.563   1.316  12.816  0.2432 -1.0802 -0.3000
   60MPD2    H3  939   2.622   1.492  12.959  0.3051 -0.2098 -1.0809
   60MPD2     N  940   2.535   1.254  13.343 -0.4274 -0.3892  0.6194
   60MPD2    H5  941   2.582   1.318  13.406 -0.9000 -0.6175  1.2006
   60MPD2    N1  942   2.424   1.098  12.908 -0.0583 -0.1188  0.0098
   60MPD2    H7  943   2.384   1.020  12.959 -0.3684 -0.4203 -0.6804
   61TMC2    C1  944   1.949   2.180  14.761  0.4881  0.1169 -0.0291
   61TMC2    C2  945   2.055   2.105  14.811 -0.2693 -0.6525 -0.2881
   61TMC2    C3  946   2.075   2.098  14.946  0.2296 -0.5758  0.7716
   61TMC2    C4  947   1.874   2.257  14.845  0.0368 -0.0577 -0.3179
   61TMC2    C5  948   1.901   2.245  14.978  0.6722  0.4883  0.1260
   61TMC2    C6  949   2.000   2.171  15.033  0.2032 -0.9275  0.7832
   61TMC2     C  950   1.896   2.127  14.639  0.1993  0.6690 -0.4438
   61TMC2     O  951   1.927   2.015  14.600  0.1312  1.1904 -0.6146
   61TMC2     H  952   2.114   2.046  14.741 -1.1263 -1.2709 -0.4869
   61TMC2    H1  953   1.776   2.291  14.816 -0.7583 -1.4887  0.6838
   61TMC2    H2  954   2.023   2.176  15.139 -1.8460 -0.8345  1.2313
   61TMC2    C7  955   1.832   2.342  15.052  0.4900  0.3218  0.6423
   61TMC2    C8  956   2.205   2.046  14.990  0.0678  0.0518  0.6154
   61TMC2    O1  957   1.785   2.437  14.988 -0.0153 -0.2740 -0.0337
   61TMC2    O2  958   2.252   1.948  14.935 -0.5362  0.4855  0.3013
   61TMC2    O5  959   2.276   2.141  15.055  0.3516  0.7045  0.3937
   61TMC2    H5  960   2.222   2.212  15.097 -1.6034  1.3381 -3.2102
   62MPD2     C  961   1.717   2.078  14.405  0.6167 -0.0223 -0.3424
   62MPD2    C1  962   1.730   2.200  14.470 -0.0372  0.1810 -0.0954
   62MPD2    C2  963   1.643   2.304  14.439  0.0093 -0.1282 -0.5368
   62MPD2    C3  964   1.544   2.295  14.339  0.1982  0.5169 -0.2645
   62MPD2    C4  965   1.546   2.180  14.261  0.6759 -0.2959  0.6196
   62MPD2    C5  966   1.626   2.077  14.305 -0.9274  0.1793  0.0487
   62MPD2     H  967   1.649   2.393  14.500  0.6563  0.0146 -0.8182
   62MPD2    H1  968   1.475   2.174  14.179  1.5359 -0.2334 -0.1149
   62MPD2    H2  969   1.769   1.987  14.434  2.5007  0.4367 -2.2691
   62MPD2    H3  970   1.615   1.986  14.247 -0.0034 -0.1838  0.4425
   62MPD2     N  971   1.442   2.391  14.310 -0.6433 -0.2669 -0.0032
   62MPD2    H5  972   1.411   2.382  14.213 -1.4736 -3.6457  0.5668
   62MPD2    N1  973   1.816   2.220  14.575  0.6718 -0.1792 -0.1480
   62MPD2    H7  974   1.806   2.311  14.619 -0.8386 -0.4413  0.0200
   63TMC2    C1  975   1.152   2.692  10.089 -0.3032  0.3409  0.2442
   63TMC2    C2  976   1.196   2.667  10.215  0.2881  0.0944  0.3884
   63TMC2    C3  977   1.293   2.752  10.267 -0.5881 -0.3973 -1.0065
   63TMC2    C4  978   1.180   2.807  10.023  0.3927  0.4889  0.7214
   63TMC2    C5  979   1.270   2.889  10.084  0.2368  0.0723 -0.1290
   63TMC2    C6  980   1.340   2.858  10.200 -1.0297  0.6500  0.0492
   63TMC2     C  981   1.078   2.586  10.015  0.3151 -0.6118  0.5509
   63TMC2     O  982   1.084   2.590   9.893 -0.4946 -0.5930  0.0477
   63TMC2     H  983   1.190   2.565  10.253  3.5481 -0.5236 -0.7319
   63TMC2    H1  984   1.121   2.831   9.936 -1.8786  0.3093  2.2194
   63TMC2    H2  985   1.408   2.924  10.253  0.3860 -0.7193 -0.0729
   63TMC2    C7  986   1.305   3.013  10.006  0.5409 -0.0658 -0.4497
   63TMC2    C8  987   1.342   2.723  10.399  0.3320 -0.5873  0.6162
   63TMC2    O1  988   1.215   3.048   9.929  0.0653 -0.4018  0.0351
   63TMC2    O2  989   1.436   2.776  10.450 -0.4836 -0.2529  0.5841
   63TMC2    O5  990   1.234   2.667  10.468 -0.7267 -0.0466 -0.2564
   63TMC2    H5  991   1.153   2.664  10.413 -1.0884 -1.9365  0.3785
   64MPD2     C  992   0.795   2.164   9.979  0.1602  0.2075 -0.3160
   64MPD2    C1  993   0.873   2.160  10.091  0.1625  0.3627  0.1606
   64MPD2    C2  994   0.950   2.269  10.118 -0.0564 -0.1350  1.3260
   64MPD2    C3  995   0.956   2.377  10.033 -0.6474  0.0679 -0.9886
   64MPD2    C4  996   0.885   2.376   9.919  1.1509  0.8184  0.2802
   64MPD2    C5  997   0.807   2.265   9.887  0.3899  0.0198 -0.3002
   64MPD2     H  998   1.003   2.273  10.213 -1.3588  0.6139  2.0213
   64MPD2    H1  999   0.881   2.461   9.852  1.9732 -0.7079 -1.6963
   64MPD2    H2 1000   0.722   2.089   9.953 -1.4750  1.6413  0.1271
   64MPD2    H3 1001   0.733   2.276   9.809  0.9069  0.9437 -0.6519
   64MPD2     N 1002   1.021   2.484  10.091  0.5112  0.3004 -0.7230
   64MPD2    H5 1003   1.032   2.476  10.192  0.5027 -0.7870 -0.8158
   64MPD2    N1 1004   0.875   2.053  10.191 -0.4644 -0.9286 -0.1911
   64MPD2    H7 1005   0.952   2.059  10.257 -0.8088  0.0481  0.1192
   65TMC2    C1 1006   2.486   2.263  15.727 -0.2976 -0.1004  0.2614
   65TMC2    C2 1007   2.597   2.317  15.672  0.4359 -0.3237  1.0553
   65TMC2    C3 1008   2.569   2.403  15.570  0.3885 -0.6387 -0.4762
   65TMC2    C4 1009   2.367   2.284  15.693  0.3911  0.7307 -0.6076
   65TMC2    C5 1010   2.339   2.367  15.585 -0.1189 -0.4011 -0.8894
   65TMC2    C6 1011   2.441   2.436  15.529  0.6069 -0.2591 -0.3793
   65TMC2     C 1012   2.521   2.162  15.827  0.5168 -0.0542 -0.9326
   65TMC2     O 1013   2.613   2.188  15.902  0.1238  0.1152  0.7253
   65TMC2     H 1014   2.696   2.296  15.712  0.6688 -1.8060 -0.2921
   65TMC2    H1 1015   2.289   2.221  15.733  0.1825  0.6120 -1.1904
   65TMC2    H2 1016   2.414   2.515  15.461 -0.8628 -0.1164  0.3714
   65TMC2    C7 1017   2.203   2.422  15.560  1.1431 -0.0338 -0.5832
   65TMC2    C8 1018   2.683   2.458  15.507  0.7162 -0.1807  0.3241
   65TMC2    O1 1019   2.186   2.454  15.446  0.3143 -0.3249 -0.0159
   65TMC2    O2 1020   2.771   2.518  15.567  0.2929  1.1169 -0.1216
   65TMC2    O5 1021   2.668   2.446  15.375  0.1570 -0.3720  0.0162
   65TMC2    H5 1022   2.590   2.390  15.353  0.2306 -0.5770  0.2819
   66MPD2     C 1023   2.490   1.979  16.073  0.6462 -0.0034 -0.2641
   66MPD2    C1 1024   2.432   1.954  15.949  0.0844 -0.1902  0.3615
   66MPD2    C2 1025   2.349   1.844  15.936  0.4692  0.4669 -0.1610
   66MPD2    C3 1026   2.327   1.755  16.041 -0.9007 -0.2874  0.1079
   66MPD2    C4 1027   2.388   1.783  16.166 -0.0953 -0.7885 -0.0815
   66MPD2    C5 1028   2.470   1.895  16.175  0.0802  0.1558  0.2847
   66MPD2     H 1029   2.301   1.831  15.840 -0.0428 -0.1190  0.1710
   66MPD2    H1 1030   2.360   1.717  16.247  0.4419  0.4877  1.1364
   66MPD2    H2 1031   2.570   2.051  16.083  1.2774 -0.4475 -2.0491
   66MPD2    H3 1032   2.533   1.915  16.260 -0.5768  3.6810 -0.0462
   66MPD2     N 1033   2.239   1.643  16.040 -0.1746  0.0649 -0.5437
   66MPD2    H5 1034   2.239   1.589  16.126  0.9247 -0.3686 -0.8266
   66MPD2    N1 1035   2.437   2.050  15.837  0.1965  0.5158 -1.0200
   66MPD2    H7 1036   2.382   2.028  15.755 -0.0603 -0.1922 -0.6536
   67TMC2    C1 1037   2.593   0.985  14.340  0.2787 -0.2620 -0.1642
   67TMC2    C2 1038   2.541   1.114  14.352  0.3010 -0.0667  0.0525
   67TMC2    C3 1039   2.530   1.154  14.484  0.3181  0.1297  0.0392
   67TMC2    C4 1040   2.656   0.919  14.442  0.0621 -0.1187  0.5931
   67TMC2    C5 1041   2.649   0.971  14.570  0.9467  0.4768 -0.5139
   67TMC2    C6 1042   2.579   1.089  14.595 -0.2951 -0.2086 -0.1400
   67TMC2     C 1043   2.568   0.911  14.219  0.1365 -0.0851  0.0367
   67TMC2     O 1044   2.637   0.809  14.199  0.2819  0.2651  0.3719
   67TMC2     H 1045   2.491   1.159  14.267 -1.7003 -0.7925  0.8496
   67TMC2    H1 1046   2.707   0.823  14.435 -0.5832 -0.5179  1.3109
   67TMC2    H2 1047   2.561   1.123  14.696 -0.2657 -1.3392  0.2463
   67TMC2    C7 1048   2.730   0.908  14.674  0.8343 -0.1742  0.2755
   67TMC2    C8 1049   2.481   1.289  14.508 -0.7754 -0.5661  0.2012
   67TMC2    O1 1050   2.804   0.819  14.631  0.0182  0.0135  0.4269
   67TMC2    O2 1051   2.453   1.331  14.616  0.8997  0.1311  0.3091
   67TMC2    O5 1052   2.540   1.369  14.412  0.8865  0.9285 -0.1846
   67TMC2    H5 1053   2.613   1.329  14.360  2.7920  0.7508  2.6275
   68MPD2     C 1054   2.464   0.788  13.965 -0.7890  0.0751  0.8423
   68MPD2    C1 1055   2.403   0.889  14.038  0.0546  0.1986  0.0022
   68MPD2    C2 1056   2.275   0.917  13.994  0.7679  0.5400 -0.5658
   68MPD2    C3 1057   2.213   0.866  13.882  0.1414 -0.6209 -0.1053
   68MPD2    C4 1058   2.278   0.768  13.816 -0.1529 -0.3746 -0.6076
   68MPD2    C5 1059   2.402   0.728  13.856 -0.4230  0.2314 -0.0749
   68MPD2     H 1060   2.228   0.997  14.050  0.8907  0.5716 -0.5087
   68MPD2    H1 1061   2.234   0.722  13.729 -0.0756  1.3872 -1.5783
   68MPD2    H2 1062   2.561   0.748  13.994 -0.0845  1.0461 -0.1786
   68MPD2    H3 1063   2.434   0.631  13.819  0.3372 -0.8619  3.4481
   68MPD2     N 1064   2.078   0.890  13.851 -0.1281  0.2732 -0.5159
   68MPD2    H5 1065   2.043   0.837  13.771  0.8022 -0.9065 -0.1449
   68MPD2    N1 1066   2.456   0.951  14.153 -0.6427 -0.2095 -0.3810
   68MPD2    H7 1067   2.404   1.027  14.195 -0.8235 -0.1938 -0.6366
   69TMC2    C1 1068   4.333   2.692  12.936 -0.0571  0.4707  0.4048
   69TMC2    C2 1069   4.194   2.692  12.920 -0.4846 -0.1380 -0.2156
   69TMC2    C3 1070   4.142   2.788  12.838 -0.4138  0.1958  0.2734
   69TMC2    C4 1071   4.415   2.768  12.858  0.4796 -0.1357  0.5724
   69TMC2    C5 1072   4.356   2.851  12.769  0.5885  0.8249  0.0888
   69TMC2    C6 1073   4.220   2.868  12.759  0.3713 -0.3880 -0.3066
   69TMC2     C 1074   4.398   2.580  13.012 -0.1531  1.0351 -0.4468
   69TMC2     O 1075   4.324   2.487  13.049  0.4787 -0.0087 -0.0373
   69TMC2     H 1076   4.127   2.648  12.992  0.2224 -1.4758 -0.3704
   69TMC2    H1 1077   4.523   2.761  12.862  0.4619  0.4167  2.0184
   69TMC2    H2 1078   4.167   2.939  12.696 -1.5745 -1.5267  0.0171
   69TMC2    C7 1079   4.417   2.867  12.638 -0.4209  0.4010  0.4980
   69TMC2    C8 1080   4.012   2.818  12.861 -0.0117  0.2280  1.1340
   69TMC2    O1 1081   4.538   2.865  12.625 -0.0245 -0.4334 -0.1113
   69TMC2    O2 1082   3.985   2.938  12.854 -0.4432 -0.6831 -0.1429
   69TMC2    O5 1083   3.949   2.737  12.776  0.1748 -0.4227 -0.3092
   69TMC2    H5 1084   3.972   2.647  12.810  0.2024 -0.2003  0.2721
   70MPD2     C 1085   0.018   2.497  13.011 -0.1230  0.1234 -0.2819
   70MPD2    C1 1086   4.623   2.490  13.061 -0.1930  0.5709 -0.4778
   70MPD2    C2 1087   4.593   2.392  13.160  0.0248  0.3819 -0.3680
   70MPD2    C3 1088   4.695   2.289  13.180  0.1784 -0.0115  0.2008
   70MPD2    C4 1089   0.087   2.301  13.133  0.3343  1.0022 -0.2825
   70MPD2    C5 1090   0.109   2.408  13.056 -0.0798 -0.2159 -0.1644
   70MPD2     H 1091   4.495   2.389  13.205  0.5249 -0.1880  0.6916
   70MPD2    H1 1092   0.171   2.236  13.155 -1.2658 -0.7359  0.7929
   70MPD2    H2 1093   0.042   2.582  12.948 -0.6019 -0.8718 -1.7924
   70MPD2    H3 1094   0.211   2.429  13.026 -0.0320  0.2098  0.2875
   70MPD2     N 1095   4.671   2.172  13.258 -0.3145 -0.7639 -0.2407
   70MPD2    H5 1096   0.011   2.104  13.247 -1.5369 -2.1201 -0.2945
   70MPD2    N1 1097   4.536   2.591  13.016 -0.7081 -0.0700  0.8934
   70MPD2    H7 1098   4.577   2.668  12.964 -1.6659 -0.3782 -0.2991
   71TMC2    C1 1099   1.558   2.725   1.323  0.1718 -0.4618 -0.4053
   71TMC2    C2 1100   1.653   2.715   1.422 -0.6040  0.0540 -0.2351
   71TMC2    C3 1101   1.620   2.753   1.546 -1.0451  0.4219  0.3568
   71TMC2    C4 1102   1.433   2.779   1.352  0.2469  0.9001 -0.2190
   71TMC2    C5 1103   1.410   2.826   1.486 -0.7472  0.2830  0.2835
   71TMC2    C6 1104   1.505   2.819   1.582  0.4424  0.0260  0.2872
   71TMC2     C 1105   1.592   2.680   1.191  0.0874 -0.2741 -0.5629
   71TMC2     O 1106   1.708   2.637   1.181 -0.1435  0.8201 -0.5859
   71TMC2     H 1107   1.743   2.656   1.411 -0.9384 -0.4507 -0.2775
   71TMC2    H1 1108   1.354   2.786   1.278 -1.2177  2.2156  1.4661
   71TMC2    H2 1109   1.486   2.848   1.685 -0.0299 -2.9327  1.0386
   71TMC2    C7 1110   1.303   2.925   1.508 -0.7226  0.3147  0.3681
   71TMC2    C8 1111   1.703   2.709   1.658 -0.7375  0.0863  0.5782
   71TMC2    O1 1112   1.317   3.006   1.595 -0.2968 -0.1465 -0.2972
   71TMC2    O2 1113   1.650   2.628   1.730 -0.5764  0.2050  0.0418
   71TMC2    O5 1114   1.837   2.714   1.621 -0.4042 -0.1739 -0.0624
   71TMC2    H5 1115   1.858   2.788   1.560 -1.1162  0.7458  0.8087
   72MPD2     C 1116   1.482   2.480   0.730  0.4633  0.3269 -0.1248
   72MPD2    C1 1117   1.597   2.550   0.777  0.5591 -0.7181  0.3558
   72MPD2    C2 1118   1.601   2.597   0.907 -0.2880 -0.0727 -0.2593
   72MPD2    C3 1119   1.486   2.603   0.981 -0.3585  0.2063  0.9130
   72MPD2    C4 1120   1.368   2.541   0.936  0.5733  0.1190  0.5918
   72MPD2    C5 1121   1.369   2.484   0.802  0.3130  0.4602  0.2007
   72MPD2     H 1122   1.694   2.632   0.949  0.0807  0.2333 -1.3303
   72MPD2    H1 1123   1.274   2.541   0.989 -0.4451 -0.0351 -1.2138
   72MPD2    H2 1124   1.476   2.446   0.627  2.2162  0.3476 -0.2285
   72MPD2    H3 1125   1.280   2.430   0.772  0.0585  0.4727  0.9343
   72MPD2     N 1126   1.482   2.657   1.111 -0.1793 -0.3135  0.2598
   72MPD2    H5 1127   1.392   2.664   1.157 -0.8112  0.5612 -1.1187
   72MPD2    N1 1128   1.718   2.556   0.708  0.3084  0.4831  0.6710
   72MPD2    H7 1129   1.798   2.601   0.752 -1.2143  2.5213  1.3371
   73TMC2    C1 1130   1.628   4.614  13.906 -0.5402  0.2855  0.5522
   73TMC2    C2 1131   1.711   4.510  13.931  0.1247 -0.2733  0.2136
   73TMC2    C3 1132   1.789   4.529  14.039 -0.1456 -0.0800 -0.0338
   73TMC2    C4 1133   1.635   4.730  13.978 -0.0650 -0.4864  0.2643
   73TMC2    C5 1134   1.725   0.010  14.076 -0.0222  0.4578 -0.3815
   73TMC2    C6 1135   1.804   4.643  14.105  0.4676  0.3246 -0.1542
   73TMC2     C 1136   1.617   4.654  13.766 -0.2481 -0.5217  0.5062
   73TMC2     O 1137   1.622   0.037  13.742  0.3449  0.1583 -0.5715
   73TMC2     H 1138   1.712   4.415  13.880  0.8438 -0.4421  0.5434
   73TMC2    H1 1139   1.558   0.070  13.966  0.6910 -0.1318 -2.2444
   73TMC2    H2 1140   1.888   4.654  14.172 -0.8952  0.1474  1.5760
   73TMC2    C7 1141   1.819   0.120  14.042  0.7655  0.1749  0.1838
   73TMC2    C8 1142   1.875   4.422  14.070 -0.2332  0.7737  0.2026
   73TMC2    O1 1143   1.909   0.152  14.125  0.2383  0.6398  0.0175
   73TMC2    O2 1144   1.982   4.448  14.126  0.8774  0.0944  0.3190
   73TMC2    O5 1145   1.787   4.318  14.099  0.1860  0.1987  0.7634
   73TMC2    H5 1146   1.696   4.340  14.071  0.5409 -1.9731 -2.0021
   74MPD2     C 1147   1.614   4.531  13.259 -0.5361 -0.9373  0.2746
   74MPD2    C1 1148   1.618   4.654  13.324 -0.4460  0.9676  0.0888
   74MPD2    C2 1149   1.622   4.658  13.463 -0.1013 -0.3120  0.3208
   74MPD2    C3 1150   1.624   4.542  13.535 -0.0589  0.9326  0.0539
   74MPD2    C4 1151   1.634   4.422  13.479  0.4872  0.3914 -0.2489
   74MPD2    C5 1152   1.626   4.421  13.339  0.3742 -0.2471 -0.5014
   74MPD2     H 1153   1.619   0.017  13.516  1.4075 -0.4764  0.7040
   74MPD2    H1 1154   1.631   4.338  13.548  2.8559  0.1671 -0.4087
   74MPD2    H2 1155   1.612   4.530  13.150  1.8004  2.0090  0.2103
   74MPD2    H3 1156   1.632   4.324  13.290  1.8732 -0.1028 -0.6242
   74MPD2     N 1157   1.624   4.542  13.682 -0.6331  0.3435  0.0368
   74MPD2    H5 1158   1.631   4.452  13.729  1.5030  0.6582  0.3077
   74MPD2    N1 1159   1.646   0.040  13.251  0.7927 -0.0167 -0.1131
   74MPD2    H7 1160   1.647   0.035  13.149 -1.0928  0.2026 -0.1294
   75TMC2    C1 1161   1.852   0.932  13.882 -0.6070  1.1058 -0.3131
   75TMC2    C2 1162   1.754   0.922  13.983 -0.4303 -0.0473 -0.0512
   75TMC2    C3 1163   1.625   0.903  13.940 -0.3482  0.4660  0.0103
   75TMC2    C4 1164   1.825   0.931  13.747  0.9793 -0.1185  0.3742
   75TMC2    C5 1165   1.692   0.936  13.714  0.2028  0.0660  0.4394
   75TMC2    C6 1166   1.591   0.917  13.809  0.1913  0.1007 -0.8012
   75TMC2     C 1167   1.985   0.960  13.929 -0.9204  0.8094 -0.0224
   75TMC2     O 1168   1.996   1.014  14.038 -0.5855 -0.4019 -0.0555
   75TMC2     H 1169   1.793   0.912  14.084  0.5868 -2.6553 -0.6970
   75TMC2    H1 1170   1.903   0.925  13.672 -0.5111 -3.0130 -0.9264
   75TMC2    H2 1171   1.491   0.877  13.793  0.1781  0.4059 -1.4762
   75TMC2    C7 1172   1.656   0.981  13.583 -0.6944  0.3719 -0.5680
   75TMC2    C8 1173   1.532   0.838  14.027 -0.5753 -0.3287  1.0437
   75TMC2    O1 1174   1.717   0.947  13.485  0.1258  0.4593 -0.4495
   75TMC2    O2 1175   1.429   0.786  13.988 -0.3645 -0.2972  0.3724
   75TMC2    O5 1176   1.570   0.867  14.149 -0.1928  0.1596  0.2356
   75TMC2    H5 1177   1.627   0.944  14.170 -3.6629  2.1218  2.5265
   76TMC2    C1 1178   0.881   1.925  11.826 -0.0788  0.6299  0.2757
   76TMC2    C2 1179   0.855   1.920  11.688  0.0737  0.1611  0.0806
   76TMC2    C3 1180   0.910   1.825  11.613  0.3786 -0.0050  0.6398
   76TMC2    C4 1181   0.982   1.841  11.883  0.2715 -0.6399  0.1167
   76TMC2    C5 1182   1.031   1.744  11.800 -0.0971  0.0843  0.3128
   76TMC2    C6 1183   0.992   1.729  11.670  0.8946  0.7116 -0.3028
   76TMC2     C 1184   0.805   2.023  11.904 -0.3175  0.1557  0.1775
   76TMC2     O 1185   0.738   2.106  11.846 -0.4187  0.3648 -0.1129
   76TMC2     H 1186   0.775   1.984  11.652  0.1795 -1.1076 -2.3874
   76TMC2    H1 1187   1.015   1.844  11.986  0.9471  3.1991 -0.2015
   76TMC2    H2 1188   1.047   1.654  11.614  1.3395  2.3582 -2.0673
   76TMC2    C7 1189   1.078   1.626  11.862 -1.0966  0.4828 -0.6342
   76TMC2    C8 1190   0.877   1.827  11.476  0.4568  0.0479  0.1407
   76TMC2    O1 1191   1.041   1.518  11.823  0.1762  0.2154  0.6563
   76TMC2    O2 1192   0.810   1.916  11.423  0.5197  0.0609 -0.0461
   76TMC2    O5 1193   0.879   1.697  11.439 -0.0687  0.5549 -0.6263
   76TMC2    H5 1194   0.905   1.634  11.510 -0.6417 -1.6627 -2.3897
   77MPD2     C 1195   0.581   2.193  12.333 -0.0091 -0.3273 -1.2918
   77MPD2    C1 1196   0.562   2.236  12.205 -0.3053  0.3442  0.5495
   77MPD2    C2 1197   0.638   2.172  12.108 -1.2435  0.4662  0.3967
   77MPD2    C3 1198   0.722   2.067  12.137  0.1025  0.4656 -0.3656
   77MPD2    C4 1199   0.740   2.021  12.264  0.1081 -0.5546 -0.2425
   77MPD2    C5 1200   0.662   2.084  12.363  0.5450 -0.0254  0.0048
   77MPD2     H 1201   0.619   2.209  12.008  1.3739 -0.1488 -0.3365
   77MPD2    H1 1202   0.817   1.951  12.293 -0.4762 -2.3765 -3.0928
   77MPD2    H2 1203   0.540   2.246  12.417  1.9063  1.6154 -1.5718
   77MPD2    H3 1204   0.677   2.057  12.467 -2.3130  0.6881  0.5971
   77MPD2     N 1205   0.806   2.000  12.042 -0.2117  0.5209 -0.0651
   77MPD2    H5 1206   0.858   1.920  12.076  0.2774  0.7911 -0.1857
   77MPD2    N1 1207   0.477   2.343  12.161 -0.1447  0.1273  0.7201
   77MPD2    H7 1208   0.475   2.374  12.064 -0.1475 -0.5736  0.4944
   78TMC2    C1 1209   2.692   3.939   1.612  0.6032  0.8762  0.1036
   78TMC2    C2 1210   2.754   4.055   1.659  0.2807  0.0370 -0.5459
   78TMC2    C3 1211   2.878   4.100   1.611  0.8865  0.3391  0.1874
   78TMC2    C4 1212   2.766   3.859   1.529 -0.2237  0.1582  0.3444
   78TMC2    C5 1213   2.888   3.904   1.480 -0.2012 -0.0675  0.3771
   78TMC2    C6 1214   2.946   4.027   1.516 -0.4144 -0.0080  0.2093
   78TMC2     C 1215   2.558   3.907   1.653  0.0856  0.3775  0.2605
   78TMC2     O 1216   2.503   3.988   1.726  0.1028  0.0172 -0.1914
   78TMC2     H 1217   2.702   4.103   1.742 -0.9181 -1.7050 -0.2881
   78TMC2    H1 1218   2.741   3.759   1.498 -1.1142  0.0481  1.4026
   78TMC2    H2 1219   3.025   4.070   1.457 -0.1966 -0.8264 -0.0980
   78TMC2    C7 1220   2.965   3.811   1.402  0.1618 -0.9214 -1.3368
   78TMC2    C8 1221   2.908   4.239   1.624 -0.5474 -0.1516 -0.3319
   78TMC2    O1 1222   2.910   3.720   1.344  0.2546 -0.4546 -0.5191
   78TMC2    O2 1223   2.822   4.300   1.688 -0.3095 -0.1268 -0.4682
   78TMC2    O5 1224   3.041   4.259   1.631 -0.0610 -0.1578 -0.0704
   78TMC2    H5 1225   3.092   4.185   1.590  0.4542  0.2077 -0.0851
   79MPD1     C 1226   2.161   3.583   1.651  0.1247  0.1337 -0.4178
   79MPD1    C1 1227   2.185   3.699   1.730 -0.6856 -0.5008  0.1173
   79MPD1    C2 1228   2.301   3.770   1.706 -0.4769  0.3904 -0.2744
   79MPD1    C3 1229   2.400   3.709   1.624  0.4808 -0.1478 -0.0935
   79MPD1    C4 1230   2.376   3.595   1.552  0.1041  0.1119 -0.4291
   79MPD1    C5 1231   2.256   3.535   1.569  0.4134 -0.3799  0.1788
   79MPD1     H 1232   2.311   3.860   1.764 -1.6016  0.1857  0.2434
   79MPD1    H1 1233   2.452   3.560   1.484 -0.7676  1.2446 -2.0018
   79MPD1    H2 1234   2.074   3.519   1.656 -1.4128  2.0574 -2.3466
   79MPD1    H3 1235   2.234   3.447   1.510 -0.9720  0.1522 -0.1106
   79MPD1     N 1236   2.524   3.782   1.596 -0.5109  0.1251  0.0636
   79MPD1    H5 1237   2.588   3.735   1.533 -1.8495 -2.0984  0.3556
   79MPD1    N1 1238   2.070   3.754   1.793  0.1535 -0.0842  0.7684
   79MPD1    H6 1239   2.002   3.686   1.825 -0.6047  1.5409  2.5800
   79MPD1    H7 1240   2.102   3.824   1.860  0.8416  0.7526 -0.4151
   80TMC2    C1 1241   0.088   1.084  11.908  0.2576  0.3740  0.8412
   80TMC2    C2 1242   0.190   1.019  11.832  0.2204  0.3244 -0.8959
   80TMC2    C3 1243   0.146   0.938  11.728 -0.6353 -0.4663  0.3854
   80TMC2    C4 1244   4.688   1.058  11.881  0.3093  0.4169  0.1132
   80TMC2    C5 1245   4.654   1.001  11.762 -0.1735 -0.0259 -0.4158
   80TMC2    C6 1246   0.014   0.936  11.689 -0.6330  0.4459 -0.2926
   80TMC2     C 1247   0.137   1.144  12.030  0.1605 -0.1102  0.4892
   80TMC2     O 1248   0.252   1.115  12.057  0.0241 -0.5187 -0.2947
   80TMC2     H 1249   0.294   1.033  11.863 -0.6720 -1.5327  2.9303
   80TMC2    H1 1250   4.605   1.097  11.939  0.1261 -1.5014  1.1427
   80TMC2    H2 1251   4.721   0.874  11.605 -2.7497  0.4445  0.4444
   80TMC2    C7 1252   4.517   0.948  11.749 -0.8031 -0.2721  0.2497
   80TMC2    C8 1253   0.251   0.875  11.651  0.5458  0.5011  0.2906
   80TMC2    O1 1254   4.472   0.957  11.634  0.4372  0.3899 -0.5105
   80TMC2    O2 1255   0.360   0.838  11.699 -0.4949  0.1976 -0.0803
   80TMC2    O5 1256   0.232   0.914  11.524  0.5768  0.1654  0.2865
   80TMC2    H5 1257   0.150   0.967  11.521  0.5197  0.0697  0.1625
   81MPD2     C 1258   0.164   1.201  12.332 -0.1414  0.2630 -0.9520
   81MPD2    C1 1259   0.052   1.221  12.252 -0.2441 -0.2685 -0.3288
   81MPD2    C2 1260   4.675   1.262  12.320 -0.2698 -0.5614 -0.3106
   81MPD2    C3 1261   4.672   1.280  12.461 -0.0382  0.6912  0.1835
   81MPD2    C4 1262   0.046   1.255  12.535  0.5300  0.1893 -0.2206
   81MPD2    C5 1263   0.161   1.218  12.470  0.9111  0.1095  0.7806
   81MPD2     H 1264   4.581   1.259  12.265 -0.6841  2.4010  0.2355
   81MPD2    H1 1265   0.054   1.248  12.643 -1.1259 -1.1798 -0.1781
   81MPD2    H2 1266   0.260   1.170  12.292 -0.0618  2.5288 -2.4919
   81MPD2    H3 1267   0.249   1.206  12.531  1.5560 -1.1761 -0.4052
   81MPD2     N 1268   4.556   1.315  12.542  0.8295  0.4246 -0.6863
   81MPD2    H5 1269   4.559   1.319  12.643  1.5007  0.3099 -0.6996
   81MPD2    N1 1270   0.040   1.195  12.112 -0.4705 -0.6799 -0.5329
   81MPD2    H7 1271   4.683   1.188  12.071 -0.2939  1.0950 -1.2079
   82TMC2    C1 1272   2.594   0.922  11.096 -0.2913  0.8940  0.3885
   82TMC2    C2 1273   2.651   1.023  11.170  0.2680 -0.5951  0.4574
   82TMC2    C3 1274   2.684   0.989  11.301  0.1580  0.8019  0.6846
   82TMC2    C4 1275   2.581   0.785  11.139  0.9425 -0.0189  0.0042
   82TMC2    C5 1276   2.623   0.762  11.272  0.1375 -0.1090 -0.8139
   82TMC2    C6 1277   2.684   0.859  11.342 -0.4050 -0.7628 -0.0914
   82TMC2     C 1278   2.526   0.946  10.971  0.0547 -0.2437 -0.1761
   82TMC2     O 1279   2.512   0.856  10.893  0.0572  0.5129 -0.4917
   82TMC2     H 1280   2.675   1.121  11.131  0.8926 -0.7208  0.5344
   82TMC2    H1 1281   2.530   0.714  11.075  0.8727  0.4982 -0.5180
   82TMC2    H2 1282   2.714   0.840  11.444 -0.1682 -0.5943 -0.1305
   82TMC2    C7 1283   2.588   0.640  11.336  0.0391  0.5946 -0.5240
   82TMC2    C8 1284   2.717   1.090  11.398  0.1210 -0.0798  0.3674
   82TMC2    O1 1285   2.584   0.636  11.458  0.4873  0.7102 -0.0700
   82TMC2    O2 1286   2.794   1.073  11.489 -0.3527 -0.0968  0.3985
   82TMC2    O5 1287   2.626   1.194  11.408  0.5975  0.1050  0.2822
   82TMC2    H5 1288   2.553   1.178  11.344 -0.7425  1.0129  1.5866
   83MPD2     C 1289   2.212   1.222  10.679 -0.4009 -0.2209 -0.4334
   83MPD2    C1 1290   2.229   1.085  10.699  0.0074 -0.4039  0.2442
   83MPD2    C2 1291   2.314   1.034  10.792  0.2816 -0.2548 -0.4914
   83MPD2    C3 1292   2.395   1.121  10.865 -0.6108  0.7462  0.0100
   83MPD2    C4 1293   2.388   1.258  10.838 -0.2179 -0.6789 -0.8396
   83MPD2    C5 1294   2.298   1.305  10.742 -0.0436  0.5421  0.1750
   83MPD2     H 1295   2.329   0.927  10.799 -2.0514 -0.5245  0.5148
   83MPD2    H1 1296   2.455   1.323  10.893 -3.0382  0.4425  1.2437
   83MPD2    H2 1297   2.146   1.254  10.600  0.7637  2.3144 -0.3724
   83MPD2    H3 1298   2.291   1.412  10.724  1.2335  0.3820 -1.2488
   83MPD2     N 1299   2.487   1.076  10.962  0.3809  0.8068 -0.0113
   83MPD2    H5 1300   2.525   1.147  11.024  0.6808  0.7345 -0.1079
   83MPD2    N1 1301   2.147   1.007  10.621 -0.2223 -0.5628  0.2591
   83MPD2    H7 1302   2.101   1.038  10.536 -0.3778 -1.4917  0.0001
   84TMC2    C1 1303   3.284   4.721  10.892 -0.0845  0.7949  0.1633
   84TMC2    C2 1304   3.306   4.591  10.913  0.3131  0.7903  0.5295
   84TMC2    C3 1305   3.282   4.505  10.809 -0.1890 -0.0811  0.3552
   84TMC2    C4 1306   3.234   0.032  10.773  0.4021 -0.5632 -0.1120
   84TMC2    C5 1307   3.215   4.683  10.668  0.3821 -0.1691  0.5656
   84TMC2    C6 1308   3.223   4.550  10.691  1.0819  0.5458  0.2597
   84TMC2     C 1309   3.301   0.088  11.001 -0.5337  0.9113  0.8695
   84TMC2     O 1310   3.239   0.192  10.989  0.2761 -0.1315  0.1392
   84TMC2     H 1311   3.317   4.551  11.014 -3.3603 -1.3017  0.1080
   84TMC2    H1 1312   3.216   0.138  10.759  0.5466 -0.4212  0.8114
   84TMC2    H2 1313   3.200   4.481  10.612 -0.0151 -1.1856  2.0948
   84TMC2    C7 1314   3.136   4.719  10.551 -0.0417 -0.1178  0.1225
   84TMC2    C8 1315   3.343   4.373  10.808  0.7043  0.4397  0.1872
   84TMC2    O1 1316   3.083   4.638  10.474 -0.1819  0.1553  0.0359
   84TMC2    O2 1317   3.339   4.296  10.715 -0.2298 -0.1179 -0.1507
   84TMC2    O5 1318   3.448   4.388  10.897 -0.6413  0.0760  0.2885
   84TMC2    H5 1319   3.443   4.452  10.971  2.1184  0.6036  0.0139
   85TMC2    C1 1320   4.465   3.028  16.317  0.3770 -1.0824  0.3582
   85TMC2    C2 1321   4.394   2.988  16.209  0.2042 -0.0020 -0.3502
   85TMC2    C3 1322   4.370   3.076  16.108 -0.0975  0.9426 -0.0776
   85TMC2    C4 1323   4.525   3.144  16.318  0.1241  0.1532 -1.1520
   85TMC2    C5 1324   4.525   3.220  16.202  0.3194  0.7364 -0.1253
   85TMC2    C6 1325   4.461   3.175  16.087  0.1680  0.1366  1.1541
   85TMC2     C 1326   4.466   2.959  16.451  0.2057 -0.1904  0.5702
   85TMC2     O 1327   4.486   3.033  16.550 -0.0818 -0.0240 -0.1545
   85TMC2     H 1328   4.354   2.887  16.214  1.9550 -0.6324  0.7457
   85TMC2    H1 1329   4.563   3.190  16.408  0.3380 -2.2166 -0.0376
   85TMC2    H2 1330   4.475   3.217  15.987  0.4151 -2.0894  0.2573
   85TMC2    C7 1331   4.541   3.362  16.229  0.2916  0.4243  1.0195
   85TMC2    C8 1332   4.320   3.021  15.981 -0.5630  1.2370 -0.2228
   85TMC2    O1 1333   4.610   3.385  16.329  0.2618 -0.5435  0.2715
   85TMC2    O2 1334   4.376   3.005  15.875  0.4825  0.0748  0.1538
   85TMC2    O5 1335   4.188   2.993  16.001  0.0388 -0.0242  0.3733
   85TMC2    H5 1336   4.158   3.021  16.090  1.1179 -0.6926  0.9422
   86MPD2     C 1337   4.368   2.552  16.744  0.0827 -0.4280  0.6142
   86MPD2    C1 1338   4.321   2.523  16.616 -0.2509 -0.0229 -0.7821
   86MPD2    C2 1339   4.346   2.622  16.522 -0.1471  0.1071  0.6676
   86MPD2    C3 1340   4.421   2.733  16.550  0.1105 -0.2169  0.0545
   86MPD2    C4 1341   4.463   2.766  16.675 -0.3980 -0.3152  0.5941
   86MPD2    C5 1342   4.430   2.674  16.772 -0.6578 -0.6901  0.1483
   86MPD2     H 1343   4.311   2.607  16.421  0.3591  2.4314  0.1570
   86MPD2    H1 1344   4.530   2.846  16.701 -2.0817  1.2682  0.0244
   86MPD2    H2 1345   4.346   2.493  16.832 -0.1145  0.0033  0.8529
   86MPD2    H3 1346   4.451   2.699  16.876 -1.1234 -1.7718  0.5055
   86MPD2     N 1347   4.430   2.826  16.444 -0.1081 -0.9472 -0.3263
   86MPD2    H5 1348   4.412   2.781  16.355 -0.2499  0.1804 -0.8739
   86MPD2    N1 1349   4.273   2.403  16.579 -0.4396 -0.5205 -0.1017
   86MPD2    H7 1350   4.258   2.386  16.480 -2.5336 -2.5581  0.5695
   87TMC2    C1 1351   1.804   1.194   0.941 -0.8207 -0.0564 -0.3766
   87TMC2    C2 1352   1.842   1.181   1.070 -0.2678 -0.0427 -0.3322
   87TMC2    C3 1353   1.767   1.236   1.163 -0.1298 -0.6932  0.3434
   87TMC2    C4 1354   1.702   1.271   0.901 -0.1053  0.4752  0.4839
   87TMC2    C5 1355   1.647   1.347   1.002  0.3939  0.3427 -0.2321
   87TMC2    C6 1356   1.668   1.321   1.136  0.4226  0.8278  0.3048
   87TMC2     C 1357   1.858   1.084   0.865 -0.4439  0.3357 -0.4803
   87TMC2     O 1358   1.956   1.027   0.909  0.6170 -0.6310 -0.7974
   87TMC2     H 1359   1.933   1.128   1.098 -0.6401 -0.1513  0.6543
   87TMC2    H1 1360   1.678   1.292   0.797 -0.4914  1.1067  0.7052
   87TMC2    H2 1361   1.611   1.364   1.218  1.0184 -0.7708  1.5595
   87TMC2    C7 1362   1.529   1.415   0.964  0.4562  0.0986  0.8864
   87TMC2    C8 1363   1.812   1.234   1.296 -1.0470  0.5642 -0.9903
   87TMC2    O1 1364   1.475   1.380   0.861  0.5472  0.2244 -0.5065
   87TMC2    O2 1365   1.929   1.202   1.323  0.4392  0.6471  0.6259
   87TMC2    O5 1366   1.711   1.222   1.388 -0.4157  0.1389  0.5339
   87TMC2    H5 1367   1.619   1.216   1.353 -0.8867 -0.3590  1.8643
   88MPD2     C 1368   1.463   1.756   1.081 -0.4712 -0.7290 -0.1149
   88MPD2    C1 1369   1.431   1.642   1.017 -0.2025  0.4546  0.0206
   88MPD2    C2 1370   1.316   1.634   0.940  0.3476  0.3778 -0.7320
   88MPD2    C3 1371   1.234   1.742   0.924  0.6807  0.3694  0.2828
   88MPD2    C4 1372   1.265   1.860   0.989 -0.2961  0.1375  0.1337
   88MPD2    C5 1373   1.377   1.858   1.071  0.2927 -0.0660 -0.2186
   88MPD2     H 1374   1.300   1.543   0.883 -0.2209 -0.4545  0.7734
   88MPD2    H1 1375   1.207   1.950   0.977 -0.3515  0.1986  0.8278
   88MPD2    H2 1376   1.547   1.765   1.149 -0.2047  1.9855 -0.7949
   88MPD2    H3 1377   1.409   1.947   1.123  1.0802 -1.1657  1.1718
   88MPD2     N 1378   1.130   1.738   0.831 -0.1672  0.3580 -0.3253
   88MPD2    H5 1379   1.083   1.825   0.810  0.0454  0.0062 -2.2380
   88MPD2    N1 1380   1.525   1.536   1.033 -0.0356 -0.1881  0.9340
   88MPD2    H7 1381   1.596   1.563   1.101  1.8107 -0.0277 -1.0457
   89TMC2    C1 1382   2.852   4.698   1.461 -0.6399  0.1125  0.1079
   89TMC2    C2 1383   2.743   4.725   1.536 -0.6057  0.0237  0.3097
   89TMC2    C3 1384   2.716   0.121   1.557  1.0269 -0.1577 -0.5830
   89TMC2    C4 1385   2.921   0.061   1.404  0.8330  0.1141 -0.1240
   89TMC2    C5 1386   2.898   0.194   1.439 -0.6916 -0.7222  0.6453
   89TMC2    C6 1387   2.795   0.230   1.521  0.1201 -0.1424  0.5451
   89TMC2     C 1388   2.867   4.570   1.390  0.2964 -0.4104  0.7932
   89TMC2     O 1389   2.950   4.566   1.300 -0.5439 -0.0786 -0.0226
   89TMC2     H 1390   2.694   4.648   1.594 -0.4194  0.3889  0.9478
   89TMC2    H1 1391   3.020   0.032   1.373  1.5511  0.9460  1.3751
   89TMC2    H2 1392   2.774   0.335   1.542  0.1333 -0.1626  0.6588
   89TMC2    C7 1393   2.932   0.285   1.334  0.9164  0.3587  0.8806
   89TMC2    C8 1394   2.592   0.163   1.630  0.3742  0.5763  0.7235
   89TMC2    O1 1395   2.911   0.401   1.355 -0.5117  0.5109  0.5034
   89TMC2    O2 1396   2.582   0.276   1.680  0.0942 -0.2050  0.5100
   89TMC2    O5 1397   2.476   0.100   1.588  0.0123  0.4010  0.0317
   89TMC2    H5 1398   2.480   0.014   1.541  1.4923  1.2015 -1.3047
   90MPD2     C 1399   2.736   4.090   1.258  0.0326  0.4117 -0.6720
   90MPD2    C1 1400   2.629   4.150   1.317  0.4419 -0.3361  0.4348
   90MPD2    C2 1401   2.633   4.280   1.362 -0.1259  0.3660 -0.1920
   90MPD2    C3 1402   2.747   4.358   1.343 -0.6298  0.5294 -0.3480
   90MPD2    C4 1403   2.847   4.299   1.261 -0.4109 -0.5710 -0.5807
   90MPD2    C5 1404   2.840   4.171   1.209 -0.1170 -0.3026 -0.2598
   90MPD2     H 1405   2.548   4.326   1.412 -0.3952  1.1580 -1.3550
   90MPD2    H1 1406   2.937   4.349   1.227 -0.1288  0.9701  2.4391
   90MPD2    H2 1407   2.731   3.988   1.222 -2.1204 -0.0095  0.7884
   90MPD2    H3 1408   2.918   4.137   1.142 -1.2248  1.7668 -2.5836
   90MPD2     N 1409   2.759   4.482   1.411 -1.0229 -0.4348  0.1609
   90MPD2    H5 1410   2.695   4.508   1.485 -0.4997  0.1824  0.4058
   90MPD2    N1 1411   2.510   4.092   1.347  0.0983  0.2860 -0.3092
   90MPD2    H7 1412   2.432   4.147   1.382 -1.4912 -1.0612 -1.6929
   91TMC2    C1 1413   4.145   4.168  15.867  0.1332  0.1377  0.6697
   91TMC2    C2 1414   4.198   4.184  15.993  0.1730  0.3710 -0.1350
   91TMC2    C3 1415   4.109   4.140  16.094  0.2346  0.0727 -0.0079
   91TMC2    C4 1416   4.033   4.101  15.838 -0.6602 -0.6351  0.4533
   91TMC2    C5 1417   3.965   4.039  15.938 -0.4382  0.0817 -0.2460
   91TMC2    C6 1418   4.000   4.062  16.067  0.0569 -0.2276  0.7504
   91TMC2     C 1419   4.206   4.217  15.751 -0.4660  0.0903 -0.1120
   91TMC2     O 1420   4.144   4.206  15.645  0.3459  0.0986 -0.2768
   91TMC2     H 1421   4.269   4.258  16.026  0.2101  0.5866 -0.6977
   91TMC2    H1 1422   3.981   4.101  15.742 -1.8649 -2.4232  1.0926
   91TMC2    H2 1423   3.927   4.019  16.134  0.5749 -0.4178  1.1896
   91TMC2    C7 1424   3.868   3.938  15.919 -0.2672 -0.1266  0.9737
   91TMC2    C8 1425   4.161   4.132  16.229 -0.4052 -0.1404  0.8993
   91TMC2    O1 1426   3.782   3.925  16.003 -0.5581  0.0708  0.0711
   91TMC2    O2 1427   4.285   4.132  16.249 -0.3379 -0.4431  0.0214
   91TMC2    O5 1428   4.068   4.121  16.321 -0.2911  0.3342  0.2851
   91TMC2    H5 1429   3.982   4.132  16.276 -0.8658 -3.0602  0.5643
   92MPD2     C 1430   4.393   4.301  15.535 -0.3261  0.3284  0.3724
   92MPD2    C1 1431   4.432   4.251  15.662 -0.0738  0.3579 -0.1388
   92MPD2    C2 1432   4.560   4.215  15.685  0.5160 -0.0416  0.0054
   92MPD2    C3 1433   4.665   4.231  15.589 -0.3724 -0.1474  0.1530
   92MPD2    C4 1434   4.623   4.293  15.474 -0.7169  0.3543 -0.3591
   92MPD2    C5 1435   4.493   4.317  15.445  0.2879  0.5176  0.0251
   92MPD2     H 1436   4.590   4.183  15.784  0.5118  4.8979  1.6102
   92MPD2    H1 1437   4.696   4.329  15.402 -0.4934  1.9653  0.6843
   92MPD2    H2 1438   4.292   4.322  15.501 -0.1580  1.8590  0.7997
   92MPD2    H3 1439   4.472   4.366  15.351 -2.4415  0.5356  0.6326
   92MPD2     N 1440   0.062   4.183  15.626  0.5650 -0.1497 -0.1539
   92MPD2    H5 1441   0.072   4.125  15.708 -1.4386 -1.5541 -0.9088
   92MPD2    N1 1442   4.340   4.239  15.773 -0.0341 -0.0285  0.2438
   92MPD2    H7 1443   4.382   4.217  15.863 -2.6228 -0.5473  1.3584
   93TMC2    C1 1444   1.999   4.062  14.102  0.2857  0.3457 -0.0393
   93TMC2    C2 1445   1.906   4.080  13.996  0.4842  0.3422 -0.5381
   93TMC2    C3 1446   1.943   4.121  13.876  0.3820  0.7066  0.0596
   93TMC2    C4 1447   2.130   4.085  14.086 -0.9418 -0.2627 -0.0969
   93TMC2    C5 1448   2.163   4.116  13.956 -0.4955  0.0293 -0.0604
   93TMC2    C6 1449   2.074   4.138  13.850 -0.0822  0.3120 -0.6472
   93TMC2     C 1450   1.972   3.976  14.217  0.0222  0.6115  0.1546
   93TMC2     O 1451   2.055   3.970  14.312  0.2986 -0.1148  0.2067
   93TMC2     H 1452   1.802   4.057  14.018  0.6374 -1.7122 -2.0265
   93TMC2    H1 1453   2.198   4.076  14.170  0.1189  0.1657 -0.9031
   93TMC2    H2 1454   2.127   4.162  13.758  1.5737  1.7132  0.6730
   93TMC2    C7 1455   2.303   4.150  13.924  0.3098  0.3751 -0.1512
   93TMC2    C8 1456   1.842   4.138  13.773 -0.2321 -0.5555 -0.3344
   93TMC2    O1 1457   2.356   4.104  13.820  0.0034  0.0073  0.3818
   93TMC2    O2 1458   1.734   4.081  13.792  0.1577 -0.8562  0.0617
   93TMC2    O5 1459   1.854   4.261  13.734 -0.3389  0.3418 -0.1863
   93TMC2    H5 1460   1.943   4.300  13.737  0.4503 -1.3789 -1.0349
   94MPD2     C 1461   1.839   3.800  14.420 -0.3379 -0.1738 -1.0557
   94MPD2    C1 1462   1.810   3.796  14.283  0.0102 -0.0066 -0.5886
   94MPD2    C2 1463   1.734   3.692  14.239  0.2243 -0.1886  0.5069
   94MPD2    C3 1464   1.678   3.607  14.325  0.0004  0.5953 -0.3560
   94MPD2    C4 1465   1.689   3.629  14.459  0.1523  0.2180  0.1134
   94MPD2    C5 1466   1.773   3.718  14.512 -0.5884 -0.6008  0.7963
   94MPD2     H 1467   1.724   3.687  14.132 -0.1119  1.5224  0.4553
   94MPD2    H1 1468   1.646   3.563  14.534 -0.9348  1.9390  1.0193
   94MPD2    H2 1469   1.912   3.869  14.460 -1.0727 -1.5373  2.6805
   94MPD2    H3 1470   1.780   3.728  14.619  3.0481  0.9658  0.4182
   94MPD2     N 1471   1.577   3.516  14.280 -0.1378  0.1027 -0.2239
   94MPD2    H5 1472   1.502   3.482  14.339 -0.2135 -1.4069 -1.1971
   94MPD2    N1 1473   1.862   3.893  14.192  0.0815  0.4998  1.0091
   94MPD2    H7 1474   1.808   3.900  14.106 -0.2069  0.9094  1.2222
   95TMC2    C1 1475   1.979   1.090  16.846 -0.1384 -0.4423  0.3417
   95TMC2    C2 1476   1.941   0.974  16.907 -0.0440  0.5374 -0.1762
   95TMC2    C3 1477   1.991   0.949  17.031 -0.0587  0.3643 -0.6019
   95TMC2    C4 1478   2.058   1.183  16.901 -0.1791 -0.0670 -0.2473
   95TMC2    C5 1479   2.104   1.157  17.025  0.0218 -0.4635 -1.1943
   95TMC2    C6 1480   2.071   1.040  17.097 -0.4624  0.3803 -0.4982
   95TMC2     C 1481   1.947   1.119  16.708 -0.0029  0.2622 -0.4040
   95TMC2     O 1482   1.986   1.225  16.660  0.1919  0.1517  0.7085
   95TMC2     H 1483   1.883   0.895  16.861  1.1717  0.3254 -1.3395
   95TMC2    H1 1484   2.102   1.261  16.840 -1.5404 -0.1997 -1.3865
   95TMC2    H2 1485   2.103   1.029  17.200  1.1501  1.1182 -0.9299
   95TMC2    C7 1486   2.196   1.254  17.098  0.1214 -0.0825 -0.0266
   95TMC2    C8 1487   1.950   0.823  17.091 -0.1981 -0.4666 -0.0228
   95TMC2    O1 1488   2.255   1.221  17.200  0.4792 -0.0843  0.0055
   95TMC2    O2 1489   1.889   0.733  17.031  0.1919  0.2387  0.0079
   95TMC2    O5 1490   1.997   0.812  17.215  0.2177 -0.1220 -0.2554
   95TMC2    H5 1491   2.058   0.879  17.252  0.1216 -0.4884  0.5668
   96MPD2     C 1492   1.750   0.980  16.261  0.2286 -0.3465  0.4936
   96MPD2    C1 1493   1.821   1.093  16.297  0.1928 -0.5304  0.2833
   96MPD2    C2 1494   1.851   1.112  16.430 -0.2004 -0.4656  0.0412
   96MPD2    C3 1495   1.819   1.015  16.522  0.0801  0.3403  0.7894
   96MPD2    C4 1496   1.748   0.899  16.483  0.2632 -0.2342  0.3383
   96MPD2    C5 1497   1.718   0.887  16.352 -0.1195  0.4542  0.4366
   96MPD2     H 1498   1.887   1.206  16.470 -1.2985 -0.1145  0.2109
   96MPD2    H1 1499   1.724   0.816  16.549  0.0097  1.4912  2.4156
   96MPD2    H2 1500   1.720   0.962  16.158  0.4557 -1.1240  0.5630
   96MPD2    H3 1501   1.677   0.793  16.319  0.8018  0.3189 -0.3188
   96MPD2     N 1502   1.872   1.017  16.653  0.4893 -0.4517  0.5372
   96MPD2    H5 1503   1.844   0.940  16.713 -1.3962 -1.2728 -1.3661
   96MPD2    N1 1504   1.853   1.186  16.197 -0.0897 -0.4689 -0.5461
   96MPD2    H7 1505   1.828   1.162  16.101 -0.2462 -1.0675 -0.3593
   97TMC2    C1 1506   4.276   3.314   0.418 -0.4580  0.0879  0.4588
   97TMC2    C2 1507   4.386   3.242   0.366 -0.3655  0.2909  0.9761
   97TMC2    C3 1508   4.446   3.281   0.254  0.0135 -0.1159 -0.6982
   97TMC2    C4 1509   4.229   3.425   0.351 -0.1662  0.0811  0.4934
   97TMC2    C5 1510   4.296   3.462   0.231  0.2308 -0.0949 -0.0665
   97TMC2    C6 1511   4.403   3.394   0.183  0.9234 -0.1754 -0.4583
   97TMC2     C 1512   4.189   3.261   0.514 -0.1829 -0.4471  0.4969
   97TMC2     O 1513   4.069   3.285   0.510  0.9279  0.0699 -0.4119
   97TMC2     H 1514   4.416   3.155   0.422  0.5541  1.0458  1.6607
   97TMC2    H1 1515   4.129   3.462   0.371 -0.0593  0.1694  0.8759
   97TMC2    H2 1516   4.465   3.423   0.099  1.6070 -2.0024 -0.5735
   97TMC2    C7 1517   4.294   3.598   0.187 -0.1423  0.3510  0.0674
   97TMC2    C8 1518   4.589   3.253   0.257  0.1066  0.5126  0.2092
   97TMC2    O1 1519   4.386   3.639   0.120 -0.1385  0.4387  0.0499
   97TMC2    O2 1520   4.671   3.341   0.253 -0.1368  0.3367 -0.1948
   97TMC2    O5 1521   4.603   3.119   0.215  0.4542  0.2465 -0.5666
   97TMC2    H5 1522   4.526   3.058   0.224  0.1007  0.8304  0.4921
   98MPD2     C 1523   4.107   2.896   0.866  0.4692 -0.7934 -0.5129
   98MPD2    C1 1524   4.010   2.964   0.805 -0.0237  0.1623  0.0069
   98MPD2    C2 1525   4.055   3.068   0.719 -0.0271  0.7218  0.8490
   98MPD2    C3 1526   4.192   3.086   0.697  0.0328 -0.0632 -0.8712
   98MPD2    C4 1527   4.289   3.017   0.766 -0.4736 -0.8360 -0.2087
   98MPD2    C5 1528   4.242   2.918   0.851 -0.4140  0.4433 -0.3666
   98MPD2     H 1529   3.986   3.134   0.667  2.9406  1.2876 -2.3616
   98MPD2    H1 1530   4.396   3.033   0.757 -0.7731  0.9091 -0.6265
   98MPD2    H2 1531   4.077   2.820   0.937 -1.4525  0.4457 -0.0169
   98MPD2    H3 1532   4.303   2.850   0.909 -0.8832  0.6555  0.3837
   98MPD2     N 1533   4.255   3.174   0.600  0.6932  0.2666  0.7411
   98MPD2    H5 1534   4.357   3.171   0.602  0.6817 -2.9299 -3.1916
   98MPD2    N1 1535   3.876   2.925   0.828 -0.6540 -0.3509 -0.8228
   98MPD2    H7 1536   3.851   2.844   0.884 -2.6800  0.1022 -1.0766
   99TMC2    C1 1537   2.580   0.291   1.222 -0.1051 -0.3684  0.2351
   99TMC2    C2 1538   2.661   0.385   1.169  0.5316  0.8685  0.6734
   99TMC2    C3 1539   2.625   0.512   1.171 -0.0191 -0.9946  0.5328
   99TMC2    C4 1540   2.474   0.329   1.302  0.4262  0.7575  0.5243
   99TMC2    C5 1541   2.445   0.461   1.316 -0.4459 -0.4820 -0.1905
   99TMC2    C6 1542   2.520   0.554   1.248 -0.7905 -0.3270  0.2230
   99TMC2     C 1543   2.609   0.152   1.187 -0.1564 -0.2239 -0.0713
   99TMC2     O 1544   2.581   0.070   1.271  0.0563 -0.4498 -0.2462
   99TMC2     H 1545   2.740   0.362   1.098 -0.9591  1.1592 -1.0791
   99TMC2    H1 1546   2.422   0.258   1.365  2.5898  0.4767  1.9807
   99TMC2    H2 1547   2.495   0.659   1.243 -0.6138 -0.3592 -1.3627
   99TMC2    C7 1548   2.318   0.510   1.353 -0.5835  0.1001 -1.3027
   99TMC2    C8 1549   2.713   0.608   1.122 -0.6136 -0.3348 -0.3817
   99TMC2    O1 1550   2.313   0.619   1.407 -0.0265  0.2971  1.0015
   99TMC2    O2 1551   2.762   0.593   1.011  0.3296  0.7224 -0.4770
   99TMC2    O5 1552   2.735   0.705   1.209 -0.0077 -0.7640 -0.2926
   99TMC2    H5 1553   2.676   0.711   1.287 -1.0545 -1.6547 -1.0076
  100MPD2     C 1554   2.700   4.637   1.056  0.2752 -0.6368  0.5365
  100MPD2    C1 1555   2.674   0.014   0.980 -0.0412  0.3477 -0.4786
  100MPD2    C2 1556   2.674   0.003   0.838  0.5251 -0.4121  0.1083
  100MPD2    C3 1557   2.707   4.622   0.772  0.5232 -0.0162  0.8003
  100MPD2    C4 1558   2.751   4.509   0.848 -0.3665  0.0746  0.1681
  100MPD2    C5 1559   2.732   4.521   0.986 -0.1973  0.9204  0.6493
  100MPD2     H 1560   2.655   0.094   0.782  1.7840 -0.4111 -0.3106
  100MPD2    H1 1561   2.784   4.412   0.811  0.2724  0.6791 -0.8474
  100MPD2    H2 1562   2.704   4.637   1.165  0.3831 -0.4975  0.5332
  100MPD2    H3 1563   2.764   4.440   1.051  2.9697  0.3706 -1.6354
  100MPD2     N 1564   2.700   4.626   0.630 -0.6656  0.0721  0.3645
  100MPD2    H5 1565   2.646   4.703   0.593 -0.4702 -0.8444 -1.8395
  100MPD2    N1 1566   2.627   0.132   1.046 -0.5978 -0.4675 -0.0811
  100MPD2    H7 1567   2.605   0.212   0.987 -0.7363 -2.1676 -2.3305
  101TMC2    C1 1568   3.126   1.582  13.441  0.3483 -0.2623  0.1955
  101TMC2    C2 1569   3.052   1.692  13.404 -0.2216 -0.2960  0.0407
  101TMC2    C3 1570   3.109   1.788  13.332  0.2948 -0.7510  0.3873
  101TMC2    C4 1571   3.249   1.564  13.388  0.1444  0.3598  0.2018
  101TMC2    C5 1572   3.290   1.650  13.292  0.1960  0.0058 -0.1228
  101TMC2    C6 1573   3.222   1.763  13.256  0.3936  0.5449 -1.5107
  101TMC2     C 1574   3.056   1.481  13.523  0.5247 -0.2311  0.3240
  101TMC2     O 1575   2.937   1.478  13.497  0.3362 -0.2457  0.4788
  101TMC2     H 1576   2.950   1.695  13.440  0.3280  1.2744  1.4916
  101TMC2    H1 1577   3.302   1.470  13.397 -1.7612 -0.8635 -1.5706
  101TMC2    H2 1578   3.260   1.832  13.181 -0.6869  0.9319 -1.7031
  101TMC2    C7 1579   3.433   1.641  13.266  0.1021 -0.2395 -0.4512
  101TMC2    C8 1580   3.040   1.915  13.308 -0.7145  0.0199 -0.1392
  101TMC2    O1 1581   3.472   1.715  13.178  0.8480  0.9141 -0.3384
  101TMC2    O2 1582   3.062   1.993  13.216 -0.0625 -0.1085 -0.0130
  101TMC2    O5 1583   2.989   1.955  13.427  0.1512 -0.0867 -0.2856
  101TMC2    H5 1584   3.040   1.905  13.495 -0.4017  2.2086  1.8509
  102MPD2     C 1585   3.176   1.248  13.774  0.1711 -0.2824 -0.7768
  102MPD2    C1 1586   3.094   1.295  13.672 -0.3942  0.4867 -0.3606
  102MPD2    C2 1587   2.977   1.228  13.646 -0.3492 -0.3190 -0.0423
  102MPD2    C3 1588   2.941   1.124  13.725  0.2830  0.9079 -0.1906
  102MPD2    C4 1589   3.020   1.082  13.832  0.4549 -0.1117 -0.0142
  102MPD2    C5 1590   3.136   1.145  13.854 -0.1942  0.2705  0.2552
  102MPD2     H 1591   2.913   1.259  13.564  0.5145  0.1397 -0.5389
  102MPD2    H1 1592   2.990   1.002  13.898  0.2616  0.0482  0.0930
  102MPD2    H2 1593   3.271   1.296  13.796  0.0688  0.0579 -1.0682
  102MPD2    H3 1594   3.201   1.100  13.927  0.1223  1.7826  0.9038
  102MPD2     N 1595   2.809   1.067  13.704 -0.0726 -0.3347 -0.2907
  102MPD2    H5 1596   2.760   1.090  13.618  1.4442  1.6173 -0.6390
  102MPD2    N1 1597   3.134   1.405  13.599  0.3158  0.1457 -0.0933
  102MPD2    H7 1598   3.226   1.442  13.621  0.6858 -0.6826 -0.2551
  103TMC2    C1 1599   1.769   1.621  12.298  0.6881  0.1309  0.2129
  103TMC2    C2 1600   1.878   1.680  12.241  0.2713 -0.3267  0.5783
  103TMC2    C3 1601   1.971   1.733  12.326  0.0250 -0.7991 -0.3856
  103TMC2    C4 1602   1.750   1.616  12.432 -0.1577 -0.3486  0.2676
  103TMC2    C5 1603   1.846   1.672  12.513  0.5148 -0.3368  0.5201
  103TMC2    C6 1604   1.963   1.730  12.460  0.0515 -0.4834 -0.4721
  103TMC2     C 1605   1.653   1.628  12.215 -0.3270  0.2659  0.2343
  103TMC2     O 1606   1.657   1.687  12.112 -0.0552 -0.2885 -0.0872
  103TMC2     H 1607   1.895   1.679  12.134 -1.3071 -1.6090  0.3406
  103TMC2    H1 1608   1.655   1.584  12.474 -0.0129 -1.0988  0.0167
  103TMC2    H2 1609   2.030   1.788  12.523  0.3967 -1.6103  0.2091
  103TMC2    C7 1610   1.795   1.713  12.643 -0.7349  1.3716 -0.2596
  103TMC2    C8 1611   2.101   1.762  12.265  0.5089  0.5161 -0.2633
  103TMC2    O1 1612   1.762   1.632  12.728 -0.0256  0.1777 -0.4464
  103TMC2    O2 1613   2.165   1.680  12.199 -0.1103  0.5147 -0.3423
  103TMC2    O5 1614   2.141   1.879  12.324 -0.1268  0.4795 -0.0486
  103TMC2    H5 1615   2.071   1.932  12.366 -0.9839 -0.8536  0.2183
  104MPD2     C 1616   1.390   1.381  12.198 -0.0877 -0.5427  0.0951
  104MPD2    C1 1617   1.442   1.506  12.180 -0.2957  0.0793  0.2807
  104MPD2    C2 1618   1.370   1.600  12.105  0.3446 -0.4313 -0.3526
  104MPD2    C3 1619   1.258   1.561  12.023  0.4806  0.1799  0.2966
  104MPD2    C4 1620   1.207   1.433  12.043  0.3727 -0.0166 -0.9959
  104MPD2    C5 1621   1.271   1.349  12.130 -0.2113 -0.5202  0.0360
  104MPD2     H 1622   1.404   1.703  12.093  1.8584 -1.2293 -2.9220
  104MPD2    H1 1623   1.115   1.389  12.007  0.5572 -0.7289 -0.5867
  104MPD2    H2 1624   1.438   1.316  12.270  3.2035 -3.3479 -4.6706
  104MPD2    H3 1625   1.231   1.249  12.140  0.2461 -0.8215 -1.1581
  104MPD2     N 1626   1.187   1.651  11.942 -0.0697  0.1915 -0.1879
  104MPD2    H5 1627   1.228   1.744  11.939 -0.7527  0.4836 -0.5209
  104MPD2    N1 1628   1.564   1.533  12.249 -0.3677 -0.1498 -0.3458
  104MPD2    H7 1629   1.584   1.470  12.327 -0.0573  0.2067 -0.1378
  105TMC2    C1 1630   2.470   0.481   0.512 -0.4423 -0.6193 -0.2125
  105TMC2    C2 1631   2.495   0.462   0.649  0.7185 -0.2315  0.3232
  105TMC2    C3 1632   2.388   0.480   0.730  0.6435 -0.2166 -0.3587
  105TMC2    C4 1633   2.350   0.525   0.467  0.3804  0.8026  0.0645
  105TMC2    C5 1634   2.256   0.565   0.557 -0.0844 -0.3107  0.0454
  105TMC2    C6 1635   2.275   0.538   0.692  0.4646 -1.2294 -0.1661
  105TMC2     C 1636   2.583   0.453   0.425  0.4134 -0.9925  0.9642
  105TMC2     O 1637   2.664   0.373   0.470 -0.4474  0.5921 -0.5919
  105TMC2     H 1638   2.593   0.432   0.685 -0.0577 -0.6083  2.1480
  105TMC2    H1 1639   2.325   0.527   0.362 -1.9786 -1.6810  0.5916
  105TMC2    H2 1640   2.196   0.572   0.758  2.0970 -0.1898  1.2437
  105TMC2    C7 1641   2.116   0.600   0.512  0.2336 -0.1904  0.0395
  105TMC2    C8 1642   2.421   0.487   0.873  0.1886 -0.7427  0.9439
  105TMC2    O1 1643   2.073   0.551   0.409 -0.2549 -0.1493  0.8385
  105TMC2    O2 1644   2.379   0.570   0.949 -0.7026  0.4179 -0.4851
  105TMC2    O5 1645   2.446   0.361   0.914  0.4306  0.4758 -0.2843
  105TMC2    H5 1646   2.437   0.301   0.837 -3.3228 -0.0623  0.5719
  106MPD2     C 1647   2.848   0.418  17.715 -0.1355  0.8699  0.3835
  106MPD2    C1 1648   2.747   0.510  17.705  0.6928  0.7743 -0.2832
  106MPD2    C2 1649   2.656   0.536   0.076 -0.7790 -1.1171 -0.3434
  106MPD2    C3 1650   2.670   0.469   0.191 -0.8763 -0.4353  0.0340
  106MPD2    C4 1651   2.769   0.367   0.198  0.6764  0.0404  0.1603
  106MPD2    C5 1652   2.858   0.344   0.090 -0.3250 -0.2291  0.7819
  106MPD2     H 1653   2.585   0.617   0.063  0.8144  0.5565  1.3262
  106MPD2    H1 1654   2.778   0.298   0.281 -1.1765 -2.4898 -1.7201
  106MPD2    H2 1655   2.933   0.410  17.648  0.1713  0.2806  0.8450
  106MPD2    H3 1656   2.942   0.279   0.108  1.1278  1.9143  1.7327
  106MPD2     N 1657   2.577   0.502   0.297 -0.0877  0.3757 -0.1309
  106MPD2    H5 1658   2.507   0.568   0.265 -2.0656 -0.5115  2.3041
  106MPD2    N1 1659   2.723   0.582  17.587 -0.2318  0.4666  0.0723
  106MPD2    H7 1660   2.650   0.652  17.590 -1.4178 -0.6772 -2.1366
  107TMC2    C1 1661   3.354   0.847  11.588  0.1416  0.0928 -0.3339
  107TMC2    C2 1662   3.333   0.917  11.471 -0.2423 -0.3165  0.6213
  107TMC2    C3 1663   3.338   0.843  11.353  0.4480 -0.3955  0.0572
  107TMC2    C4 1664   3.385   0.719  11.592  0.0726  0.2173 -0.6575
  107TMC2    C5 1665   3.396   0.650  11.471 -0.1739 -0.0557  0.6471
  107TMC2    C6 1666   3.378   0.715  11.354  0.1896  0.2648  0.3090
  107TMC2     C 1667   3.324   0.921  11.711 -1.0564 -0.3998  0.0203
  107TMC2     O 1668   3.371   0.871  11.813 -0.3528  0.3582  0.0016
  107TMC2     H 1669   3.323   1.025  11.471 -1.3114 -0.4197 -0.1420
  107TMC2    H1 1670   3.407   0.667  11.684  0.6863  1.6103 -0.0181
  107TMC2    H2 1671   3.390   0.672  11.255 -0.4478  2.7073 -0.8312
  107TMC2    C7 1672   3.443   0.513  11.474 -0.5840  0.0102 -0.0330
  107TMC2    C8 1673   3.307   0.909  11.228  0.1019 -0.6639  0.4637
  107TMC2    O1 1674   3.466   0.466  11.584 -0.1059 -0.3722 -1.1160
  107TMC2    O2 1675   3.335   0.863  11.115  0.4025 -0.5313 -0.2916
  107TMC2    O5 1676   3.279   1.034  11.257  0.3044 -0.4341  0.4522
  107TMC2    H5 1677   3.230   1.032  11.342 -1.3741  0.9433 -0.4962
  108MPD2     C 1678   3.052   1.164  11.772 -0.2498 -0.3674 -0.7912
  108MPD2    C1 1679   3.143   1.063  11.807 -0.3569  0.0267 -0.0020
  108MPD2    C2 1680   3.145   1.011  11.936 -0.4349 -0.0867 -0.0892
  108MPD2    C3 1681   3.055   1.057  12.034 -0.5367 -0.4283 -0.7317
  108MPD2    C4 1682   2.963   1.156  11.997  0.6192 -0.7987  0.1541
  108MPD2    C5 1683   2.970   1.210  11.871 -0.2200  0.0604 -1.1084
  108MPD2     H 1684   3.217   0.936  11.966  0.0543 -0.5137 -2.3253
  108MPD2    H1 1685   2.891   1.202  12.063  1.6355 -2.7578  2.6184
  108MPD2    H2 1686   3.045   1.207  11.673 -2.2281 -1.0750 -0.9551
  108MPD2    H3 1687   2.901   1.292  11.852  0.1040  0.5276 -0.2890
  108MPD2     N 1688   3.049   1.009  12.172 -0.3014  0.1304  0.0367
  108MPD2    H5 1689   2.982   1.062  12.227 -2.9763 -3.0931 -0.0927
  108MPD2    N1 1690   3.230   1.021  11.698  0.0608  0.2691 -0.2249
  108MPD2    H7 1691   3.215   1.064  11.607 -2.8359  0.4361  0.3163
  109TMC2    C1 1692   2.575   2.507   0.625  0.9061  0.0186  0.1820
  109TMC2    C2 1693   2.551   2.506   0.490 -0.1933 -0.5839  0.1096
  109TMC2    C3 1694   2.626   2.426   0.412 -0.0557  0.0599  0.8943
  109TMC2    C4 1695   2.673   2.436   0.681  0.0897 -0.3360 -0.0695
  109TMC2    C5 1696   2.753   2.356   0.602  0.4760 -0.4271  0.1373
  109TMC2    C6 1697   2.727   2.350   0.465  0.5305 -0.0155 -0.4166
  109TMC2     C 1698   2.536   2.623   0.701  0.3988 -0.5326  0.0760
  109TMC2     O 1699   2.433   2.681   0.672 -0.0566  0.4750 -0.6984
  109TMC2     H 1700   2.462   2.552   0.448  1.8542  2.7642 -0.5911
  109TMC2    H1 1701   2.677   2.436   0.789  0.4870 -0.8646 -0.0842
  109TMC2    H2 1702   2.783   2.289   0.394 -0.8623 -0.5008 -1.0968
  109TMC2    C7 1703   2.901   2.367   0.630  0.6521  0.7827  0.4626
  109TMC2    C8 1704   2.597   2.429   0.269 -0.9091 -0.0547  0.1847
  109TMC2    O1 1705   2.928   2.424   0.731 -0.1146  0.5910 -0.5140
  109TMC2    O2 1706   2.642   2.330   0.205 -0.2277 -0.3046 -0.3482
  109TMC2    O5 1707   2.604   2.559   0.229  0.1562 -0.4541 -0.2196
  109TMC2    H5 1708   2.585   2.630   0.295  0.2868 -0.6281  0.0058
  110MPD2     C 1709   2.669   3.032   0.995 -0.2634  0.3550  0.0663
  110MPD2    C1 1710   2.782   2.959   0.963  0.1388  0.0352  0.1901
  110MPD2    C2 1711   2.775   2.839   0.888  0.0363 -0.2286 -0.0074
  110MPD2    C3 1712   2.652   2.796   0.840 -0.6710  0.4378 -0.4241
  110MPD2    C4 1713   2.546   2.879   0.864  0.2987 -0.5117 -0.1679
  110MPD2    C5 1714   2.551   2.990   0.941  0.1460  0.5970  0.2318
  110MPD2     H 1715   2.862   2.783   0.855  1.4996  0.4121  2.7333
  110MPD2    H1 1716   2.451   2.845   0.824 -0.9372  2.1438  0.5054
  110MPD2    H2 1717   2.674   3.126   1.048  0.8583  0.2818  0.0860
  110MPD2    H3 1718   2.457   3.039   0.966 -0.0864  0.7061 -0.8859
  110MPD2     N 1719   2.647   2.677   0.762  0.2349  0.2669 -0.2986
  110MPD2    H5 1720   2.731   2.620   0.760 -1.0061 -1.5248 -1.5055
  110MPD2    N1 1721   2.904   3.017   1.018  0.0942 -0.1139 -0.4881
  110MPD2    H7 1722   2.895   3.108   1.062  1.0844 -0.3503  0.2020
  111TMC2    C1 1723   3.599   2.554  12.323  0.3585  0.1494 -0.3445
  111TMC2    C2 1724   3.643   2.650  12.234 -0.2093  0.0184  0.4594
  111TMC2    C3 1725   3.760   2.714  12.262 -0.2118 -0.5140 -0.1697
  111TMC2    C4 1726   3.678   2.520  12.428  0.3673 -0.2632  0.4343
  111TMC2    C5 1727   3.791   2.591  12.453  0.1296  0.4209 -0.0106
  111TMC2    C6 1728   3.840   2.687  12.368  0.0696  0.5271 -0.1431
  111TMC2     C 1729   3.474   2.485  12.293  0.1371  0.2033  0.0615
  111TMC2     O 1730   3.425   2.430  12.393  0.6917  0.0241  0.1068
  111TMC2     H 1731   3.582   2.698  12.159  0.1968  5.4096  3.5423
  111TMC2    H1 1732   3.644   2.438  12.491  1.9717 -1.8138 -0.7135
  111TMC2    H2 1733   3.920   2.753  12.401  0.8329 -0.7411  0.5352
  111TMC2    C7 1734   3.887   2.511  12.525  0.4990  0.4500  0.6613
  111TMC2    C8 1735   3.803   2.833  12.196 -0.4356  0.2436  0.2365
  111TMC2    O1 1736   3.842   2.427  12.601  0.1410  0.1045  0.2289
  111TMC2    O2 1737   3.918   2.867  12.168 -0.2131 -0.5004 -0.1145
  111TMC2    O5 1738   3.697   2.916  12.193  0.0106 -0.2838 -0.5859
  111TMC2    H5 1739   3.622   2.875  12.241  0.2785 -0.2251 -0.1223
  112MPD2     C 1740   3.089   2.364  11.979  0.2509  0.0616  0.4399
  112MPD2    C1 1741   3.188   2.417  11.899  0.2597  0.8896 -0.2488
  112MPD2    C2 1742   3.308   2.455  11.962  0.3856  0.0563  0.3476
  112MPD2    C3 1743   3.318   2.449  12.098 -0.0156  0.4784 -0.1819
  112MPD2    C4 1744   3.209   2.416  12.173  0.0386 -0.0422 -0.2327
  112MPD2    C5 1745   3.092   2.373  12.111 -0.1906  0.0806  1.2743
  112MPD2     H 1746   3.393   2.493  11.907 -1.0633 -0.2713 -2.1259
  112MPD2    H1 1747   3.203   2.392  12.279  2.1901  1.6171  0.2761
  112MPD2    H2 1748   2.994   2.327  11.942  1.1105 -1.8105  0.1164
  112MPD2    H3 1749   3.003   2.355  12.169 -1.9292  2.3787 -0.6647
  112MPD2     N 1750   3.439   2.486  12.159  0.8027 -0.2436  0.1361
  112MPD2    H5 1751   3.512   2.508  12.092  0.3715  0.0997 -0.2262
  112MPD2    N1 1752   3.186   2.412  11.759 -0.3173 -0.3511  0.5211
  112MPD2    H7 1753   3.267   2.450  11.711 -0.8597  1.6127  1.1390
  113TMC2    C1 1754   1.395   0.121   0.580  0.1244 -0.0085 -0.4672
  113TMC2    C2 1755   1.286   0.201   0.588 -0.1834  0.4393  0.0607
  113TMC2    C3 1756   1.169   0.132   0.575 -0.0057 -0.0483  0.2445
  113TMC2    C4 1757   1.394   4.723   0.560  0.3001 -0.5995  0.1782
  113TMC2    C5 1758   1.270   4.664   0.556  0.0045 -0.5347 -0.1666
  113TMC2    C6 1759   1.161   0.003   0.553  0.5370  0.1383  0.2264
  113TMC2     C 1760   1.514   0.188   0.617 -0.9122  0.6346 -0.5550
  113TMC2     O 1761   1.498   0.308   0.632 -0.1198  0.1824 -0.1629
  113TMC2     H 1762   1.285   0.308   0.605  0.1936 -0.0241  2.9700
  113TMC2    H1 1763   1.481   4.657   0.557 -0.3450 -1.4156 -0.4257
  113TMC2    H2 1764   1.064   4.694   0.533  1.1908 -0.6714 -1.1840
  113TMC2    C7 1765   1.271   4.520   0.525  0.4579 -0.8120 -0.0529
  113TMC2    C8 1766   1.046   0.222   0.587  0.4732 -1.0698  0.1949
  113TMC2    O1 1767   1.369   4.468   0.470  0.0056 -0.1029 -0.0426
  113TMC2    O2 1768   1.046   0.337   0.545  0.0244  0.0149  0.1297
  113TMC2    O5 1769   0.935   0.144   0.597 -0.5881 -0.0619 -0.0080
  113TMC2    H5 1770   0.938   0.052   0.632 -1.2720  0.5605  1.7336
  114MPD2     C 1771   1.980   0.188   0.824 -0.4672 -0.1121 -0.6472
  114MPD2    C1 1772   1.888   0.288   0.809 -0.7334 -0.4255  0.2211
  114MPD2    C2 1773   1.770   0.266   0.744  0.0350  0.3250  0.2833
  114MPD2    C3 1774   1.745   0.146   0.690 -0.3252  0.3844  0.1377
  114MPD2    C4 1775   1.834   0.043   0.702  0.0732 -0.5328  0.7485
  114MPD2    C5 1776   1.956   0.063   0.769 -0.2705  0.5847 -0.1824
  114MPD2     H 1777   1.704   0.352   0.736  0.6249  0.7433 -0.0872
  114MPD2    H1 1778   1.820   4.676   0.669  0.6500 -0.0804 -0.8758
  114MPD2    H2 1779   2.073   0.199   0.879 -0.8718  1.3732 -0.2696
  114MPD2    H3 1780   2.021   4.716   0.798 -0.0906 -0.3981 -3.4393
  114MPD2     N 1781   1.617   0.106   0.638  0.3045  0.2228  0.0630
  114MPD2    H5 1782   1.603   0.005   0.637  0.7094  0.1510  1.4686
  114MPD2    N1 1783   1.914   0.422   0.863  0.0556 -0.0949  0.2314
  114MPD2    H7 1784   1.836   0.482   0.838 -0.5129 -0.4588  1.1320
  115TMC2    C1 1785   2.747   3.273  17.680  0.1751 -0.0104 -0.2592
  115TMC2    C2 1786   2.848   3.240   0.023 -0.0836  0.4330 -0.2142
  115TMC2    C3 1787   2.936   3.338   0.051 -0.5522 -0.2915  1.0197
  115TMC2    C4 1788   2.721   3.394  17.622  0.3696  0.1180  0.7400
  115TMC2    C5 1789   2.809   3.488  17.652 -0.5355 -0.3898  0.1724
  115TMC2    C6 1790   2.919   3.463  17.733 -0.0378  0.9719 -0.0919
  115TMC2     C 1791   2.638   3.173  17.683 -0.0805  0.3704  0.5975
  115TMC2     O 1792   2.664   3.067   0.001  0.7125 -0.3790  0.5243
  115TMC2     H 1793   2.855   3.143   0.071  0.2998  0.9126  0.7004
  115TMC2    H1 1794   2.630   3.421  17.569  0.5409  0.1964  0.4887
  115TMC2    H2 1795   2.991   3.541   0.013  0.3972  0.4720  0.2988
  115TMC2    C7 1796   2.782   3.627  17.619  0.1612  0.7996 -0.3796
  115TMC2    C8 1797   3.054   3.294   0.130 -0.5035 -0.4885  0.3211
  115TMC2    O1 1798   2.811   3.712  17.702 -0.1277  0.0942 -0.1727
  115TMC2    O2 1799   3.089   3.177   0.117  0.2794 -0.8589  0.4331
  115TMC2    O5 1800   3.132   3.405   0.156 -0.6759  0.5416  0.0438
  115TMC2    H5 1801   3.076   3.485   0.158 -2.3593 -0.6368 -0.5702
  116MPD2     C 1802   2.245   2.945  17.460 -0.1349  0.3025  0.0068
  116MPD2    C1 1803   2.333   2.888  17.543 -0.3842 -0.1500 -0.5617
  116MPD2    C2 1804   2.430   2.976  17.595 -0.1682 -0.3322 -0.2300
  116MPD2    C3 1805   2.435   3.106  17.554  0.2669 -0.1876 -0.5749
  116MPD2    C4 1806   2.349   3.158  17.463  0.8572  0.5922 -0.5245
  116MPD2    C5 1807   2.251   3.072  17.411  0.1045 -0.4146  0.2951
  116MPD2     H 1808   2.509   2.933  17.656 -0.0465  0.0905 -0.0892
  116MPD2    H1 1809   2.349   3.262  17.433 -2.4498  1.0441  1.1104
  116MPD2    H2 1810   2.161   2.890  17.419 -1.9755  0.8220  3.1242
  116MPD2    H3 1811   2.175   3.111  17.345 -1.1186  0.3603  2.1661
  116MPD2     N 1812   2.543   3.194  17.590 -0.2063  0.1226 -0.3390
  116MPD2    H5 1813   2.553   3.282  17.540 -1.8355 -0.9005 -2.4880
  116MPD2    N1 1814   2.317   2.749  17.575  0.3836 -0.1213  0.2884
  116MPD2    H7 1815   2.245   2.704  17.519  2.1086 -1.7379 -0.6217
  117TMC2    C1 1816   0.916   3.882  13.904  0.1510  0.0805  0.0296
  117TMC2    C2 1817   0.960   3.772  13.975  0.1071 -0.1754 -0.1996
  117TMC2    C3 1818   1.081   3.788  14.034  0.9083  0.5117 -0.6052
  117TMC2    C4 1819   0.992   3.992  13.869 -0.3290 -0.7015  0.3967
  117TMC2    C5 1820   1.121   3.994  13.922  0.8928  0.7105 -0.2201
  117TMC2    C6 1821   1.159   3.898  14.014 -0.7355 -0.0897  0.3525
  117TMC2     C 1822   0.774   3.887  13.884 -0.1287 -0.3930  0.7341
  117TMC2     O 1823   0.712   3.781  13.875  0.3191  0.3319 -0.8803
  117TMC2     H 1824   0.901   3.681  13.984  0.4356 -0.3663  0.0423
  117TMC2    H1 1825   0.956   4.075  13.810  1.5179  0.1701  0.4864
  117TMC2    H2 1826   1.247   3.903  14.078 -0.7251 -2.2909  0.5371
  117TMC2    C7 1827   1.198   4.119  13.937  0.4866 -0.2686  0.7169
  117TMC2    C8 1828   1.116   3.720  14.162 -0.2829 -0.4934 -0.6446
  117TMC2    O1 1829   1.297   4.116  14.011  0.4693 -0.1173 -0.3543
  117TMC2    O2 1830   1.220   3.695  14.222  0.0759 -0.3958  0.7264
  117TMC2    O5 1831   0.999   3.661  14.194  0.3200 -0.1187 -0.1412
  117TMC2    H5 1832   0.913   3.702  14.172 -1.2880 -2.6062  1.4263
  118MPD2     C 1833   1.216   4.405  14.003  0.7885  0.2988 -0.4036
  118MPD2    C1 1834   1.200   4.356  13.874  1.0022 -0.5144 -0.0294
  118MPD2    C2 1835   1.212   4.447  13.769 -0.3943 -0.4986  0.3323
  118MPD2    C3 1836   1.258   4.576  13.789 -0.1199  0.4086  0.0861
  118MPD2    C4 1837   1.286   4.611  13.919 -0.2751  0.0473  0.4306
  118MPD2    C5 1838   1.260   4.534  14.022 -0.0879  0.1202  0.4358
  118MPD2     H 1839   1.189   4.410  13.670 -1.4448  0.8662  0.0798
  118MPD2    H1 1840   1.321   4.714  13.922  0.5825 -0.1842 -1.7229
  118MPD2    H2 1841   1.195   4.359  14.098  0.0839 -0.9006 -1.1394
  118MPD2    H3 1842   1.274   4.581  14.118 -0.6761 -0.0885  0.6261
  118MPD2     N 1843   1.275   4.675  13.688  0.2459 -0.0100  0.3048
  118MPD2    H5 1844   1.298   0.035  13.714  1.8449 -1.0337  2.6260
  118MPD2    N1 1845   1.151   4.220  13.857 -0.2852  0.4661 -0.1585
  118MPD2    H7 1846   1.105   4.199  13.769 -1.1447  0.4465  0.3007
  119TMC2    C1 1847   3.856   0.419  13.029 -0.6811  0.3715  0.2044
  119TMC2    C2 1848   3.901   0.360  12.914 -0.0571 -0.3131 -0.1414
  119TMC2    C3 1849   3.834   0.253  12.874  0.3471 -0.1657  0.0517
  119TMC2    C4 1850   3.771   0.358  13.115  0.2338  0.5440 -0.4070
  119TMC2    C5 1851   3.703   0.249  13.063 -0.0789 -0.6971  0.2791
  119TMC2    C6 1852   3.731   0.198  12.939 -0.6608 -0.1314  1.1595
  119TMC2     C 1853   3.905   0.548  13.080  0.5171 -0.0981  0.0201
  119TMC2     O 1854   3.822   0.606  13.153  0.4270  0.2243  0.2887
  119TMC2     H 1855   3.977   0.402  12.849  0.1021  1.7183  1.3725
  119TMC2    H1 1856   3.735   0.400  13.209  1.7905  1.8103 -0.3880
  119TMC2    H2 1857   3.670   0.120  12.895 -1.7108  1.3174  0.0981
  119TMC2    C7 1858   3.566   0.210  13.111  0.1179 -0.0437 -0.3994
  119TMC2    C8 1859   3.883   0.176  12.766 -0.4032  0.1791 -1.0558
  119TMC2    O1 1860   3.488   0.185  13.022  0.6007  0.4649 -0.5457
  119TMC2    O2 1861   3.821   0.087  12.711 -0.4630  0.0683 -0.4143
  119TMC2    O5 1862   4.005   0.166  12.815  0.3177 -0.3049  0.7148
  119TMC2    H5 1863   4.038   0.237  12.874 -1.2970 -0.2786  1.5705
  120MPD2     C 1864   4.221   0.955  13.056 -0.4025  0.3297 -0.1649
  120MPD2    C1 1865   4.104   0.940  13.132 -0.0617  0.0891 -0.7830
  120MPD2    C2 1866   4.039   0.815  13.120  0.3768 -0.1763  0.2016
  120MPD2    C3 1867   4.090   0.713  13.038 -0.2555  0.2682  0.8062
  120MPD2    C4 1868   4.197   0.739  12.964 -0.0261 -0.0670 -0.2398
  120MPD2    C5 1869   4.260   0.859  12.963  0.6484  1.0315 -0.2510
  120MPD2     H 1870   3.953   0.782  13.177 -0.8971 -1.1974 -2.3146
  120MPD2    H1 1871   4.233   0.665  12.893  1.9781  0.7258 -0.0565
  120MPD2    H2 1872   4.274   1.049  13.062  1.7162 -0.7254 -2.7573
  120MPD2    H3 1873   4.351   0.881  12.907 -0.5345 -0.7956 -2.8909
  120MPD2     N 1874   4.031   0.580  13.032  0.1677  0.3775 -0.1876
  120MPD2    H5 1875   4.088   0.517  12.976  0.3667 -1.1711  1.7462
  120MPD2    N1 1876   4.064   1.032  13.232  0.1294 -0.3367  1.0879
  120MPD2    H7 1877   4.130   1.106  13.256 -0.2403  0.8822 -1.6990
  121TMC2    C1 1878   1.228   2.252  13.936 -0.9119 -0.1309 -0.0885
  121TMC2    C2 1879   1.198   2.232  14.071  0.1615 -0.3731 -0.5466
  121TMC2    C3 1880   1.093   2.163  14.118  0.7934  0.3387 -0.2126
  121TMC2    C4 1881   1.131   2.222  13.840 -0.2582 -0.0926  0.0063
  121TMC2    C5 1882   1.026   2.150  13.889 -0.9501  0.1718 -0.6245
  121TMC2    C6 1883   1.004   2.122  14.024  0.8581 -0.2190  0.7343
  121TMC2     C 1884   1.310   2.363  13.919  0.2126  0.1885 -0.2507
  121TMC2     O 1885   1.395   2.385  14.003  0.0411 -0.0050 -0.2971
  121TMC2     H 1886   1.266   2.261  14.150  0.1413  0.0425 -0.6817
  121TMC2    H1 1887   1.159   2.240  13.737 -1.3918  0.0458 -0.2707
  121TMC2    H2 1888   0.916   2.066  14.053 -0.7297  1.0939 -1.5602
  121TMC2    C7 1889   0.912   2.108  13.809  0.1157 -0.9603  0.5674
  121TMC2    C8 1890   1.106   2.114  14.255  0.3732 -0.1434  0.2855
  121TMC2    O1 1891   0.916   2.039  13.711 -0.2923 -0.6465  0.3641
  121TMC2    O2 1892   1.219   2.086  14.293  0.3423  0.2867 -0.2130
  121TMC2    O5 1893   0.995   2.042  14.284  0.2910 -0.4570 -0.0333
  121TMC2    H5 1894   0.923   2.078  14.228  1.1089  1.9091  0.4144
  122MPD2     C 1895   1.464   2.591  13.804 -0.6255 -0.2868  0.2882
  122MPD2    C1 1896   1.345   2.541  13.755 -0.7692 -0.1987 -0.0775
  122MPD2    C2 1897   1.288   2.610  13.654 -0.2765 -0.3626  0.4577
  122MPD2    C3 1898   1.346   2.722  13.602  1.1384 -0.4883  0.2823
  122MPD2    C4 1899   1.457   2.776  13.655 -0.7365  0.0793  0.6332
  122MPD2    C5 1900   1.523   2.703  13.754 -0.7152 -0.3565 -0.2435
  122MPD2     H 1901   1.193   2.573  13.617  0.6967  0.4109 -2.8655
  122MPD2    H1 1902   1.512   2.846  13.594  0.0717 -0.7740  0.3918
  122MPD2    H2 1903   1.515   2.541  13.886  2.0810  1.4182 -0.3376
  122MPD2    H3 1904   1.623   2.734  13.784  0.1962 -2.7819 -0.7973
  122MPD2     N 1905   1.281   2.797  13.492  0.2542  0.2961  0.2887
  122MPD2    H5 1906   1.313   2.890  13.468 -1.7146  1.4001  1.9087
  122MPD2    N1 1907   1.264   2.442  13.814  0.1756  0.4716 -0.1300
  122MPD2    H7 1908   1.178   2.414  13.767  0.0274  0.6258  0.0498
  123TMC2    C1 1909   1.756   0.169   9.143 -0.2201  0.3890  0.1038
  123TMC2    C2 1910   1.675   0.114   9.045 -0.5441 -0.1762 -0.3953
  123TMC2    C3 1911   1.684   4.717   9.012  0.6344  0.7886 -0.5030
  123TMC2    C4 1912   1.828   0.084   9.217 -0.3389 -0.5513  0.1298
  123TMC2    C5 1913   1.825   4.681   9.201  0.1014  0.5977 -0.2050
  123TMC2    C6 1914   1.749   4.632   9.096  0.4177 -0.6528 -0.2060
  123TMC2     C 1915   1.813   0.295   9.090 -0.6878 -0.0288 -0.1595
  123TMC2     O 1916   1.788   0.336   8.976 -0.1736 -0.3009 -0.4337
  123TMC2     H 1917   1.614   0.182   8.985 -0.7168 -0.9110 -1.0646
  123TMC2    H1 1918   1.900   0.130   9.285  0.3759 -0.3107 -0.7867
  123TMC2    H2 1919   1.763   4.525   9.090  0.2497 -0.6080 -1.4271
  123TMC2    C7 1920   1.915   4.596   9.266 -0.4792  0.1487 -0.0731
  123TMC2    C8 1921   1.597   4.667   8.899 -0.7239 -0.4160 -0.3581
  123TMC2    O1 1922   1.955   4.504   9.200 -0.0453  0.4388 -0.6047
  123TMC2    O2 1923   1.579   4.735   8.802 -0.5822 -0.4563 -0.3372
  123TMC2    O5 1924   1.623   4.536   8.906 -0.7395  0.3353  0.0142
  123TMC2    H5 1925   1.614   4.506   8.999  0.3335  0.9668  0.3295
  124MPD2     C 1926   2.119   0.713   9.137 -0.1470  0.1020  0.6603
  124MPD2    C1 1927   2.109   0.642   9.255 -0.1504  0.8191 -0.2547
  124MPD2    C2 1928   2.036   0.525   9.270  1.0337  0.0381  0.0772
  124MPD2    C3 1929   1.965   0.476   9.164  0.5066 -0.1804  0.7457
  124MPD2    C4 1930   1.982   0.535   9.044  0.5056  0.1771 -0.6184
  124MPD2    C5 1931   2.061   0.646   9.034 -0.2920 -0.0627  0.1842
  124MPD2     H 1932   2.036   0.473   9.365  1.1981 -1.0762 -0.5271
  124MPD2    H1 1933   1.924   0.504   8.958 -0.5780 -1.8768  0.8566
  124MPD2    H2 1934   2.177   0.802   9.119 -0.6062  0.2107 -0.2558
  124MPD2    H3 1935   2.087   0.689   8.937 -0.4504 -1.1414 -0.3421
  124MPD2     N 1936   1.902   0.351   9.183 -0.5898  0.4262 -0.0580
  124MPD2    H5 1937   1.903   0.315   9.278  0.1228 -1.6081 -0.8198
  124MPD2    N1 1938   2.182   0.687   9.368 -0.1968 -0.4899 -0.3498
  124MPD2    H7 1939   2.231   0.775   9.356  0.4231 -0.6106  1.3437
  125TMC2    C1 1940   0.433   4.312   9.249 -0.3555 -0.4846  0.4658
  125TMC2    C2 1941   0.363   4.203   9.307  0.4939 -0.1967  0.3002
  125TMC2    C3 1942   0.397   4.076   9.267 -0.0179  0.0915  0.1413
  125TMC2    C4 1943   0.543   4.289   9.168  1.2427  0.4284  0.5074
  125TMC2    C5 1944   0.578   4.155   9.146 -0.4098  0.6556  0.1673
  125TMC2    C6 1945   0.505   4.049   9.192  0.5608  0.0722 -0.1485
  125TMC2     C 1946   0.427   4.451   9.308 -0.3523  0.3453  0.6981
  125TMC2     O 1947   0.444   4.540   9.221 -0.2300 -0.0815 -0.4016
  125TMC2     H 1948   0.278   4.211   9.373 -0.7267  1.6128 -1.4989
  125TMC2    H1 1949   0.600   4.370   9.124  1.9877  0.5787  1.7307
  125TMC2    H2 1950   0.527   3.950   9.155 -1.5590 -1.5770  2.9712
  125TMC2    C7 1951   0.675   4.140   9.043  0.6289 -0.2288  0.4158
  125TMC2    C8 1952   0.372   3.960   9.344 -0.4003  0.1324 -0.3743
  125TMC2    O1 1953   0.693   4.244   8.980  0.2464 -0.0165  0.3698
  125TMC2    O2 1954   0.460   3.881   9.380 -0.7863  0.1450  0.2286
  125TMC2    O5 1955   0.257   3.980   9.412  0.0550  0.2266  0.4456
  125TMC2    H5 1956   0.184   4.015   9.357  0.4203  0.3359  0.0289
  126MPD1     C 1957   0.332   0.067   9.637 -0.0542  0.2333 -0.1622
  126MPD1    C1 1958   0.382   4.696   9.711  0.1923 -0.0216  0.2020
  126MPD1    C2 1959   0.393   4.574   9.646 -0.1355  0.4587  0.3339
  126MPD1    C3 1960   0.375   4.573   9.501 -0.3117 -0.4510  0.0168
  126MPD1    C4 1961   0.344   4.693   9.440  0.0177 -0.6939 -0.0288
  126MPD1    C5 1962   0.329   0.071   9.501 -0.0975  0.1997  0.7317
  126MPD1     H 1963   0.425   4.486   9.700  0.5492  1.0837  0.9497
  126MPD1    H1 1964   0.311   4.696   9.337  0.7698  3.6768 -0.1475
  126MPD1    H2 1965   0.295   0.159   9.681  0.5405  0.4343 -0.0818
  126MPD1    H3 1966   0.296   0.159   9.448 -1.2754 -2.6394 -3.1864
  126MPD1     N 1967   0.396   4.453   9.436  0.5708 -0.0550  0.4573
  126MPD1    H5 1968   0.396   4.361   9.479  0.1919  0.5371  1.7367
  126MPD1    N1 1969   0.379   4.718   9.849  0.0477 -0.1510 -0.4713
  126MPD1    H6 1970   0.437   4.658   9.907 -1.9285 -1.0861  0.5596
  126MPD1    H7 1971   0.400   0.079   9.876 -0.7340 -0.1941  0.3158
  127TMC2    C1 1972   0.895   1.966   9.720  0.2297 -0.1899 -0.0921
  127TMC2    C2 1973   0.955   1.875   9.806 -0.4577  0.4760 -0.0154
  127TMC2    C3 1974   0.890   1.756   9.820  0.4431 -0.2977 -0.7952
  127TMC2    C4 1975   0.784   1.938   9.646 -0.7070 -0.1805 -0.4060
  127TMC2    C5 1976   0.716   1.829   9.686  0.7455  0.1753  1.3321
  127TMC2    C6 1977   0.762   1.734   9.771 -0.3877  0.9028 -0.5153
  127TMC2     C 1978   0.986   2.071   9.677  0.3210 -0.5732  0.7850
  127TMC2     O 1979   1.074   2.102   9.755 -0.3342  0.1343  0.2232
  127TMC2     H 1980   1.045   1.908   9.857 -0.6951  1.1932 -0.0552
  127TMC2    H1 1981   0.742   2.003   9.570 -0.4622 -0.0576 -0.4383
  127TMC2    H2 1982   0.725   1.633   9.783 -3.3817  1.9585 -0.8603
  127TMC2    C7 1983   0.578   1.821   9.639 -0.0545 -0.6278  0.1937
  127TMC2    C8 1984   0.931   1.665   9.914 -0.8910 -0.1565 -0.5868
  127TMC2    O1 1985   0.547   1.894   9.545  0.5742  0.1833 -0.3678
  127TMC2    O2 1986   0.843   1.606   9.980  0.3757  0.1915 -0.0672
  127TMC2    O5 1987   1.056   1.696   9.946  0.2220 -0.2995 -0.3454
  127TMC2    H5 1988   1.108   1.726   9.868  1.1949 -1.1816 -0.0417
  128MPD2     C 1989   1.021   2.242   9.357 -0.4985  0.0556  0.4290
  128MPD2    C1 1990   1.051   2.215   9.487  0.2271  1.1992 -0.5542
  128MPD2    C2 1991   1.168   2.275   9.533  0.3657 -0.1123  0.1852
  128MPD2    C3 1992   1.249   2.357   9.460 -0.3570 -0.5263 -0.5196
  128MPD2    C4 1993   1.216   2.371   9.325  0.0941  0.6519  0.5611
  128MPD2    C5 1994   1.102   2.316   9.279 -0.0835  0.3154 -0.7381
  128MPD2     H 1995   1.204   2.239   9.629 -0.1542  0.9582  0.7765
  128MPD2    H1 1996   1.274   2.431   9.255 -1.0823  0.5919 -0.4644
  128MPD2    H2 1997   0.931   2.206   9.308  0.3604 -2.4922  0.7421
  128MPD2    H3 1998   1.073   2.331   9.175 -1.0700  1.9285 -0.2167
  128MPD2     N 1999   1.370   2.409   9.513  0.3473 -0.4302  0.0374
  128MPD2    H5 2000   1.405   2.369   9.600  2.0736  0.5004 -0.2257
  128MPD2    N1 2001   0.961   2.130   9.555 -0.0744  0.1632 -0.2019
  128MPD2    H7 2002   0.885   2.103   9.494 -0.5719  1.0060  0.0507
  129TMC2    C1 2003   3.943   1.955   2.112  0.0014 -0.8329  0.5856
  129TMC2    C2 2004   3.848   2.057   2.120 -0.2585  0.2920 -0.4180
  129TMC2    C3 2005   3.738   2.031   2.057 -0.3753  0.3089  0.4937
  129TMC2    C4 2006   3.938   1.852   2.023 -0.2762  0.2080  0.3002
  129TMC2    C5 2007   3.819   1.835   1.962  0.0402  0.1907  0.4763
  129TMC2    C6 2008   3.713   1.915   1.979 -0.3979  0.9314  0.3949
  129TMC2     C 2009   4.076   2.001   2.131  0.2762  0.1477 -0.7254
  129TMC2     O 2010   4.161   1.916   2.119  0.1699 -0.1006  0.1993
  129TMC2     H 2011   3.850   2.131   2.199 -0.0296  0.5496 -0.6658
  129TMC2    H1 2012   4.023   1.793   1.989 -0.7359 -1.1498  1.4649
  129TMC2    H2 2013   3.621   1.887   1.928 -0.1914 -0.8324  1.0215
  129TMC2    C7 2014   3.802   1.727   1.864  0.1512  0.0083  0.3428
  129TMC2    C8 2015   3.620   2.121   2.070 -0.1659 -0.0663 -0.6347
  129TMC2    O1 2016   3.707   1.724   1.797  0.5385 -0.4844  0.0709
  129TMC2    O2 2017   3.513   2.068   2.091 -0.4659 -0.1165 -0.1869
  129TMC2    O5 2018   3.658   2.248   2.078 -0.0703 -0.2237  0.1678
  129TMC2    H5 2019   3.747   2.266   2.042 -1.1529  0.5922 -2.1119
  130MPD2     C 2020   4.322   2.139   2.184 -1.0204 -0.0842 -0.3115
  130MPD2    C1 2021   4.209   2.200   2.139 -0.5081 -0.5290  0.3448
  130MPD2    C2 2022   4.221   2.326   2.086  1.0339 -0.0908 -0.1846
  130MPD2    C3 2023   4.344   2.389   2.075  0.0894 -0.4238  0.4376
  130MPD2    C4 2024   4.455   2.328   2.122 -0.2721 -0.0382  1.0344
  130MPD2    C5 2025   4.442   2.203   2.174 -0.0741 -0.3491  0.1695
  130MPD2     H 2026   4.141   2.374   2.031 -0.9359 -2.5047  0.6162
  130MPD2    H1 2027   4.554   2.372   2.112  0.2259 -1.5834 -0.9388
  130MPD2    H2 2028   4.317   2.046   2.239  1.3672  0.8877  1.5657
  130MPD2    H3 2029   4.535   2.156   2.204  0.1579  0.7423  1.1454
  130MPD2     N 2030   4.344   2.509   1.997 -0.3349 -0.3506 -0.1416
  130MPD2    H5 2031   4.258   2.533   1.950  0.2636  0.5597 -0.7884
  130MPD2    N1 2032   4.085   2.134   2.136  0.2682 -0.4285 -0.8533
  130MPD2    H7 2033   4.004   2.193   2.119  0.8216  0.3942 -0.5893
  131TMC2    C1 2034   3.146   1.371   9.513 -0.4988  0.0383  0.0898
  131TMC2    C2 2035   3.250   1.294   9.559  0.5040 -0.0297 -0.5399
  131TMC2    C3 2036   3.372   1.345   9.572 -0.4364  0.3621 -0.0300
  131TMC2    C4 2037   3.170   1.497   9.457  0.0998  0.2801 -0.0278
  131TMC2    C5 2038   3.298   1.535   9.453 -0.3684  0.1499 -0.3904
  131TMC2    C6 2039   3.403   1.465   9.510 -0.1967  0.0417  0.2234
  131TMC2     C 2040   3.015   1.321   9.540 -0.5719  0.3232  0.1098
  131TMC2     O 2041   3.007   1.201   9.537 -0.3881 -0.0405 -0.0901
  131TMC2     H 2042   3.242   1.194   9.600 -0.2033  0.0576 -0.4718
  131TMC2    H1 2043   3.089   1.559   9.420  0.1542 -0.2143 -0.9758
  131TMC2    H2 2044   3.509   1.487   9.502 -0.4345  1.0597 -0.0568
  131TMC2    C7 2045   3.303   1.679   9.452  0.2618  0.3164 -0.2803
  131TMC2    C8 2046   3.461   1.266   9.646  0.2802 -0.6538 -0.5222
  131TMC2    O1 2047   3.201   1.731   9.414  0.6123 -0.0830 -0.3655
  131TMC2    O2 2048   3.444   1.156   9.698  0.0477 -0.5443 -0.5978
  131TMC2    O5 2049   3.579   1.327   9.661 -0.0458  0.0094  0.4969
  131TMC2    H5 2050   3.583   1.424   9.648 -2.1686 -0.3229 -2.7277
  132MPD2     C 2051   2.693   1.460   9.444 -0.8414  0.0225 -0.0862
  132MPD2    C1 2052   2.781   1.371   9.496  0.4098 -0.7530 -0.0712
  132MPD2    C2 2053   2.724   1.243   9.534 -0.3800  0.0977  0.1791
  132MPD2    C3 2054   2.589   1.223   9.529  0.3303  0.3088 -0.1844
  132MPD2    C4 2055   2.506   1.327   9.483  0.3744 -0.7272  0.4493
  132MPD2    C5 2056   2.561   1.439   9.421  0.3051  0.2605  0.3223
  132MPD2     H 2057   2.784   1.162   9.575 -0.5184 -0.3361 -0.4821
  132MPD2    H1 2058   2.401   1.314   9.459 -0.0380  0.1309  1.7829
  132MPD2    H2 2059   2.727   1.555   9.406  0.0296 -0.7746 -1.2969
  132MPD2    H3 2060   2.502   1.507   9.360  0.7243 -0.3238 -0.7451
  132MPD2     N 2061   2.545   1.097   9.569 -1.0167  0.7059 -0.4194
  132MPD2    H5 2062   2.615   1.027   9.593 -0.3073  1.7963  0.6837
  132MPD2    N1 2063   2.913   1.409   9.520 -0.1113 -0.5654 -0.5264
  132MPD2    H7 2064   2.941   1.505   9.503 -0.8274 -0.0456  1.2312
  133TMC2    C1 2065   4.137   2.356  10.111 -0.4976  0.3858  0.3156
  133TMC2    C2 2066   4.211   2.247  10.080  0.3935  0.6452 -0.3827
  133TMC2    C3 2067   4.350   2.257  10.091  0.1454 -0.5350  0.1728
  133TMC2    C4 2068   4.200   2.483  10.130  0.3033  0.5231 -0.4260
  133TMC2    C5 2069   4.337   2.483  10.157 -0.3995 -0.2008 -0.5834
  133TMC2    C6 2070   4.408   2.367  10.133 -0.0068 -0.8052  0.1554
  133TMC2     C 2071   4.000   2.338  10.088  0.2958  0.1674 -0.3029
  133TMC2     O 2072   3.968   2.232  10.045  0.1260  0.0589  0.0683
  133TMC2     H 2073   4.166   2.152  10.053  0.7656 -0.0909  1.5886
  133TMC2    H1 2074   4.151   2.578  10.145 -1.5607 -0.0186 -3.0993
  133TMC2    H2 2075   4.511   2.365  10.165  0.5248 -0.2794 -1.5302
  133TMC2    C7 2076   4.411   2.596  10.205  0.9200 -0.0684 -0.0656
  133TMC2    C8 2077   4.424   2.135  10.098  0.4046  0.2506  1.1632
  133TMC2    O1 2078   4.535   2.597  10.191  0.2762  0.0546 -0.4792
  133TMC2    O2 2079   4.391   2.044  10.171  0.6165  0.1884  0.1386
  133TMC2    O5 2080   4.547   2.158  10.054 -0.0138 -0.0418 -0.1881
  133TMC2    H5 2081   4.551   2.247  10.013 -2.7197 -0.0459 -0.4820
  134MPD2     C 2082   3.722   2.578  10.122 -0.4512  0.0902  0.2532
  134MPD2    C1 2083   3.789   2.452  10.103 -0.0910 -0.7371  0.7588
  134MPD2    C2 2084   3.704   2.351  10.053 -0.1767  0.0453 -0.4102
  134MPD2    C3 2085   3.571   2.376  10.022  0.3341  0.2390  0.4544
  134MPD2    C4 2086   3.517   2.499  10.044 -0.3153  0.4531  0.1909
  134MPD2    C5 2087   3.592   2.601  10.089 -0.5429 -0.9980  0.1362
  134MPD2     H 2088   3.741   2.249  10.045  1.1513  0.5391 -0.5510
  134MPD2    H1 2089   3.414   2.524  10.019 -1.2976 -1.6522  2.0216
  134MPD2    H2 2090   3.780   2.663  10.156  1.6948 -1.1531 -0.2885
  134MPD2    H3 2091   3.544   2.697  10.103  0.1422 -0.5370 -0.6760
  134MPD2     N 2092   3.485   2.280   9.965 -0.3870 -0.2068  0.2323
  134MPD2    H5 2093   3.405   2.330   9.928 -0.1485  1.5415  2.0900
  134MPD2    N1 2094   3.929   2.443  10.120 -0.4136  0.6040 -0.5190
  134MPD2    H7 2095   3.981   2.521  10.160  1.4897 -1.0577  0.2239
  135TMC2    C1 2096   0.505   4.017   9.677  0.2946 -0.5173  0.0214
  135TMC2    C2 2097   0.597   3.920   9.701  0.6610 -0.6873  0.6280
  135TMC2    C3 2098   0.557   3.802   9.743  0.4172 -0.1267 -0.5173
  135TMC2    C4 2099   0.371   4.005   9.708  0.1146  0.7657  0.2008
  135TMC2    C5 2100   0.328   3.879   9.745  0.6161  0.2519  0.3320
  135TMC2    C6 2101   0.424   3.779   9.772  0.8913 -0.3743  0.3230
  135TMC2     C 2102   0.541   4.142   9.601 -0.1508  0.7195 -0.8154
  135TMC2     O 2103   0.470   4.242   9.620 -0.5017  0.1689 -0.2924
  135TMC2     H 2104   0.700   3.938   9.673  0.2038  1.2643  0.1976
  135TMC2    H1 2105   0.300   4.085   9.688 -0.2555  0.3414 -0.1993
  135TMC2    H2 2106   0.392   3.677   9.789 -0.7956  0.0039 -0.5909
  135TMC2    C7 2107   0.186   3.870   9.776  0.2453 -0.3672 -0.3263
  135TMC2    C8 2108   0.660   3.700   9.748  0.4140 -0.4422  0.4092
  135TMC2    O1 2109   0.123   3.974   9.764 -0.4957  0.5299  0.2054
  135TMC2    O2 2110   0.767   3.706   9.683 -0.0438  0.5212  0.7378
  135TMC2    O5 2111   0.605   3.586   9.807  0.4333 -0.3567 -0.0314
  135TMC2    H5 2112   0.553   3.610   9.886  0.0933 -0.9667 -0.0736
  136MPD2     C 2113   0.722   4.357   9.464  0.4211 -0.6942 -0.0963
  136MPD2    C1 2114   0.731   4.220   9.454 -0.1760 -0.7666  0.1168
  136MPD2    C2 2115   0.824   4.169   9.362 -0.2928 -0.3315 -0.4124
  136MPD2    C3 2116   0.907   4.259   9.292 -0.3679  0.2307 -0.6270
  136MPD2    C4 2117   0.886   4.397   9.300 -0.5678 -0.7166  0.5929
  136MPD2    C5 2118   0.799   4.441   9.388  0.2717  0.0053  0.7664
  136MPD2     H 2119   0.838   4.062   9.358  0.7953 -0.1914 -0.5190
  136MPD2    H1 2120   0.939   4.472   9.243  0.0120 -0.6715  1.1869
  136MPD2    H2 2121   0.653   4.413   9.527  1.1291 -1.3230  1.2436
  136MPD2    H3 2122   0.794   4.548   9.402 -1.5997  0.0890 -0.4575
  136MPD2     N 2123   1.021   4.224   9.224  0.2149 -0.6008 -0.3476
  136MPD2    H5 2124   1.073   4.297   9.177  0.4157  0.4914  1.5824
  136MPD2    N1 2125   0.657   4.130   9.532  0.2609 -0.1940  0.9745
  136MPD2    H7 2126   0.700   4.038   9.531 -1.5118 -1.0106  0.4534
  137TMC2    C1 2127   0.328   2.045   9.955  0.1903  0.0401  0.5323
  137TMC2    C2 2128   0.388   2.069  10.077  0.4713  0.2799  0.3326
  137TMC2    C3 2129   0.361   1.984  10.181  1.0151 -1.1127  0.2981
  137TMC2    C4 2130   0.228   1.944   9.945  0.2349 -0.8374  0.2915
  137TMC2    C5 2131   0.215   1.857  10.053  0.3736  0.1513  0.5754
  137TMC2    C6 2132   0.288   1.872  10.166 -0.3022  0.0905  0.1575
  137TMC2     C 2133   0.355   2.135   9.849 -0.3060 -0.1408  0.0991
  137TMC2     O 2134   0.447   2.212   9.859  0.0523 -0.3979 -0.3977
  137TMC2     H 2135   0.465   2.146  10.087 -0.0246  0.7293  0.6947
  137TMC2    H1 2136   0.181   1.927   9.848 -2.0948  1.1518  1.0773
  137TMC2    H2 2137   0.275   1.802  10.248  0.3458  0.0825  0.2559
  137TMC2    C7 2138   0.090   1.779  10.068  0.0454  0.2815  0.7774
  137TMC2    C8 2139   0.409   2.011  10.313  0.2911  0.1228  0.0160
  137TMC2    O1 2140   0.088   1.703  10.162  0.3754  0.0410  0.4325
  137TMC2    O2 2141   0.455   1.915  10.379 -0.2395 -0.1373 -0.5311
  137TMC2    O5 2142   0.448   2.138  10.318  0.4932 -0.4074 -0.2890
  137TMC2    H5 2143   0.409   2.185  10.241  1.0417  0.6699  0.0883
  138MPD2     C 2144   0.194   2.149   9.520 -0.0823  0.2411 -0.0251
  138MPD2    C1 2145   0.276   2.191   9.622  0.5995 -0.2620 -0.3713
  138MPD2    C2 2146   0.366   2.295   9.593 -0.6427  0.8608  1.0573
  138MPD2    C3 2147   0.362   2.362   9.468 -0.2448 -0.1454 -0.8636
  138MPD2    C4 2148   0.282   2.308   9.368  0.1809  0.3196 -0.0161
  138MPD2    C5 2149   0.195   2.206   9.394 -0.8157  0.4630 -0.0125
  138MPD2     H 2150   0.434   2.318   9.674  0.3636  0.7889  0.2302
  138MPD2    H1 2151   0.267   2.353   9.271  0.6881  1.8364  0.5983
  138MPD2    H2 2152   0.125   2.065   9.524  0.3553 -0.1575 -0.9570
  138MPD2    H3 2153   0.136   2.165   9.313 -0.3634  2.8032 -1.4901
  138MPD2     N 2154   0.433   2.488   9.456  0.4935  0.5115 -0.0268
  138MPD2    H5 2155   0.488   2.520   9.535  0.1762  2.1606 -0.4572
  138MPD2    N1 2156   0.272   2.120   9.745 -0.1818  0.3942  0.1968
  138MPD2    H7 2157   0.184   2.074   9.768  0.3041 -1.1144 -1.0432
  139TMC2    C1 2158   0.824   0.233  13.220 -0.3072 -0.2540  0.0596
  139TMC2    C2 2159   0.852   0.270  13.087 -0.5505 -0.4789  0.7490
  139TMC2    C3 2160   0.799   0.381  13.028  0.1184  0.6630  0.1146
  139TMC2    C4 2161   0.747   0.319  13.296  0.6547  0.2239 -0.4100
  139TMC2    C5 2162   0.698   0.439  13.235 -0.0788 -0.2917 -0.5013
  139TMC2    C6 2163   0.722   0.475  13.108 -0.2637  0.2893  0.5721
  139TMC2     C 2164   0.851   0.099  13.263 -0.4754 -0.0801  0.2298
  139TMC2     O 2165   0.889   0.023  13.176 -0.0878 -0.1857  0.1423
  139TMC2     H 2166   0.923   0.205  13.037 -1.8110  0.1671 -1.8476
  139TMC2    H1 2167   0.706   0.288  13.391 -0.7596 -1.9677 -1.7541
  139TMC2    H2 2168   0.698   0.566  13.055  2.1186 -0.4741 -1.8513
  139TMC2    C7 2169   0.700   0.552  13.322  0.1596 -0.3654 -0.3623
  139TMC2    C8 2170   0.872   0.435  12.915 -0.0757  0.0548 -0.4241
  139TMC2    O1 2171   0.639   0.645  13.272  0.0264 -0.5155 -0.6186
  139TMC2    O2 2172   0.808   0.504  12.839  0.2573 -0.4404  0.3636
  139TMC2    O5 2173   0.981   0.480  12.975  0.6248  0.1338  0.4135
  139TMC2    H5 2174   1.005   0.447  13.065  0.3867 -0.3338  0.3091
  140MPD2     C 2175   0.882   4.721  13.609  1.0313 -0.6091 -0.0477
  140MPD2    C1 2176   0.865   4.701  13.476 -0.0487  0.6110  0.5316
  140MPD2    C2 2177   0.894   4.581  13.417 -0.0597  0.5147  0.2937
  140MPD2    C3 2178   0.930   4.475  13.505  0.0295 -0.1147 -0.2352
  140MPD2    C4 2179   0.933   4.488  13.641 -0.2442  0.3528 -0.5137
  140MPD2    C5 2180   0.909   4.614  13.693 -0.5254  0.3852  0.4939
  140MPD2     H 2181   0.890   4.567  13.309 -1.2545  1.5413  0.2127
  140MPD2    H1 2182   0.967   4.406  13.702  0.3075 -0.5520 -2.0339
  140MPD2    H2 2183   0.875   0.082  13.659 -2.1406 -0.8323 -0.0537
  140MPD2    H3 2184   0.915   4.623  13.801 -1.9137 -1.1809  0.6985
  140MPD2     N 2185   0.955   4.352  13.442 -0.0544  0.2654  0.2709
  140MPD2    H5 2186   0.954   4.342  13.341  1.7858  1.5647  0.1191
  140MPD2    N1 2187   0.831   0.082  13.401  0.4876 -0.7422 -0.2494
  140MPD2    H7 2188   0.829   0.157  13.470 -0.9050 -2.5414  1.6679
  141TMC2    C1 2189   1.608   1.513  14.292  0.2741 -0.5806  0.4502
  141TMC2    C2 2190   1.618   1.376  14.304 -0.3130  0.3429 -0.2389
  141TMC2    C3 2191   1.685   1.330  14.415 -0.4476  0.6222 -0.4476
  141TMC2    C4 2192   1.661   1.599  14.384  0.4347 -0.5137 -0.5954
  141TMC2    C5 2193   1.706   1.543  14.502  0.2139  0.3541  0.0663
  141TMC2    C6 2194   1.716   1.411  14.521  0.7280  0.0966  0.1858
  141TMC2     C 2195   1.583   1.568  14.164  0.0642 -0.5098 -0.6242
  141TMC2     O 2196   1.653   1.664  14.131  0.3509  0.0311 -0.8978
  141TMC2     H 2197   1.574   1.313  14.226 -0.5112  0.0296  0.1243
  141TMC2    H1 2198   1.661   1.708  14.375  0.1364 -0.7031 -2.9859
  141TMC2    H2 2199   1.762   1.378  14.613  0.5540 -1.2234 -0.1974
  141TMC2    C7 2200   1.724   1.631  14.624  0.2513 -0.0344 -0.2214
  141TMC2    C8 2201   1.700   1.179  14.424  0.0035  0.1747  0.7083
  141TMC2    O1 2202   1.807   1.590  14.705  0.2181 -0.7851  0.3295
  141TMC2    O2 2203   1.695   1.126  14.533  0.6126  0.5084  0.2267
  141TMC2    O5 2204   1.677   1.117  14.305 -0.2408 -0.1772 -0.3275
  141TMC2    H5 2205   1.689   1.170  14.223  0.6974 -1.7846 -1.2414
  142TMC2    C1 2206   2.505   3.947   9.504 -0.9167 -0.5870  0.0576
  142TMC2    C2 2207   2.504   3.864   9.394  0.2962  0.0936 -0.1697
  142TMC2    C3 2208   2.430   3.908   9.287  0.4832  0.2910  0.3101
  142TMC2    C4 2209   2.420   4.054   9.514  0.7720 -0.1505 -1.1722
  142TMC2    C5 2210   2.360   4.100   9.399 -0.6488  0.1062  0.0677
  142TMC2    C6 2211   2.364   4.026   9.286  0.0623 -0.0393  0.3716
  142TMC2     C 2212   2.606   3.919   9.595  0.6511  0.4693  0.9874
  142TMC2     O 2213   2.599   3.810   9.653  0.1089 -0.1241 -0.0600
  142TMC2     H 2214   2.572   3.780   9.384 -0.0349 -0.3560  1.3671
  142TMC2    H1 2215   2.408   4.098   9.612 -2.0833 -0.9437 -1.1620
  142TMC2    H2 2216   2.308   4.056   9.198 -1.4749 -2.4960  0.5059
  142TMC2    C7 2217   2.261   4.207   9.404  0.0970 -0.5741  0.7623
  142TMC2    C8 2218   2.406   3.802   9.185 -0.3494 -0.1512  0.4655
  142TMC2    O1 2219   2.186   4.214   9.306 -0.0159  0.0390  0.4132
  142TMC2    O2 2220   2.408   3.682   9.210  0.0736  0.2745  0.3141
  142TMC2    O5 2221   2.413   3.862   9.064 -0.2447 -0.6311 -0.2106
  142TMC2    H5 2222   2.428   3.959   9.067  1.1919 -0.8188 -1.4035
  143MPD2     C 2223   3.014   4.065   9.889  0.3658  0.4481 -0.6903
  143MPD2    C1 2224   2.940   3.948   9.881 -0.1794  0.2666  0.6804
  143MPD2    C2 2225   2.832   3.936   9.794  0.0653 -0.9382  0.0861
  143MPD2    C3 2226   2.798   4.038   9.706  0.6363  0.2813  0.8194
  143MPD2    C4 2227   2.874   4.147   9.709  0.4962 -1.1058 -0.5423
  143MPD2    C5 2228   2.976   4.164   9.802  0.0958 -0.5515 -0.3682
  143MPD2     H 2229   2.763   3.854   9.813 -0.0975 -0.9699 -0.6543
  143MPD2    H1 2230   2.854   4.223   9.634  0.4313 -0.3386  0.2574
  143MPD2    H2 2231   3.102   4.081   9.951  1.1454 -1.5522 -1.2578
  143MPD2    H3 2232   3.032   4.257   9.806  3.0730 -2.5469  4.0384
  143MPD2     N 2233   2.686   4.028   9.618  0.1853 -0.0973  0.1816
  143MPD2    H5 2234   2.663   4.112   9.566 -0.9601 -0.4220  0.1701
  143MPD2    N1 2235   2.976   3.839   9.963 -0.4238  0.0797 -0.2222
  143MPD2    H7 2236   3.055   3.842  10.026 -2.2716 -0.6454  2.1159
  144TMC2    C1 2237   1.647   3.835   0.368 -0.3978 -0.2609 -0.3205
  144TMC2    C2 2238   1.689   3.705   0.332 -1.0831 -0.0831  0.4872
  144TMC2    C3 2239   1.818   3.670   0.369  0.4288  0.3328  0.5939
  144TMC2    C4 2240   1.710   3.914   0.461  0.0471 -0.0663  0.1499
  144TMC2    C5 2241   1.827   3.854   0.515 -0.0555  0.1014  0.2709
  144TMC2    C6 2242   1.880   3.731   0.473 -0.4257  0.5016  0.3295
  144TMC2     C 2243   1.541   3.886   0.281 -0.1834  0.2440  0.3600
  144TMC2     O 2244   1.477   3.814   0.209 -0.5329 -0.2500  0.3585
  144TMC2     H 2245   1.648   3.643   0.253 -1.3309  0.1087  0.4645
  144TMC2    H1 2246   1.670   4.013   0.476  1.5739  0.5539  0.1070
  144TMC2    H2 2247   1.968   3.684   0.516 -0.2163 -0.2216 -0.8868
  144TMC2    C7 2248   1.904   3.934   0.608  0.0689 -0.3646  0.1927
  144TMC2    C8 2249   1.848   3.531   0.351  0.1050  0.3071  0.1378
  144TMC2    O1 2250   2.012   3.881   0.637 -0.3789  0.4455 -0.2472
  144TMC2    O2 2251   1.888   3.452   0.439 -0.1312 -0.0968 -0.2067
  144TMC2    O5 2252   1.872   3.514   0.218  0.3095 -0.4790 -0.7492
  144TMC2    H5 2253   1.831   3.576   0.155  0.3697 -0.3209 -0.6311
  145MPD2     C 2254   1.258   4.240   0.040  0.3260 -0.3592 -0.6540
  145MPD2    C1 2255   1.284   4.108   0.001 -0.6392  0.3870  0.1199
  145MPD2    C2 2256   1.367   4.042   0.082 -0.4196  0.3573 -0.3472
  145MPD2    C3 2257   1.429   4.093   0.201 -0.5281 -0.0082 -0.9698
  145MPD2    C4 2258   1.405   4.225   0.233  0.5918 -0.4685 -0.2559
  145MPD2    C5 2259   1.325   4.301   0.148 -0.2373 -0.5490 -0.0427
  145MPD2     H 2260   1.386   3.939   0.052 -0.9627  0.3912 -0.8080
  145MPD2    H1 2261   1.463   4.266   0.316  1.4941  2.8802 -2.5390
  145MPD2    H2 2262   1.184   4.299  17.726  0.7709  0.3550 -0.4802
  145MPD2    H3 2263   1.320   4.408   0.168 -0.3537 -0.3804 -0.9309
  145MPD2     N 2264   1.522   4.024   0.287 -0.6470 -0.8350  0.4593
  145MPD2    H5 2265   1.565   4.091   0.349 -2.7323 -0.4492  1.4968
  145MPD2    N1 2266   1.239   4.056  17.613  0.3211  0.4105 -0.6784
  145MPD2    H7 2267   1.250   3.956  17.599 -0.7534  0.0933  0.7468
  146TMC2    C1 2268   3.188   2.932  12.999  0.1693 -0.3388 -1.1998
  146TMC2    C2 2269   3.124   3.009  12.909 -0.4244  0.2747  0.3719
  146TMC2    C3 2270   3.134   2.970  12.777 -0.2125 -0.3261 -0.7472
  146TMC2    C4 2271   3.260   2.816  12.967 -0.5266  0.2418  0.1801
  146TMC2    C5 2272   3.263   2.784  12.835 -0.1939  0.3971 -0.2923
  146TMC2    C6 2273   3.199   2.858  12.732  0.3823  0.4898  0.2965
  146TMC2     C 2274   3.209   2.987  13.133  0.5535 -0.2456 -0.4504
  146TMC2     O 2275   3.139   3.087  13.163  0.3878 -0.9202 -0.6878
  146TMC2     H 2276   3.077   3.103  12.935 -0.8564 -0.2505  1.4904
  146TMC2    H1 2277   3.300   2.748  13.041  1.3449  0.3062 -0.7616
  146TMC2    H2 2278   3.202   2.827  12.628 -3.5785  1.8070 -0.2158
  146TMC2    C7 2279   3.331   2.667  12.783 -1.1135 -0.7158  0.0491
  146TMC2    C8 2280   3.109   3.077  12.681 -0.3166 -0.3410  0.1649
  146TMC2    O1 2281   3.291   2.613  12.684 -0.2653 -0.2805 -0.2683
  146TMC2    O2 2282   3.126   3.196  12.708  0.3574  0.1929  0.8493
  146TMC2    O5 2283   3.074   3.015  12.569  0.1833  0.2175 -0.9097
  146TMC2    H5 2284   3.035   2.929  12.596 -1.8367  1.3697 -0.1497
  147MPD2     C 2285   3.647   2.289  12.873  0.0131  0.2416 -0.6617
  147MPD2    C1 2286   3.672   2.393  12.967  0.4684 -0.9991  0.1832
  147MPD2    C2 2287   3.608   2.513  12.951 -0.5420  0.6930 -0.8393
  147MPD2    C3 2288   3.512   2.519  12.855  1.0506  0.2146  0.4894
  147MPD2    C4 2289   3.485   2.415  12.767 -0.1989 -0.0818 -0.3388
  147MPD2    C5 2290   3.562   2.305  12.768  0.9572  0.6584 -0.2658
  147MPD2     H 2291   3.622   2.600  13.014 -2.8988  1.1682 -0.9915
  147MPD2    H1 2292   3.407   2.417  12.692  0.9784  1.0530 -1.5294
  147MPD2    H2 2293   3.710   2.201  12.877  0.4059  0.7312  3.1302
  147MPD2    H3 2294   3.562   2.233  12.687 -1.0226 -0.2487  0.5405
  147MPD2     N 2295   3.432   2.635  12.870  0.0517  0.2128  0.2364
  147MPD2    H5 2296   3.466   2.703  12.938 -2.0940  0.8886  0.6526
  147MPD2    N1 2297   3.776   2.379  13.065 -0.3774 -0.3291 -0.7551
  147MPD2    H7 2298   3.812   2.285  13.069  0.2987 -0.0822 -1.0077
  148TMC2    C1 2299   3.199   1.331  10.840  1.0141  0.0771  0.1251
  148TMC2    C2 2300   3.309   1.352  10.916 -0.2545 -0.2550  0.3769
  148TMC2    C3 2301   3.382   1.241  10.951  0.3779 -0.0309  0.4955
  148TMC2    C4 2302   3.158   1.205  10.808  0.5492 -0.5465 -0.3652
  148TMC2    C5 2303   3.228   1.101  10.861  0.2170 -0.0605 -0.2263
  148TMC2    C6 2304   3.343   1.113  10.932 -0.1680  0.0301  0.7352
  148TMC2     C 2305   3.145   1.456  10.786 -0.4555  0.4323  0.3589
  148TMC2     O 2306   3.206   1.558  10.821 -0.1795  0.2332  0.1293
  148TMC2     H 2307   3.351   1.448  10.944 -0.9518 -0.0491  0.7237
  148TMC2    H1 2308   3.061   1.191  10.761 -0.6840  1.3732  1.6030
  148TMC2    H2 2309   3.405   1.034  10.973 -0.3482 -1.4328 -1.8197
  148TMC2    C7 2310   3.201   0.966  10.795 -0.7825  0.4865 -0.3125
  148TMC2    C8 2311   3.523   1.263  10.970  0.1982  0.8198  0.0166
  148TMC2    O1 2312   3.120   0.962  10.705  0.0184  0.4268  0.4058
  148TMC2    O2 2313   3.589   1.212  11.061 -0.2334 -0.3149  0.0647
  148TMC2    O5 2314   3.567   1.343  10.870 -0.1138  0.1788  0.0576
  148TMC2    H5 2315   3.504   1.341  10.794  0.3372  2.8016 -0.3775
  149MPD2     C 2316   3.023   1.676  10.628  0.4180  0.2456  0.2982
  149MPD2    C1 2317   3.014   1.543  10.594 -0.7682 -0.6801 -0.1291
  149MPD2    C2 2318   2.938   1.507  10.484  0.2653 -0.1651  0.6548
  149MPD2    C3 2319   2.882   1.603  10.394 -0.1868 -0.4487  0.3303
  149MPD2    C4 2320   2.906   1.735  10.424 -0.4949 -0.0936 -0.2757
  149MPD2    C5 2321   2.968   1.767  10.544  0.5472 -0.3737  0.8250
  149MPD2     H 2322   2.931   1.399  10.479 -0.5758 -0.0438 -0.9673
  149MPD2    H1 2323   2.868   1.814  10.361  2.3297  0.5763 -1.1510
  149MPD2    H2 2324   3.073   1.710  10.718 -2.3194  4.1783  0.2879
  149MPD2    H3 2325   2.983   1.873  10.559 -0.1040 -0.2279  0.4376
  149MPD2     N 2326   2.800   1.576  10.283 -0.3742  0.2006  0.0627
  149MPD2    H5 2327   2.772   1.651  10.221  2.0473  1.2600  0.2058
  149MPD2    N1 2328   3.073   1.436  10.669  0.3272 -0.1479 -0.1522
  149MPD2    H7 2329   3.049   1.343  10.639  1.1635  0.0623 -1.4418
  150TMC2    C1 2330   0.675   0.725  11.904 -0.4889  0.3944 -0.2255
  150TMC2    C2 2331   0.666   0.790  11.783 -0.3162 -0.0038 -0.0955
  150TMC2    C3 2332   0.768   0.870  11.735  0.1307 -0.4780  0.4286
  150TMC2    C4 2333   0.785   0.750  11.985  0.8226 -0.0395  0.1522
  150TMC2    C5 2334   0.881   0.833  11.933  0.5295 -0.3298 -0.1793
  150TMC2    C6 2335   0.873   0.902  11.814  0.1722  0.0725  0.0867
  150TMC2     C 2336   0.598   0.611  11.938 -0.9297  0.2567 -0.3887
  150TMC2     O 2337   0.651   0.532  12.019 -0.0595  0.2127  0.3420
  150TMC2     H 2338   0.584   0.775  11.714  0.9885 -2.2661 -1.1696
  150TMC2    H1 2339   0.792   0.702  12.081 -0.1244  1.9277  1.2040
  150TMC2    H2 2340   0.933   0.988  11.787 -1.0437  2.0762  3.7067
  150TMC2    C7 2341   1.014   0.853  11.990 -0.2534 -0.5110  0.6206
  150TMC2    C8 2342   0.752   0.942  11.608 -0.0640 -0.2378 -0.8961
  150TMC2    O1 2343   1.090   0.945  11.955  0.0910  0.5264 -0.1443
  150TMC2    O2 2344   0.648   0.998  11.574  0.2974  0.2684 -0.1114
  150TMC2    O5 2345   0.865   0.934  11.547  0.2188  0.0706  0.6567
  150TMC2    H5 2346   0.935   0.881  11.590  0.8311 -0.2447 -0.7332
  151MPD2     C 2347   0.160   0.339  11.969 -0.7918  0.5633  0.1683
  151MPD2    C1 2348   0.134   0.459  11.903  0.3540 -0.2482  0.4254
  151MPD2    C2 2349   0.234   0.552  11.889 -0.3187  0.3864 -0.2432
  151MPD2    C3 2350   0.364   0.520  11.923  0.3616 -0.0269 -0.7490
  151MPD2    C4 2351   0.393   0.396  11.982  0.0711  0.6717 -0.3407
  151MPD2    C5 2352   0.285   0.319  12.018  0.3821  0.2052  0.4680
  151MPD2     H 2353   0.217   0.639  11.827 -2.0726 -0.2021 -0.5955
  151MPD2    H1 2354   0.490   0.357  12.012 -0.0912  0.0907 -0.5663
  151MPD2    H2 2355   0.080   0.266  11.974 -0.3756  0.1317  0.5406
  151MPD2    H3 2356   0.300   0.222  12.065  0.7186 -0.1562 -0.3834
  151MPD2     N 2357   0.465   0.616  11.897 -0.2636 -0.0702  0.8656
  151MPD2    H5 2358   0.444   0.704  11.852  1.2293 -0.9381 -1.5419
  151MPD2    N1 2359   0.009   0.473  11.838  0.0800  0.0442  0.5789
  151MPD2    H7 2360   4.681   0.399  11.867 -0.3621 -1.2876 -3.7832
  152TMC2    C1 2361   0.391   0.404  12.451 -0.0783 -0.1001 -0.2934
  152TMC2    C2 2362   0.480   0.328  12.518 -0.5311 -0.1619  0.9166
  152TMC2    C3 2363   0.611   0.346  12.502  0.2917  0.6925 -0.1781
  152TMC2    C4 2364   0.437   0.513  12.376 -0.0418 -0.0952  0.2108
  152TMC2    C5 2365   0.568   0.542  12.380 -0.4045  0.0509 -0.4395
  152TMC2    C6 2366   0.661   0.455  12.429  0.1056  0.4527  0.2842
  152TMC2     C 2367   0.255   0.409  12.494  0.3460  0.3760  0.7810
  152TMC2     O 2368   0.181   0.489  12.441  0.5370 -0.0732  0.0882
  152TMC2     H 2369   0.453   0.231  12.558 -1.9563  0.1105  0.6226
  152TMC2    H1 2370   0.368   0.587  12.336 -0.9814 -0.8958  0.3762
  152TMC2    H2 2371   0.765   0.477  12.407  0.1497 -0.0087  0.0388
  152TMC2    C7 2372   0.614   0.675  12.342 -0.7246 -0.5874 -0.5561
  152TMC2    C8 2373   0.699   0.234  12.526 -0.3236 -0.3006  0.6792
  152TMC2    O1 2374   0.535   0.739  12.274  0.9105 -1.0237  0.0529
  152TMC2    O2 2375   0.802   0.222  12.466  0.2267  0.8648  0.3445
  152TMC2    O5 2376   0.687   0.236  12.664 -0.2323  0.3778  0.1592
  152TMC2    H5 2377   0.766   0.192  12.701  0.6360  0.6706 -1.3246
  153MPD2     C 2378   0.087   0.302  12.799 -0.3662 -0.5828 -0.6221
  153MPD2    C1 2379   0.103   0.311  12.662  0.3288 -0.1507 -0.3639
  153MPD2    C2 2380   4.727   0.322  12.591 -0.1656 -0.3499  0.1432
  153MPD2    C3 2381   4.603   0.312  12.649 -0.1581 -0.5783 -0.4136
  153MPD2    C4 2382   4.585   0.291  12.784 -0.3043 -0.9975  0.1601
  153MPD2    C5 2383   4.703   0.286  12.855  1.0050 -0.3691  0.2777
  153MPD2     H 2384   4.728   0.337  12.483  1.5356  0.5954  0.3100
  153MPD2    H1 2385   4.493   0.274  12.839 -1.4561  0.5415 -1.2596
  153MPD2    H2 2386   0.176   0.307  12.861 -0.8439  0.6272 -0.0540
  153MPD2    H3 2387   4.688   0.273  12.961  0.2880  0.8504  0.3313
  153MPD2     N 2388   4.495   0.325  12.559 -0.1073  0.6641  0.0258
  153MPD2    H5 2389   4.518   0.321  12.460  0.5790 -2.0125  0.3182
  153MPD2    N1 2390   0.231   0.338  12.612  0.9702 -0.4312 -0.6037
  153MPD2    H7 2391   0.310   0.320  12.673  0.0107  1.5310  1.2127
  154TMC2    C1 2392   1.894   4.611   0.363 -0.7739  0.1669  0.0089
  154TMC2    C2 2393   1.920   4.520   0.463  0.1460 -0.6358 -0.0351
  154TMC2    C3 2394   2.039   4.537   0.528 -0.5493 -0.5534  0.2379
  154TMC2    C4 2395   1.964   4.724   0.339 -0.1566  0.0670 -0.1547
  154TMC2    C5 2396   2.072   0.014   0.425 -0.4250 -0.4139  0.1853
  154TMC2    C6 2397   2.118   4.653   0.522  0.0963 -0.6227  0.1500
  154TMC2     C 2398   1.762   4.606   0.298 -0.3159  0.0581 -0.2228
  154TMC2     O 2399   1.706   4.499   0.275  0.4454  0.2571 -0.0499
  154TMC2     H 2400   1.870   4.424   0.464  0.6284 -0.8911 -0.3930
  154TMC2    H1 2401   1.946   0.052   0.253 -1.1697  0.6266  0.4688
  154TMC2    H2 2402   2.214   4.663   0.572  0.2103  1.4138 -0.4850
  154TMC2    C7 2403   2.178   0.093   0.359 -0.5538 -0.2404  0.3022
  154TMC2    C8 2404   2.079   4.427   0.610 -0.1933  0.7054 -0.2023
  154TMC2    O1 2405   2.295   0.071   0.395 -0.3277  0.0098 -0.3442
  154TMC2    O2 2406   2.145   4.443   0.711  0.3236 -0.0158 -0.3844
  154TMC2    O5 2407   2.112   4.339   0.514 -0.1369 -0.5042 -0.0672
  154TMC2    H5 2408   2.076   4.371   0.428 -1.2658 -0.0682  0.5684
  155MPD2     C 2409   1.483   4.661   0.197 -0.0519 -0.1506  0.0686
  155MPD2    C1 2410   1.573   0.027   0.251  0.2042  0.3156 -0.1177
  155MPD2    C2 2411   1.536   0.159   0.253 -0.6192  0.6817  0.8622
  155MPD2    C3 2412   1.399   0.193   0.237 -0.2174 -0.0066 -0.6086
  155MPD2    C4 2413   1.311   0.099   0.193  0.0153 -0.5282 -0.8908
  155MPD2    C5 2414   1.356   4.704   0.165 -0.4018 -0.7023  0.1038
  155MPD2     H 2415   1.609   0.236   0.275 -1.0133  1.9901 -2.3713
  155MPD2    H1 2416   1.206   0.112   0.172 -0.5777 -0.7517  1.8552
  155MPD2    H2 2417   1.502   4.555   0.193 -0.6474 -0.1888 -1.5798
  155MPD2    H3 2418   1.286   4.626   0.135 -0.8486 -1.2152  2.4703
  155MPD2     N 2419   1.359   0.320   0.274  0.4647 -0.4071 -0.8786
  155MPD2    H5 2420   1.428   0.388   0.306 -1.6999  1.2534  0.2479
  155MPD2    N1 2421   1.707   4.734   0.296 -0.2318 -0.0273  0.4740
  155MPD2    H7 2422   1.766   0.079   0.315  1.2468 -1.3714  1.6514
  156TMC2    C1 2423   0.603   2.694  11.728 -0.0592  0.2739 -0.9699
  156TMC2    C2 2424   0.682   2.623  11.639 -0.4441 -0.9022 -0.3886
  156TMC2    C3 2425   0.643   2.628  11.510  0.7974  0.7921 -0.7382
  156TMC2    C4 2426   0.514   2.789  11.685 -0.1131  0.1609 -0.4761
  156TMC2    C5 2427   0.491   2.792  11.550 -0.0108 -0.2193 -0.1224
  156TMC2    C6 2428   0.537   2.704  11.460 -0.2392 -0.1803 -0.6200
  156TMC2     C 2429   0.626   2.699  11.870  0.6577 -0.7084  0.4388
  156TMC2     O 2430   0.565   2.782  11.937 -0.3405 -0.3165 -0.0799
  156TMC2     H 2431   0.764   2.555  11.660  0.3886  0.4210  0.6567
  156TMC2    H1 2432   0.458   2.854  11.752  0.3433 -0.2221  0.2799
  156TMC2    H2 2433   0.523   2.704  11.352  1.1426 -0.5140 -0.8090
  156TMC2    C7 2434   0.432   2.914  11.500 -0.7738 -0.1803 -0.6060
  156TMC2    C8 2435   0.737   2.579  11.415 -0.3375  1.1196 -0.3204
  156TMC2    O1 2436   0.458   3.019  11.561  0.3761 -0.4038 -0.3063
  156TMC2    O2 2437   0.713   2.557  11.299 -0.5309 -0.1594 -0.2125
  156TMC2    O5 2438   0.856   2.640  11.453  0.0496  0.2646  0.3759
  156TMC2    H5 2439   0.845   2.658  11.548  0.4683 -1.0168  0.6562
  157MPD2     C 2440   0.852   2.478  12.061 -0.0916  0.5487 -0.2057
  157MPD2    C1 2441   0.756   2.576  12.042 -0.1462  0.4790  0.5478
  157MPD2    C2 2442   0.697   2.640  12.147  0.1186 -0.2160  0.1725
  157MPD2    C3 2443   0.724   2.591  12.272  0.1621  0.3552  0.3975
  157MPD2    C4 2444   0.801   2.479  12.290  0.3202  0.1498  0.0720
  157MPD2    C5 2445   0.875   2.430  12.184  0.3195 -0.0588  0.5658
  157MPD2     H 2446   0.620   2.714  12.134  0.9474  0.8112  1.0384
  157MPD2    H1 2447   0.819   2.425  12.382  0.2312 -1.6715 -0.9808
  157MPD2    H2 2448   0.914   2.438  11.981  0.2704  1.6827 -0.5045
  157MPD2    H3 2449   0.935   2.341  12.197 -0.0371 -0.2836  0.6915
  157MPD2     N 2450   0.649   2.646  12.375  0.7482 -0.0434 -0.6393
  157MPD2    H5 2451   0.587   2.725  12.358 -0.4793 -0.6455  1.0465
  157MPD2    N1 2452   0.717   2.607  11.910 -0.5545  1.0273 -0.3973
  157MPD2    H7 2453   0.761   2.546  11.842 -1.8720  0.0486 -0.3708
  158TMC2    C1 2454   1.154   1.945  13.401  0.2962  0.1789  0.5411
  158TMC2    C2 2455   1.216   1.955  13.282  0.3236 -0.2462 -0.0229
  158TMC2    C3 2456   1.141   1.938  13.171 -0.0884  1.2925  0.2491
  158TMC2    C4 2457   1.019   1.909  13.417 -0.1083  0.6864 -0.2344
  158TMC2    C5 2458   0.945   1.897  13.301 -0.0142  0.0894  0.1193
  158TMC2    C6 2459   1.003   1.910  13.179 -0.0863  0.6700  0.2078
  158TMC2     C 2460   1.223   1.997  13.520 -1.1256 -0.2851 -0.0871
  158TMC2     O 2461   1.323   2.064  13.506  0.2436  0.3917  0.5074
  158TMC2     H 2462   1.320   1.982  13.288  0.2086  0.4113 -1.1712
  158TMC2    H1 2463   0.963   1.918  13.509  0.9821 -2.4990  0.7665
  158TMC2    H2 2464   0.956   1.906  13.081 -0.7713  0.0093  0.5537
  158TMC2    C7 2465   0.802   1.885  13.301  0.1164  0.7969 -0.2960
  158TMC2    C8 2466   1.220   1.951  13.054  0.2090 -1.2438  0.3763
  158TMC2    O1 2467   0.746   1.945  13.205 -0.3431  0.3559  0.0656
  158TMC2    O2 2468   1.181   1.897  12.947 -0.2652  0.3944 -0.7484
  158TMC2    O5 2469   1.263   2.079  13.052  0.4827 -0.6252 -0.1118
  158TMC2    H5 2470   1.262   2.120  13.141 -1.0434 -0.1671 -0.3305
  159MPD2     C 2471   1.394   1.929  14.001 -0.4561  0.3343 -0.5571
  159MPD2    C1 2472   1.278   1.862  13.989  0.1230 -0.3163 -0.0885
  159MPD2    C2 2473   1.219   1.847  13.862 -0.2221  0.8055  0.0632
  159MPD2    C3 2474   1.256   1.926  13.755 -0.6538 -0.5418  0.4565
  159MPD2    C4 2475   1.366   2.003  13.775  0.4633  0.1583  0.4993
  159MPD2    C5 2476   1.435   1.999  13.890  0.2356 -0.4138 -0.1349
  159MPD2     H 2477   1.135   1.781  13.846  0.8340 -0.8268  1.3585
  159MPD2    H1 2478   1.415   2.067  13.702 -1.4850 -0.3246 -1.2610
  159MPD2    H2 2479   1.449   1.937  14.094 -0.2903  2.0700 -0.7926
  159MPD2    H3 2480   1.523   2.058  13.911 -0.9311 -0.2839  4.3676
  159MPD2     N 2481   1.179   1.930  13.633 -0.0990 -0.4206  0.2745
  159MPD2    H5 2482   1.102   1.866  13.615  0.3136 -0.7067 -0.4542
  159MPD2    N1 2483   1.229   1.800  14.104  0.7711  0.4781 -0.4055
  159MPD2    H7 2484   1.289   1.793  14.186 -3.1599 -0.1038  2.4397
  160TMC2    C1 2485   4.704   4.099   1.480 -0.0432  0.0203  0.2842
  160TMC2    C2 2486   4.694   4.011   1.590 -0.2423  0.2556 -0.5534
  160TMC2    C3 2487   0.076   3.954   1.628  0.3690 -0.0393 -0.2339
  160TMC2    C4 2488   0.081   4.106   1.400  0.1444  0.2188 -0.8273
  160TMC2    C5 2489   0.195   4.063   1.459 -0.0262 -0.2445  0.3023
  160TMC2    C6 2490   0.192   3.999   1.578 -0.1454  0.3454  0.4676
  160TMC2     C 2491   4.569   4.129   1.422 -0.2394 -0.0255 -0.3815
  160TMC2     O 2492   4.465   4.080   1.468  0.3117 -0.0801  0.4785
  160TMC2     H 2493   4.595   3.992   1.629 -0.0809  1.7367  0.5909
  160TMC2    H1 2494   0.082   4.156   1.304  1.6966 -1.9079 -1.9186
  160TMC2    H2 2495   0.282   3.962   1.625  0.3471 -0.6004 -1.2264
  160TMC2    C7 2496   0.328   4.104   1.420  0.2499 -0.2493 -0.0446
  160TMC2    C8 2497   0.088   3.909   1.764  0.1201  0.0932  0.6753
  160TMC2    O1 2498   0.430   4.041   1.446 -0.1180 -0.1137 -0.5317
  160TMC2    O2 2499   0.191   3.932   1.826 -0.1569 -0.3641 -0.7082
  160TMC2    O5 2500   0.001   3.804   1.782  0.0328  0.5386 -0.2173
  160TMC2    H5 2501   4.667   3.794   1.713 -0.5462  0.7210  0.3365
  161MPD2     C 2502   4.384   4.129   1.182 -0.4368  0.5342 -0.0189
  161MPD2    C1 2503   4.475   4.226   1.214 -0.9139  0.3171  0.0917
  161MPD2    C2 2504   4.487   4.350   1.147 -0.3707  0.4365 -0.5197
  161MPD2    C3 2505   4.386   4.391   1.067  1.1634  1.2529 -0.0494
  161MPD2    C4 2506   4.290   4.295   1.033 -0.1762 -0.0796 -0.0757
  161MPD2    C5 2507   4.287   4.166   1.090 -0.5139  0.9108  0.0064
  161MPD2     H 2508   4.569   4.414   1.176 -0.5037 -0.1075  1.0636
  161MPD2    H1 2509   4.218   4.325   0.958  1.0599  1.3327 -0.6904
  161MPD2    H2 2510   4.380   4.031   1.227 -1.4761 -0.0669 -1.4121
  161MPD2    H3 2511   4.199   4.105   1.072  0.3521  0.4115 -2.5386
  161MPD2     N 2512   4.375   4.511   0.996 -0.1683  1.5152 -0.5655
  161MPD2    H5 2513   4.293   4.531   0.939 -1.1414  3.1163  1.3565
  161MPD2    N1 2514   4.575   4.214   1.320 -0.1717 -0.5222  0.3580
  161MPD2    H7 2515   4.658   4.270   1.301 -1.1281  0.1022 -2.0212
  162TMC2    C1 2516   2.738   1.819   0.832 -0.2221  0.4352 -0.2495
  162TMC2    C2 2517   2.612   1.860   0.863 -0.1623  0.0365  0.2067
  162TMC2    C3 2518   2.581   1.898   0.987 -0.0511 -0.0669 -0.0789
  162TMC2    C4 2519   2.838   1.819   0.922  0.0383 -0.5612 -0.4923
  162TMC2    C5 2520   2.805   1.856   1.046 -0.5692  0.0614  0.3133
  162TMC2    C6 2521   2.675   1.895   1.083  0.8442  0.3873 -0.2289
  162TMC2     C 2522   2.767   1.815   0.691 -0.1782  0.2187 -0.0188
  162TMC2     O 2523   2.843   1.727   0.649  0.2364  0.3939 -0.2401
  162TMC2     H 2524   2.537   1.842   0.787 -0.0870 -0.5284  0.2627
  162TMC2    H1 2525   2.943   1.807   0.897  0.4091 -0.3182  0.9661
  162TMC2    H2 2526   2.652   1.907   1.188 -0.2829 -0.9951 -0.3240
  162TMC2    C7 2527   2.900   1.869   1.154 -0.2011 -0.3110  0.1039
  162TMC2    C8 2528   2.444   1.915   1.021  0.4433 -0.1251  0.0854
  162TMC2    O1 2529   2.879   1.949   1.246  0.2023  0.3066  0.7011
  162TMC2    O2 2530   2.353   1.853   0.967  0.2466 -0.1762 -0.1059
  162TMC2    O5 2531   2.427   2.004   1.118 -0.4432 -0.2058 -0.1955
  162TMC2    H5 2532   2.505   2.041   1.165 -0.2473  0.0091 -0.6885
  163MPD2     C 2533   2.668   1.952   0.199 -0.1469 -0.5273  0.3888
  163MPD2    C1 2534   2.731   1.839   0.248  0.0769  0.0746 -0.6918
  163MPD2    C2 2535   2.736   1.819   0.388 -0.5214 -0.0070 -0.1450
  163MPD2    C3 2536   2.696   1.920   0.474  0.7558  0.4314  0.3981
  163MPD2    C4 2537   2.626   2.023   0.424 -0.2288  0.1400 -0.1123
  163MPD2    C5 2538   2.608   2.038   0.291 -0.1740  0.0987  0.1141
  163MPD2     H 2539   2.790   1.735   0.432 -3.7758 -1.8944  0.2907
  163MPD2    H1 2540   2.581   2.101   0.485  0.2163  1.3911 -1.3755
  163MPD2    H2 2541   2.644   1.962   0.094 -0.6026 -0.0875  0.5364
  163MPD2    H3 2542   2.544   2.120   0.259 -0.8283 -1.0734 -1.5484
  163MPD2     N 2543   2.707   1.910   0.616  0.0037  0.0627 -0.7988
  163MPD2    H5 2544   2.651   1.982   0.661  0.1261  0.1378 -0.7648
  163MPD2    N1 2545   2.795   1.755   0.155  0.7716 -0.3953  0.6184
  163MPD2    H7 2546   2.784   1.774   0.056  1.4421  1.2713  0.8620
  164TMC2    C1 2547   3.631   1.159  11.434  0.1937  0.3911  0.4219
  164TMC2    C2 2548   3.720   1.208  11.519  0.0229 -0.4516 -0.4956
  164TMC2    C3 2549   3.741   1.341  11.523  0.2108 -0.1507 -0.1524
  164TMC2    C4 2550   3.554   1.247  11.359  0.9623 -0.1334  0.2661
  164TMC2    C5 2551   3.585   1.380  11.358  0.1540 -0.3319 -0.3726
  164TMC2    C6 2552   3.679   1.435  11.445  0.0370  0.4068  0.1071
  164TMC2     C 2553   3.657   1.026  11.384 -0.6421 -0.3289 -0.1395
  164TMC2     O 2554   3.694   0.939  11.463  0.0713  0.5294  0.3454
  164TMC2     H 2555   3.781   1.138  11.575  1.5901  0.3442 -1.2069
  164TMC2    H1 2556   3.485   1.210  11.284  0.7539  2.1795 -0.6902
  164TMC2    H2 2557   3.699   1.540  11.464  2.2495 -0.1938  1.1259
  164TMC2    C7 2558   3.511   1.468  11.268 -0.1183 -0.3534  0.1207
  164TMC2    C8 2559   3.839   1.389  11.614 -0.6071 -0.4604 -0.1206
  164TMC2    O1 2560   3.404   1.420  11.232  0.0112 -0.5082 -0.6002
  164TMC2    O2 2561   3.854   1.333  11.721 -0.3775 -0.1408  0.4299
  164TMC2    O5 2562   3.933   1.459  11.546 -0.5700 -1.0488 -0.1810
  164TMC2    H5 2563   3.893   1.507  11.470  0.1922  0.5154  0.4079
  165TMC2    C1 2564   4.674   3.561   0.502  0.8239 -0.1785 -0.3592
  165TMC2    C2 2565   4.683   3.586   0.369  0.9108 -0.1688 -0.2268
  165TMC2    C3 2566   0.072   3.634   0.331 -0.4345  0.3898 -0.1772
  165TMC2    C4 2567   0.044   3.557   0.589 -0.0656 -0.4848  0.3053
  165TMC2    C5 2568   0.162   3.601   0.540 -0.6639  0.4847 -0.2998
  165TMC2    C6 2569   0.180   3.647   0.416 -0.2347 -0.1989 -0.0448
  165TMC2     C 2570   4.543   3.559   0.563  0.0159 -0.0133 -0.3115
  165TMC2     O 2571   4.533   3.495   0.667  0.2940  0.0748 -0.1267
  165TMC2     H 2572   4.598   3.592   0.302  0.9450  0.9196 -0.1670
  165TMC2    H1 2573   0.028   3.525   0.691  2.3557  0.2353  0.9179
  165TMC2    H2 2574   0.280   3.678   0.386 -1.6229  1.7511 -2.6647
  165TMC2    C7 2575   0.270   3.626   0.640  0.2976 -0.1067 -0.0581
  165TMC2    C8 2576   0.090   3.675   0.194 -0.0899 -0.4759  0.3857
  165TMC2    O1 2577   0.390   3.621   0.611 -0.0120  0.0985 -0.0134
  165TMC2    O2 2578   0.183   3.740   0.148  0.3079 -0.5069 -0.2041
  165TMC2    O5 2579   0.019   3.589   0.124  0.0819 -0.1950 -0.0805
  165TMC2    H5 2580   4.728   3.511   0.177  1.1195 -1.0997 -0.8997
  166MPD2     C 2581   4.072   3.737   0.609 -0.1037 -0.0061  1.0742
  166MPD2    C1 2582   4.129   3.626   0.665  0.7552 -0.6941 -0.2911
  166MPD2    C2 2583   4.267   3.604   0.633  0.6060 -0.1898  0.2841
  166MPD2    C3 2584   4.335   3.690   0.548  0.0089 -0.7431 -0.4716
  166MPD2    C4 2585   4.270   3.795   0.491 -0.2705  0.3821 -0.6805
  166MPD2    C5 2586   4.140   3.816   0.527 -0.0717  0.0449  0.6521
  166MPD2     H 2587   4.312   3.513   0.670  0.8967 -0.5022 -0.8324
  166MPD2    H1 2588   4.323   3.851   0.415 -0.3226  0.4765 -0.6473
  166MPD2    H2 2589   3.969   3.761   0.631 -0.7456 -2.3313  0.5913
  166MPD2    H3 2590   4.084   3.900   0.489  0.0106  0.2234  0.9268
  166MPD2     N 2591   4.465   3.655   0.504  0.4417 -0.1206 -0.1928
  166MPD2    H5 2592   4.507   3.725   0.444  2.7925 -0.2081  1.3727
  166MPD2    N1 2593   4.052   3.547   0.747  0.2180 -0.2924  0.1569
  166MPD2    H7 2594   3.953   3.572   0.748  0.2416 -0.2038  1.3331
  167TMC2    C1 2595   3.198   1.737  12.869 -0.6774  0.4146  0.2292
  167TMC2    C2 2596   3.085   1.781  12.928  0.4274 -0.7190  0.6015
  167TMC2    C3 2597   3.005   1.687  12.993 -0.4152  0.3278  0.9943
  167TMC2    C4 2598   3.230   1.606  12.856 -0.5936  0.6272 -0.2167
  167TMC2    C5 2599   3.152   1.516  12.921  0.1571  0.6030  0.1354
  167TMC2    C6 2600   3.042   1.553  12.996  0.0524 -0.0689  0.7120
  167TMC2     C 2601   3.267   1.840  12.786  0.3220  0.1453  0.2353
  167TMC2     O 2602   3.256   1.956  12.828 -0.5336  0.3982  0.3697
  167TMC2     H 2603   3.051   1.884  12.925  2.0623 -0.1983  0.0941
  167TMC2    H1 2604   3.328   1.575  12.822 -1.5502 -0.7177 -1.7618
  167TMC2    H2 2605   2.982   1.487  13.057 -0.3132 -1.7137 -1.4345
  167TMC2    C7 2606   3.188   1.377  12.917  0.5496 -0.3330  0.4290
  167TMC2    C8 2607   2.876   1.725  13.041 -0.3525 -0.0571 -0.7545
  167TMC2    O1 2608   3.157   1.306  13.010  0.2846 -0.3051  0.1999
  167TMC2    O2 2609   2.838   1.701  13.154  0.2885 -0.0014 -0.1303
  167TMC2    O5 2610   2.799   1.727  12.934  0.2013 -0.1131 -0.3175
  167TMC2    H5 2611   2.853   1.714  12.853  0.6762 -1.1928  0.1705
  168MPD2     C 2612   3.422   2.000  12.598  0.3742  0.5389 -0.0743
  168MPD2    C1 2613   3.362   1.882  12.562  0.8600  0.7640 -0.0922
  168MPD2    C2 2614   3.348   1.836  12.428 -0.3671  0.4061 -0.1408
  168MPD2    C3 2615   3.394   1.922  12.329 -0.2761  0.5918  0.4183
  168MPD2    C4 2616   3.441   2.043  12.368 -0.4648  0.0819 -0.4068
  168MPD2    C5 2617   3.454   2.086  12.494 -0.8809 -0.0393 -0.2359
  168MPD2     H 2618   3.295   1.744  12.406 -1.0031  0.9624 -0.9156
  168MPD2    H1 2619   3.456   2.125  12.298 -0.3637  1.1838  0.8948
  168MPD2    H2 2620   3.437   2.036  12.699 -0.5121 -0.0544  0.2648
  168MPD2    H3 2621   3.475   2.189  12.522  0.7801 -0.7951  1.3004
  168MPD2     N 2622   3.365   1.885  12.197  0.2918  0.0437 -0.0795
  168MPD2    H5 2623   3.364   1.960  12.129 -2.3490 -1.3130 -1.5398
  168MPD2    N1 2624   3.310   1.795  12.664 -1.1459  0.0529  0.4682
  168MPD2    H7 2625   3.296   1.698  12.640  0.4114  0.1354 -0.7871
  169MPD1     C 2626   0.052   2.147   8.895  0.7658  0.4644 -0.2582
  169MPD1    C1 2627   0.169   2.171   8.967 -0.2720  0.1907  0.8721
  169MPD1    C2 2628   0.213   2.072   9.043 -1.0865 -0.5000  0.2019
  169MPD1    C3 2629   0.129   1.967   9.081 -0.7387  0.5653  0.4256
  169MPD1    C4 2630   0.003   1.958   9.033 -0.4937 -0.1899 -0.8342
  169MPD1    C5 2631   4.707   2.040   8.928 -0.5301 -0.3322  0.0300
  169MPD1     H 2632   0.316   2.080   9.074 -1.6536 -3.5948  3.0214
  169MPD1    H1 2633   4.672   1.875   9.050 -0.1845 -0.3773 -0.5346
  169MPD1    H2 2634   0.014   2.205   8.811 -1.4020 -2.6237 -1.4207
  169MPD1    H3 2635   4.619   2.012   8.872 -1.4281  1.1909  0.6974
  169MPD1     N 2636   0.186   1.873   9.176  0.1489  0.3277 -0.1470
  169MPD1    H5 2637   0.285   1.872   9.195  0.1018 -1.5576 -0.0138
  169MPD1    N1 2638   0.258   2.268   8.913  0.5825  0.5607 -0.0419
  169MPD1    H6 2639   0.212   2.356   8.891  0.7036  0.2438 -1.5709
  169MPD1    H7 2640   0.330   2.290   8.982  1.0257 -0.5833 -0.1355
  170MPD1     C 2641   4.333   3.187  13.330 -0.0507 -0.1987 -0.3941
  170MPD1    C1 2642   4.355   3.125  13.455 -0.4347  0.2833  0.4356
  170MPD1    C2 2643   4.307   3.198  13.567  0.6227 -0.0243  0.2418
  170MPD1    C3 2644   4.219   3.304  13.550 -0.1297  0.3713 -0.1836
  170MPD1    C4 2645   4.188   3.349  13.421 -0.1968  0.0885 -0.0312
  170MPD1    C5 2646   4.257   3.298  13.314  0.7344 -0.4812  0.6750
  170MPD1     H 2647   4.320   3.163  13.669  0.1970 -0.8319  0.0235
  170MPD1    H1 2648   4.134   3.439  13.393  1.3437  0.5401 -1.5215
  170MPD1    H2 2649   4.374   3.133  13.246  1.0857 -0.4389  0.3177
  170MPD1    H3 2650   4.247   3.336  13.213  0.5580  0.1444  0.9350
  170MPD1     N 2651   4.187   3.382  13.661  0.5233 -0.2652  0.0836
  170MPD1    H5 2652   4.227   3.350  13.749 -2.1280 -2.2342  0.5854
  170MPD1    N1 2653   4.459   3.034  13.469  0.5949 -0.3077 -0.4183
  170MPD1    H6 2654   4.480   2.984  13.383 -1.7091 -1.8353 -0.1096
  170MPD1    H7 2655   4.457   2.969  13.547 -1.7880 -1.0704 -1.0888
  171MPD1     C 2656   2.626   0.244  15.123 -0.2186  1.2187 -0.5244
  171MPD1    C1 2657   2.621   0.116  15.064 -0.2335  0.2500  0.1479
  171MPD1    C2 2658   2.688   0.019  15.138  0.0324 -0.3420  0.9556
  171MPD1    C3 2659   2.770   0.050  15.241  0.5355 -0.7308 -0.2275
  171MPD1    C4 2660   2.790   0.182  15.287 -0.2989 -0.2631 -0.2030
  171MPD1    C5 2661   2.715   0.281  15.224 -0.0294  0.0739 -0.0048
  171MPD1     H 2662   2.675   4.650  15.109 -1.0414  0.3199 -0.9471
  171MPD1    H1 2663   2.865   0.204  15.362  1.4273 -0.0616 -1.9882
  171MPD1    H2 2664   2.565   0.329  15.092  0.8059  1.8788 -0.7317
  171MPD1    H3 2665   2.707   0.386  15.249 -0.5296  0.4209 -1.5899
  171MPD1     N 2666   2.842   4.683  15.309 -0.1897  0.1042  0.6567
  171MPD1    H5 2667   2.904   4.716  15.383 -2.0257  3.5300  0.6586
  171MPD1    N1 2668   2.516   0.089  14.964 -0.4981 -0.1423  0.2842
  171MPD1    H6 2669   2.531   4.733  14.923  1.5070  0.3234 -0.0127
  171MPD1    H7 2670   2.511   0.155  14.887  1.2500 -1.5679 -1.0411
  172MPD1     C 2671   1.493   3.712  17.257 -0.2504 -0.2481  1.0038
  172MPD1    C1 2672   1.452   3.826  17.199 -0.1730 -0.4873 -1.0082
  172MPD1    C2 2673   1.462   3.941  17.272 -0.3992  0.3182 -0.3696
  172MPD1    C3 2674   1.508   3.936  17.400  0.0269 -0.0763  0.0517
  172MPD1    C4 2675   1.538   3.819  17.461 -0.0673  0.6169 -0.4239
  172MPD1    C5 2676   1.530   3.703  17.390  0.0243 -0.0278 -0.3957
  172MPD1     H 2677   1.448   4.030  17.211 -0.2971  0.3775 -0.3052
  172MPD1    H1 2678   1.592   3.815  17.556  0.1471  0.4536 -0.5531
  172MPD1    H2 2679   1.493   3.619  17.201 -0.5672 -0.0119  0.6163
  172MPD1    H3 2680   1.565   3.607  17.427 -1.3312 -0.4947 -0.2945
  172MPD1     N 2681   1.545   4.060  17.469 -0.1456 -0.1532 -0.0703
  172MPD1    H5 2682   1.591   4.048  17.559 -1.6293 -0.0739  0.6865
  172MPD1    N1 2683   1.424   3.821  17.066 -1.4839 -0.0158 -0.9918
  172MPD1    H6 2684   1.395   3.726  17.045 -2.7574 -0.2332  1.7121
  172MPD1    H7 2685   1.356   3.896  17.058 -1.7708 -0.2617 -0.8407
  173MPD1     C 2686   3.345   3.958  14.437  0.3255 -0.2560 -0.5739
  173MPD1    C1 2687   3.216   3.921  14.450 -0.2593 -0.5716  0.2577
  173MPD1    C2 2688   3.191   3.800  14.512 -0.3205  0.0471 -0.0515
  173MPD1    C3 2689   3.285   3.703  14.544  0.4645 -0.3079 -0.0774
  173MPD1    C4 2690   3.419   3.738  14.522 -0.4412 -0.0400  0.2218
  173MPD1    C5 2691   3.445   3.857  14.462 -0.1754 -0.4250 -0.0664
  173MPD1     H 2692   3.091   3.765  14.536  0.0000  0.0160  1.2462
  173MPD1    H1 2693   3.500   3.665  14.527  1.1345  1.6550 -0.6246
  173MPD1    H2 2694   3.383   4.055  14.407 -2.2865  1.1617  0.7189
  173MPD1    H3 2695   3.547   3.878  14.434  0.3020 -1.9693  0.5146
  173MPD1     N 2696   3.244   3.573  14.591 -0.0885  0.0717 -0.3268
  173MPD1    H5 2697   3.147   3.564  14.620 -0.3093  2.1442 -0.4450
  173MPD1    N1 2698   3.117   4.024  14.437  0.0830  1.0901 -0.0748
  173MPD1    H6 2699   3.023   3.992  14.415  0.6635 -0.8108  0.2290
  173MPD1    H7 2700   3.144   4.096  14.370 -0.4039  0.8239 -0.5616
  174MPD1     C 2701   3.551   2.628  14.571  0.9167 -0.7441  1.1569
  174MPD1    C1 2702   3.417   2.642  14.546  0.7475 -0.1256 -0.4279
  174MPD1    C2 2703   3.355   2.755  14.591  0.0918  0.6731  0.5875
  174MPD1    C3 2704   3.434   2.869  14.628  0.2225 -0.0457  1.3612
  174MPD1    C4 2705   3.568   2.863  14.636  0.2940  0.4002  0.2365
  174MPD1    C5 2706   3.624   2.734  14.614  0.5044 -0.5255 -1.1118
  174MPD1     H 2707   3.247   2.754  14.585  0.1097  1.2256  0.2191
  174MPD1    H1 2708   3.631   2.948  14.657  1.0857 -0.2516  0.5064
  174MPD1    H2 2709   3.605   2.536  14.551  0.1750 -1.1093  0.8414
  174MPD1    H3 2710   3.731   2.718  14.616  0.6729  0.4036 -2.6439
  174MPD1     N 2711   3.378   2.995  14.662  0.3627 -0.4065  0.6264
  174MPD1    H5 2712   3.447   3.069  14.662  0.0802 -0.1644 -2.5539
  174MPD1    N1 2713   3.339   2.532  14.497 -0.1210  0.0296  0.9614
  174MPD1    H6 2714   3.393   2.466  14.443 -0.9649  2.5531 -2.9327
  174MPD1    H7 2715   3.262   2.564  14.438 -0.6556 -0.6803  1.2730
  175MPD1     C 2716   1.919   1.118  15.128  0.3992 -0.1369  0.2221
  175MPD1    C1 2717   1.843   1.185  15.218 -0.1893 -0.6768 -0.5139
  175MPD1    C2 2718   1.763   1.112  15.300 -0.2654  0.3077 -0.0253
  175MPD1    C3 2719   1.747   0.971  15.291  0.0296  0.3439 -0.3826
  175MPD1    C4 2720   1.820   0.910  15.191  0.2203  0.3765  0.2309
  175MPD1    C5 2721   1.905   0.981  15.116  0.1230 -0.1736 -0.2749
  175MPD1     H 2722   1.713   1.171  15.376 -2.2769 -1.4391  0.0128
  175MPD1    H1 2723   1.822   0.803  15.171  0.0339  0.4023  0.0800
  175MPD1    H2 2724   1.983   1.167  15.055  1.4043  0.6686  1.6353
  175MPD1    H3 2725   1.972   0.923  15.053  1.3795  0.9615  0.0284
  175MPD1     N 2726   1.656   0.893  15.363  0.3199 -0.8801  0.4222
  175MPD1    H5 2727   1.651   0.792  15.351  0.3120 -0.7211 -0.8974
  175MPD1    N1 2728   1.868   1.322  15.236  0.1809  0.5031  1.2848
  175MPD1    H6 2729   1.784   1.373  15.261 -1.0118 -0.0881 -1.6192
  175MPD1    H7 2730   1.899   1.370  15.152 -2.6697 -2.1198 -1.2241
  176MPD1     C 2731   4.129   2.707   0.573  0.2104 -0.2345 -0.2649
  176MPD1    C1 2732   4.006   2.643   0.580 -0.0383  0.9911 -0.2186
  176MPD1    C2 2733   3.901   2.709   0.516 -0.1748 -0.3735  0.5704
  176MPD1    C3 2734   3.913   2.819   0.430 -0.3636 -0.5320  0.7392
  176MPD1    C4 2735   4.042   2.875   0.427 -1.2802 -0.3910 -0.4934
  176MPD1    C5 2736   4.145   2.819   0.503 -0.5590 -0.3364  0.4174
  176MPD1     H 2737   3.810   2.650   0.516 -0.0001 -0.6388 -0.9059
  176MPD1    H1 2738   4.062   2.962   0.365  0.9419 -1.0930 -0.7634
  176MPD1    H2 2739   4.206   2.662   0.634  0.8528  2.1692  0.7147
  176MPD1    H3 2740   4.243   2.866   0.505 -0.9999  0.5878  0.3076
  176MPD1     N 2741   3.799   2.869   0.357  0.0078 -0.2113  0.0967
  176MPD1    H5 2742   3.705   2.837   0.376 -0.5759  1.5032  0.1120
  176MPD1    N1 2743   3.989   2.549   0.690 -0.0224 -0.1465  0.2777
  176MPD1    H6 2744   4.074   2.497   0.707 -0.2500 -0.5493  0.1811
  176MPD1    H7 2745   3.918   2.481   0.663  0.1071 -0.7808  1.5885
  177MPD1     C 2746   2.030   2.462  10.233  0.1840 -0.1490  0.0306
  177MPD1    C1 2747   2.084   2.563  10.154 -0.3720 -0.2979 -0.1136
  177MPD1    C2 2748   2.033   2.579  10.028  1.0079  0.4108 -0.0785
  177MPD1    C3 2749   1.930   2.493   9.989 -0.0327 -0.1346  0.2234
  177MPD1    C4 2750   1.879   2.398  10.068  0.1286 -0.3820  0.2238
  177MPD1    C5 2751   1.927   2.381  10.197 -0.0137 -1.1337  0.3607
  177MPD1     H 2752   2.078   2.653   9.963  1.7321  1.0178  1.1259
  177MPD1    H1 2753   1.792   2.338  10.043  0.4727 -0.0661 -1.7148
  177MPD1    H2 2754   2.070   2.428  10.328 -1.1057 -3.8593 -0.7508
  177MPD1    H3 2755   1.895   2.309  10.272 -3.1559 -0.7564 -0.6009
  177MPD1     N 2756   1.878   2.509   9.854 -0.3531 -0.5851 -0.2346
  177MPD1    H5 2757   1.934   2.562   9.789  0.2099 -2.9508 -1.6659
  177MPD1    N1 2758   2.214   2.606  10.193  0.3710  0.8629  0.2716
  177MPD1    H6 2759   2.224   2.704  10.166  1.3991  0.6082 -0.2760
  177MPD1    H7 2760   2.227   2.606  10.294  0.1358  3.1406  0.3064
  178MPD1     C 2761   3.361   2.653   0.152  0.6741  0.3942  0.0710
  178MPD1    C1 2762   3.380   2.673   0.021  0.3025  0.1028  0.7097
  178MPD1    C2 2763   3.504   2.666  17.707 -0.8295  0.4116  0.5553
  178MPD1    C3 2764   3.615   2.649   0.044  0.2410  0.1997 -0.3400
  178MPD1    C4 2765   3.598   2.641   0.184  0.3739 -0.7363  0.0826
  178MPD1    C5 2766   3.471   2.650   0.235 -0.4131  0.7442 -0.2974
  178MPD1     H 2767   3.504   2.686  17.600  0.8193 -1.0119  0.2685
  178MPD1    H1 2768   3.676   2.638   0.259 -0.1040 -0.7723  0.5825
  178MPD1    H2 2769   3.262   2.650   0.195  0.2554  0.8389 -0.8525
  178MPD1    H3 2770   3.459   2.653   0.343 -3.4768 -1.0090 -0.5893
  178MPD1     N 2771   3.742   2.631  17.728 -1.0091 -0.1851 -1.1196
  178MPD1    H5 2772   3.826   2.629   0.044 -0.5252 -1.1675 -1.8797
  178MPD1    N1 2773   3.268   2.675  17.679  0.2971 -0.3607  0.6626
  178MPD1    H6 2774   3.183   2.694  17.733 -1.1165 -2.2373 -0.9501
  178MPD1    H7 2775   3.277   2.731  17.595  0.3841 -0.4942  0.5843
  179MPD1     C 2776   3.482   0.853  14.870  0.6210  0.3908  0.5861
  179MPD1    C1 2777   3.599   0.820  14.940 -0.4111 -0.2261 -0.3895
  179MPD1    C2 2778   3.596   0.849  15.079 -0.3867 -0.5030 -1.0486
  179MPD1    C3 2779   3.492   0.913  15.143 -0.3022 -0.0261  0.3373
  179MPD1    C4 2780   3.380   0.945  15.066 -0.1072  0.4919 -0.0408
  179MPD1    C5 2781   3.380   0.916  14.937 -0.6670  0.3136  0.4811
  179MPD1     H 2782   3.682   0.816  15.136 -0.9121  0.5998  0.3693
  179MPD1    H1 2783   3.291   0.987  15.111 -0.8944  0.7009 -1.8189
  179MPD1    H2 2784   3.457   0.830  14.767  1.0771 -0.0562  0.5801
  179MPD1    H3 2785   3.287   0.940  14.885 -0.7464  0.5333  0.7232
  179MPD1     N 2786   3.487   0.936  15.282 -0.1055 -0.1151 -0.0888
  179MPD1    H5 2787   3.403   0.982  15.315  0.6536  0.7249  0.6541
  179MPD1    N1 2788   3.692   0.734  14.879  0.0136  0.5801 -0.6882
  179MPD1    H6 2789   3.782   0.734  14.927 -1.2016  1.8110  1.5667
  179MPD1    H7 2790   3.706   0.759  14.781 -0.3572 -1.6349 -1.3124
  180MPD1     C 2791   3.558   1.735  15.849 -0.4226  0.8316 -0.2393
  180MPD1    C1 2792   3.618   1.841  15.785 -0.1227  0.0889  0.5884
  180MPD1    C2 2793   3.636   1.831  15.644 -0.0718  0.9817  0.1291
  180MPD1    C3 2794   3.578   1.726  15.575 -0.0329 -0.3846  0.4303
  180MPD1    C4 2795   3.503   1.633  15.645 -0.1626 -0.5185  0.2506
  180MPD1    C5 2796   3.506   1.630  15.780 -0.3719  0.3930  0.0620
  180MPD1     H 2797   3.695   1.908  15.595  2.5131 -0.5823  0.8096
  180MPD1    H1 2798   3.454   1.553  15.590  0.1300  2.2323 -3.9854
  180MPD1    H2 2799   3.574   1.724  15.956  0.2871  1.9062 -0.2346
  180MPD1    H3 2800   3.469   1.538  15.824 -1.3248  0.0998 -1.3652
  180MPD1     N 2801   3.593   1.729  15.429  0.7197 -0.2655 -0.2824
  180MPD1    H5 2802   3.635   1.810  15.385 -1.1709  0.5809 -0.5515
  180MPD1    N1 2803   3.678   1.943  15.855 -0.0676  0.0444  0.0757
  180MPD1    H6 2804   3.612   1.964  15.930 -0.4378 -1.4988  0.1837
  180MPD1    H7 2805   3.701   2.030  15.808 -0.1388 -1.2854 -2.4077
  181MPD1     C 2806   2.121   0.317   9.789 -0.2628  0.1035 -0.1134
  181MPD1    C1 2807   2.061   0.416   9.860  0.6225 -0.3102 -0.0345
  181MPD1    C2 2808   2.011   0.396   9.985 -0.0186  0.6067  0.0621
  181MPD1    C3 2809   1.991   0.260  10.020 -0.2527 -0.1128 -0.0822
  181MPD1    C4 2810   2.047   0.160   9.948 -0.2773  0.3298 -0.2209
  181MPD1    C5 2811   2.115   0.187   9.832 -0.4378  0.3755 -0.6789
  181MPD1     H 2812   1.990   0.479  10.051  1.2031  0.0979  1.1016
  181MPD1    H1 2813   2.050   0.058   9.985 -1.0632 -0.6960 -2.9764
  181MPD1    H2 2814   2.183   0.333   9.701  0.5884  1.1243  0.6714
  181MPD1    H3 2815   2.159   0.101   9.782  1.5962 -0.0671  1.9129
  181MPD1     N 2816   1.927   0.223  10.138 -0.0481 -0.3541  0.0592
  181MPD1    H5 2817   1.929   0.123  10.153 -0.1841 -0.1367  1.5236
  181MPD1    N1 2818   2.091   0.546   9.826 -0.0625 -0.0505 -0.5071
  181MPD1    H6 2819   2.024   0.602   9.879  1.0376 -1.9907  2.9146
  181MPD1    H7 2820   2.076   0.562   9.726  1.4070 -2.0088 -1.0362
  182MPD1     C 2821   0.216   3.327   1.243  0.4726 -0.2930  0.3450
  182MPD1    C1 2822   0.339   3.337   1.308  0.0509  0.6223  0.3027
  182MPD1    C2 2823   0.457   3.350   1.233 -0.1259 -0.6555 -1.0161
  182MPD1    C3 2824   0.449   3.365   1.098  0.5309  0.0012 -0.0397
  182MPD1    C4 2825   0.327   3.361   1.032  0.1778 -0.1176 -0.3905
  182MPD1    C5 2826   0.215   3.354   1.109  0.3602 -0.4625 -0.1378
  182MPD1     H 2827   0.551   3.336   1.285  0.3639  0.5697 -1.5819
  182MPD1    H1 2828   0.324   3.394   0.929 -0.6362 -0.1444 -0.3724
  182MPD1    H2 2829   0.125   3.314   1.301  0.2389  0.6415  0.1989
  182MPD1    H3 2830   0.116   3.345   1.067  0.8550 -1.5542 -1.0773
  182MPD1     N 2831   0.566   3.383   1.026  0.1998 -0.1757  0.1824
  182MPD1    H5 2832   0.554   3.363   0.927 -2.7278 -1.0942  0.7078
  182MPD1    N1 2833   0.345   3.308   1.443  0.4872  0.0743 -0.3959
  182MPD1    H6 2834   0.414   3.372   1.482 -0.9078  0.4683  1.4121
  182MPD1    H7 2835   0.255   3.323   1.486  0.7340 -1.9812  0.8208
  183MPD1     C 2836   1.791   3.989   8.861  0.1806  0.0282 -0.1564
  183MPD1    C1 2837   1.782   3.920   8.978  0.6419  0.2322 -0.2818
  183MPD1    C2 2838   1.724   3.983   9.083 -0.4650  0.3147 -0.5163
  183MPD1    C3 2839   1.676   4.109   9.069 -0.2857 -0.6978  0.1211
  183MPD1    C4 2840   1.664   4.169   8.946  0.3694 -0.4605 -0.1145
  183MPD1    C5 2841   1.721   4.107   8.845  0.4952  0.1278 -0.9080
  183MPD1     H 2842   1.735   3.938   9.181  1.6647  0.0098 -0.8886
  183MPD1    H1 2843   1.615   4.263   8.925  0.7580  0.2858  2.3226
  183MPD1    H2 2844   1.832   3.938   8.774  0.2479 -0.4723  0.1627
  183MPD1    H3 2845   1.712   4.138   8.741 -1.2681 -2.0544 -1.3924
  183MPD1     N 2846   1.652   4.172   9.193  0.0617  0.0250 -0.4241
  183MPD1    H5 2847   1.666   4.119   9.278  2.3089 -1.6859 -1.8338
  183MPD1    N1 2848   1.852   3.802   8.986 -0.2211 -0.0316  0.5710
  183MPD1    H6 2849   1.844   3.753   8.897 -0.2213  0.0281  0.5380
  183MPD1    H7 2850   1.818   3.741   9.060  0.5763 -0.0592  0.9201
  184MPD1     C 2851   0.454   2.671   9.981 -0.4538  0.0853 -0.6568
  184MPD1    C1 2852   0.453   2.558   9.901 -0.1127 -0.8032 -0.1163
  184MPD1    C2 2853   0.553   2.542   9.804 -0.4486  0.5703  0.3036
  184MPD1    C3 2854   0.661   2.636   9.802  0.4381 -0.9907  0.2487
  184MPD1    C4 2855   0.657   2.740   9.891  0.2137 -0.2969 -1.0684
  184MPD1    C5 2856   0.554   2.758   9.979  0.3658  0.2643 -0.1585
  184MPD1     H 2857   0.567   2.453   9.743  0.4329  0.3405  0.8423
  184MPD1    H1 2858   0.727   2.823   9.893 -2.4696  1.9640 -0.2676
  184MPD1    H2 2859   0.378   2.698  10.054  0.4578  0.6803  0.0748
  184MPD1    H3 2860   0.566   2.840  10.050  1.3965  1.1460 -1.3458
  184MPD1     N 2861   0.767   2.627   9.706 -0.0960  0.7443 -0.4363
  184MPD1    H5 2862   0.847   2.689   9.713 -0.1857  0.8249 -0.1461
  184MPD1    N1 2863   0.336   2.483   9.888 -0.4601 -0.4262 -0.2436
  184MPD1    H6 2864   0.285   2.482   9.976 -1.0522  0.6216 -0.5790
  184MPD1    H7 2865   0.366   2.389   9.865  0.0789 -0.5824  1.1264
  185MPD1     C 2866   0.844   2.911   8.731  0.1957 -0.1695  0.9016
  185MPD1    C1 2867   0.792   2.788   8.762 -0.7368 -0.8499  0.1203
  185MPD1    C2 2868   0.824   2.735   8.887  0.1882  0.3484 -0.1514
  185MPD1    C3 2869   0.914   2.796   8.974  1.6441 -0.2376  0.3205
  185MPD1    C4 2870   0.972   2.915   8.935 -0.5886 -0.2120  0.6525
  185MPD1    C5 2871   0.934   2.975   8.816  0.4220 -0.2350 -0.0247
  185MPD1     H 2872   0.782   2.638   8.910  1.2992 -0.0900  0.0279
  185MPD1    H1 2873   1.031   2.983   8.995  0.0192 -0.9319  0.8763
  185MPD1    H2 2874   0.808   2.969   8.647  1.9108 -1.9616 -1.0641
  185MPD1    H3 2875   0.973   3.074   8.799 -1.6483  0.4855 -0.4731
  185MPD1     N 2876   0.950   2.748   9.104  0.1481 -0.6035  0.1278
  185MPD1    H5 2877   1.024   2.794   9.156 -0.4233 -0.4922  0.8449
  185MPD1    N1 2878   0.720   2.712   8.667 -0.0519 -0.3340  0.8408
  185MPD1    H6 2879   0.667   2.757   8.592  1.1446  0.8047  0.6686
  185MPD1    H7 2880   0.658   2.643   8.710 -0.2993 -0.0076  1.0100
  186MPD1     C 2881   4.514   0.622  16.227  0.6142 -0.0376  0.0427
  186MPD1    C1 2882   4.589   0.715  16.297 -0.7826 -0.3087  0.4072
  186MPD1    C2 2883   4.520   0.832  16.324 -0.4094 -0.9091 -1.0814
  186MPD1    C3 2884   4.385   0.863  16.291  0.0063 -0.0281  0.1024
  186MPD1    C4 2885   4.319   0.765  16.222 -0.3331 -0.2528  0.9733
  186MPD1    C5 2886   4.387   0.649  16.188 -0.0314  0.3735 -0.5439
  186MPD1     H 2887   4.578   0.904  16.380  1.6967 -0.6426 -3.5938
  186MPD1    H1 2888   4.212   0.762  16.203 -0.3452  0.0745  0.9844
  186MPD1    H2 2889   4.554   0.523  16.206  0.0011 -0.2636 -0.0629
  186MPD1    H3 2890   4.326   0.585  16.124  2.4140 -2.5898  0.1194
  186MPD1     N 2891   4.302   0.969  16.353 -0.1115  0.1444 -1.3151
  186MPD1    H5 2892   4.210   0.978  16.311 -0.3144  0.4195 -0.8108
  186MPD1    N1 2893   4.707   0.688  16.356 -0.0948 -0.0319 -0.0454
  186MPD1    H6 2894   0.029   0.770  16.374  1.1038 -0.8946  0.0463
  186MPD1    H7 2895   0.026   0.614  16.313  1.0257 -0.0124  1.3325
  187MPD1     C 2896   3.597   3.269   0.472 -0.9289  0.3035 -0.2126
  187MPD1    C1 2897   3.678   3.344   0.390  0.9474 -0.0350  0.5076
  187MPD1    C2 2898   3.617   3.411   0.279 -0.0252 -1.1643 -0.5682
  187MPD1    C3 2899   3.484   3.393   0.241 -0.3121  0.4358 -0.2530
  187MPD1    C4 2900   3.403   3.326   0.332  0.3952 -1.0828 -0.6872
  187MPD1    C5 2901   3.463   3.252   0.434 -0.0690 -0.2200 -0.1814
  187MPD1     H 2902   3.674   3.482   0.220 -2.4373  0.7359 -0.6465
  187MPD1    H1 2903   3.295   3.325   0.330  0.3914 -0.2645 -0.7139
  187MPD1    H2 2904   3.621   3.226   0.568  2.2238  1.3295 -0.5526
  187MPD1    H3 2905   3.403   3.187   0.497 -0.1687 -1.8452 -1.9591
  187MPD1     N 2906   3.430   3.429   0.113 -0.3070  0.3621 -0.1450
  187MPD1    H5 2907   3.330   3.424   0.097 -0.0279 -2.1002 -1.1933
  187MPD1    N1 2908   3.799   3.376   0.444  0.1086 -0.3934 -0.1370
  187MPD1    H6 2909   3.869   3.409   0.378  0.4424 -0.1580  0.3338
  187MPD1    H7 2910   3.846   3.305   0.500 -2.7773 -0.8203  1.7366
  188MPD1     C 2911   3.488   2.791  11.247 -0.2538  0.1960  0.3388
  188MPD1    C1 2912   3.527   2.857  11.135  0.6505  0.1245  0.6890
  188MPD1    C2 2913   3.591   2.786  11.039 -0.0696  0.5268  0.0864
  188MPD1    C3 2914   3.630   2.650  11.049 -0.1230 -0.2274  0.0945
  188MPD1    C4 2915   3.598   2.587  11.166  0.5177 -0.2131 -0.6249
  188MPD1    C5 2916   3.509   2.656  11.250 -0.2099  0.8176 -0.8290
  188MPD1     H 2917   3.626   2.843  10.953 -1.5086  1.9507  0.4386
  188MPD1    H1 2918   3.610   2.480  11.182  0.7647 -0.2223 -0.8718
  188MPD1    H2 2919   3.415   2.844  11.307 -1.0926  0.5696 -1.0220
  188MPD1    H3 2920   3.467   2.596  11.330  0.1694  0.8277 -0.6205
  188MPD1     N 2921   3.687   2.574  10.947 -0.0932  0.0677  0.2629
  188MPD1    H5 2922   3.687   2.475  10.967  2.2054  0.0004 -0.0660
  188MPD1    N1 2923   3.517   2.999  11.125  0.5960 -0.2630 -0.5488
  188MPD1    H6 2924   3.531   3.031  11.030 -0.5976  0.5711 -0.4488
  188MPD1    H7 2925   3.427   3.029  11.163  0.8477 -0.6958  0.3863
  189MPD1     C 2926   0.483   4.341   0.198  0.4229  0.2470 -0.1048
  189MPD1    C1 2927   0.430   4.213   0.195  0.3132  0.7829 -0.2763
  189MPD1    C2 2928   0.310   4.190   0.127 -0.2592 -0.9181  0.4624
  189MPD1    C3 2929   0.239   4.290   0.066 -0.4791  0.0611 -0.3035
  189MPD1    C4 2930   0.299   4.417   0.061  0.3568 -0.2131  0.4998
  189MPD1    C5 2931   0.422   4.435   0.119 -0.7696 -0.1802 -0.3417
  189MPD1     H 2932   0.267   4.091   0.134  0.6610 -1.2433  1.4838
  189MPD1    H1 2933   0.247   4.501   0.018  2.1240  0.0324 -1.1307
  189MPD1    H2 2934   0.564   4.367   0.266  0.8580  1.3005 -1.0387
  189MPD1    H3 2935   0.451   4.539   0.105 -0.6304 -0.0561  0.8394
  189MPD1     N 2936   0.110   4.261   0.009  0.1376 -0.1035  0.1778
  189MPD1    H5 2937   0.076   4.165   0.008  1.2445 -0.4807 -1.2673
  189MPD1    N1 2938   0.475   4.116   0.281 -0.2443  0.2915 -0.0555
  189MPD1    H6 2939   0.571   4.128   0.310 -0.1230 -0.2348 -0.2445
  189MPD1    H7 2940   0.463   4.023   0.241 -3.6882  0.3270  0.9199
  190MPD1     C 2941   3.331   2.578  15.510  0.2016 -0.1530  0.2743
  190MPD1    C1 2942   3.449   2.519  15.459  0.0147 -0.8615  0.4359
  190MPD1    C2 2943   3.563   2.534  15.538  0.5296 -0.0402  0.4520
  190MPD1    C3 2944   3.563   2.606  15.660 -0.0046  0.3138 -0.5275
  190MPD1    C4 2945   3.445   2.667  15.704 -0.2413 -0.2204 -0.1188
  190MPD1    C5 2946   3.336   2.653  15.626 -0.5473 -0.7157 -0.1647
  190MPD1     H 2947   3.654   2.487  15.503 -1.0708 -2.4892 -0.4392
  190MPD1    H1 2948   3.444   2.724  15.797 -0.2521 -0.0622 -0.2163
  190MPD1    H2 2949   3.239   2.565  15.454  0.6589 -2.5810  0.0731
  190MPD1    H3 2950   3.249   2.701  15.669  1.0083  0.2046  2.0208
  190MPD1     N 2951   3.682   2.603  15.733  0.6345  0.3485 -0.1180
  190MPD1    H5 2952   3.764   2.562  15.688  0.9305 -0.5186  1.2045
  190MPD1    N1 2953   3.459   2.437  15.344 -0.0858  0.3761  0.2057
  190MPD1    H6 2954   3.554   2.433  15.307  0.4339 -0.6008  1.6529
  190MPD1    H7 2955   3.403   2.466  15.264  1.1379  0.4571 -0.6248
  191MPD1     C 2956   3.677   3.585  13.333 -0.0730  0.8904 -0.0581
  191MPD1    C1 2957   3.639   3.577  13.199 -0.3707  0.0837 -0.2639
  191MPD1    C2 2958   3.528   3.641  13.159 -0.3400 -0.4487 -0.6937
  191MPD1    C3 2959   3.450   3.725  13.242 -0.6706 -0.1139 -0.1446
  191MPD1    C4 2960   3.492   3.739  13.375 -0.7863  0.3987 -0.4507
  191MPD1    C5 2961   3.605   3.675  13.419 -0.1348  0.3111 -0.0225
  191MPD1     H 2962   3.508   3.641  13.053  3.1758 -0.7166 -1.3605
  191MPD1    H1 2963   3.436   3.800  13.446  0.7700  2.2484 -0.8233
  191MPD1    H2 2964   3.759   3.524  13.370  1.6133  1.5717 -2.6483
  191MPD1    H3 2965   3.647   3.703  13.515  0.9743  1.2675 -0.7757
  191MPD1     N 2966   3.331   3.775  13.188  0.6752  0.1399  0.4597
  191MPD1    H5 2967   3.323   3.775  13.087  0.5320  0.7097  0.4699
  191MPD1    N1 2968   3.727   3.524  13.103 -0.2060  0.1207  0.5171
  191MPD1    H6 2969   3.795   3.452  13.127 -0.3948 -0.1301  0.2904
  191MPD1    H7 2970   3.673   3.497  13.021  0.1124  0.7061  0.1095
  192MPD1     C 2971   2.723   4.616  13.467 -0.3485 -0.2558  0.6103
  192MPD1    C1 2972   2.748   4.505  13.537 -0.1542 -0.3148  0.1111
  192MPD1    C2 2973   2.799   4.395  13.472 -0.4013  0.0683 -0.1010
  192MPD1    C3 2974   2.817   4.402  13.332  0.4397  0.0305 -0.0444
  192MPD1    C4 2975   2.789   4.512  13.266 -0.3029 -0.8148 -0.4326
  192MPD1    C5 2976   2.736   4.620  13.329  1.0005  0.7969  0.7722
  192MPD1     H 2977   2.807   4.300  13.523 -0.7493  1.0610  1.7907
  192MPD1    H1 2978   2.806   4.522  13.160 -1.0666  0.4660 -0.4334
  192MPD1    H2 2979   2.697   4.713  13.508  0.4433  0.9785 -1.7775
  192MPD1    H3 2980   2.725   4.712  13.274  2.3728 -0.7263 -2.0306
  192MPD1     N 2981   2.880   4.291  13.265 -0.0359 -0.1602  0.7852
  192MPD1    H5 2982   2.904   4.309  13.168  0.7490 -1.5203  0.7243
  192MPD1    N1 2983   2.748   4.504  13.679  0.6027  0.3425  0.2804
  192MPD1    H6 2984   2.727   4.416  13.727  1.7839 -1.2813 -2.1410
  192MPD1    H7 2985   2.677   4.568  13.712  0.7449  0.5018  0.2729
  193MPD1     C 2986   2.269   4.313  16.140 -0.8218 -0.0172 -0.1136
  193MPD1    C1 2987   2.208   4.414  16.208  0.1184  0.5362  0.8465
  193MPD1    C2 2988   2.296   4.474  16.296 -0.2053  0.0559 -0.3176
  193MPD1    C3 2989   2.420   4.426  16.335  0.7600 -0.5543 -0.0715
  193MPD1    C4 2990   2.477   4.325  16.255  0.5470 -1.2880 -0.2752
  193MPD1    C5 2991   2.394   4.266  16.157  0.7137  0.1160 -0.5407
  193MPD1     H 2992   2.255   4.561  16.345 -0.0484  0.0683 -0.2091
  193MPD1    H1 2993   2.578   4.289  16.270  0.0776 -1.7905  1.5620
  193MPD1    H2 2994   2.223   4.263  16.056 -0.4189 -0.1759 -0.2403
  193MPD1    H3 2995   2.425   4.186  16.090 -0.3918 -0.5194 -0.2893
  193MPD1     N 2996   2.494   4.483  16.443 -0.1604  0.3300  0.2232
  193MPD1    H5 2997   2.593   4.462  16.455  0.1451  1.1168 -0.8563
  193MPD1    N1 2998   2.084   4.467  16.169  0.1490 -0.5526 -0.3482
  193MPD1    H6 2999   2.034   4.533  16.228 -0.8574  0.3377 -2.1847
  193MPD1    H7 3000   2.026   4.396  16.124 -1.4232  0.2713  0.3680
  194MPD1     C 3001   4.186   1.484  17.444 -0.7276 -0.4386 -0.6796
  194MPD1    C1 3002   4.287   1.573  17.445 -0.3074 -0.6345  0.2974
  194MPD1    C2 3003   4.402   1.548  17.380 -0.3421  0.2082  0.0441
  194MPD1    C3 3004   4.427   1.416  17.337 -0.5206 -0.1556 -0.1667
  194MPD1    C4 3005   4.332   1.317  17.353 -0.1283 -0.5159  0.4321
  194MPD1    C5 3006   4.208   1.355  17.401  0.2019 -0.1708  0.3334
  194MPD1     H 3007   4.470   1.632  17.371 -0.2312 -0.1897 -2.7547
  194MPD1    H1 3008   4.345   1.212  17.330  1.5846 -0.3283  0.5199
  194MPD1    H2 3009   4.089   1.525  17.470 -0.1376 -1.4253  3.0177
  194MPD1    H3 3010   4.124   1.287  17.397 -0.6994  1.0102 -0.9787
  194MPD1     N 3011   4.545   1.383  17.267 -0.0849 -0.3699  0.3625
  194MPD1    H5 3012   4.575   1.286  17.264  0.7433 -0.1172  0.2021
  194MPD1    N1 3013   4.257   1.708  17.476 -0.3829 -0.2077 -0.9069
  194MPD1    H6 3014   4.182   1.725  17.544  1.9463  2.5108  0.9745
  194MPD1    H7 3015   4.349   1.747  17.494 -0.0628 -2.1183  1.6978
  195MPD1     C 3016   2.355   3.806   0.138 -0.2559  0.1643  0.0133
  195MPD1    C1 3017   2.471   3.733   0.115  0.3115 -0.3389  0.0680
  195MPD1    C2 3018   2.469   3.594   0.124  0.6810 -0.5306  0.4183
  195MPD1    C3 3019   2.354   3.522   0.163  0.2926  0.3991  0.2953
  195MPD1    C4 3020   2.233   3.604   0.174 -0.0144 -1.1681  0.7039
  195MPD1    C5 3021   2.238   3.737   0.168 -0.0410  0.1461 -0.0875
  195MPD1     H 3022   2.565   3.546   0.105  0.5878 -0.9191  0.9347
  195MPD1    H1 3023   2.139   3.558   0.202 -0.1527 -0.1554  1.9213
  195MPD1    H2 3024   2.351   3.915   0.134  1.4377  0.2020 -0.6486
  195MPD1    H3 3025   2.150   3.794   0.194  2.0739  2.4084  2.1173
  195MPD1     N 3026   2.346   3.388   0.198  0.2960  0.4417  0.2452
  195MPD1    H5 3027   2.262   3.352   0.242  0.5405  2.6675  2.4869
  195MPD1    N1 3028   2.593   3.802   0.111 -0.0211 -0.0352  0.8995
  195MPD1    H6 3029   2.665   3.764   0.050 -1.4012 -0.5138 -0.4258
  195MPD1    H7 3030   2.560   3.894   0.082  1.5110  0.1420 -0.2770
  196MPD1     C 3031   2.178   2.158  17.629 -0.4560  0.4607 -0.1356
  196MPD1    C1 3032   2.277   2.205  17.715  0.4570  0.3264 -0.6639
  196MPD1    C2 3033   2.227   2.282   0.073  0.0264 -0.0571 -0.1745
  196MPD1    C3 3034   2.097   2.324   0.090  0.3652 -0.1568 -0.3198
  196MPD1    C4 3035   2.005   2.281  17.735 -0.2452 -0.2169 -0.3933
  196MPD1    C5 3036   2.047   2.193  17.639  0.5250  0.2126  0.5458
  196MPD1     H 3037   2.298   2.300   0.154 -1.3445  0.0572  0.9924
  196MPD1    H1 3038   1.901   2.312  17.734 -0.9164 -2.4244  0.3824
  196MPD1    H2 3039   2.206   2.087  17.553  1.6599  0.6510  0.4858
  196MPD1    H3 3040   1.973   2.157  17.568 -0.0119  1.9291  0.2335
  196MPD1     N 3041   2.056   2.401   0.205 -0.2597  0.0279 -0.2407
  196MPD1    H5 3042   1.956   2.417   0.210 -0.4396 -1.3001  0.3835
  196MPD1    N1 3043   2.407   2.144  17.718 -0.4837 -0.2973  0.3079
  196MPD1    H6 3044   2.483   2.190   0.027  0.0255 -1.0219  0.1893
  196MPD1    H7 3045   2.432   2.101  17.629 -1.0758 -0.0102 -0.0058
  197MPD1     C 3046   1.093   4.113  16.352  0.3012 -0.6270  0.4224
  197MPD1    C1 3047   1.185   4.071  16.450  0.0984 -0.3994 -0.4824
  197MPD1    C2 3048   1.277   4.164  16.489  0.0354  0.0588 -0.5106
  197MPD1    C3 3049   1.275   4.293  16.437 -0.5351 -0.4869 -0.1993
  197MPD1    C4 3050   1.180   4.333  16.348 -0.3408  0.6554 -0.2433
  197MPD1    C5 3051   1.089   4.240  16.304  0.1150  0.6413 -0.1550
  197MPD1     H 3052   1.350   4.124  16.559 -0.9023 -2.7007 -1.1168
  197MPD1    H1 3053   1.168   4.436  16.316 -0.8118  0.8359  0.5091
  197MPD1    H2 3054   1.002   4.056  16.335 -0.5057  0.6077  0.6284
  197MPD1    H3 3055   1.006   4.271  16.241 -0.9954 -0.1890  0.8901
  197MPD1     N 3056   1.371   4.393  16.469  0.5510 -0.1620  0.2813
  197MPD1    H5 3057   1.368   4.474  16.407  1.7637 -1.1607 -1.0982
  197MPD1    N1 3058   1.167   3.945  16.516 -0.3638 -0.6530 -0.6452
  197MPD1    H6 3059   1.139   3.869  16.454 -3.8336 -0.3738  0.5727
  197MPD1    H7 3060   1.229   3.910  16.589 -1.2599  0.6375  0.7235
  198MPD1     C 3061   3.807   2.769  14.954 -0.9891 -0.0579  0.6341
  198MPD1    C1 3062   3.736   2.812  15.068 -0.2435 -0.2792  0.2269
  198MPD1    C2 3063   3.747   2.944  15.104 -0.2799 -0.3231 -0.0909
  198MPD1    C3 3064   3.848   3.021  15.046  0.3063  0.4218 -0.0332
  198MPD1    C4 3065   3.913   2.973  14.926  0.0208  0.3819 -0.6565
  198MPD1    C5 3066   3.880   2.853  14.875  0.3507  0.4442 -0.0114
  198MPD1     H 3067   3.684   2.981  15.185 -0.1630 -1.7457  0.6428
  198MPD1    H1 3068   3.972   3.034  14.858 -1.6772  1.5193 -1.1068
  198MPD1    H2 3069   3.767   2.684  14.900 -0.0092 -1.2791  1.8267
  198MPD1    H3 3070   3.910   2.816  14.778  1.5448 -1.8731  1.2577
  198MPD1     N 3071   3.856   3.150  15.095  0.3313 -0.8065  0.0909
  198MPD1    H5 3072   3.789   3.171  15.168  0.6018 -2.9591  0.9575
  198MPD1    N1 3073   3.634   2.737  15.120 -0.3246 -0.4366 -0.9883
  198MPD1    H6 3074   3.672   2.645  15.143  1.2170  0.5954  0.5210
  198MPD1    H7 3075   3.596   2.785  15.201  0.3664 -0.4576 -0.6548
  199MPD1     C 3076   1.034   0.505  10.230  0.3507  0.5534 -0.7057
  199MPD1    C1 3077   1.014   0.617  10.152 -0.6132 -0.3100 -0.2445
  199MPD1    C2 3078   0.881   0.642  10.118 -0.0152  0.2526 -0.5037
  199MPD1    C3 3079   0.786   0.533  10.134  0.0618 -0.4977 -0.2398
  199MPD1    C4 3080   0.815   0.428  10.214  0.3626  0.4457  0.2173
  199MPD1    C5 3081   0.937   0.417  10.272 -1.2897 -0.4470  0.4229
  199MPD1     H 3082   0.853   0.722  10.051  1.9823  0.5968 -0.9087
  199MPD1    H1 3083   0.758   0.336  10.221 -0.4122  0.8528 -0.7978
  199MPD1    H2 3084   1.132   0.487  10.274 -0.9806  0.7150  2.3453
  199MPD1    H3 3085   0.967   0.327  10.323  1.1298 -0.2447 -0.6578
  199MPD1     N 3086   0.648   0.541  10.089  0.7712  0.0957  0.1218
  199MPD1    H5 3087   0.583   0.472  10.125  0.2546  1.8183  2.4883
  199MPD1    N1 3088   1.112   0.712  10.141 -0.0653  0.7030 -0.6973
  199MPD1    H6 3089   1.210   0.685  10.145  0.9943  4.8077  1.3956
  199MPD1    H7 3090   1.097   0.771  10.059  1.4922  0.2001 -1.3508
  200MPD1     C 3091   3.383   4.356  14.645 -0.3272 -0.0288 -0.1998
  200MPD1    C1 3092   3.451   4.335  14.762  0.6285  0.0935  0.2012
  200MPD1    C2 3093   3.571   4.404  14.785  0.0727 -0.6610 -0.2092
  200MPD1    C3 3094   3.616   4.500  14.696 -0.0652  0.3634  0.1736
  200MPD1    C4 3095   3.540   4.528  14.581  0.0126 -0.3772  0.3155
  200MPD1    C5 3096   3.436   4.446  14.558 -0.7411 -0.0958 -0.0629
  200MPD1     H 3097   3.622   4.385  14.879  0.6724  0.1735 -0.3632
  200MPD1    H1 3098   3.556   4.608  14.509 -0.7062 -0.2043  0.3457
  200MPD1    H2 3099   3.298   4.296  14.615 -0.8216  1.3132 -1.4797
  200MPD1    H3 3100   3.389   4.461  14.461  1.2145  0.6874 -0.8954
  200MPD1     N 3101   3.728   4.576  14.732 -0.1620  0.8708 -0.5160
  200MPD1    H5 3102   3.779   4.548  14.815  0.9585  0.3773 -1.3697
  200MPD1    N1 3103   3.417   4.220  14.844 -0.5569  0.7116 -0.7687
  200MPD1    H6 3104   3.431   4.224  14.945 -0.5060  1.3974 -0.8037
  200MPD1    H7 3105   3.326   4.175  14.835  0.8189 -2.2819  0.3155
  201MPD1     C 3106   1.926   3.743  13.843 -0.5706 -1.3182 -0.6372
  201MPD1    C1 3107   1.873   3.623  13.869 -0.0139  0.5962  0.0728
  201MPD1    C2 3108   1.963   3.519  13.879 -0.4143  0.3125  0.0463
  201MPD1    C3 3109   2.103   3.544  13.883  0.0324 -0.1129 -0.2871
  201MPD1    C4 3110   2.147   3.673  13.867 -1.0404 -0.3286  0.6093
  201MPD1    C5 3111   2.058   3.767  13.857  0.3000 -0.6498 -0.0350
  201MPD1     H 3112   1.930   3.416  13.881  1.3590 -0.2528  1.0480
  201MPD1    H1 3113   2.250   3.700  13.885 -0.4550 -1.2658 -1.2367
  201MPD1    H2 3114   1.860   3.823  13.810  1.6514  1.7069  2.1770
  201MPD1    H3 3115   2.110   3.861  13.843  2.6200 -1.6581  1.9168
  201MPD1     N 3116   2.196   3.434  13.874 -0.9100  0.5766  0.1129
  201MPD1    H5 3117   2.160   3.339  13.877 -1.5001  0.5758 -5.3106
  201MPD1    N1 3118   1.738   3.605  13.827  0.5587  0.1084  0.3392
  201MPD1    H6 3119   1.696   3.546  13.898  1.9328 -3.0754 -1.4790
  201MPD1    H7 3120   1.688   3.693  13.839 -1.4321 -1.4164  3.2578
  202MPD1     C 3121   2.073   3.411   8.916 -0.0057  0.4132 -0.0526
  202MPD1    C1 3122   2.122   3.299   8.981  0.1795  0.2693  0.0270
  202MPD1    C2 3123   2.199   3.325   9.095  0.0097 -0.7239 -0.7540
  202MPD1    C3 3124   2.188   3.443   9.164  0.8200 -0.7062 -0.0055
  202MPD1    C4 3125   2.125   3.544   9.098  0.2862 -0.0887 -0.1827
  202MPD1    C5 3126   2.067   3.529   8.979 -0.1314  0.1620 -0.0398
  202MPD1     H 3127   2.243   3.234   9.135  0.6555  0.1570  0.5512
  202MPD1    H1 3128   2.123   3.643   9.142 -1.0903 -1.3432  2.5661
  202MPD1    H2 3129   2.031   3.405   8.816 -0.7191 -0.0398  0.2710
  202MPD1    H3 3130   2.037   3.622   8.932  1.6863 -1.4816 -4.3450
  202MPD1     N 3131   2.244   3.475   9.294 -0.1902 -0.6289  0.4643
  202MPD1    H5 3132   2.231   3.563   9.342  0.5921  0.0059 -0.5012
  202MPD1    N1 3133   2.171   3.199   8.897 -0.6898  0.6179  0.0814
  202MPD1    H6 3134   2.214   3.115   8.935 -0.6894  0.3961 -0.4150
  202MPD1    H7 3135   2.100   3.163   8.834 -0.6263 -0.0595  0.4057
  203MPD1     C 3136   0.589   4.105  13.002 -0.3862  0.1003 -0.1325
  203MPD1    C1 3137   0.640   3.995  13.077 -0.9355  0.2766  0.1836
  203MPD1    C2 3138   0.746   3.928  13.029 -0.4651  0.3419 -0.0271
  203MPD1    C3 3139   0.818   3.969  12.912  0.3105 -0.8766 -0.5723
  203MPD1    C4 3140   0.768   4.080  12.845 -0.2582  0.4198  0.2175
  203MPD1    C5 3141   0.666   4.156  12.903  0.3423  0.1640 -0.0216
  203MPD1     H 3142   0.774   3.849  13.098 -1.9925 -0.1182  0.0775
  203MPD1    H1 3143   0.800   4.114  12.747  2.2394  0.6644  1.1129
  203MPD1    H2 3144   0.500   4.154  13.040  0.3671  1.0933  0.3524
  203MPD1    H3 3145   0.617   4.241  12.858  0.2934  0.6120  0.8668
  203MPD1     N 3146   0.929   3.888  12.876  0.0607  0.4413  0.0826
  203MPD1    H5 3147   0.938   3.804  12.932 -2.6274 -0.2059 -0.4862
  203MPD1    N1 3148   0.572   3.941  13.185  0.1479 -0.4134  0.2470
  203MPD1    H6 3149   0.637   3.904  13.255  0.4363  1.9986  1.2397
  203MPD1    H7 3150   0.507   4.002  13.233 -1.4641 -0.8231 -1.4423
  204MPD1     C 3151   0.752   1.493  17.472  0.5571  0.2968 -0.0111
  204MPD1    C1 3152   0.777   1.384  17.558 -0.5464 -0.7454  0.2197
  204MPD1    C2 3153   0.740   1.261  17.505  1.3235  0.0954 -0.2829
  204MPD1    C3 3154   0.674   1.246  17.389 -0.6688  0.3157 -0.3586
  204MPD1    C4 3155   0.633   1.358  17.316 -0.4052  1.1794 -0.1060
  204MPD1    C5 3156   0.674   1.479  17.361 -0.4273 -0.5434 -0.2609
  204MPD1     H 3157   0.766   1.165  17.549 -0.0069  0.1938  0.7211
  204MPD1    H1 3158   0.584   1.355  17.219  1.8934 -1.1970 -1.1935
  204MPD1    H2 3159   0.784   1.593  17.502 -0.9566  0.1166  2.2447
  204MPD1    H3 3160   0.643   1.565  17.303 -0.9721 -1.5907 -1.5333
  204MPD1     N 3161   0.633   1.109  17.351 -0.2289 -0.4755 -0.0711
  204MPD1    H5 3162   0.660   1.041  17.421 -0.8576  0.7341  1.3277
  204MPD1    N1 3163   0.849   1.392  17.682 -0.5554  0.5767  0.3084
  204MPD1    H6 3164   0.830   1.477  17.735 -2.4474  0.4384 -0.1252
  204MPD1    H7 3165   0.825   1.309  17.735  1.3648  0.6885  1.3449
  205MPD1     C 3166   0.159   4.032  17.050 -0.3526  0.3277 -0.3454
  205MPD1    C1 3167   0.158   4.171  17.056 -0.5131 -0.1348 -0.4517
  205MPD1    C2 3168   0.269   4.237  17.099 -0.4256 -0.4937  0.1965
  205MPD1    C3 3169   0.391   4.169  17.130 -0.5218 -0.1428  0.6593
  205MPD1    C4 3170   0.391   4.033  17.109  1.1167  0.1086 -0.6468
  205MPD1    C5 3171   0.273   3.972  17.073 -0.0772 -0.6121  0.2793
  205MPD1     H 3172   0.266   4.345  17.103 -3.6981 -0.5667 -0.8347
  205MPD1    H1 3173   0.486   3.983  17.125  1.9234  1.4587 -1.1687
  205MPD1    H2 3174   0.078   3.971  17.010 -0.0624  0.4178 -1.0698
  205MPD1    H3 3175   0.275   3.864  17.067  0.3821 -0.5448 -0.8382
  205MPD1     N 3176   0.501   4.240  17.183 -0.4327 -0.6667 -0.1707
  205MPD1    H5 3177   0.571   4.182  17.229  0.7193 -0.2364 -1.3967
  205MPD1    N1 3178   0.036   4.230  17.048 -0.4940  0.1432  0.1655
  205MPD1    H6 3179   0.039   4.326  17.014  2.5960  1.1235  3.2587
  205MPD1    H7 3180   4.710   4.189  16.978  0.9492 -0.4497 -0.7471
  206MPD1     C 3181   0.961   1.869  17.542  0.4385  1.0853 -0.0692
  206MPD1    C1 3182   1.044   1.848  17.437 -0.1636  0.1574 -0.4426
  206MPD1    C2 3183   0.983   1.813  17.320 -0.8540  0.1236  0.0927
  206MPD1    C3 3184   0.849   1.817  17.297  0.3863 -0.0862 -0.8794
  206MPD1    C4 3185   0.770   1.865  17.400  0.1984 -0.2430 -0.0187
  206MPD1    C5 3186   0.821   1.879  17.527  0.2254  0.0171  0.2893
  206MPD1     H 3187   1.047   1.787  17.236  0.0261 -0.5971  0.9890
  206MPD1    H1 3188   0.663   1.880  17.390  0.1328 -1.5643 -1.4321
  206MPD1    H2 3189   1.005   1.886  17.640 -1.0057  0.1467  0.7376
  206MPD1    H3 3190   0.760   1.891  17.616  0.3177 -4.4259  0.9388
  206MPD1     N 3191   0.783   1.786  17.178  0.4143 -0.4992  0.1448
  206MPD1    H5 3192   0.683   1.799  17.165  0.5260  0.8030  0.5187
  206MPD1    N1 3193   1.182   1.831  17.454 -0.0504 -0.2396 -0.1620
  206MPD1    H6 3194   1.213   1.897  17.525  2.0193 -2.6133  1.1435
  206MPD1    H7 3195   1.226   1.846  17.363  0.7843 -0.3551  0.2247
  207MPD1     C 3196   2.884   2.819  10.388 -0.1874  0.0706  0.0202
  207MPD1    C1 3197   2.907   2.850  10.253  0.1813 -0.1333 -0.0248
  207MPD1    C2 3198   2.939   2.987  10.226 -0.1567  0.1824  0.0320
  207MPD1    C3 3199   2.923   3.085  10.317  0.2027 -0.4643 -0.5356
  207MPD1    C4 3200   2.892   3.047  10.445  0.4746  0.1687 -0.1977
  207MPD1    C5 3201   2.881   2.916  10.482  0.4778 -0.3836  0.2013
  207MPD1     H 3202   2.968   3.009  10.123  1.4950  1.7405  0.8324
  207MPD1    H1 3203   2.893   3.129  10.515 -0.7408 -0.0755  0.1077
  207MPD1    H2 3204   2.884   2.715  10.421 -0.9123 -0.1649 -0.7308
  207MPD1    H3 3205   2.851   2.906  10.586 -0.4373 -1.2847 -0.1533
  207MPD1     N 3206   2.930   3.222  10.275  0.1090 -0.0915  0.1087
  207MPD1    H5 3207   2.913   3.287  10.351 -1.1221 -1.0715  0.6559
  207MPD1    N1 3208   2.940   2.743  10.160 -0.4494  0.3296  0.9156
  207MPD1    H6 3209   2.907   2.651  10.187 -0.4778 -0.5525 -2.1790
  207MPD1    H7 3210   2.939   2.766  10.061 -0.3181 -0.6540  0.6929
  208MPD1     C 3211   1.829   3.527  17.616  0.7012 -0.0442 -0.1143
  208MPD1    C1 3212   1.756   3.618  17.686 -0.6049 -0.4812 -0.7192
  208MPD1    C2 3213   1.635   3.579  17.720  0.2818  0.0930 -0.1468
  208MPD1    C3 3214   1.565   3.471  17.657  0.2034  0.5095  0.4293
  208MPD1    C4 3215   1.637   3.395  17.571 -0.3803 -0.0652  0.2575
  208MPD1    C5 3216   1.773   3.422  17.550  0.6929  0.0097 -0.8369
  208MPD1     H 3217   1.582   3.644   0.048  1.2820  0.6034  0.1407
  208MPD1    H1 3218   1.609   3.306  17.516  0.4665  0.1431 -0.5041
  208MPD1    H2 3219   1.936   3.540  17.601  0.7711 -0.2298  0.2139
  208MPD1    H3 3220   1.828   3.353  17.487  0.6423 -0.2785 -0.5708
  208MPD1     N 3221   1.430   3.458  17.687  0.6138  0.1310  0.3214
  208MPD1    H5 3222   1.389   3.534   0.001 -0.9808 -1.2268  1.0405
  208MPD1    N1 3223   1.823   3.717   0.023  0.4824 -0.0313  0.7282
  208MPD1    H6 3224   1.906   3.750  17.715  0.7806 -2.8820 -0.7219
  208MPD1    H7 3225   1.760   3.796   0.027  1.0247  0.5472 -2.3423
  209MPD1     C 3226   3.158   2.844  11.234  0.2942 -0.0991  0.1068
  209MPD1    C1 3227   3.188   2.921  11.341 -0.0110 -0.5884  0.6219
  209MPD1    C2 3228   3.178   3.058  11.329 -0.0474 -0.1402 -0.4713
  209MPD1    C3 3229   3.159   3.121  11.209 -0.2161 -0.0270 -0.2489
  209MPD1    C4 3230   3.146   3.039  11.096  0.1045  0.1438  0.2161
  209MPD1    C5 3231   3.133   2.906  11.115 -0.3152  0.2315 -0.1255
  209MPD1     H 3232   3.182   3.122  11.417  0.2892 -0.2020 -0.4436
  209MPD1    H1 3233   3.129   3.077  10.996  0.8289 -0.0925 -0.0041
  209MPD1    H2 3234   3.141   2.737  11.234  0.7847 -0.1719 -1.0793
  209MPD1    H3 3235   3.116   2.839  11.031  1.7875 -1.6729  0.9423
  209MPD1     N 3236   3.167   3.262  11.184  0.1714 -0.0760 -0.5695
  209MPD1    H5 3237   3.151   3.293  11.089  0.5258  1.8469  0.0072
  209MPD1    N1 3238   3.190   2.861  11.469 -0.0395  0.4103 -0.3090
  209MPD1    H6 3239   3.218   2.763  11.466 -1.1275  0.0423  1.8557
  209MPD1    H7 3240   3.257   2.906  11.530  0.0945  1.1661 -1.0147
  210MPD1     C 3241   3.095   4.107  11.768 -0.0200  0.1718 -0.5081
  210MPD1    C1 3242   3.063   4.129  11.636 -0.1658  0.4810  0.4655
  210MPD1    C2 3243   3.096   4.033  11.540  0.1869  0.1121  0.0205
  210MPD1    C3 3244   3.167   3.923  11.578 -0.3827 -0.1070  0.4351
  210MPD1    C4 3245   3.194   3.902  11.706 -0.0656  0.5007 -0.1633
  210MPD1    C5 3246   3.156   3.996  11.799 -0.1435  0.0506 -0.6724
  210MPD1     H 3247   3.064   4.053  11.438  0.6863 -1.0916 -0.3709
  210MPD1    H1 3248   3.236   3.807  11.737 -0.1722  1.2117  2.2254
  210MPD1    H2 3249   3.079   4.184  11.843  2.5805  1.3530 -1.1512
  210MPD1    H3 3250   3.168   3.974  11.905 -2.4690  1.2040 -0.1547
  210MPD1     N 3251   3.209   3.822  11.484 -0.2421 -0.2892  0.2939
  210MPD1    H5 3252   3.248   3.736  11.521  2.0555  0.7670  0.3371
  210MPD1    N1 3253   3.017   4.254  11.595 -0.2253  0.1305 -0.4799
  210MPD1    H6 3254   2.951   4.301  11.657 -0.6208 -1.2333  0.1156
  210MPD1    H7 3255   2.976   4.263  11.502  1.3648  2.0319 -0.9912
  211MPD1     C 3256   0.616   3.731  14.981  0.0994 -0.4910  0.2697
  211MPD1    C1 3257   0.525   3.830  14.963 -0.3899  0.2343  0.1162
  211MPD1    C2 3258   0.506   3.913  15.072 -0.1249 -0.4869  0.0572
  211MPD1    C3 3259   0.574   3.903  15.192  0.8834  0.3135  0.3241
  211MPD1    C4 3260   0.656   3.791  15.214  0.3071 -0.2957  0.3600
  211MPD1    C5 3261   0.681   3.712  15.103 -0.9645  0.5392  0.0328
  211MPD1     H 3262   0.426   3.986  15.075 -2.4096 -2.9646 -1.0094
  211MPD1    H1 3263   0.704   3.762  15.306 -0.8388 -2.2507  0.3475
  211MPD1    H2 3264   0.657   3.671  14.900  0.2917  1.1810 -0.8538
  211MPD1    H3 3265   0.760   3.638  15.104 -1.1710  0.3629  3.1248
  211MPD1     N 3266   0.540   3.996  15.290  0.7794  0.5947 -0.1642
  211MPD1    H5 3267   0.461   4.057  15.272 -0.2455 -0.5760  0.3592
  211MPD1    N1 3268   0.455   3.861  14.844 -0.0571 -0.1639 -0.6578
  211MPD1    H6 3269   0.453   3.785  14.776  2.1931 -1.3481  0.5763
  211MPD1    H7 3270   0.362   3.883  14.878 -0.5359 -1.7139 -0.9848
  212MPD1     C 3271   0.107   2.094  17.199 -0.5248 -0.2710  0.4623
  212MPD1    C1 3272   4.731   2.169  17.163 -0.8628  0.5308 -0.4639
  212MPD1    C2 3273   4.620   2.100  17.132 -0.4891 -0.1455  0.8060
  212MPD1    C3 3274   4.608   1.964  17.141  0.0370  0.2936 -0.2471
  212MPD1    C4 3275   4.717   1.892  17.185  0.1636  0.1069  0.1591
  212MPD1    C5 3276   0.094   1.962  17.211 -0.6750  0.0372 -0.2438
  212MPD1     H 3277   4.530   2.153  17.103  0.0013  0.4744  0.4262
  212MPD1    H1 3278   4.713   1.785  17.198 -2.0110 -0.1379 -2.4732
  212MPD1    H2 3279   0.209   2.132  17.191 -0.1017 -1.6910 -0.8713
  212MPD1    H3 3280   0.185   1.903  17.219 -0.9075 -0.1028  1.3154
  212MPD1     N 3281   4.490   1.893  17.146  0.5382  0.1640 -0.6001
  212MPD1    H5 3282   4.491   1.793  17.161 -0.9159  0.3725  0.8543
  212MPD1    N1 3283   0.013   2.308  17.136  0.7373  0.4124 -0.4165
  212MPD1    H6 3284   0.080   2.345  17.204  0.1305 -0.0080  0.4176
  212MPD1    H7 3285   4.660   2.359  17.147  0.6344 -0.0562  0.9160
  213MPD1     C 3286   2.920   2.714  16.114 -0.4961  0.0808  0.4761
  213MPD1    C1 3287   2.815   2.657  16.047 -0.3624  0.2762 -0.2578
  213MPD1    C2 3288   2.818   2.659  15.910 -0.5360  0.8124 -0.8590
  213MPD1    C3 3289   2.900   2.744  15.834  0.3727  0.4172  0.3678
  213MPD1    C4 3290   3.005   2.808  15.903  0.0164  0.2424 -0.6757
  213MPD1    C5 3291   3.017   2.777  16.042 -0.1463 -0.2906 -0.5330
  213MPD1     H 3292   2.739   2.602  15.863  0.4525 -0.8886 -0.4465
  213MPD1    H1 3293   3.085   2.861  15.853  0.4532  1.0712  0.8835
  213MPD1    H2 3294   2.939   2.717  16.221  0.3230  0.9767  0.3109
  213MPD1    H3 3295   3.104   2.807  16.099  0.2434  0.5248 -1.5352
  213MPD1     N 3296   2.873   2.755  15.695  0.5578  0.5198  0.2162
  213MPD1    H5 3297   2.805   2.696  15.648  0.2360 -0.4420  1.8818
  213MPD1    N1 3298   2.742   2.549  16.107 -0.2164 -0.5808 -0.2385
  213MPD1    H6 3299   2.795   2.463  16.115  1.4687  0.4462 -0.4080
  213MPD1    H7 3300   2.721   2.568  16.205 -2.2674 -1.5484 -0.4845
  214MPD1     C 3301   2.118   2.741  15.249 -0.3282  0.4754  0.1027
  214MPD1    C1 3302   2.201   2.713  15.144  0.4766 -0.1315 -0.2609
  214MPD1    C2 3303   2.333   2.731  15.171 -0.5089  0.2468 -0.6188
  214MPD1    C3 3304   2.385   2.775  15.293 -0.2126 -0.3677  0.2823
  214MPD1    C4 3305   2.296   2.799  15.396 -0.3054 -0.6628  0.0598
  214MPD1    C5 3306   2.163   2.781  15.376 -0.6448 -0.0397 -0.0016
  214MPD1     H 3307   2.409   2.690  15.104  0.4926  0.2088  0.5445
  214MPD1    H1 3308   2.324   2.828  15.496 -4.0981  0.5480  0.7681
  214MPD1    H2 3309   2.010   2.736  15.237 -0.1096  0.3637 -1.7599
  214MPD1    H3 3310   2.085   2.813  15.444  1.8481  3.0928  1.3413
  214MPD1     N 3311   2.527   2.778  15.320 -0.1770  0.2738  0.2631
  214MPD1    H5 3312   2.548   2.818  15.410  2.5041  0.0743 -0.2907
  214MPD1    N1 3313   2.153   2.645  15.038  0.1722 -0.2852 -0.2528
  214MPD1    H6 3314   2.201   2.682  14.956  0.7092 -1.1539 -0.3369
  214MPD1    H7 3315   2.060   2.675  15.012 -0.0178 -0.6778 -0.0264
  215MPD1     C 3316   3.216   3.060  10.613 -0.0571  0.5270 -0.0424
  215MPD1    C1 3317   3.263   3.187  10.601 -0.1864  0.2965  0.3880
  215MPD1    C2 3318   3.190   3.283  10.657 -0.3515 -0.4564  0.1166
  215MPD1    C3 3319   3.082   3.263  10.737  0.2156 -0.1230 -0.0001
  215MPD1    C4 3320   3.032   3.134  10.746  0.5984  0.3096 -1.0761
  215MPD1    C5 3321   3.108   3.033  10.698  0.1522  0.2384  0.0154
  215MPD1     H 3322   3.223   3.385  10.639  1.1058 -0.4076  2.9469
  215MPD1    H1 3323   2.945   3.104  10.803  3.5992  0.1566  3.3948
  215MPD1    H2 3324   3.267   2.977  10.565 -2.0149 -0.8509  0.2588
  215MPD1    H3 3325   3.083   2.927  10.708  3.5517 -0.5325  0.1567
  215MPD1     N 3326   3.017   3.379  10.791 -0.1723 -0.2069 -0.3800
  215MPD1    H5 3327   3.062   3.469  10.779 -1.9623  0.6504 -0.7530
  215MPD1    N1 3328   3.365   3.222  10.507 -0.1579 -0.2693  0.5502
  215MPD1    H6 3329   3.412   3.302  10.549 -0.2795 -0.0325  0.2267
  215MPD1    H7 3330   3.443   3.157  10.496  1.1991  1.6700 -1.3659
  216MPD1     C 3331   0.021   2.361   0.686 -0.5162 -0.7184  0.2634
  216MPD1    C1 3332   0.023   2.356   0.543 -0.0188 -0.4315 -0.2628
  216MPD1    C2 3333   4.679   2.266   0.472  0.0497  0.1523  0.4475
  216MPD1    C3 3334   4.583   2.190   0.538 -0.2686  0.2548 -0.1317
  216MPD1    C4 3335   4.584   2.193   0.682 -0.1175 -0.1155  0.0171
  216MPD1    C5 3336   4.666   2.277   0.752 -0.2376 -0.1833  0.3091
  216MPD1     H 3337   4.680   2.257   0.364 -1.0611  0.4135  0.4202
  216MPD1    H1 3338   4.525   2.125   0.743 -2.2706  1.5156 -0.2136
  216MPD1    H2 3339   0.090   2.425   0.740  0.4380 -0.5238 -1.1915
  216MPD1    H3 3340   4.665   2.265   0.860 -1.6029 -0.9975  0.2039
  216MPD1     N 3341   4.501   2.099   0.465  0.1702 -0.0266 -0.6212
  216MPD1    H5 3342   4.521   2.101   0.366 -0.5353 -0.3877 -0.7764
  216MPD1    N1 3343   0.125   2.421   0.477  0.4384 -0.6709  0.1054
  216MPD1    H6 3344   0.102   2.452   0.383  1.7393  1.5258  0.4896
  216MPD1    H7 3345   0.177   2.492   0.529  0.5224  1.3994 -2.8254
  217MPD1     C 3346   1.616   4.412   8.444  0.6607  0.1269 -0.5026
  217MPD1    C1 3347   1.559   4.481   8.553 -0.3482  0.4370 -0.6729
  217MPD1    C2 3348   1.473   4.412   8.640  0.3954 -0.5144 -0.4308
  217MPD1    C3 3349   1.461   4.276   8.628  0.7369 -0.9161  0.1844
  217MPD1    C4 3350   1.520   4.208   8.523  0.1514 -0.0153  1.2745
  217MPD1    C5 3351   1.593   4.277   8.427 -0.7738 -0.1506  0.1178
  217MPD1     H 3352   1.417   4.462   8.718  1.9926  0.2731  0.2094
  217MPD1    H1 3353   1.528   4.100   8.523  1.1426  0.0591  0.7765
  217MPD1    H2 3354   1.689   4.459   8.380 -0.7911  3.8720  0.5781
  217MPD1    H3 3355   1.645   4.225   8.347  0.1328 -0.5418  0.9566
  217MPD1     N 3356   1.387   4.184   8.713 -0.5402 -0.7587  0.1788
  217MPD1    H5 3357   1.409   4.085   8.707  4.3143  0.3603 -0.3481
  217MPD1    N1 3358   1.578   4.621   8.565 -0.2215  0.0944 -0.0698
  217MPD1    H6 3359   1.674   4.643   8.541 -0.9849  2.6522 -0.7186
  217MPD1    H7 3360   1.575   4.658   8.660 -1.6783  0.6734 -0.3441
  218MPD1     C 3361   2.381   4.453  13.296 -0.0902  0.3288 -0.2044
  218MPD1    C1 3362   2.361   4.319  13.300 -0.2565  0.2308 -0.1733
  218MPD1    C2 3363   2.433   4.233  13.213 -0.1143  0.1511  0.0954
  218MPD1    C3 3364   2.510   4.286  13.114 -0.1850 -0.5357 -0.5744
  218MPD1    C4 3365   2.517   4.426  13.104  0.7520  0.2701  0.1672
  218MPD1    C5 3366   2.453   4.506  13.192 -0.4475 -0.0635 -0.0947
  218MPD1     H 3367   2.417   4.127  13.223  0.0149 -0.1037 -2.4440
  218MPD1    H1 3368   2.567   4.470  13.018  1.4632 -1.0299 -0.0793
  218MPD1    H2 3369   2.325   4.516  13.364  1.5368  0.5464  0.9229
  218MPD1    H3 3370   2.449   4.613  13.178  0.9263  0.1128  0.8733
  218MPD1     N 3371   2.566   4.199  13.017 -0.2279 -0.1302  0.1303
  218MPD1    H5 3372   2.566   4.102  13.048  3.0135  0.8997  3.3806
  218MPD1    N1 3373   2.294   4.254  13.405  0.4009 -0.3306  0.2856
  218MPD1    H6 3374   2.230   4.313  13.458 -0.0333 -0.2846 -0.2859
  218MPD1    H7 3375   2.245   4.168  13.381 -0.0776  0.4607 -1.5977
  219MPD1     C 3376   2.861   4.082  12.029  0.5888  0.8725 -0.9516
  219MPD1    C1 3377   2.794   3.979  12.086  0.2299 -0.6019  0.3600
  219MPD1    C2 3378   2.785   3.973  12.224  0.2521  0.3603 -0.3077
  219MPD1    C3 3379   2.823   4.072  12.308  0.0437  0.1128  0.5817
  219MPD1    C4 3380   2.872   4.186  12.249 -0.0732 -0.2704  0.3267
  219MPD1    C5 3381   2.886   4.187  12.113 -0.7683  0.1646  0.5415
  219MPD1     H 3382   2.750   3.876  12.258 -1.6332  0.7221 -1.2466
  219MPD1    H1 3383   2.899   4.273  12.309  1.3249 -2.4922  2.9483
  219MPD1    H2 3384   2.883   4.098  11.925 -2.0527 -0.7631 -1.7598
  219MPD1    H3 3385   2.932   4.278  12.075  2.3102 -0.3254  3.1066
  219MPD1     N 3386   2.810   4.072  12.449 -0.3473  0.5821  0.1053
  219MPD1    H5 3387   2.859   4.136  12.511 -0.9724  1.1615 -0.0050
  219MPD1    N1 3388   2.747   3.877  12.001 -0.1340  0.1448 -0.0066
  219MPD1    H6 3389   2.658   3.835  12.029  0.4534 -0.0418  1.5580
  219MPD1    H7 3390   2.759   3.898  11.902  0.3953  1.7126  0.3869
  220MPD1     C 3391   2.728   4.724   9.504  0.0693  0.3118 -0.2122
  220MPD1    C1 3392   2.779   4.728   9.632 -0.2758  0.1378 -0.5199
  220MPD1    C2 3393   2.754   4.626   9.724  0.4504 -0.0414 -0.1239
  220MPD1    C3 3394   2.657   4.534   9.694 -0.0159 -0.1607  0.6579
  220MPD1    C4 3395   2.603   4.527   9.566  0.2864  0.0909 -0.1377
  220MPD1    C5 3396   2.644   4.624   9.473 -0.9281  0.7871  0.6531
  220MPD1     H 3397   2.809   4.620   9.817  1.0314  0.7795 -0.4155
  220MPD1    H1 3398   2.537   4.448   9.531 -1.5330  0.6765  1.9966
  220MPD1    H2 3399   2.760   0.051   9.421 -2.5346  1.4779 -0.3551
  220MPD1    H3 3400   2.597   4.627   9.376 -0.6965 -3.0745  0.4356
  220MPD1     N 3401   2.642   4.435   9.789 -0.3628  0.0132  0.4608
  220MPD1    H5 3402   2.697   4.440   9.874  0.1960  0.5066  0.0631
  220MPD1    N1 3403   2.883   0.087   9.663  0.2091  0.0274  0.0054
  220MPD1    H6 3404   2.875   0.123   9.758  0.3887 -0.4616  0.2071
  220MPD1    H7 3405   2.876   0.162   9.595  3.1601  1.1859  0.9952
  221MPD1     C 3406   0.662   3.664  17.431  1.2376 -0.0092  0.0364
  221MPD1    C1 3407   0.624   3.661  17.299  0.2969  0.7875 -0.6058
  221MPD1    C2 3408   0.635   3.544  17.221  0.1411 -0.4330  0.3859
  221MPD1    C3 3409   0.702   3.437  17.274  0.1424  0.3956 -0.3986
  221MPD1    C4 3410   0.755   3.438  17.401  0.2036  0.8019  0.2089
  221MPD1    C5 3411   0.731   3.553  17.483  0.1247  0.3923 -0.7263
  221MPD1     H 3412   0.582   3.536  17.128  0.7102  1.4018 -0.1128
  221MPD1    H1 3413   0.818   3.357  17.437 -0.3278 -0.4265 -1.6647
  221MPD1    H2 3414   0.655   3.748  17.499  0.7562 -0.3732  0.4385
  221MPD1    H3 3415   0.772   3.551  17.583 -1.4502  1.6815 -0.0558
  221MPD1     N 3416   0.716   3.319  17.203  0.1752  0.3807 -0.5200
  221MPD1    H5 3417   0.765   3.240  17.245  0.2141  1.1045  0.7832
  221MPD1    N1 3418   0.561   3.777  17.240 -0.0615 -0.4307  0.2627
  221MPD1    H6 3419   0.561   3.778  17.138  1.7239 -1.4614  0.2443
  221MPD1    H7 3420   0.469   3.802  17.275 -0.7483 -2.1583 -0.2957
  222MPD1     C 3421   3.822   1.641  17.691 -0.5315 -0.1379 -0.7223
  222MPD1    C1 3422   3.904   1.749  17.701  0.7505  0.1853 -0.2122
  222MPD1    C2 3423   3.912   1.808   0.087 -0.5928 -0.6611 -0.2602
  222MPD1    C3 3424   3.833   1.767   0.185 -0.7097 -0.0815  0.3642
  222MPD1    C4 3425   3.746   1.661   0.170  0.4275 -0.4695 -0.2314
  222MPD1    C5 3426   3.739   1.602   0.048  0.0015  0.1425  0.3008
  222MPD1     H 3427   3.991   1.882   0.100 -2.2288  1.2288 -0.9936
  222MPD1    H1 3428   3.681   1.634   0.252  0.7077  0.8299  0.4261
  222MPD1    H2 3429   3.817   1.586  17.597 -2.1417 -0.3610 -0.5049
  222MPD1    H3 3430   3.677   1.514   0.031  3.2677 -2.0442 -0.2434
  222MPD1     N 3431   3.839   1.815   0.319  0.4078  0.1620  0.2431
  222MPD1    H5 3432   3.792   1.765   0.394 -1.1504 -0.9951 -1.5017
  222MPD1    N1 3433   3.996   1.781  17.604 -0.1125  0.0860 -0.4901
  222MPD1    H6 3434   4.049   1.867  17.617 -1.7577  1.2371 -1.4765
  222MPD1    H7 3435   3.972   1.764  17.507  0.3003 -0.6544 -0.4619
  223MPD1     C 3436   3.245   1.592   0.790 -0.4267  0.1713  0.0757
  223MPD1    C1 3437   3.311   1.574   0.670  0.3143  0.1147  0.3395
  223MPD1    C2 3438   3.441   1.613   0.666  0.6036  0.7362  0.0670
  223MPD1    C3 3439   3.496   1.693   0.764 -0.3234 -0.8182  0.0037
  223MPD1    C4 3440   3.423   1.714   0.881 -0.0697 -0.1949  0.5979
  223MPD1    C5 3441   3.297   1.658   0.897 -0.9885 -0.1337 -0.1535
  223MPD1     H 3442   3.501   1.589   0.579  0.4391 -0.7367  0.3454
  223MPD1    H1 3443   3.463   1.767   0.967  0.6366  0.0259  0.1276
  223MPD1    H2 3444   3.143   1.555   0.796 -0.5867  0.9420  2.3424
  223MPD1    H3 3445   3.231   1.678   0.981 -0.8664 -2.1142  0.4197
  223MPD1     N 3446   3.614   1.757   0.725 -0.5936  0.5308  0.1246
  223MPD1    H5 3447   3.650   1.731   0.633 -0.6033 -0.8013  0.5008
  223MPD1    N1 3448   3.255   1.491   0.571 -0.0890 -0.3187 -0.1490
  223MPD1    H6 3449   3.293   1.505   0.478  1.7735 -0.8139  0.5360
  223MPD1    H7 3450   3.153   1.489   0.564 -0.0940  3.5356 -0.8069
  224MPD1     C 3451   1.153   4.567   9.340  0.1273 -0.3609  0.4466
  224MPD1    C1 3452   1.238   4.468   9.286 -0.0135 -0.4778 -0.6417
  224MPD1    C2 3453   1.281   4.372   9.373  0.1755 -0.5107  0.0877
  224MPD1    C3 3454   1.243   4.377   9.506  0.6988  0.4629  0.3476
  224MPD1    C4 3455   1.173   4.481   9.559 -0.6409 -1.2852 -0.0129
  224MPD1    C5 3456   1.125   4.575   9.473 -0.6106 -0.0955  0.0257
  224MPD1     H 3457   1.333   4.287   9.330 -1.3002 -0.6724 -1.3789
  224MPD1    H1 3458   1.139   4.478   9.662 -0.6629  3.3799  0.1234
  224MPD1    H2 3459   1.104   4.633   9.270 -0.9035 -0.2655  1.2587
  224MPD1    H3 3460   1.063   4.655   9.512  0.7577  1.3856 -0.8224
  224MPD1     N 3461   1.292   4.276   9.598 -0.4701 -0.1704  0.0739
  224MPD1    H5 3462   1.267   4.293   9.694  1.2903 -3.6633  1.1446
  224MPD1    N1 3463   1.245   4.436   9.151  0.0587  0.4336  0.4422
  224MPD1    H6 3464   1.322   4.377   9.121  0.8772  3.5576 -3.7147
  224MPD1    H7 3465   1.249   4.521   9.095  2.4473  0.2131  0.2554
  225MPD1     C 3466   3.000   0.309  12.572  0.5130  0.0707 -0.0147
  225MPD1    C1 3467   2.972   0.209  12.484 -0.3542  0.2311  0.4749
  225MPD1    C2 3468   2.852   0.148  12.474 -0.3663 -0.0082  0.1882
  225MPD1    C3 3469   2.742   0.204  12.548  0.5371 -0.9157  0.1905
  225MPD1    C4 3470   2.773   0.312  12.638 -0.0588  0.0022  0.0746
  225MPD1    C5 3471   2.899   0.366  12.646 -0.2115 -0.1459  0.4847
  225MPD1     H 3472   2.836   0.072  12.399  1.2395  1.1735 -1.3320
  225MPD1    H1 3473   2.688   0.363  12.683  0.1922 -0.5226  1.1345
  225MPD1    H2 3474   3.098   0.355  12.579  0.1459  0.9366 -0.6122
  225MPD1    H3 3475   2.917   0.458  12.699 -0.7604  0.1348  0.1806
  225MPD1     N 3476   2.605   0.167  12.539 -0.0096  0.8304 -0.7349
  225MPD1    H5 3477   2.545   0.216  12.604  2.5612  0.7613  1.7152
  225MPD1    N1 3478   3.084   0.150  12.422  0.1655  0.6876 -0.3546
  225MPD1    H6 3479   3.061   0.087  12.345  0.2875  0.3499 -0.1142
  225MPD1    H7 3480   3.151   0.221  12.395  0.1912  0.6037 -0.5164
  226MPD1     C 3481   2.173   1.392   9.173 -0.9089 -0.8997 -0.4920
  226MPD1    C1 3482   2.118   1.327   9.067  0.2012  0.0944  0.7997
  226MPD1    C2 3483   2.038   1.216   9.087 -0.0750 -0.2388 -0.1338
  226MPD1    C3 3484   2.033   1.154   9.217  0.3486  0.3159  0.0742
  226MPD1    C4 3485   2.096   1.217   9.319 -0.0533  0.9132  0.0324
  226MPD1    C5 3486   2.159   1.337   9.300 -0.3176  0.1501 -0.2995
  226MPD1     H 3487   1.982   1.166   9.009 -0.9790  0.4518  0.0640
  226MPD1    H1 3488   2.099   1.178   9.420 -5.4061 -0.9222 -0.4974
  226MPD1    H2 3489   2.222   1.488   9.165  0.1048 -1.3991 -0.3114
  226MPD1    H3 3490   2.203   1.395   9.380  0.9865 -1.3843  0.0925
  226MPD1     N 3491   1.968   1.035   9.226  0.7134  0.4041  0.6986
  226MPD1    H5 3492   1.918   1.007   9.143  0.0553  0.0703  1.2069
  226MPD1    N1 3493   2.148   1.378   8.937 -0.3433 -0.4227 -0.0285
  226MPD1    H6 3494   2.098   1.328   8.864  0.7874  0.3370 -1.3141
  226MPD1    H7 3495   2.131   1.478   8.933 -2.2648 -0.6694  2.0454
  227MPD1     C 3496   1.302   0.407   8.809 -1.0858 -0.1941  1.0047
  227MPD1    C1 3497   1.302   0.361   8.938  0.4055 -0.3851 -0.5764
  227MPD1    C2 3498   1.397   0.409   9.025 -0.7231 -0.2332  0.4897
  227MPD1    C3 3499   1.476   0.516   9.000 -1.0412 -0.3903 -0.3691
  227MPD1    C4 3500   1.467   0.570   8.873  0.2579 -0.0832  0.2535
  227MPD1    C5 3501   1.386   0.510   8.778  0.1501  0.6965 -0.2833
  227MPD1     H 3502   1.414   0.366   9.123 -1.1985  2.1618  1.6336
  227MPD1    H1 3503   1.530   0.652   8.844 -0.3493  0.0750 -0.6040
  227MPD1    H2 3504   1.239   0.362   8.734 -3.0811  2.4691  1.0994
  227MPD1    H3 3505   1.391   0.550   8.678  0.8703 -0.7141 -0.8031
  227MPD1     N 3506   1.560   0.565   9.103 -0.0134 -0.0576  0.4282
  227MPD1    H5 3507   1.555   0.502   9.183  0.7042 -0.7991 -0.1051
  227MPD1    N1 3508   1.244   0.238   8.975 -0.1414  0.4195 -0.2354
  227MPD1    H6 3509   1.227   0.228   9.075 -2.3729  0.7877 -0.5718
  227MPD1    H7 3510   1.155   0.231   8.926  1.4438  1.3158 -3.2781
  228MPD1     C 3511   4.592   1.904  12.957  0.0356 -0.1014  0.6026
  228MPD1    C1 3512   4.592   2.032  12.905 -0.3432 -0.0270 -0.3881
  228MPD1    C2 3513   4.500   2.125  12.947 -0.0633  0.6062  0.2342
  228MPD1    C3 3514   4.393   2.091  13.032 -0.5646  0.2781 -0.0628
  228MPD1    C4 3515   4.391   1.960  13.075  0.0443  0.8879 -0.3817
  228MPD1    C5 3516   4.487   1.871  13.038 -0.2041 -0.1574  0.9541
  228MPD1     H 3517   4.500   2.221  12.898  1.5208 -0.5339 -2.0246
  228MPD1    H1 3518   4.311   1.919  13.135  0.3272 -0.0495 -0.6426
  228MPD1    H2 3519   4.663   1.825  12.933  1.7134  1.9843 -1.2821
  228MPD1    H3 3520   4.471   1.766  13.059  2.1646 -1.0093 -1.5040
  228MPD1     N 3521   4.299   2.190  13.074 -0.1409 -0.3652 -0.3478
  228MPD1    H5 3522   4.313   2.287  13.047 -1.9850 -0.4296 -1.5178
  228MPD1    N1 3523   4.691   2.059  12.809  0.0249 -0.2639  0.5867
  228MPD1    H6 3524   4.664   2.137  12.750 -1.0756 -0.0051  1.4337
  228MPD1    H7 3525   4.713   1.977  12.752 -1.8425  1.5713 -2.7637
  229MPD1     C 3526   3.362   0.411  15.192 -0.0123  0.2198  0.5160
  229MPD1    C1 3527   3.337   0.372  15.321 -0.4993  0.2143  0.2561
  229MPD1    C2 3528   3.434   0.409  15.412  0.6952  0.1837  0.3050
  229MPD1    C3 3529   3.543   0.492  15.375  0.2832 -0.2176 -0.5523
  229MPD1    C4 3530   3.556   0.528  15.243  0.0570  0.1331 -0.1110
  229MPD1    C5 3531   3.464   0.494  15.146 -0.2586 -0.1183  0.4615
  229MPD1     H 3532   3.424   0.396  15.520  0.7617 -1.3039  0.1307
  229MPD1    H1 3533   3.637   0.597  15.220 -0.3997 -0.1587 -2.5787
  229MPD1    H2 3534   3.284   0.386  15.121 -0.7166  0.4458  1.1966
  229MPD1    H3 3535   3.478   0.533  15.046  0.4997  3.5316  1.9985
  229MPD1     N 3536   3.640   0.538  15.462  0.0118  0.4476  0.5194
  229MPD1    H5 3537   3.706   0.610  15.434  0.3437 -0.4580 -0.9612
  229MPD1    N1 3538   3.242   0.273  15.348 -0.2669 -0.4071  0.2508
  229MPD1    H6 3539   3.206   0.271  15.443  1.9821 -0.1482  1.1260
  229MPD1    H7 3540   3.183   0.233  15.276  0.4507 -0.7770 -0.1395
  230MPD1     C 3541   4.392   1.160  15.553 -0.4937 -0.3212 -0.1706
  230MPD1    C1 3542   4.452   1.040  15.595  0.1238  0.7313 -0.1105
  230MPD1    C2 3543   4.380   0.922  15.596  0.2121  0.0783 -0.8861
  230MPD1    C3 3544   4.249   0.920  15.549  0.1130  0.1073 -0.8848
  230MPD1    C4 3545   4.195   1.044  15.514  0.6382 -0.0012  0.1597
  230MPD1    C5 3546   4.263   1.164  15.516  0.7631 -0.0298 -0.4254
  230MPD1     H 3547   4.424   0.830  15.633  1.1428  0.0133 -2.1868
  230MPD1    H1 3548   4.094   1.040  15.475  1.2893 -0.3148 -1.5296
  230MPD1    H2 3549   4.451   1.251  15.552 -0.9961  0.0127  0.4361
  230MPD1    H3 3550   4.225   1.262  15.492 -0.0896 -0.0471  0.8332
  230MPD1     N 3551   4.173   0.801  15.551  0.6069 -0.4936 -0.4899
  230MPD1    H5 3552   4.223   0.713  15.563  1.4653  0.6451  4.0340
  230MPD1    N1 3553   4.574   1.044  15.657  0.0546 -0.5379 -0.3451
  230MPD1    H6 3554   4.620   1.128  15.625  0.0503 -0.7931 -1.0165
  230MPD1    H7 3555   4.633   0.963  15.640  0.5513 -0.2580  0.0264
  231MPD1     C 3556   1.586   3.113  15.646 -0.0051 -0.1452 -0.8203
  231MPD1    C1 3557   1.605   3.009  15.566 -0.3585 -0.0435 -0.4631
  231MPD1    C2 3558   1.700   3.016  15.468 -0.4672  0.3013  0.7272
  231MPD1    C3 3559   1.780   3.119  15.450 -0.7825 -0.5107 -0.6790
  231MPD1    C4 3560   1.754   3.224  15.537  0.3088 -0.4298 -0.4975
  231MPD1    C5 3561   1.663   3.224  15.639 -0.8133 -0.1534  0.1886
  231MPD1     H 3562   1.717   2.928  15.407  1.0761  1.0342  0.0864
  231MPD1    H1 3563   1.801   3.321  15.530 -0.8884  0.3982  3.0436
  231MPD1    H2 3564   1.506   3.115  15.720  1.2173  0.8862  0.4693
  231MPD1    H3 3565   1.642   3.311  15.701 -2.4961 -0.8503  0.5954
  231MPD1     N 3566   1.878   3.131  15.350 -0.1775 -0.5397  0.3859
  231MPD1    H5 3567   1.891   3.050  15.290  0.2003  0.1343 -0.4517
  231MPD1    N1 3568   1.523   2.895  15.584  0.1502 -0.6124 -0.4876
  231MPD1    H6 3569   1.424   2.913  15.597  0.5960  1.8859 -0.6795
  231MPD1    H7 3570   1.530   2.813  15.524 -2.9739 -2.6034  1.8287
  232MPD1     C 3571   3.921   0.713  17.733 -1.2285 -0.5577  0.8999
  232MPD1    C1 3572   3.961   0.582   0.002 -0.5209  0.1515  0.1430
  232MPD1    C2 3573   3.883   0.493  17.667 -0.1902 -0.5047 -0.3385
  232MPD1    C3 3574   3.779   0.538  17.586  0.0217  0.0554  0.2851
  232MPD1    C4 3575   3.737   0.670  17.587 -0.0567  0.1367  0.5285
  232MPD1    C5 3576   3.813   0.758  17.659  0.0763  0.3806 -0.2658
  232MPD1     H 3577   3.910   0.389  17.656 -0.7622 -0.4711 -1.9670
  232MPD1    H1 3578   3.656   0.708  17.526 -1.0702 -0.8726  1.2464
  232MPD1    H2 3579   3.974   0.788   0.050  1.5038 -2.1845  0.5477
  232MPD1    H3 3580   3.797   0.865  17.662 -0.4820  0.2540  1.4803
  232MPD1     N 3581   3.720   0.442  17.501  0.5460  0.0293 -0.7873
  232MPD1    H5 3582   3.752   0.347  17.517  0.0146 -0.2592 -1.4231
  232MPD1    N1 3583   4.085   0.555   0.065  0.1080  0.6591  0.0612
  232MPD1    H6 3584   4.108   0.629   0.131 -1.2339 -0.9503  2.3152
  232MPD1    H7 3585   4.087   0.461   0.103 -1.1683  0.1893 -1.0422
  233MPD1     C 3586   0.335   4.010  17.443  0.4681  0.0758  0.0468
  233MPD1    C1 3587   0.413   4.061  17.537 -0.0717  0.5276  0.3350
  233MPD1    C2 3588   0.466   3.970  17.634  0.6176  0.1141  0.5185
  233MPD1    C3 3589   0.428   3.839  17.631 -0.6890  0.0987  0.0586
  233MPD1    C4 3590   0.354   3.788  17.531  0.3241  0.0913  0.0117
  233MPD1    C5 3591   0.304   3.871  17.437  0.2383  0.2378 -0.0007
  233MPD1     H 3592   0.528   4.011  17.713 -0.2103  0.5290  0.9533
  233MPD1    H1 3593   0.327   3.683  17.523  2.0878 -0.4006  0.3887
  233MPD1    H2 3594   0.307   4.071  17.359  0.9273 -0.3700 -0.4310
  233MPD1    H3 3595   0.238   3.825  17.364 -0.0347  2.6737 -1.2931
  233MPD1     N 3596   0.479   3.747  17.733 -0.0360 -0.0688  0.0738
  233MPD1    H5 3597   0.453   3.651  17.716  2.3226 -0.6886 -0.1284
  233MPD1    N1 3598   0.460   4.189  17.526 -0.6594  0.6775  0.1273
  233MPD1    H6 3599   0.394   4.254  17.484 -0.5038  0.0080 -1.1306
  233MPD1    H7 3600   0.505   4.221  17.612 -1.3525  1.1516  0.3160
  234MPD1     C 3601   2.107   2.488   9.349 -0.9789  0.4393  0.1627
  234MPD1    C1 3602   2.187   2.585   9.390 -0.3652  0.3256 -0.4787
  234MPD1    C2 3603   2.158   2.720   9.369 -0.4318  0.5087  0.5044
  234MPD1    C3 3604   2.055   2.763   9.296  0.2407 -0.3521  0.2702
  234MPD1    C4 3605   1.980   2.666   9.234 -0.3990 -0.0077  0.5951
  234MPD1    C5 3606   2.004   2.533   9.273  0.5056 -0.8543 -0.6102
  234MPD1     H 3607   2.233   2.796   9.390  0.7658  0.0242 -2.0243
  234MPD1    H1 3608   1.894   2.685   9.172  0.4809  0.4812 -0.4625
  234MPD1    H2 3609   2.118   2.383   9.372  3.1359  0.7016 -0.5428
  234MPD1    H3 3610   1.937   2.468   9.218 -1.1553 -0.2007  0.6247
  234MPD1     N 3611   2.032   2.897   9.290 -0.2331 -0.4104  0.4698
  234MPD1    H5 3612   2.109   2.951   9.328 -0.7201  1.2891 -0.9395
  234MPD1    N1 3613   2.293   2.550   9.472 -0.3197 -0.1258 -0.0119
  234MPD1    H6 3614   2.328   2.458   9.447  0.0618  0.1802 -0.6192
  234MPD1    H7 3615   2.373   2.608   9.449 -1.6436  1.6465 -0.1225
  235MPD1     C 3616   2.516   0.341  10.219 -0.0240 -0.0335  0.6021
  235MPD1    C1 3617   2.391   0.332  10.164 -0.0437 -0.8327  0.8528
  235MPD1    C2 3618   2.368   0.430  10.064  0.2940  0.2070 -0.1096
  235MPD1    C3 3619   2.456   0.528  10.036 -0.0194 -0.1178 -0.9782
  235MPD1    C4 3620   2.563   0.553  10.116  0.2954 -0.0708 -0.1134
  235MPD1    C5 3621   2.589   0.459  10.211  0.2400  0.1451 -0.0436
  235MPD1     H 3622   2.273   0.420  10.013  1.2058 -2.7784 -1.1879
  235MPD1    H1 3623   2.626   0.641  10.112 -0.6525  0.5698 -0.6491
  235MPD1    H2 3624   2.553   0.258  10.279 -0.0350 -1.1859 -0.9802
  235MPD1    H3 3625   2.686   0.460  10.260 -0.2729  0.0120  0.9680
  235MPD1     N 3626   2.419   0.611   9.924  0.2113  0.1995 -0.0000
  235MPD1    H5 3627   2.336   0.582   9.872  0.2733  0.9694 -0.5228
  235MPD1    N1 3628   2.308   0.215  10.171  0.1233  0.2564 -0.8209
  235MPD1    H6 3629   2.320   0.162  10.258 -4.4343 -0.0219 -0.3609
  235MPD1    H7 3630   2.210   0.236  10.150 -0.1594 -0.7801 -0.5540
  236MPD1     C 3631   2.459   1.880   9.429 -0.4705  0.0305 -0.4095
  236MPD1    C1 3632   2.589   1.871   9.487  0.4675  0.8212  0.3395
  236MPD1    C2 3633   2.603   1.777   9.584 -0.3446 -0.5668 -0.2153
  236MPD1    C3 3634   2.505   1.694   9.634  0.1905 -0.3809 -0.6996
  236MPD1    C4 3635   2.379   1.705   9.584  0.2616  0.4850  0.3757
  236MPD1    C5 3636   2.363   1.794   9.479 -0.4262  0.0230 -0.2816
  236MPD1     H 3637   2.698   1.761   9.634  0.3836  1.4514 -0.9379
  236MPD1    H1 3638   2.295   1.648   9.620  1.7019 -0.8166  1.6618
  236MPD1    H2 3639   2.420   1.958   9.365 -1.3213  0.2033  0.3314
  236MPD1    H3 3640   2.264   1.804   9.438  0.2358  1.2074 -1.5882
  236MPD1     N 3641   2.520   1.602   9.745 -0.1807 -0.7271  0.7412
  236MPD1    H5 3642   2.441   1.540   9.761 -1.3958  0.6629  0.2303
  236MPD1    N1 3643   2.686   1.974   9.475 -0.4306  0.0820 -0.1060
  236MPD1    H6 3644   2.673   2.041   9.399 -0.4717 -0.0971 -0.2564
  236MPD1    H7 3645   2.779   1.934   9.477  0.3156  1.7616 -1.3228
  237MPD1     C 3646   2.369   3.738  14.624 -0.4878 -0.7342 -0.4629
  237MPD1    C1 3647   2.465   3.828  14.676 -0.4981 -0.1974  0.3618
  237MPD1    C2 3648   2.413   3.933  14.749  0.9199  0.6548  0.6466
  237MPD1    C3 3649   2.276   3.966  14.743  0.5250  0.3853  0.3236
  237MPD1    C4 3650   2.189   3.897  14.659  0.7241  0.0821 -0.3363
  237MPD1    C5 3651   2.243   3.786  14.598 -0.7984  0.0721  0.4744
  237MPD1     H 3652   2.486   3.991  14.803  3.9587  0.3241 -3.1610
  237MPD1    H1 3653   2.088   3.932  14.646  1.3660  2.2443  0.4412
  237MPD1    H2 3654   2.410   3.651  14.574  0.8123 -0.1073 -0.4874
  237MPD1    H3 3655   2.174   3.736  14.530  1.2943 -0.8918 -0.9386
  237MPD1     N 3656   2.220   4.079  14.803 -0.4909  0.4701 -0.2232
  237MPD1    H5 3657   2.124   4.099  14.775 -0.4163 -2.6982 -2.7108
  237MPD1    N1 3658   2.585   3.776  14.706 -0.8409 -0.4176  0.2661
  237MPD1    H6 3659   2.657   3.847  14.715 -0.4643 -1.1256  2.8279
  237MPD1    H7 3660   2.617   3.706  14.640 -0.2054 -0.1509  0.2887
  238MPD1     C 3661   3.906   2.935  15.634 -0.2281  1.2035  0.2525
  238MPD1    C1 3662   4.038   2.935  15.596  0.4299  0.1533 -0.4316
  238MPD1    C2 3663   4.072   2.892  15.470  0.2942 -0.9115 -0.0903
  238MPD1    C3 3664   3.978   2.835  15.385 -0.6699 -0.3080  0.6748
  238MPD1    C4 3665   3.846   2.834  15.428  0.2734  0.2715  0.1114
  238MPD1    C5 3666   3.812   2.889  15.550  0.8794  0.4252 -0.3024
  238MPD1     H 3667   4.178   2.892  15.449 -0.3480 -1.4317 -3.2256
  238MPD1    H1 3668   3.775   2.776  15.370 -1.2228  1.4858  0.7257
  238MPD1    H2 3669   3.873   2.969  15.731 -0.2275 -0.8425  0.9740
  238MPD1    H3 3670   3.708   2.896  15.579  0.3932 -1.4518 -1.6165
  238MPD1     N 3671   4.014   2.793  15.259 -0.1089  0.6820  0.2222
  238MPD1    H5 3672   3.945   2.740  15.207  0.9564 -1.1283  0.6384
  238MPD1    N1 3673   4.134   2.972  15.686  0.1029 -0.1831 -0.9678
  238MPD1    H6 3674   4.225   2.930  15.671  0.4202 -0.1271  0.8076
  238MPD1    H7 3675   4.106   2.960  15.783 -0.7732 -0.5902 -1.2724
  239MPD1     C 3676   4.593   3.669  14.923  0.1251  0.1773 -0.8357
  239MPD1    C1 3677   4.639   3.611  14.801 -0.1793 -0.5323 -0.6008
  239MPD1    C2 3678   4.587   3.665  14.682  0.0683 -0.6736  0.1561
  239MPD1    C3 3679   4.497   3.774  14.680  0.7815  0.7019 -0.2133
  239MPD1    C4 3680   4.460   3.826  14.803 -0.9182  0.3788 -0.2409
  239MPD1    C5 3681   4.501   3.770  14.919 -0.6977  0.2629  0.2520
  239MPD1     H 3682   4.615   3.623  14.587 -1.4296 -1.8317  0.2246
  239MPD1    H1 3683   4.401   3.917  14.801  0.4307  1.2806  1.0012
  239MPD1    H2 3684   4.633   3.640  15.019  0.0393 -0.0162 -0.8593
  239MPD1    H3 3685   4.461   3.805  15.013 -3.0720  0.1529 -0.7030
  239MPD1     N 3686   4.453   3.845  14.567 -0.3839 -0.3242  0.0817
  239MPD1    H5 3687   4.389   3.922  14.583  0.8689  0.7009  0.1593
  239MPD1    N1 3688   4.719   3.495  14.807  0.1583  0.9964 -0.3050
  239MPD1    H6 3689   0.036   3.506  14.893  0.9795 -0.8486 -0.5723
  239MPD1    H7 3690   0.057   3.491  14.737 -0.2285  2.3883 -0.8010
  240MPD1     C 3691   3.449   4.368  13.963 -0.3412 -0.8735 -0.0581
  240MPD1    C1 3692   3.561   4.309  14.007 -0.3525  1.0207  0.1423
  240MPD1    C2 3693   3.561   4.181  14.061  0.0574 -0.2071 -0.0011
  240MPD1    C3 3694   3.444   4.107  14.047  0.4660 -0.0840 -0.9236
  240MPD1    C4 3695   3.340   4.157  13.982  0.5760 -0.1344  0.4969
  240MPD1    C5 3696   3.331   4.291  13.947  0.7052  0.2296 -0.1891
  240MPD1     H 3697   3.653   4.135  14.096 -0.6472 -2.5516 -1.2326
  240MPD1    H1 3698   3.261   4.090  13.951  0.4134 -0.1548  0.9610
  240MPD1    H2 3699   3.445   4.470  13.927  0.1415 -1.0856 -0.7105
  240MPD1    H3 3700   3.245   4.327  13.891 -0.4600 -1.5578  0.4189
  240MPD1     N 3701   3.460   3.972  14.084 -0.8155 -0.0547 -0.1987
  240MPD1    H5 3702   3.546   3.943  14.130 -0.9117 -1.5954 -0.9883
  240MPD1    N1 3703   3.671   4.393  14.023  0.5972 -0.7246 -0.4897
  240MPD1    H6 3704   3.682   4.462  13.949  2.3676 -3.1683 -2.5334
  240MPD1    H7 3705   3.754   4.335  14.032 -0.2762 -1.4287  2.9122
  241MPD1     C 3706   3.980   3.556  14.694  0.3813  0.5011 -0.0115
  241MPD1    C1 3707   4.020   3.617  14.574  0.3235 -0.2384 -0.7198
  241MPD1    C2 3708   3.910   3.617  14.482 -0.3448  0.5631 -0.3402
  241MPD1    C3 3709   3.790   3.548  14.499 -0.7427  0.3035  0.0026
  241MPD1    C4 3710   3.759   3.501  14.628  0.9338  0.3568 -0.4639
  241MPD1    C5 3711   3.861   3.494  14.720  0.0916 -0.2376 -0.0924
  241MPD1     H 3712   3.932   3.652  14.382 -0.1193 -0.2509 -0.5803
  241MPD1    H1 3713   3.659   3.464  14.649  0.9634  0.1361 -0.7082
  241MPD1    H2 3714   4.047   3.557  14.780  1.5625 -1.7269 -0.9186
  241MPD1    H3 3715   3.845   3.460  14.821 -2.0647  1.3547  0.0879
  241MPD1     N 3716   3.688   3.542  14.403  0.2491 -0.1506 -0.2745
  241MPD1    H5 3717   3.605   3.492  14.431 -0.7697  1.1456 -0.9847
  241MPD1    N1 3718   4.148   3.669  14.555 -0.1102 -0.2938 -0.2257
  241MPD1    H6 3719   4.211   3.604  14.603  0.4325  0.6996  0.3914
  241MPD1    H7 3720   4.177   3.671  14.457  1.2884  1.8761  0.2207
  242MPD1     C 3721   3.560   1.214  16.019 -0.4034  0.0519 -0.6396
  242MPD1    C1 3722   3.464   1.186  15.923 -0.5720  0.0665 -0.0684
  242MPD1    C2 3723   3.499   1.203  15.795  0.4153 -0.1430  0.1093
  242MPD1    C3 3724   3.630   1.225  15.755  0.5133  0.5741 -0.3525
  242MPD1    C4 3725   3.728   1.233  15.852  0.1007  0.3470 -0.1388
  242MPD1    C5 3726   3.692   1.230  15.983  0.5798 -0.8396  0.6927
  242MPD1     H 3727   3.431   1.194  15.710  1.0037  0.4949 -0.4251
  242MPD1    H1 3728   3.835   1.238  15.834  0.4769  3.2013  2.8265
  242MPD1    H2 3729   3.540   1.207  16.125 -0.3249 -1.2524 -0.7127
  242MPD1    H3 3730   3.762   1.240  16.065 -0.3126 -0.0795  1.3611
  242MPD1     N 3731   3.673   1.241  15.622 -0.3850 -0.1927 -0.0374
  242MPD1    H5 3732   3.772   1.256  15.608 -0.7935  0.2721 -2.3368
  242MPD1    N1 3733   3.333   1.173  15.968  0.7720 -0.2467 -0.6008
  242MPD1    H6 3734   3.330   1.135  16.062  0.3241  1.4299  0.0599
  242MPD1    H7 3735   3.274   1.122  15.902 -1.2325 -0.3607  1.2689
  243MPD1     C 3736   4.253   0.917   0.388 -0.5729 -0.5676 -0.0841
  243MPD1    C1 3737   4.261   0.794   0.321  0.5438 -0.1907 -0.6983
  243MPD1    C2 3738   4.356   0.796   0.223  0.2857  0.0349 -0.6556
  243MPD1    C3 3739   4.460   0.881   0.211  0.5801 -0.0898 -0.4009
  243MPD1    C4 3740   4.463   0.994   0.295 -0.4737 -0.2300  0.3761
  243MPD1    C5 3741   4.360   1.007   0.378  0.2325 -0.4588  0.0027
  243MPD1     H 3742   4.363   0.710   0.156 -2.2457  0.6164 -1.6495
  243MPD1    H1 3743   4.547   1.062   0.289 -2.6121  2.5100  1.7260
  243MPD1    H2 3744   4.176   0.943   0.461  1.7651  1.2851  1.7524
  243MPD1    H3 3745   4.352   1.096   0.440 -1.5034 -1.1499  0.7644
  243MPD1     N 3746   4.561   0.858   0.114 -0.0822 -0.0201 -1.1352
  243MPD1    H5 3747   4.558   0.777   0.053  0.8982 -0.4582 -0.5985
  243MPD1    N1 3748   4.159   0.697   0.326 -0.1778 -0.4192 -0.1905
  243MPD1    H6 3749   4.116   0.701   0.418 -1.4103  2.7292 -0.8860
  243MPD1    H7 3750   4.180   0.602   0.296  1.1994 -0.2556  0.2166
  244MPD1     C 3751   0.063   0.018  17.522  0.0088  0.0122 -0.3279
  244MPD1    C1 3752   0.145   0.088  17.440 -0.0144 -0.2287 -0.1977
  244MPD1    C2 3753   0.165   0.218  17.476 -0.2106 -0.4407  0.0418
  244MPD1    C3 3754   0.092   0.279  17.586 -0.2632 -0.5109 -0.0942
  244MPD1    C4 3755   4.734   0.210  17.655  0.4350 -0.3120 -0.1226
  244MPD1    C5 3756   4.710   0.077  17.606 -0.4451  0.2983  0.5507
  244MPD1     H 3757   0.242   0.274  17.425 -0.7552 -0.7250 -1.0866
  244MPD1    H1 3758   4.666   0.249  17.730  0.2273  0.6015 -0.7846
  244MPD1    H2 3759   0.048   4.647  17.505 -1.4138 -0.0553  1.3608
  244MPD1    H3 3760   4.637   0.020  17.662 -0.1508 -2.1954 -1.6129
  244MPD1     N 3761   0.104   0.417  17.597 -0.2189  0.4424  0.7642
  244MPD1    H5 3762   0.147   0.464  17.518 -0.5846 -0.8009 -0.1800
  244MPD1    N1 3763   0.232   0.018  17.358  0.4451  0.2738  0.1973
  244MPD1    H6 3764   0.287   0.071  17.291 -1.9047 -0.4189 -2.2860
  244MPD1    H7 3765   0.186   4.680  17.303 -0.4840 -0.7959  2.4024
  245MPD1     C 3766   1.705   0.843  12.841  0.0352 -0.0375 -1.0038
  245MPD1    C1 3767   1.712   0.875  12.973  0.1218  1.1487  0.1702
  245MPD1    C2 3768   1.811   0.963  13.014  0.5260 -0.1081  0.1724
  245MPD1    C3 3769   1.902   1.019  12.928  0.2699  0.0291 -0.0319
  245MPD1    C4 3770   1.888   0.994  12.794 -0.1696 -0.5357 -0.0551
  245MPD1    C5 3771   1.794   0.904  12.751  0.2410  0.5324 -0.2548
  245MPD1     H 3772   1.814   1.004  13.114 -0.7469 -0.1516  0.2370
  245MPD1    H1 3773   1.957   1.031  12.719  1.2471  0.5939  1.7856
  245MPD1    H2 3774   1.636   0.774  12.794  1.2062 -0.4014 -2.1943
  245MPD1    H3 3775   1.777   0.895  12.644  1.1596 -3.9617 -0.0338
  245MPD1     N 3776   1.987   1.117  12.982  0.5447 -0.1411  0.0216
  245MPD1    H5 3777   1.986   1.134  13.082  0.7753  1.2888 -0.2190
  245MPD1    N1 3778   1.609   0.846  13.056  0.1357 -0.2362 -0.5327
  245MPD1    H6 3779   1.545   0.783  13.008 -0.3085 -0.3138  0.1577
  245MPD1    H7 3780   1.631   0.814  13.151  0.4552  1.9607  0.1389
  246MPD1     C 3781   4.436   3.029  10.489 -0.1306  0.4578 -0.1356
  246MPD1    C1 3782   4.309   3.001  10.471 -0.8586  0.1212 -0.2345
  246MPD1    C2 3783   4.274   2.897  10.387 -1.0496  0.3350  0.4259
  246MPD1    C3 3784   4.372   2.811  10.335  0.9966 -0.4755  0.2810
  246MPD1    C4 3785   4.500   2.833  10.371 -0.1861 -0.3855  0.8079
  246MPD1    C5 3786   4.534   2.953  10.426  0.2218  0.3135  0.2106
  246MPD1     H 3787   4.168   2.881  10.370 -1.1430  0.4443  0.8942
  246MPD1    H1 3788   4.574   2.772  10.320 -0.4705  2.1462 -2.5662
  246MPD1    H2 3789   4.476   3.108  10.552  0.9676 -1.9282  2.1348
  246MPD1    H3 3790   4.636   2.972  10.456  0.8426  0.5844 -2.0636
  246MPD1     N 3791   4.332   2.682  10.277  0.6761  0.3149 -0.6904
  246MPD1    H5 3792   4.233   2.661  10.289  1.7982 -2.6652  3.5741
  246MPD1    N1 3793   4.211   3.087  10.528  0.3862  0.3081  0.4992
  246MPD1    H6 3794   4.126   3.037  10.553 -0.5957  1.3483 -0.7626
  246MPD1    H7 3795   4.238   3.127  10.618  1.1555  0.6433  0.1206
  247MPD1     C 3796   2.459   1.696  17.108 -0.2590  0.0380  0.2410
  247MPD1    C1 3797   2.495   1.571  17.154 -0.0070  0.1487  0.4182
  247MPD1    C2 3798   2.405   1.463  17.142 -0.2674  0.3875 -0.3209
  247MPD1    C3 3799   2.282   1.482  17.078  0.6107  0.0859 -0.8754
  247MPD1    C4 3800   2.255   1.606  17.028  0.4978 -0.1802 -0.1849
  247MPD1    C5 3801   2.338   1.715  17.049 -0.2684  0.0496  0.5034
  247MPD1     H 3802   2.434   1.364  17.176  0.1767  0.3661 -0.7530
  247MPD1    H1 3803   2.157   1.626  16.986 -0.4133 -0.5262  1.7430
  247MPD1    H2 3804   2.526   1.780  17.117  0.6035 -0.5810 -0.3411
  247MPD1    H3 3805   2.301   1.812  17.019  2.5563  0.6400 -1.0048
  247MPD1     N 3806   2.191   1.385  17.052 -0.4883  0.1201  0.0102
  247MPD1    H5 3807   2.113   1.412  16.993 -0.8341 -2.5114 -0.7270
  247MPD1    N1 3808   2.604   1.552  17.234 -0.4121 -0.4408 -1.0296
  247MPD1    H6 3809   2.685   1.607  17.206 -0.8814  1.0802  0.6506
  247MPD1    H7 3810   2.633   1.454  17.241  3.0326  0.6523 -0.0993
  248MPD1     C 3811   2.368   0.414  17.728 -0.9412  0.0892  0.2560
  248MPD1    C1 3812   2.238   0.459   0.035 -0.2355 -0.8540  0.0363
  248MPD1    C2 3813   2.173   0.390   0.140  0.3432 -0.7132  0.4693
  248MPD1    C3 3814   2.215   0.264   0.183 -0.5361 -0.7213  0.2280
  248MPD1    C4 3815   2.335   0.215   0.137  0.4744  0.0793 -0.5837
  248MPD1    C5 3816   2.399   0.287   0.032 -0.7841 -0.0517 -0.3963
  248MPD1     H 3817   2.083   0.435   0.182  0.6051  0.8308 -0.6023
  248MPD1    H1 3818   2.365   0.114   0.159 -0.6434 -0.0485  0.3581
  248MPD1    H2 3819   2.429   0.468  17.656 -2.4393  1.6560  0.1515
  248MPD1    H3 3820   2.488   0.239  17.733 -0.6723 -0.0920 -0.0877
  248MPD1     N 3821   2.137   0.197   0.274 -0.3551  0.4080  0.0917
  248MPD1    H5 3822   2.051   0.244   0.300  0.7956  2.5571 -0.0239
  248MPD1    N1 3823   2.203   0.598   0.013  0.3867 -0.8138  0.3104
  248MPD1    H6 3824   2.102   0.614   0.013  0.9241  2.6355  0.5224
  248MPD1    H7 3825   2.217   0.613  17.653  0.4846 -0.8702  0.3160
  249MPD1     C 3826   2.248   0.192   9.243  1.0874 -0.5156 -0.1744
  249MPD1    C1 3827   2.260   0.069   9.292 -0.6457 -0.1706 -0.3985
  249MPD1    C2 3828   2.319   0.049   9.414 -0.0917 -0.3044  0.5021
  249MPD1    C3 3829   2.360   0.150   9.496 -1.0310 -0.6493 -0.1381
  249MPD1    C4 3830   2.331   0.278   9.452 -0.0164  0.5575 -0.3379
  249MPD1    C5 3831   2.283   0.298   9.327  0.1327 -0.1245  0.0908
  249MPD1     H 3832   2.335   4.681   9.444 -2.0496 -0.8027 -0.1812
  249MPD1    H1 3833   2.356   0.364   9.512 -2.0096 -0.7395  2.3440
  249MPD1    H2 3834   2.202   0.225   9.150  2.0831  1.1262 -0.0830
  249MPD1    H3 3835   2.265   0.399   9.292 -3.6013 -0.8170  0.0722
  249MPD1     N 3836   2.420   0.114   9.622  0.8768  0.2850 -0.4274
  249MPD1    H5 3837   2.445   0.017   9.635  0.0404  0.0416 -0.6365
  249MPD1    N1 3838   2.246   4.692   9.200  0.3570 -0.7962  0.4364
  249MPD1    H6 3839   2.242   4.597   9.235  0.6704 -1.7538 -2.1417
  249MPD1    H7 3840   2.181   4.692   9.122  0.1428  0.3820  0.6162
  250MPD2     C 3841   0.411   4.087  13.463 -0.0564 -0.2691  0.6452
  250MPD2    C1 3842   0.340   4.157  13.366 -1.0059 -0.0001 -0.0348
  250MPD2    C2 3843   0.244   4.090  13.290  0.3266  0.4071 -0.1139
  250MPD2    C3 3844   0.230   3.951  13.319  0.2222 -0.3929  0.5757
  250MPD2    C4 3845   0.297   3.897  13.424  1.4966 -0.0700 -0.3914
  250MPD2    C5 3846   0.384   3.966  13.495  0.5434  0.5890  0.4937
  250MPD2     H 3847   0.181   4.134  13.213 -0.0896  0.3444  0.1860
  250MPD2    H1 3848   0.278   3.796  13.458  0.1870  0.3538  0.1105
  250MPD2    H2 3849   0.481   4.145  13.522 -0.2777  0.9691 -0.3226
  250MPD2    H3 3850   0.436   3.922  13.579  0.3754  2.1499  1.4242
  250MPD2     N 3851   0.153   3.863  13.242  0.6040 -0.1790  0.0053
  250MPD2    H5 3852   0.155   3.765  13.270  0.6926 -0.3381 -0.5724
  250MPD2    N1 3853   0.392   4.288  13.345 -0.2539  0.5385 -0.4235
  250MPD2    H7 3854   0.471   4.314  13.404 -0.6507  0.8950 -0.0575
  251TMC3    C1 3855   0.478   4.448  13.200  0.0289  0.7219 -0.3526
  251TMC3    C2 3856   0.444   4.569  13.139  0.4617  0.1106 -0.4837
  251TMC3    C3 3857   0.541   4.629  13.066  0.7046 -0.1356  0.5101
  251TMC3    C4 3858   0.590   4.380  13.159  0.1107  0.0845  0.4568
  251TMC3    C5 3859   0.690   4.444  13.091  0.6407  0.6145 -0.2187
  251TMC3    C6 3860   0.657   4.568  13.033 -0.4083  0.9539  0.3131
  251TMC3     C 3861   0.366   4.366  13.237 -0.0750 -0.1010 -0.6279
  251TMC3     O 3862   0.282   4.357  13.147 -0.4165 -0.0586  0.1892
  251TMC3     H 3863   0.351   4.620  13.160  0.1197 -0.3637 -0.8653
  251TMC3    H1 3864   0.602   4.283  13.206 -0.0716 -0.7975 -1.3551
  251TMC3    H2 3865   0.726   4.627  12.973  0.9139 -0.6713  0.2216
  251TMC3    C7 3866   0.821   4.396  13.110  0.1785 -0.0810  0.1513
  251TMC3    C8 3867   0.508   0.021  12.995  0.0755 -0.2574  0.1937
  251TMC3    O1 3868   0.833   4.291  13.171 -0.2024 -0.0127  0.1138
  251TMC3    O2 3869   0.542   0.031  12.877 -0.0592  0.4446 -0.1954
  252TMC3    C1 3870   0.163   1.669   9.309 -0.3866  0.0805  0.9916
  252TMC3    C2 3871   0.300   1.655   9.315 -0.1149  0.1045  0.4701
  252TMC3    C3 3872   0.348   1.546   9.370 -0.1108  0.1737 -0.1434
  252TMC3    C4 3873   0.071   1.584   9.374  0.0081 -0.4110 -0.2282
  252TMC3    C5 3874   0.133   1.472   9.427  0.7689  0.2349  0.0932
  252TMC3    C6 3875   0.269   1.455   9.438  0.2482  0.0246 -0.1585
  252TMC3     C 3876   0.104   1.792   9.255  0.1427  0.1097 -0.3679
  252TMC3     O 3877   4.718   1.800   9.268  0.0827  0.4743  0.3459
  252TMC3     H 3878   0.368   1.721   9.262  0.3950 -0.3468  0.5577
  252TMC3    H1 3879   4.701   1.593   9.350  0.4274 -1.9941 -2.6895
  252TMC3    H2 3880   0.318   1.367   9.479 -1.3541 -0.4238  0.8127
  252TMC3    C7 3881   0.046   1.375   9.487 -0.9824 -0.1456  0.0689
  252TMC3    C8 3882   0.489   1.524   9.377 -0.7011  0.1893 -0.5720
  252TMC3    O1 3883   4.667   1.409   9.465 -0.2517 -0.1811  0.6710
  252TMC3    O2 3884   0.554   1.565   9.279  0.0725  0.4397  0.4475
  253MPD2     C 3885   1.917   4.533  15.422 -0.1506 -0.1888  0.1614
  253MPD2    C1 3886   1.804   4.561  15.348 -0.1275  0.3755 -0.3678
  253MPD2    C2 3887   1.681   4.559  15.408  0.3172 -0.5468  0.0535
  253MPD2    C3 3888   1.668   4.527  15.541 -0.7686 -0.2949 -0.9531
  253MPD2    C4 3889   1.778   4.487  15.617  0.1631  0.1408 -0.7249
  253MPD2    C5 3890   1.904   4.490  15.553  0.4001  0.5656 -0.5226
  253MPD2     H 3891   1.598   4.559  15.338  2.2787 -0.5688 -2.2607
  253MPD2    H1 3892   1.763   4.452  15.719  0.6032  1.2254 -0.2907
  253MPD2    H2 3893   2.015   4.533  15.376  0.5066 -0.0766  1.5676
  253MPD2    H3 3894   1.986   4.438  15.601 -0.0527 -0.0436 -0.4092
  253MPD2     N 3895   1.541   4.511  15.599  0.0967  0.5246  0.1214
  253MPD2    H5 3896   1.536   4.451  15.681  0.6042 -1.5960 -1.3894
  253MPD2    N1 3897   1.808   4.611  15.216 -0.0539 -0.2872  0.2671
  253MPD2    H7 3898   1.723   4.614  15.161  0.3421 -2.4840 -0.4465
  254TMC3    C1 3899   1.306   4.537  15.611  0.3655 -0.3109  0.1981
  254TMC3    C2 3900   1.219   4.637  15.637  0.3810 -0.3228  0.2213
  254TMC3    C3 3901   1.092   4.602  15.674  0.0674 -0.3114  0.1076
  254TMC3    C4 3902   1.268   4.403  15.617 -0.0113  0.3488 -0.0385
  254TMC3    C5 3903   1.136   4.375  15.655 -0.1874  0.1918 -0.5487
  254TMC3    C6 3904   1.044   4.476  15.674  0.1354  0.5766 -0.2327
  254TMC3     C 3905   1.426   4.577  15.553 -0.2310 -0.1000 -0.0566
  254TMC3     O 3906   1.426   4.683  15.489 -0.3323 -0.1467 -0.4427
  254TMC3     H 3907   1.270   4.732  15.649 -2.7312  1.5966 -1.5774
  254TMC3    H1 3908   1.340   4.324  15.602  3.2307  3.5238 -1.0022
  254TMC3    H2 3909   0.937   4.465  15.690  0.2278 -2.6908 -1.7814
  254TMC3    C7 3910   1.119   4.256  15.726  0.1369  0.1802  0.2467
  254TMC3    C8 3911   1.005   4.704  15.727 -0.3636  0.0240  0.4764
  254TMC3    O1 3912   1.216   4.185  15.743 -0.4952 -0.2509  0.0998
  254TMC3    O2 3913   0.905   4.663  15.786 -0.4321 -0.4004  0.1843
  255MPD2     C 3914   0.352   3.157  10.060 -0.1522 -0.8449 -0.1615
  255MPD2    C1 3915   0.273   3.052  10.023 -1.2141  0.1032 -0.7135
  255MPD2    C2 3916   0.305   2.985   9.908  0.0393 -0.3698 -0.5044
  255MPD2    C3 3917   0.416   3.015   9.834  1.0953  0.2401  0.1905
  255MPD2    C4 3918   0.489   3.126   9.875 -0.1912  0.1371  0.5756
  255MPD2    C5 3919   0.450   3.199   9.978 -0.2764 -0.3633 -0.2836
  255MPD2     H 3920   0.252   2.896   9.876 -0.9044 -0.0499  0.1844
  255MPD2    H1 3921   0.572   3.167   9.819 -0.5864  1.2113  0.7855
  255MPD2    H2 3922   0.331   3.217  10.148 -2.1673 -0.5583 -0.8284
  255MPD2    H3 3923   0.510   3.287  10.001 -0.2293 -0.8854  1.6447
  255MPD2     N 3924   0.452   2.933   9.723 -0.1773 -0.6820  0.3065
  255MPD2    H5 3925   0.392   2.853   9.709  0.8210 -1.3594 -0.0866
  255MPD2    N1 3926   0.151   3.031  10.094  0.8754  0.1272  0.1879
  255MPD2    H7 3927   0.127   3.105  10.158  0.9255 -0.8953  1.3998
  256TMC3    C1 3928   4.658   2.993  10.058  0.9867 -0.0623  0.6837
  256TMC3    C2 3929   4.638   3.129  10.042  0.0547  0.6096 -0.2913
  256TMC3    C3 3930   4.507   3.168  10.002 -0.1559 -0.1963 -0.4068
  256TMC3    C4 3931   4.551   2.908  10.025 -0.6380 -0.4597  0.0722
  256TMC3    C5 3932   4.420   2.955   9.993 -1.1802  0.4638  0.4043
  256TMC3    C6 3933   4.393   3.090   9.991  0.0414  0.6246 -0.7499
  256TMC3     C 3934   0.058   2.937  10.060 -0.2478 -0.1127 -0.3375
  256TMC3     O 3935   0.081   2.824  10.009  0.5559 -0.2993 -0.0287
  256TMC3     H 3936   4.722   3.198  10.051 -0.4728  1.5205 -2.2645
  256TMC3    H1 3937   4.572   2.801  10.026  0.5090 -0.2314  0.8780
  256TMC3    H2 3938   4.292   3.124   9.971 -0.3951  0.5700  1.4478
  256TMC3    C7 3939   4.316   2.852   9.968 -0.8415 -0.8056 -0.6129
  256TMC3    C8 3940   4.484   3.299   9.952  0.0563  0.2920  0.5440
  256TMC3    O1 3941   4.359   2.739   9.950  0.3342  0.8752 -0.9103
  256TMC3    O2 3942   4.364   3.335   9.965  0.0321 -0.0071  0.2957
  257MPD2     C 3943   3.763   4.261  13.569  0.0853  0.8662 -0.4566
  257MPD2    C1 3944   3.879   4.207  13.515 -0.4104  0.1983 -0.0878
  257MPD2    C2 3945   3.938   4.103  13.577  0.2292  0.3960 -0.1552
  257MPD2    C3 3946   3.904   4.063  13.704  0.0038 -0.3270 -0.3412
  257MPD2    C4 3947   3.797   4.132  13.765  0.1490 -0.2347 -0.1621
  257MPD2    C5 3948   3.725   4.226  13.698 -0.3636 -0.4354  0.5093
  257MPD2     H 3949   4.031   4.063  13.538  0.9512  0.2726  1.6567
  257MPD2    H1 3950   3.762   4.107  13.865 -3.2418  0.3307 -1.1973
  257MPD2    H2 3951   3.700   4.335  13.522  0.1430  1.0068 -0.3133
  257MPD2    H3 3952   3.625   4.250  13.734  0.2203 -1.9819  3.1664
  257MPD2     N 3953   3.960   3.944  13.760 -1.1308  0.1020 -0.4168
  257MPD2    H5 3954   4.025   3.889  13.705  0.3904  1.0011  0.4816
  257MPD2    N1 3955   3.920   4.257  13.388  0.2921 -0.1259 -0.2655
  257MPD2    H7 3956   3.864   4.330  13.345 -0.0140 -0.5275 -0.5477
  258TMC3    C1 3957   4.007   3.764  13.898 -0.1574 -0.1875 -0.2574
  258TMC3    C2 3958   4.022   3.686  13.783  0.3401 -0.0848  0.5959
  258TMC3    C3 3959   4.098   3.571  13.790  0.0655  0.0276 -0.6286
  258TMC3    C4 3960   4.061   3.713  14.015  0.5122  0.2583 -1.3533
  258TMC3    C5 3961   4.115   3.586  14.023  0.0413  0.5661 -0.0252
  258TMC3    C6 3962   4.148   3.518  13.912 -0.1040 -0.4980  0.0260
  258TMC3     C 3963   3.944   3.892  13.888  0.5394 -0.8031 -0.4497
  258TMC3     O 3964   3.900   3.941  13.995 -0.4487  0.6667 -0.1731
  258TMC3     H 3965   3.967   3.716  13.694 -1.9756 -5.2220  0.3381
  258TMC3    H1 3966   4.044   3.769  14.106  2.2634 -0.0473 -0.8348
  258TMC3    H2 3967   4.194   3.420  13.920 -0.5678 -0.6608  0.7630
  258TMC3    C7 3968   4.185   3.559  14.148 -0.0967  0.5405  0.2817
  258TMC3    C8 3969   4.112   3.503  13.657  0.0734 -0.7014 -0.3450
  258TMC3    O1 3970   4.149   3.631  14.241 -0.0137 -0.2313  0.5913
  258TMC3    O2 3971   4.061   3.562  13.562 -0.0501  0.4213 -0.1137
  259MPD2     C 3972   2.690   0.878   0.199  0.9308  0.1035  0.3503
  259MPD2    C1 3973   2.804   0.798   0.228 -0.2228  0.6427  0.6991
  259MPD2    C2 3974   2.909   0.781   0.136 -0.1828 -0.2970  0.2811
  259MPD2    C3 3975   2.899   0.841   0.014 -0.0872  0.4981 -0.7442
  259MPD2    C4 3976   2.786   0.917  17.723 -0.5337  0.5689  0.2978
  259MPD2    C5 3977   2.690   0.936   0.078  0.4344 -0.6535 -0.3530
  259MPD2     H 3978   3.000   0.725   0.152 -0.8935 -2.2283 -2.5368
  259MPD2    H1 3979   2.770   0.967  17.628  1.7135  0.6768 -0.0433
  259MPD2    H2 3980   2.618   0.905   0.275  0.4470  2.0025 -0.7910
  259MPD2    H3 3981   2.605   0.999   0.054 -0.4174 -1.2388  1.1508
  259MPD2     N 3982   2.998   0.808  17.661  0.4810 -0.0249  0.1172
  259MPD2    H5 3983   3.070   0.744  17.693 -1.0632 -2.7800 -1.9295
  259MPD2    N1 3984   2.806   0.755   0.360  0.4549  0.2711  0.5283
  259MPD2    H7 3985   2.726   0.787   0.413  1.2774 -3.0329  3.7238
  260TMC3    C1 3986   3.118   0.803  17.463 -0.6032 -0.0172 -1.0659
  260TMC3    C2 3987   3.152   0.853  17.343 -0.0498 -1.2091  0.1615
  260TMC3    C3 3988   3.259   0.801  17.276 -0.5168 -0.1098  0.1873
  260TMC3    C4 3989   3.176   0.689  17.507 -0.2675 -0.6476 -1.2100
  260TMC3    C5 3990   3.290   0.640  17.447 -0.0832  0.4577  1.2200
  260TMC3    C6 3991   3.332   0.703  17.334 -0.3345  0.3764 -0.4450
  260TMC3     C 3992   3.008   0.865  17.536 -0.4474 -0.3572  0.5598
  260TMC3     O 3993   2.947   0.959  17.489  0.6317  0.4471  0.2068
  260TMC3     H 3994   3.095   0.929  17.290  1.0085  0.7343  1.8347
  260TMC3    H1 3995   3.119   0.626  17.574  0.0502 -0.6355 -0.9294
  260TMC3    H2 3996   3.423   0.670  17.285 -0.8336  0.8013 -1.6523
  260TMC3    C7 3997   3.271   0.499  17.421 -0.8092 -0.0403 -0.5204
  260TMC3    C8 3998   3.233   0.782  17.131  0.5009 -1.2375  0.5116
  260TMC3    O1 3999   3.288   0.472  17.301  0.4764 -0.8688 -0.1790
  260TMC3    O2 4000   3.190   0.868  17.054  0.0621  0.4127 -0.2719
  261MPD2     C 4001   4.301   3.781  12.638 -0.0708  0.4185  0.1258
  261MPD2    C1 4002   4.413   3.852  12.671 -0.3842  0.5361  0.2264
  261MPD2    C2 4003   4.437   3.975  12.610 -0.6652  0.1716 -0.1863
  261MPD2    C3 4004   4.360   4.014  12.505  0.2731 -0.9389 -0.5925
  261MPD2    C4 4005   4.260   3.933  12.456 -0.2324  0.1484 -0.3939
  261MPD2    C5 4006   4.231   3.816  12.533 -0.4649 -0.4560 -0.4971
  261MPD2     H 4007   4.507   4.050  12.644  1.8241 -1.8320 -0.9318
  261MPD2    H1 4008   4.208   3.963  12.366  1.4562  1.1188 -1.0495
  261MPD2    H2 4009   4.270   3.701  12.704  0.3909  2.1591  2.4388
  261MPD2    H3 4010   4.145   3.751  12.518 -1.5213  1.2431 -1.8343
  261MPD2     N 4011   4.386   4.142  12.450 -0.2271  0.2177 -0.0511
  261MPD2    H5 4012   4.474   4.187  12.477  1.9874 -4.0744 -0.1726
  261MPD2    N1 4013   4.491   3.817  12.780 -0.0366  0.2021  1.0842
  261MPD2    H7 4014   4.557   3.887  12.812 -1.4598  2.4084 -0.8216
  262TMC3    C1 4015   4.428   4.296  12.284 -0.5181  0.7458 -0.3870
  262TMC3    C2 4016   4.379   4.423  12.249  0.5797 -0.0930  0.1624
  262TMC3    C3 4017   4.478   4.512  12.213  0.0270 -0.1301  0.2965
  262TMC3    C4 4018   4.551   4.251  12.287 -0.3225 -0.1690  0.3717
  262TMC3    C5 4019   4.642   4.344  12.251 -0.2708 -0.3293  0.3639
  262TMC3    C6 4020   4.607   4.472  12.217  0.1262  0.4152  0.5298
  262TMC3     C 4021   4.325   4.209  12.340 -0.3077  0.6024  0.6200
  262TMC3     O 4022   4.212   4.193  12.295  0.2000  0.2667 -0.0700
  262TMC3     H 4023   4.275   4.443  12.271 -0.0102 -3.6528  0.5830
  262TMC3    H1 4024   4.584   4.148  12.295 -1.9111 -0.8008 -1.3359
  262TMC3    H2 4025   4.695   4.535  12.206 -0.1240  1.0230  1.9885
  262TMC3    C7 4026   0.041   4.299  12.257 -0.4689  0.7885  0.4244
  262TMC3    C8 4027   4.454   4.641  12.154 -0.1983  0.1106  0.2092
  262TMC3    O1 4028   0.074   4.215  12.347  0.3989 -0.1470  0.2453
  262TMC3    O2 4029   4.548   4.715  12.129  0.3412  0.4653  0.5423
  263MPD2     C 4030   0.674   3.419  11.306  0.1851 -0.1335 -0.7210
  263MPD2    C1 4031   0.764   3.503  11.369 -0.3790 -0.5316 -0.1927
  263MPD2    C2 4032   0.804   3.620  11.311  0.1323  0.2558 -0.3825
  263MPD2    C3 4033   0.760   3.659  11.186 -0.0942  0.4833  0.7445
  263MPD2    C4 4034   0.676   3.568  11.122  0.1071  0.0628  1.1704
  263MPD2    C5 4035   0.632   3.449  11.181 -0.0646  0.4187 -0.8168
  263MPD2     H 4036   0.870   3.688  11.364 -0.6393  1.4018 -0.8852
  263MPD2    H1 4037   0.630   3.569  11.024  0.8506  1.9354  0.8469
  263MPD2    H2 4038   0.657   3.318  11.341 -0.9795  0.4345  0.3358
  263MPD2    H3 4039   0.574   3.376  11.125  1.2385 -1.9214  0.8893
  263MPD2     N 4040   0.800   3.786  11.139  0.2568  0.3768 -0.2834
  263MPD2    H5 4041   0.850   3.840  11.210  0.5230 -0.2534  0.0123
  263MPD2    N1 4042   0.795   3.468  11.506  0.0570  0.6174 -0.1639
  263MPD2    H7 4043   0.778   3.370  11.525  1.5337  0.1985 -1.0480
  264TMC3    C1 4044   0.831   3.961  10.974 -0.3749  0.3732  0.3677
  264TMC3    C2 4045   0.884   4.045  11.078 -0.3015  0.4489  0.1556
  264TMC3    C3 4046   0.925   4.168  11.036  0.0037 -0.7561  0.3992
  264TMC3    C4 4047   0.832   3.992  10.838  0.2129  0.1040 -0.0910
  264TMC3    C5 4048   0.889   4.112  10.804  0.4094  0.3562  0.0707
  264TMC3    C6 4049   0.940   4.199  10.901 -0.7483  0.1203  0.2565
  264TMC3     C 4050   0.767   3.834  11.015  0.8853 -0.2505  1.3661
  264TMC3     O 4051   0.714   3.773  10.922 -0.2982  0.2484  0.5676
  264TMC3     H 4052   0.871   4.031  11.184 -0.1934  0.7097  0.2010
  264TMC3    H1 4053   0.778   3.935  10.764  0.0423 -1.9683  1.6103
  264TMC3    H2 4054   0.989   4.293  10.878 -1.5985  0.3063 -0.7435
  264TMC3    C7 4055   0.979   4.087  10.694  0.2000  0.0718 -0.2638
  264TMC3    C8 4056   1.044   4.215  11.112 -0.8803 -0.5485  0.1601
  264TMC3    O1 4057   0.938   4.051  10.587 -0.4352  0.1290 -0.4527
  264TMC3    O2 4058   1.143   4.242  11.049 -0.5574  0.2275  0.4061
  265MPD2     C 4059   2.944   3.825  15.465 -0.5549  0.0396  0.5518
  265MPD2    C1 4060   2.987   3.934  15.380  0.1176 -0.3334 -0.5114
  265MPD2    C2 4061   3.075   3.903  15.276  0.1275 -0.3332 -0.6025
  265MPD2    C3 4062   3.127   3.772  15.258 -0.0245 -0.1383  0.2530
  265MPD2    C4 4063   3.083   3.676  15.342 -0.0029 -0.2881  0.5698
  265MPD2    C5 4064   2.997   3.698  15.442 -0.4205 -0.1004 -0.0932
  265MPD2     H 4065   3.103   3.990  15.218 -4.3217 -0.0541 -2.3311
  265MPD2    H1 4066   3.114   3.575  15.316 -0.7715 -0.6712  1.1558
  265MPD2    H2 4067   2.874   3.835  15.546 -1.1238  1.4914 -0.1167
  265MPD2    H3 4068   2.972   3.615  15.507  0.2901 -0.1986  0.0621
  265MPD2     N 4069   3.215   3.742  15.161  0.0575  0.3337 -0.3503
  265MPD2    H5 4070   3.259   3.652  15.172  1.0466  0.8908  0.2173
  265MPD2    N1 4071   2.950   4.070  15.416  0.1564 -0.8659  0.0386
  265MPD2    H7 4072   2.997   4.140  15.359 -1.1322  2.2618  2.8564
  266TMC3    C1 4073   2.849   4.260  15.523  0.6229  0.0871  0.7404
  266TMC3    C2 4074   2.798   4.311  15.640  0.1887 -0.0940 -0.0649
  266TMC3    C3 4075   2.785   4.445  15.647 -0.1334  0.8027 -0.8813
  266TMC3    C4 4076   2.878   4.345  15.416  0.4695 -0.0169 -0.3794
  266TMC3    C5 4077   2.853   4.479  15.426 -0.0977 -0.4352 -0.4900
  266TMC3    C6 4078   2.797   4.531  15.541 -1.1749  0.1186 -0.3927
  266TMC3     C 4079   2.870   4.110  15.522 -0.3122  0.3949 -0.2835
  266TMC3     O 4080   2.821   4.046  15.609  0.0137  0.3655  0.2099
  266TMC3     H 4081   2.767   4.247  15.722  1.5792 -0.3059  0.2834
  266TMC3    H1 4082   2.912   4.304  15.322 -2.1751 -1.0306 -0.9071
  266TMC3    H2 4083   2.750   4.629  15.547  0.7579  1.1404 -2.0279
  266TMC3    C7 4084   2.822   4.549  15.298  0.5534 -0.4445  0.0205
  266TMC3    C8 4085   2.695   4.491  15.758  0.2480 -0.5288 -0.7162
  266TMC3    O1 4086   2.818   4.476  15.198  0.0191 -0.4325 -0.5852
  266TMC3    O2 4087   2.618   4.411  15.811 -0.0172  0.2116 -0.2247
  267MPD2     C 4088   4.414   1.309   0.853  0.1647  0.4564  0.4562
  267MPD2    C1 4089   4.440   1.296   0.720 -0.1643  0.2041 -0.5127
  267MPD2    C2 4090   4.391   1.392   0.630 -0.0003 -0.0118 -0.5331
  267MPD2    C3 4091   4.310   1.496   0.681  0.4219 -0.1743 -0.3208
  267MPD2    C4 4092   4.278   1.498   0.819 -0.0883  0.3222  0.2377
  267MPD2    C5 4093   4.339   1.414   0.906  0.0261  0.0175 -0.0387
  267MPD2     H 4094   4.410   1.387   0.523 -1.1835 -0.3719 -0.7180
  267MPD2    H1 4095   4.216   1.573   0.866  0.4116  0.9961 -0.1701
  267MPD2    H2 4096   4.443   1.246   0.936 -0.4862  0.6269  0.8191
  267MPD2    H3 4097   4.321   1.439   1.010  1.8161  0.5475  0.1396
  267MPD2     N 4098   4.247   1.595   0.607  0.0159 -0.4697 -0.3316
  267MPD2    H5 4099   4.192   1.666   0.655 -2.6457 -3.0002  0.3299
  267MPD2    N1 4100   4.520   1.190   0.673  0.5650  0.5452  0.1076
  267MPD2    H7 4101   4.564   1.131   0.743 -0.5899 -1.0095 -0.4804
  268TMC3    C1 4102   4.698   1.104   0.538 -0.1856  0.1133 -0.0587
  268TMC3    C2 4103   0.048   1.122   0.431  0.5922  0.1956 -0.1191
  268TMC3    C3 4104   0.171   1.072   0.435  0.3172  0.1715  0.3442
  268TMC3    C4 4105   0.004   1.020   0.641 -0.0225  0.0296  0.1672
  268TMC3    C5 4106   0.127   0.961   0.637  0.7146 -0.0317  0.1724
  268TMC3    C6 4107   0.214   0.994   0.539  0.4882 -0.4378 -0.2254
  268TMC3     C 4108   4.572   1.179   0.546 -0.5301  0.5702  0.0862
  268TMC3     O 4109   4.535   1.241   0.450 -0.4592  0.0615  0.1135
  268TMC3     H 4110   0.012   1.192   0.357 -1.0032  0.6917  1.1387
  268TMC3    H1 4111   4.657   0.978   0.697 -0.7181 -0.3288 -1.1264
  268TMC3    H2 4112   0.315   0.957   0.529  1.1466  1.8018 -2.1249
  268TMC3    C7 4113   0.167   0.854   0.726 -0.3812 -0.5559  0.2536
  268TMC3    C8 4114   0.274   1.146   0.360  1.1509 -0.3366 -0.1454
  268TMC3    O1 4115   0.285   0.819   0.734 -0.1401 -0.0480 -0.4136
  268TMC3    O2 4116   0.392   1.137   0.394 -0.1564 -0.1037 -0.1542
  269MPD2     C 4117   0.910   0.252  15.358 -1.0128 -0.3394  0.0236
  269MPD2    C1 4118   0.807   0.267  15.448 -0.0203  0.1899 -0.5999
  269MPD2    C2 4119   0.782   0.395  15.499  0.3445 -0.7032  0.4925
  269MPD2    C3 4120   0.866   0.499  15.461 -0.0056 -0.1294  0.8716
  269MPD2    C4 4121   0.953   0.478  15.361 -0.3376  0.9698  0.7416
  269MPD2    C5 4122   0.980   0.356  15.305 -0.2502  0.1097  0.4769
  269MPD2     H 4123   0.712   0.386  15.581 -2.9350 -2.5579 -2.5457
  269MPD2    H1 4124   1.017   0.559  15.326  0.9585  0.8858  2.8589
  269MPD2    H2 4125   0.933   0.157  15.312  0.7823  0.3532 -0.4938
  269MPD2    H3 4126   1.050   0.334  15.225 -0.8905  0.1707 -0.1051
  269MPD2     N 4127   0.850   0.621  15.528 -0.3862 -0.4180 -0.0105
  269MPD2    H5 4128   0.768   0.621  15.587  0.1441 -1.4687  0.7295
  269MPD2    N1 4129   0.725   0.154  15.469  0.3180  0.2408  0.4137
  269MPD2    H7 4130   0.765   0.069  15.431 -3.5497 -1.0502 -0.7617
  270TMC3    C1 4131   0.537   0.027  15.528 -0.3189 -0.5181  0.5252
  270TMC3    C2 4132   0.434   4.728  15.435  0.3664  0.4295 -0.4352
  270TMC3    C3 4133   0.410   4.596  15.419  0.0517 -0.5498 -0.6516
  270TMC3    C4 4134   0.596   4.672  15.609  0.7955  0.2240 -0.2750
  270TMC3    C5 4135   0.562   4.539  15.594  0.2946  0.9068 -0.0525
  270TMC3    C6 4136   0.457   4.506  15.513  0.1037 -0.6627  0.3185
  270TMC3     C 4137   0.592   0.159  15.507  0.6203  0.4004 -0.3939
  270TMC3     O 4138   0.519   0.259  15.487  0.0304  0.4763 -1.4718
  270TMC3     H 4139   0.411   0.068  15.361 -1.8469 -1.9399 -2.1557
  270TMC3    H1 4140   0.672   4.705  15.679  1.8032 -0.2022 -1.1679
  270TMC3    H2 4141   0.444   4.399  15.500 -1.6507 -0.1924 -1.7755
  270TMC3    C7 4142   0.675   4.450  15.578  0.7082  0.5724 -0.1900
  270TMC3    C8 4143   0.402   4.547  15.285 -0.6008 -0.6203  0.1686
  270TMC3    O1 4144   0.731   4.409  15.681 -0.2909 -0.3823  0.1941
  270TMC3    O2 4145   0.448   4.439  15.274 -0.0844  0.0736 -0.4943
  271MPD2     C 4146   4.685   4.072  13.861 -0.1164 -0.1575 -0.0550
  271MPD2    C1 4147   4.673   4.172  13.955 -0.8338  0.9064  0.2840
  271MPD2    C2 4148   4.585   4.281  13.937 -0.1282  0.3488  0.1592
  271MPD2    C3 4149   4.509   4.291  13.820  0.0080  0.7843 -0.4993
  271MPD2    C4 4150   4.514   4.180  13.735  0.2342  0.4710 -0.2411
  271MPD2    C5 4151   4.595   4.069  13.759  0.1425  0.0337  0.3573
  271MPD2     H 4152   4.577   4.357  14.014  0.0216 -0.9195  1.4192
  271MPD2    H1 4153   4.447   4.182  13.650 -0.7391 -0.1189  0.5031
  271MPD2    H2 4154   0.032   4.001  13.858  1.0513  1.2115 -0.4665
  271MPD2    H3 4155   4.583   3.984  13.693  0.8632  0.5934 -0.5072
  271MPD2     N 4156   4.434   4.404  13.777 -0.1254 -0.1255 -0.3412
  271MPD2    H5 4157   4.379   4.390  13.693  0.5201  0.1505 -0.7996
  271MPD2    N1 4158   0.043   4.204  14.042  0.0049  1.3151  0.0819
  271MPD2    H7 4159   0.051   4.301  14.070 -1.1517  1.4713 -0.0981
  272TMC3    C1 4160   0.268   4.182  14.124 -0.6560 -0.4077 -0.1503
  272TMC3    C2 4161   0.367   4.100  14.180  0.3809  0.5960 -0.2147
  272TMC3    C3 4162   0.484   4.157  14.212 -0.2242  1.2286  0.1509
  272TMC3    C4 4163   0.291   4.311  14.082  0.1505  0.1220 -0.1907
  272TMC3    C5 4164   0.413   4.361  14.113  0.4158 -0.0521  0.5912
  272TMC3    C6 4165   0.514   4.288  14.173 -0.3296  0.1122  0.2737
  272TMC3     C 4166   0.144   4.116  14.080  0.0445  0.2660  0.0273
  272TMC3     O 4167   0.151   4.000  14.065  0.4405 -0.2075 -0.4078
  272TMC3     H 4168   0.359   3.992  14.187 -0.2507  0.8625  3.1790
  272TMC3    H1 4169   0.214   4.374  14.039  0.8389  1.1966  0.1555
  272TMC3    H2 4170   0.613   4.328  14.190  0.4188 -0.8228 -1.9178
  272TMC3    C7 4171   0.402   4.502  14.141  0.4255  0.0925  0.2547
  272TMC3    C8 4172   0.584   4.085  14.289 -0.2491 -0.1709 -0.4487
  272TMC3    O1 4173   0.318   4.561  14.081  0.1041  0.2802  0.1140
  272TMC3    O2 4174   0.699   4.118  14.257 -0.2180 -0.0429 -0.0817
  273MPD2     C 4175   1.037   2.271  11.541 -0.6404  0.4997 -0.0270
  273MPD2    C1 4176   1.161   2.340  11.563  0.1225 -0.1277 -0.2329
  273MPD2    C2 4177   1.226   2.402  11.460  0.6237 -0.4871  0.1784
  273MPD2    C3 4178   1.158   2.413  11.336  1.2720 -0.4215  0.7039
  273MPD2    C4 4179   1.039   2.351  11.318  0.7876 -0.4481  0.0705
  273MPD2    C5 4180   0.981   2.281  11.422  0.9220 -0.2170  0.2637
  273MPD2     H 4181   1.321   2.452  11.477  1.1931 -1.7140  0.6154
  273MPD2    H1 4182   0.992   2.355  11.221  0.6540  2.2686  0.2447
  273MPD2    H2 4183   0.980   2.227  11.622 -2.0849  0.9707 -0.7831
  273MPD2    H3 4184   0.883   2.237  11.414  0.7238  0.1738  0.5331
  273MPD2     N 4185   1.205   2.488  11.226  0.7259 -0.5641  0.0616
  273MPD2    H5 4186   1.143   2.511  11.150 -1.3033  1.2589  2.2586
  273MPD2    N1 4187   1.232   2.324  11.680 -0.1645  0.2380  0.2963
  273MPD2    H7 4188   1.329   2.356  11.686 -0.1644  0.0540  1.2792
  274TMC3    C1 4189   1.345   2.632  11.094  0.0075  0.0413  0.0330
  274TMC3    C2 4190   1.238   2.634  11.008  0.0138  0.0703  0.6093
  274TMC3    C3 4191   1.216   2.754  10.946  0.2310  0.0434  0.5467
  274TMC3    C4 4192   1.426   2.743  11.113 -0.1650 -0.4037 -0.0630
  274TMC3    C5 4193   1.389   2.860  11.056  1.0478  0.1680 -0.2807
  274TMC3    C6 4194   1.287   2.869  10.962  0.2334 -0.3188  0.0693
  274TMC3     C 4195   1.336   2.548  11.214  0.3046 -0.0461 -0.2592
  274TMC3     O 4196   1.432   2.542  11.287  0.6008 -0.3093 -0.2876
  274TMC3     H 4197   1.183   2.543  10.986  0.8955 -0.3507  0.1611
  274TMC3    H1 4198   1.495   2.741  11.197  1.5033 -0.7232 -1.4394
  274TMC3    H2 4199   1.246   2.963  10.927  0.6535  0.3148  1.2884
  274TMC3    C7 4200   1.406   2.985  11.139  0.4152 -0.3010 -1.1692
  274TMC3    C8 4201   1.116   2.774  10.843 -0.9741  0.1519 -0.5040
  274TMC3    O1 4202   1.314   3.066  11.128  0.0081 -0.0091  0.5577
  274TMC3    O2 4203   1.118   2.879  10.782 -0.4859 -0.5740  0.6417
  275MPD2     C 4204   1.357   1.077  14.445 -0.4379  0.1227 -0.0274
  275MPD2    C1 4205   1.285   1.031  14.552  0.4728 -0.2389  0.0959
  275MPD2    C2 4206   1.191   0.938  14.528  0.1067 -0.3369 -0.4642
  275MPD2    C3 4207   1.163   0.884  14.402 -0.1953  0.1103  0.2634
  275MPD2    C4 4208   1.244   0.933  14.296  0.6172 -0.2485 -0.1149
  275MPD2    C5 4209   1.340   1.024  14.321 -0.9709 -0.7345  0.1543
  275MPD2     H 4210   1.132   0.901  14.611 -0.7511 -0.7447 -1.2667
  275MPD2    H1 4211   1.232   0.896  14.194  2.1003 -2.2829  0.4640
  275MPD2    H2 4212   1.442   1.140  14.465  0.6591 -1.6006  0.7352
  275MPD2    H3 4213   1.405   1.069  14.247 -2.4354 -0.6041 -1.0411
  275MPD2     N 4214   1.063   0.791  14.372 -1.1520  0.2411 -0.3160
  275MPD2    H5 4215   1.063   0.735  14.287 -4.2822 -1.4325  0.7796
  275MPD2    N1 4216   1.310   1.069  14.683 -0.2927 -0.0316 -0.3532
  275MPD2    H7 4217   1.257   1.024  14.756  1.5569 -1.3980  0.1400
  276TMC3    C1 4218   1.431   1.151  14.865 -0.0618  0.0278  0.1848
  276TMC3    C2 4219   1.412   1.033  14.932 -0.2417  0.2730  0.3711
  276TMC3    C3 4220   1.427   1.041  15.066  0.5806 -0.4155  1.0290
  276TMC3    C4 4221   1.459   1.269  14.924 -0.2801 -0.5178  0.3019
  276TMC3    C5 4222   1.462   1.272  15.057  0.3344 -0.3182  0.3092
  276TMC3    C6 4223   1.444   1.159  15.128  0.1137 -0.8501  0.8947
  276TMC3     C 4224   1.407   1.162  14.721 -0.2819 -0.1908 -0.3402
  276TMC3     O 4225   1.440   1.260  14.654 -0.4548  0.2419 -0.3617
  276TMC3     H 4226   1.390   0.941  14.880 -0.0340 -0.7634  2.1084
  276TMC3    H1 4227   1.479   1.350  14.853 -0.6450 -1.8732 -1.3456
  276TMC3    H2 4228   1.426   1.153  15.234 -0.3888  1.0876  0.9084
  276TMC3    C7 4229   1.517   1.395  15.121  0.9201  0.0222  0.2913
  276TMC3    C8 4230   1.384   0.928  15.152  0.2155 -0.8440 -0.3207
  276TMC3    O1 4231   1.535   1.492  15.047 -0.2121 -0.2945 -0.1466
  276TMC3    O2 4232   1.308   0.949  15.244 -0.2406  0.3077  0.1753
  277MPD2     C 4233   3.429   4.450  13.100  0.2814 -0.3099  0.4365
  277MPD2    C1 4234   3.289   4.460  13.111  0.6467  0.0377  0.2540
  277MPD2    C2 4235   3.228   4.397  13.220 -0.2337  0.0777  0.6154
  277MPD2    C3 4236   3.306   4.328  13.313  0.3077  0.1255  0.1318
  277MPD2    C4 4237   3.445   4.318  13.300  0.3058 -0.1965 -0.5898
  277MPD2    C5 4238   3.499   4.375  13.191 -0.7230 -0.2377 -0.0571
  277MPD2     H 4239   3.120   4.388  13.222 -0.2778  0.5876  0.4548
  277MPD2    H1 4240   3.505   4.273  13.378  0.8444  0.5691 -0.5701
  277MPD2    H2 4241   3.486   4.498  13.022  0.1717 -1.7017 -0.5058
  277MPD2    H3 4242   3.607   4.367  13.180 -0.6670  0.6802 -0.1977
  277MPD2     N 4243   3.241   4.254  13.414  0.0914  0.0456 -0.0860
  277MPD2    H5 4244   3.145   4.272  13.439 -0.3929 -0.6495 -1.4565
  277MPD2    N1 4245   3.217   4.541  13.021 -0.3177  0.2538  0.1174
  277MPD2    H7 4246   3.276   4.603  12.966 -0.7026  0.4561 -0.0665
  278TMC3    C1 4247   3.196   4.111  13.594 -0.7402 -0.8140 -0.0028
  278TMC3    C2 4248   3.226   3.994  13.648  0.2484 -0.3249 -0.9776
  278TMC3    C3 4249   3.148   3.936  13.743 -0.2878  0.0556 -0.3321
  278TMC3    C4 4250   3.084   4.183  13.636  0.7963 -0.1750  0.5349
  278TMC3    C5 4251   3.018   4.133  13.747 -1.2979 -0.8999 -0.3327
  278TMC3    C6 4252   3.034   4.005  13.791 -0.0005 -0.3631  0.3486
  278TMC3     C 4253   3.292   4.157  13.497 -0.3225 -0.0548 -0.7784
  278TMC3     O 4254   3.407   4.104  13.510  0.6000 -0.0021 -0.0007
  278TMC3     H 4255   3.310   3.943  13.602  1.6615 -0.3725  1.6479
  278TMC3    H1 4256   3.063   4.279  13.592  2.3384 -0.7347 -1.4068
  278TMC3    H2 4257   2.988   3.973  13.884 -2.1523 -1.5658 -1.1374
  278TMC3    C7 4258   2.950   4.222  13.832  0.5061  0.3615 -0.8173
  278TMC3    C8 4259   3.172   3.798  13.771  0.3932  1.4431 -0.7007
  278TMC3    O1 4260   2.986   4.336  13.853  0.1799  0.1298 -0.3478
  278TMC3    O2 4261   3.277   3.755  13.729  0.6842  0.1568  0.1470
  279MPD2     C 4262   2.163   4.568  17.490 -0.4904  0.1486  0.2914
  279MPD2    C1 4263   2.098   4.449  17.482  0.7584  0.2910 -0.9950
  279MPD2    C2 4264   2.102   4.378  17.359 -0.7539  0.4757 -0.8652
  279MPD2    C3 4265   2.169   4.430  17.248  0.9363 -0.2223  0.3419
  279MPD2    C4 4266   2.232   4.550  17.257 -0.1807  0.6501  0.3323
  279MPD2    C5 4267   2.223   4.619  17.374 -0.4177  0.2581 -0.0410
  279MPD2     H 4268   2.064   4.277  17.352  1.2328 -0.2746 -0.5572
  279MPD2    H1 4269   2.278   4.596  17.171  0.7898  0.6509  0.8396
  279MPD2    H2 4270   2.175   4.627  17.580 -0.3159 -0.2550  0.5329
  279MPD2    H3 4271   2.268   4.718  17.379 -0.3418  0.2446 -0.5162
  279MPD2     N 4272   2.160   4.360  17.123 -0.5369  0.3776  0.1333
  279MPD2    H5 4273   2.217   4.398  17.049 -0.2349  0.1926  0.2711
  279MPD2    N1 4274   2.024   4.416  17.594  0.3475  0.5833 -0.4982
  279MPD2    H7 4275   1.999   4.488  17.661 -0.7332  0.5166 -0.8318
  280TMC3    C1 4276   1.816   4.305  17.635  0.9556 -0.0847 -0.8569
  280TMC3    C2 4277   1.736   4.222  17.559 -0.2474  0.3636 -0.0659
  280TMC3    C3 4278   1.615   4.272  17.517 -0.2385  0.0342  0.2994
  280TMC3    C4 4279   1.772   4.427  17.675  0.3900 -0.5398  0.1449
  280TMC3    C5 4280   1.658   4.478  17.626  0.2980  0.4431 -0.0803
  280TMC3    C6 4281   1.571   4.397  17.550 -0.2329  0.1365 -0.2064
  280TMC3     C 4282   1.955   4.298  17.597 -0.0414  0.9848 -0.5139
  280TMC3     O 4283   1.996   4.191  17.557 -0.1414  0.7655 -0.0108
  280TMC3     H 4284   1.766   4.122  17.530 -2.1919 -0.6872  1.4984
  280TMC3    H1 4285   1.836   4.489  17.737 -0.2281  0.4846 -0.2345
  280TMC3    H2 4286   1.481   4.424  17.497 -0.8249 -0.3330  0.5605
  280TMC3    C7 4287   1.653   4.624  17.626  0.1032  0.0458 -0.2260
  280TMC3    C8 4288   1.535   4.188  17.424 -0.3922 -0.6122 -0.0918
  280TMC3    O1 4289   1.756   4.687  17.653 -0.1808 -0.0987 -0.2183
  280TMC3    O2 4290   1.455   4.242  17.349 -0.2762 -0.0155  0.0301
  281TMC3    C1 4291   1.031   4.127  13.419  0.0892  0.8862 -0.0477
  281TMC3    C2 4292   1.099   4.157  13.303 -0.0360  0.9408  0.3338
  281TMC3    C3 4293   1.100   4.063  13.205  0.5865 -0.2133  0.8136
  281TMC3    C4 4294   0.970   4.008  13.444  0.4821  0.6311  0.2328
  281TMC3    C5 4295   0.968   3.914  13.344 -1.2902 -0.2707  0.3284
  281TMC3    C6 4296   1.040   3.939  13.229  0.4350  0.1199  0.1944
  281TMC3     C 4297   0.990   4.233  13.506 -0.1239  0.4248 -0.0250
  281TMC3     O 4298   0.979   4.201  13.623 -0.1137 -0.7956 -0.7300
  281TMC3     H 4299   1.143   4.255  13.287  0.9424  0.6314  1.1882
  281TMC3    H1 4300   0.894   3.995  13.521 -1.6434  0.1923 -1.9405
  281TMC3    H2 4301   1.045   3.854  13.161  0.6330  1.7605 -1.8441
  281TMC3    C7 4302   0.916   3.778  13.379 -0.3655 -0.0410 -0.0679
  281TMC3    C8 4303   1.221   4.050  13.129  0.6629  0.2386 -1.0681
  281TMC3    O1 4304   0.868   3.713  13.288  0.2000  0.1970 -0.2902
  281TMC3    O2 4305   1.279   3.941  13.135  0.2423 -0.1806 -0.0488
  282MPD2     C 4306   2.976   0.948  15.133  0.4982 -0.5367  0.3759
  282MPD2    C1 4307   2.865   1.031  15.127 -0.1977 -0.4771 -0.2794
  282MPD2    C2 4308   2.794   1.027  15.015  0.3443  0.2271 -0.8962
  282MPD2    C3 4309   2.817   0.951  14.906 -0.6050  0.2519  0.2241
  282MPD2    C4 4310   2.930   0.873  14.904  0.2888  0.9309 -0.5833
  282MPD2    C5 4311   3.003   0.866  15.024  0.5358 -0.5858  0.2312
  282MPD2     H 4312   2.703   1.086  15.025 -1.3749 -2.4289 -0.8026
  282MPD2    H1 4313   2.961   0.815  14.817 -0.7638 -0.9951  0.3134
  282MPD2    H2 4314   3.036   0.932  15.222  0.8228  1.5453  0.5282
  282MPD2    H3 4315   3.086   0.795  15.020 -0.9173 -2.1440 -2.1086
  282MPD2     N 4316   2.725   0.963  14.800  0.0515 -0.4517  0.5477
  282MPD2    H5 4317   2.652   1.034  14.802 -1.4891 -1.9748 -1.0874
  282MPD2    N1 4318   2.821   1.122  15.231  0.5026  0.2037  0.2505
  282MPD2    H7 4319   2.735   1.172  15.214  0.1230 -1.1313 -1.7459
  283TMC3    C1 4320   2.824   1.253  15.420 -0.4672  0.2299 -0.4789
  283TMC3    C2 4321   2.899   1.360  15.446 -0.0897 -0.3292  0.4965
  283TMC3    C3 4322   2.887   1.420  15.569  0.4078  0.1646  0.4046
  283TMC3    C4 4323   2.722   1.216  15.500  0.7915 -0.6788  0.0090
  283TMC3    C5 4324   2.708   1.272  15.619  0.2074  0.0669  0.1362
  283TMC3    C6 4325   2.791   1.374  15.656  0.1997  0.2001 -0.1114
  283TMC3     C 4326   2.893   1.159  15.340 -0.2895 -0.0584 -0.1770
  283TMC3     O 4327   3.012   1.154  15.357 -0.0459 -0.0107  0.5774
  283TMC3     H 4328   2.985   1.383  15.384 -0.2541 -2.5641 -0.5882
  283TMC3    H1 4329   2.660   1.132  15.468 -2.5194  1.3992  0.9917
  283TMC3    H2 4330   2.776   1.438  15.742 -0.1417 -0.9778  0.6968
  283TMC3    C7 4331   2.584   1.248  15.693  0.3563 -0.2996 -0.2621
  283TMC3    C8 4332   2.969   1.540  15.593  0.1944 -0.8536  0.4194
  283TMC3    O1 4333   2.582   1.267  15.812  0.2380 -0.5119  0.2167
  283TMC3    O2 4334   3.029   1.548  15.698 -0.1016  0.3310 -0.0861
  284MPD2     C 4335   1.017   0.588  11.753  0.2237  0.4057 -0.1580
  284MPD2    C1 4336   1.153   0.601  11.783 -0.1036  0.6288 -0.3630
  284MPD2    C2 4337   1.199   0.524  11.881  0.4261 -1.0091 -0.3490
  284MPD2    C3 4338   1.117   0.446  11.964  0.0912  1.0862 -0.2600
  284MPD2    C4 4339   0.987   0.426  11.927 -0.3749  0.1586 -1.1866
  284MPD2    C5 4340   0.944   0.494  11.817  0.2098 -0.1529  0.9330
  284MPD2     H 4341   1.304   0.540  11.904 -0.7743  4.0977  1.5928
  284MPD2    H1 4342   0.922   0.358  11.980  0.9931 -0.9328 -0.8886
  284MPD2    H2 4343   0.975   0.653  11.678  1.3969 -0.7829 -1.8267
  284MPD2    H3 4344   0.838   0.489  11.799  0.4737  0.3723 -0.7249
  284MPD2     N 4345   1.166   0.389  12.089  0.0154  0.2164  0.1303
  284MPD2    H5 4346   1.109   0.342  12.158 -0.3902 -0.4741 -0.6727
  284MPD2    N1 4347   1.238   0.680  11.703 -0.8762 -0.0897 -0.6468
  284MPD2    H7 4348   1.339   0.681  11.715 -1.1102 -3.1212  1.7632
  285TMC3    C1 4349   1.322   0.784  11.504 -0.8297  0.0203  0.0390
  285TMC3    C2 4350   1.417   0.687  11.476 -0.1933 -0.3506 -0.2086
  285TMC3    C3 4351   1.536   0.720  11.406 -0.2869  0.1749  0.3945
  285TMC3    C4 4352   1.335   0.908  11.433  0.1388 -0.2941  0.0438
  285TMC3    C5 4353   1.448   0.932  11.356  0.2119 -0.5837  0.7875
  285TMC3    C6 4354   1.552   0.840  11.348 -0.3909  0.2617  0.5850
  285TMC3     C 4355   1.212   0.763  11.599  0.3265 -0.2000  0.2724
  285TMC3     O 4356   1.107   0.821  11.570  0.1481 -0.0899 -0.2669
  285TMC3     H 4357   1.405   0.596  11.534 -1.0925 -1.2627 -1.8300
  285TMC3    H1 4358   1.260   0.981  11.458 -1.1521 -1.8922  0.8609
  285TMC3    H2 4359   1.629   0.859  11.274  1.1789 -2.0447  1.6142
  285TMC3    C7 4360   1.463   1.064  11.297  0.5689  0.0286  0.3212
  285TMC3    C8 4361   1.616   0.602  11.375  0.7742  0.4619  0.8371
  285TMC3    O1 4362   1.573   1.092  11.254  0.8619  0.1742 -0.2095
  285TMC3    O2 4363   1.554   0.499  11.395 -0.3448  0.7319  0.2644
  286MPD2     C 4364   1.255   3.691   1.529  0.4603  0.9678 -0.3585
  286MPD2    C1 4365   1.197   3.639   1.417  0.1909 -0.3859 -0.6311
  286MPD2    C2 4366   1.227   3.509   1.379  0.6254  0.2866  0.5308
  286MPD2    C3 4367   1.314   3.428   1.447  0.2524 -0.1602  0.0449
  286MPD2    C4 4368   1.362   3.486   1.563  0.1866 -0.2137 -0.7330
  286MPD2    C5 4369   1.347   3.616   1.596  0.0967  0.0236  0.3341
  286MPD2     H 4370   1.206   3.488   1.275  2.2396  0.0500  0.2482
  286MPD2    H1 4371   1.428   3.430   1.628  0.2939  2.4064  1.4462
  286MPD2    H2 4372   1.228   3.787   1.571 -0.6933  1.4744 -2.2043
  286MPD2    H3 4373   1.409   3.655   1.676 -0.1639  0.1782  0.4639
  286MPD2     N 4374   1.358   3.300   1.410  0.6284  0.2473  0.3596
  286MPD2    H5 4375   1.428   3.253   1.465 -0.0226 -1.5599 -0.3430
  286MPD2    N1 4376   1.118   3.722   1.329 -0.0196  0.2638 -0.0546
  286MPD2    H7 4377   1.092   3.675   1.243 -2.6081  0.3732  0.6635
  287TMC3    C1 4378   1.445   3.164   1.242 -0.9676 -0.3002 -0.2594
  287TMC3    C2 4379   1.417   3.078   1.139  0.3173 -0.3856 -0.0536
  287TMC3    C3 4380   1.524   3.032   1.077 -0.4232 -0.0383  0.2643
  287TMC3    C4 4381   1.569   3.203   1.266  0.0814  0.0670 -0.3151
  287TMC3    C5 4382   1.674   3.138   1.217 -0.6535 -0.4551 -0.5619
  287TMC3    C6 4383   1.655   3.060   1.108 -0.0485  0.4219 -0.3019
  287TMC3     C 4384   1.343   3.246   1.284  0.2544  0.2042  0.2993
  287TMC3     O 4385   1.274   3.278   1.186 -0.0951  0.8650  0.2124
  287TMC3     H 4386   1.314   3.051   1.119 -0.1486  1.1900  0.2506
  287TMC3    H1 4387   1.583   3.274   1.347  0.4178  0.1247 -0.4264
  287TMC3    H2 4388   1.740   3.003   1.071 -0.9391 -0.9731 -0.1441
  287TMC3    C7 4389   1.799   3.213   1.235 -0.0277 -0.1323 -0.4018
  287TMC3    C8 4390   1.489   2.967   0.954  0.1447  0.1512  0.3180
  287TMC3    O1 4391   1.801   3.301   1.323 -0.0238  0.3045 -0.0281
  287TMC3    O2 4392   1.366   2.937   0.943 -0.0515  0.1301  0.1813
  288TMC3    C1 4393   3.206   3.137  14.709 -0.1377  0.1424  0.7356
  288TMC3    C2 4394   3.113   3.161  14.806 -0.2972  0.3782 -0.5890
  288TMC3    C3 4395   3.102   3.293  14.835 -0.2587  0.2189 -0.1300
  288TMC3    C4 4396   3.283   3.227  14.646 -0.4244 -0.3127 -0.1741
  288TMC3    C5 4397   3.263   3.360  14.676 -0.0960 -0.0565 -0.3456
  288TMC3    C6 4398   3.179   3.393  14.776  0.1105  0.4155  0.6271
  288TMC3     C 4399   3.245   3.003  14.694 -0.0400 -0.4781  0.1156
  288TMC3     O 4400   3.163   2.916  14.711  0.0014  0.0612 -0.4528
  288TMC3     H 4401   3.063   3.079  14.858  0.8070 -1.7592 -2.9242
  288TMC3    H1 4402   3.342   3.205  14.557  0.0960  1.5127 -0.2827
  288TMC3    H2 4403   3.171   3.494  14.815 -1.5111  0.9654 -1.1282
  288TMC3    C7 4404   3.334   3.471  14.616  0.0542  0.1952 -0.7965
  288TMC3    C8 4405   3.035   3.328  14.954 -0.1503 -0.1264 -0.3141
  288TMC3    O1 4406   3.440   3.443  14.565 -0.0090  0.1293  0.5345
  288TMC3    O2 4407   3.100   3.405  15.027 -0.1599 -0.0515 -0.0046
  289MPD2     C 4408   3.345   3.081  14.308  0.3972 -0.0733  0.7093
  289MPD2    C1 4409   3.255   3.181  14.280 -0.5476  0.1674 -0.2804
  289MPD2    C2 4410   3.128   3.155  14.246  0.6723 -0.4033 -0.7124
  289MPD2    C3 4411   3.083   3.024  14.251  0.0607 -0.6076 -0.4784
  289MPD2    C4 4412   3.171   2.934  14.304 -0.2672  0.1667 -0.0566
  289MPD2    C5 4413   3.305   2.951  14.314 -0.1385 -0.7472 -0.6539
  289MPD2     H 4414   3.065   3.231  14.202 -0.6722 -0.0366  1.8741
  289MPD2    H1 4415   3.134   2.836  14.331  0.5038 -0.1793 -0.2763
  289MPD2    H2 4416   3.445   3.106  14.342  0.2167  0.6505  0.7024
  289MPD2    H3 4417   3.366   2.864  14.336  1.4778 -0.0027 -2.1504
  289MPD2     N 4418   2.951   2.984  14.233  0.2600 -0.0996 -0.0146
  289MPD2    H5 4419   2.930   2.886  14.248  2.9579 -0.5345  0.7429
  289MPD2    N1 4420   3.305   3.311  14.258  0.3762 -0.0104 -0.6229
  289MPD2    H7 4421   3.405   3.323  14.260  0.1914  1.7284 -2.0817
  290TMC3    C1 4422   2.711   3.015  14.227  0.4605 -0.2003 -0.0682
  290TMC3    C2 4423   2.604   3.105  14.242  0.7777  0.1355  0.2234
  290TMC3    C3 4424   2.474   3.067  14.205 -0.4177 -0.0788  0.0774
  290TMC3    C4 4425   2.687   2.892  14.181  0.1376  0.1203  0.2251
  290TMC3    C5 4426   2.561   2.858  14.140  0.1290 -0.0398 -0.1115
  290TMC3    C6 4427   2.451   2.940  14.162 -0.4846  0.2225  0.3691
  290TMC3     C 4428   2.844   3.078  14.228  0.6107  0.2657  0.3649
  290TMC3     O 4429   2.842   3.198  14.236  0.3360  0.1059 -0.2808
  290TMC3     H 4430   2.619   3.197  14.296  2.5698 -1.0005  1.6327
  290TMC3    H1 4431   2.769   2.824  14.159  0.6914  1.1312 -0.8177
  290TMC3    H2 4432   2.352   2.901  14.142  0.0936 -0.8972 -0.3081
  290TMC3    C7 4433   2.537   2.726  14.091 -0.1829  0.3860  0.0765
  290TMC3    C8 4434   2.363   3.155  14.216  0.1486  0.0192  0.1219
  290TMC3    O1 4435   2.621   2.639  14.117  0.3956 -0.8577 -0.2632
  290TMC3    O2 4436   2.251   3.104  14.217  0.0543  0.3559  0.6216
  291MPD2     C 4437   1.725   2.952  17.567 -0.4496  0.1648 -0.8038
  291MPD2    C1 4438   1.792   2.843  17.636  0.0407  0.4051 -0.4108
  291MPD2    C2 4439   1.918   2.856  17.681  0.3263 -0.2658 -0.2131
  291MPD2    C3 4440   1.972   2.982  17.682 -0.0837  0.0073  0.2407
  291MPD2    C4 4441   1.917   3.079  17.596 -0.2105 -0.0310 -0.0138
  291MPD2    C5 4442   1.797   3.060  17.536 -0.4258 -0.0333  0.0828
  291MPD2     H 4443   1.961   2.778   0.002 -1.6163 -0.1038  1.3559
  291MPD2    H1 4444   1.966   3.174  17.581 -0.4263  0.0435 -0.2317
  291MPD2    H2 4445   1.625   2.956  17.524 -1.0186 -0.7661  0.4243
  291MPD2    H3 4446   1.753   3.144  17.484 -0.5886  0.6102  1.2579
  291MPD2     N 4447   2.091   3.019   0.017 -0.0091  1.1358 -0.6983
  291MPD2    H5 4448   2.134   3.109   0.001  1.1219  0.8886  0.9898
  291MPD2    N1 4449   1.733   2.718  17.637  0.3618  0.1263 -0.5642
  291MPD2    H7 4450   1.777   2.636  17.677 -0.6201 -0.1238  0.0048
  292TMC3    C1 4451   1.557   2.562  17.643  0.0736  0.2284  1.0076
  292TMC3    C2 4452   1.434   2.550  17.699  0.0537 -0.1979  0.0137
  292TMC3    C3 4453   1.393   2.421  17.733 -0.2264  0.6776 -0.4649
  292TMC3    C4 4454   1.629   2.447  17.610 -0.2872  0.0223  0.3901
  292TMC3    C5 4455   1.583   2.325  17.636  0.4328  0.1944 -0.3257
  292TMC3    C6 4456   1.462   2.308  17.702 -0.1513  0.3480  0.5484
  292TMC3     C 4457   1.603   2.698  17.607  0.4530  0.9865 -1.3462
  292TMC3     O 4458   1.511   2.769  17.566 -0.0495  0.3734  0.2612
  292TMC3     H 4459   1.384   2.635   0.005  1.6506  0.3839  0.6844
  292TMC3    H1 4460   1.728   2.471  17.573  0.1688  0.8074  2.1545
  292TMC3    H2 4461   1.409   2.216  17.682  2.1811 -0.7131 -0.8037
  292TMC3    C7 4462   1.634   2.201  17.572 -0.3020  0.2798 -0.7256
  292TMC3    C8 4463   1.250   2.411   0.014 -0.2427  0.1370 -0.0074
  292TMC3    O1 4464   1.594   2.099  17.626  0.2905  0.2224 -0.0525
  292TMC3    O2 4465   1.175   2.505  17.720 -0.1010 -0.3379 -0.4094
  293MPD2     C 4466   3.876   4.205  12.505  0.4058  0.6009 -0.0408
  293MPD2    C1 4467   3.837   4.112  12.593  0.0223 -0.3245 -0.1021
  293MPD2    C2 4468   3.931   4.075  12.693 -0.4606 -1.2565 -0.3283
  293MPD2    C3 4469   4.056   4.131  12.705  0.6829 -0.0412 -0.4952
  293MPD2    C4 4470   4.090   4.230  12.612  0.5998  0.1432 -0.1140
  293MPD2    C5 4471   4.005   4.266  12.511  0.3384  0.9814 -0.6234
  293MPD2     H 4472   3.906   4.003  12.770  1.0471 -2.4161 -0.9202
  293MPD2    H1 4473   4.187   4.278  12.604  1.4142 -1.1985  1.5694
  293MPD2    H2 4474   3.810   4.228  12.422  1.1259 -1.2499 -1.1425
  293MPD2    H3 4475   4.024   4.351  12.446  1.8108  3.0501  2.5318
  293MPD2     N 4476   4.144   4.092  12.814  0.8365  0.4168  0.3527
  293MPD2    H5 4477   4.102   4.026  12.879  0.0576  1.1786  0.6292
  293MPD2    N1 4478   3.706   4.061  12.587 -0.0943 -0.9145  0.6618
  293MPD2    H7 4479   3.651   4.102  12.512 -1.3120 -0.8513  1.6008
  294TMC3    C1 4480   3.514   3.945  12.627  0.0025 -0.0999  0.6511
  294TMC3    C2 4481   3.458   3.826  12.663  0.4797 -0.7573 -0.4460
  294TMC3    C3 4482   3.322   3.815  12.651  0.0586 -0.3930  0.1681
  294TMC3    C4 4483   3.440   4.054  12.586  0.5816  0.4135 -0.3498
  294TMC3    C5 4484   3.306   4.037  12.570 -0.5209  0.2755  1.0888
  294TMC3    C6 4485   3.239   3.920  12.603 -0.5634  0.1039  0.3257
  294TMC3     C 4486   3.655   3.963  12.660 -0.2174 -0.8146  0.9778
  294TMC3     O 4487   3.710   3.883  12.738 -0.1087 -0.5979 -0.6651
  294TMC3     H 4488   3.518   3.736  12.675  2.4891  0.2416 -2.8928
  294TMC3    H1 4489   3.479   4.154  12.572  0.6127  0.5040  0.3722
  294TMC3    H2 4490   3.135   3.907  12.576 -0.6051 -1.4824  1.2488
  294TMC3    C7 4491   3.242   4.126  12.478  0.3844 -0.3192 -0.4270
  294TMC3    C8 4492   3.271   3.687  12.617  0.2984 -0.3226  0.1490
  294TMC3    O1 4493   3.118   4.111  12.479 -0.4441  0.4019  0.3088
  294TMC3    O2 4494   3.349   3.603  12.571 -0.5727  0.1101 -0.3162
  295MPD2     C 4495   0.120   2.922   1.229 -0.1421  0.2612 -0.4372
  295MPD2    C1 4496   0.039   2.815   1.207  0.5286 -0.1946  1.1156
  295MPD2    C2 4497   4.714   2.765   1.322 -0.1092  0.4015 -0.5389
  295MPD2    C3 4498   4.719   2.834   1.444 -0.4086 -1.0631 -0.5306
  295MPD2    C4 4499   0.083   2.926   1.465 -0.3927  0.8837  0.4082
  295MPD2    C5 4500   0.142   2.976   1.353  0.1871 -0.1662  0.0140
  295MPD2     H 4501   4.654   2.674   1.318  1.2595 -0.5372  0.1577
  295MPD2    H1 4502   0.089   2.971   1.564  0.2830 -0.0414  0.7846
  295MPD2    H2 4503   0.163   2.972   1.143  1.5910 -1.2395 -0.4311
  295MPD2    H3 4504   0.208   3.062   1.358  1.1341 -0.8783 -0.1693
  295MPD2     N 4505   4.629   2.798   1.551  0.2056 -0.1402 -0.3232
  295MPD2    H5 4506   4.644   2.839   1.643 -0.7221 -1.9599  0.6346
  295MPD2    N1 4507   0.023   2.744   1.085 -0.2075 -0.1411  0.3847
  295MPD2    H7 4508   4.697   2.664   1.087  1.6185 -1.4548  2.5524
  296TMC3    C1 4509   4.434   2.724   1.648  0.4310  0.4941 -0.4211
  296TMC3    C2 4510   4.302   2.745   1.627  0.6008  0.9659  0.7154
  296TMC3    C3 4511   4.226   2.750   1.742 -0.1142  0.1213 -0.0018
  296TMC3    C4 4512   4.497   2.705   1.769  0.0528  0.0456 -1.1380
  296TMC3    C5 4513   4.407   2.694   1.869 -0.2560  0.8297 -0.5507
  296TMC3    C6 4514   4.274   2.719   1.860 -0.3914 -0.0203 -0.0270
  296TMC3     C 4515   4.512   2.724   1.530 -0.8550  0.5052  0.3599
  296TMC3     O 4516   4.457   2.700   1.424 -0.4415  0.1405  0.6615
  296TMC3     H 4517   4.254   2.767   1.533  3.0100  0.0045 -0.7553
  296TMC3    H1 4518   4.600   2.681   1.791  0.1949  0.4138 -1.4075
  296TMC3    H2 4519   4.212   2.718   1.949 -1.5834 -0.8106 -0.8769
  296TMC3    C7 4520   4.448   2.598   1.968  0.2732  0.2161 -0.1055
  296TMC3    C8 4521   4.103   2.830   1.736 -0.4919 -0.3823  0.8358
  296TMC3    O1 4522   4.566   2.582   1.999  0.7435 -0.6046  0.3665
  296TMC3    O2 4523   4.029   2.818   1.834  0.1172 -0.0458  0.0148
  297MPD2     C 4524   1.651   0.276  15.495 -0.3075 -0.0883  0.1943
  297MPD2    C1 4525   1.701   0.380  15.579 -0.3827  0.0207 -0.5621
  297MPD2    C2 4526   1.829   0.356  15.634  0.1005 -0.1051 -0.3228
  297MPD2    C3 4527   1.898   0.239  15.602  0.3110  0.2739 -0.4158
  297MPD2    C4 4528   1.849   0.137  15.521 -0.5306 -0.6798  0.0331
  297MPD2    C5 4529   1.728   0.166  15.467  0.9258  0.6142 -0.2906
  297MPD2     H 4530   1.872   0.427  15.703 -2.5046  1.2468 -0.0702
  297MPD2    H1 4531   1.905   0.049  15.491  0.4708  0.1831 -0.6523
  297MPD2    H2 4532   1.552   0.273  15.451  0.3427 -1.2530 -1.1656
  297MPD2    H3 4533   1.689   0.086  15.405  1.8375  0.5380 -0.7556
  297MPD2     N 4534   2.025   0.223  15.659 -0.7876  0.6374 -0.1872
  297MPD2    H5 4535   2.062   0.293  15.723 -0.4098  0.8380 -0.6249
  297MPD2    N1 4536   1.630   0.496  15.615 -0.2695 -0.3906  0.5690
  297MPD2    H7 4537   1.673   0.566  15.675 -2.0191  1.5812 -0.4379
  298TMC3    C1 4538   1.453   0.644  15.612 -1.0402  0.3399  0.3526
  298TMC3    C2 4539   1.528   0.725  15.540  0.4569 -0.0269 -0.5327
  298TMC3    C3 4540   1.494   0.856  15.538  0.1429 -0.0589 -0.3915
  298TMC3    C4 4541   1.342   0.674  15.679  0.7138 -0.0548 -0.1566
  298TMC3    C5 4542   1.312   0.805  15.676  0.0693 -0.8909  0.0560
  298TMC3    C6 4543   1.390   0.902  15.613 -0.4635  0.0314 -0.2234
  298TMC3     C 4544   1.491   0.505  15.594 -0.0523 -0.1691 -0.1161
  298TMC3     O 4545   1.414   0.418  15.563 -0.4175 -0.4069 -0.3679
  298TMC3     H 4546   1.597   0.680  15.469  0.0685 -2.2822  0.5109
  298TMC3    H1 4547   1.297   0.607  15.751  1.9205  1.0760  1.6567
  298TMC3    H2 4548   1.371   1.008  15.622  0.4995  0.0259  2.0244
  298TMC3    C7 4549   1.219   0.842  15.778 -0.3400 -0.1651 -0.7422
  298TMC3    C8 4550   1.572   0.951  15.455  0.2569  0.6693  0.6095
  298TMC3    O1 4551   1.142   0.753  15.817 -0.5421 -0.1992 -0.0047
  298TMC3    O2 4552   1.536   1.066  15.461 -0.0227  0.0461 -0.2750
  299MPD2     C 4553   3.162   4.351  11.253  0.2569  0.1981 -0.5616
  299MPD2    C1 4554   3.090   4.450  11.194  0.2676  0.0611  0.2203
  299MPD2    C2 4555   3.015   4.411  11.082 -0.1915 -0.0820  0.1349
  299MPD2    C3 4556   3.034   4.291  11.024 -0.7396  0.0492  0.7860
  299MPD2    C4 4557   3.116   4.193  11.083  0.6867  0.4415 -0.0603
  299MPD2    C5 4558   3.182   4.229  11.195  0.4737  0.6551 -0.4696
  299MPD2     H 4559   2.943   4.484  11.047 -0.4332  0.0936  0.9761
  299MPD2    H1 4560   3.137   4.091  11.052  0.7435  0.1669  0.8778
  299MPD2    H2 4561   3.202   4.371  11.352  1.1772 -2.8088 -0.3120
  299MPD2    H3 4562   3.238   4.156  11.252 -0.2570 -0.8192 -1.6650
  299MPD2     N 4563   2.959   4.246  10.909 -0.0410 -0.5493 -0.1067
  299MPD2    H5 4564   2.956   4.147  10.887 -1.8505 -0.3783 -0.6697
  299MPD2    N1 4565   3.096   4.578  11.254  0.2166 -0.4361 -0.1648
  299MPD2    H7 4566   3.157   4.588  11.335  0.0328 -1.1631  0.0704
  300TMC3    C1 4567   2.807   4.263  10.725 -0.3816  0.2069 -0.2581
  300TMC3    C2 4568   2.767   4.343  10.624  0.3085  0.7714 -0.1503
  300TMC3    C3 4569   2.645   4.341  10.565 -0.3759 -0.6954 -0.0106
  300TMC3    C4 4570   2.718   4.174  10.780  0.6062 -0.5625 -0.2276
  300TMC3    C5 4571   2.593   4.179  10.721  0.1458  0.0366 -0.2537
  300TMC3    C6 4572   2.548   4.261  10.619 -0.2881  0.3917  0.4532
  300TMC3     C 4573   2.896   4.331  10.822  0.2782 -0.4625  0.1852
  300TMC3     O 4574   2.916   4.453  10.819  0.2343 -0.2204 -0.5919
  300TMC3     H 4575   2.832   4.426  10.600 -1.6584  2.8229  1.5910
  300TMC3    H1 4576   2.746   4.108  10.861 -0.7041 -1.3640 -0.4302
  300TMC3    H2 4577   2.444   4.281  10.597 -0.4163 -1.2102 -0.3959
  300TMC3    C7 4578   2.493   4.125  10.809  0.0123  0.3016 -0.9152
  300TMC3    C8 4579   2.604   4.462  10.498  0.3635 -0.0221  0.0563
  300TMC3    O1 4580   2.517   4.016  10.857 -0.2589 -0.0128  0.5232
  300TMC3    O2 4581   2.661   4.569  10.525 -0.0112 -0.0835  0.3908
  301MPD2     C 4582   4.379   0.742   1.370  0.0013  0.4362  0.2747
  301MPD2    C1 4583   4.367   0.751   1.231 -0.3268 -0.3008  0.4658
  301MPD2    C2 4584   4.379   0.629   1.159  0.2634 -0.0053 -0.3244
  301MPD2    C3 4585   4.404   0.501   1.212  0.5862 -0.3488  0.0080
  301MPD2    C4 4586   4.431   0.499   1.345  0.5108  0.5075 -0.1928
  301MPD2    C5 4587   4.421   0.617   1.421  0.1236 -0.1058  0.2221
  301MPD2     H 4588   4.369   0.647   1.053  2.1049  0.2544 -0.4698
  301MPD2    H1 4589   4.456   0.408   1.398  0.5726  1.0433  0.7019
  301MPD2    H2 4590   4.370   0.830   1.432  2.7710  1.5364 -0.8846
  301MPD2    H3 4591   4.437   0.599   1.527  1.9085  1.5739  0.2416
  301MPD2     N 4592   4.408   0.383   1.140 -0.2592  0.4751 -0.3435
  301MPD2    H5 4593   4.434   0.298   1.190 -1.1205  0.2835 -0.2164
  301MPD2    N1 4594   4.327   0.872   1.162  0.4253 -0.4989 -0.6380
  301MPD2    H7 4595   4.316   0.862   1.062 -1.2813 -0.4636 -0.4518
  302TMC3    C1 4596   4.375   0.231   0.953  1.2567  0.0048  0.2099
  302TMC3    C2 4597   4.395   0.117   1.030 -0.1824  0.3103  0.1938
  302TMC3    C3 4598   4.411   0.004   0.962 -0.0997  0.3844  0.1463
  302TMC3    C4 4599   4.361   0.227   0.814 -0.3463 -0.4426 -0.4187
  302TMC3    C5 4600   4.366   0.108   0.757 -0.3145  0.1171  0.7441
  302TMC3    C6 4601   4.395   4.724   0.825  0.8654 -0.4250  0.7650
  302TMC3     C 4602   4.368   0.367   1.008 -0.0980 -0.1906  0.0866
  302TMC3     O 4603   4.330   0.454   0.932 -0.0297 -0.7280  0.1297
  302TMC3     H 4604   4.381   0.111   1.137  0.7502  0.7135  0.3345
  302TMC3    H1 4605   4.347   0.315   0.753 -0.1502  0.1923  0.4590
  302TMC3    H2 4606   4.405   4.636   0.762  1.3666  0.3041 -0.1649
  302TMC3    C7 4607   4.308   0.095   0.623  0.3623  1.0939  0.7176
  302TMC3    C8 4608   4.442   4.624   1.038  0.6870  0.0588 -1.0325
  302TMC3    O1 4609   4.328   4.735   0.557 -0.1463 -0.3765 -0.2180
  302TMC3    O2 4610   4.510   4.644   1.132 -0.6734 -0.1489 -0.4050
  303MPD2     C 4611   0.087   4.181  11.347  0.1936 -0.4079  0.2677
  303MPD2    C1 4612   0.075   4.099  11.237 -0.4805 -0.1653 -0.1275
  303MPD2    C2 4613   0.127   4.145  11.114 -0.5969 -0.5158  0.4577
  303MPD2    C3 4614   0.203   4.261  11.107  0.3972  0.1644  0.0285
  303MPD2    C4 4615   0.226   4.330  11.219 -0.7181  0.5251 -0.2583
  303MPD2    C5 4616   0.165   4.289  11.340 -0.1247  0.1563 -0.5994
  303MPD2     H 4617   0.110   4.087  11.024 -2.0429 -0.0896  0.4456
  303MPD2    H1 4618   0.285   4.420  11.230  0.1352 -0.0817  0.1402
  303MPD2    H2 4619   0.035   4.165  11.440 -1.2700 -0.4544 -0.5518
  303MPD2    H3 4620   0.176   4.345  11.432 -4.3327 -1.6174  0.9796
  303MPD2     N 4621   0.252   4.313  10.991  0.3655 -0.0369 -0.1040
  303MPD2    H5 4622   0.316   4.391  11.006  0.5011 -0.0931 -0.3902
  303MPD2    N1 4623   4.726   3.987  11.250 -0.0171 -0.7150  0.2032
  303MPD2    H7 4624   4.684   3.975  11.341 -0.8512 -0.0858 -0.0937
  304TMC3    C1 4625   4.595   3.802  11.187  0.4215 -0.2318 -0.7853
  304TMC3    C2 4626   4.476   3.865  11.170  0.3920  0.3357  0.1706
  304TMC3    C3 4627   4.374   3.802  11.113 -0.6674  0.3010 -0.3331
  304TMC3    C4 4628   4.621   3.668  11.148 -0.0849 -0.2894 -0.4625
  304TMC3    C5 4629   4.508   3.604  11.096  0.0053  0.3119 -0.5789
  304TMC3    C6 4630   4.385   3.667  11.080  0.4337 -0.3303 -0.2044
  304TMC3     C 4631   4.705   3.888  11.153 -0.3334 -0.0304  0.6649
  304TMC3     O 4632   0.047   3.851  11.065 -0.4043 -0.4110 -0.2224
  304TMC3     H 4633   4.474   3.973  11.182  2.4868  0.2922  1.0345
  304TMC3    H1 4634   4.723   3.630  11.150  0.0410  0.2396  3.0142
  304TMC3    H2 4635   4.298   3.611  11.047 -0.7308  1.4736 -0.1985
  304TMC3    C7 4636   4.520   3.517  10.977 -0.2549 -0.9207  0.5269
  304TMC3    C8 4637   4.313   3.876  10.999 -0.1563 -0.5486 -0.0283
  304TMC3    O1 4638   4.436   3.532  10.892 -0.5287  0.2055  0.2116
  304TMC3    O2 4639   4.312   3.996  11.012 -0.6664 -0.0242 -0.8246
  305MPD2     C 4640   3.003   1.663  13.897 -1.0944 -0.2695  0.1704
  305MPD2    C1 4641   2.982   1.541  13.948  0.2908  0.4277 -0.5492
  305MPD2    C2 4642   2.867   1.472  13.899 -0.2677  0.4311  0.0054
  305MPD2    C3 4643   2.785   1.526  13.801  0.1898  0.1364  0.0564
  305MPD2    C4 4644   2.812   1.650  13.749  0.9707 -0.3950 -0.1843
  305MPD2    C5 4645   2.920   1.715  13.800  0.3109 -0.5162 -0.3607
  305MPD2     H 4646   2.856   1.368  13.925 -2.4881  0.8972  0.9204
  305MPD2    H1 4647   2.753   1.698  13.673  1.9950  0.9610 -0.1203
  305MPD2    H2 4648   3.083   1.726  13.933  0.6165 -1.3926 -1.6206
  305MPD2    H3 4649   2.948   1.814  13.765  0.3142  0.3487  2.0673
  305MPD2     N 4650   2.674   1.458  13.747 -0.2970 -0.2338 -0.5066
  305MPD2    H5 4651   2.641   1.494  13.657 -1.8828  2.7516  1.2604
  305MPD2    N1 4652   3.068   1.482  14.043 -0.0461  0.4700  0.3469
  305MPD2    H7 4653   3.145   1.534  14.083 -0.4964  0.7400  0.8709
  306TMC3    C1 4654   3.153   1.320  14.187 -0.2886  0.3406  0.0993
  306TMC3    C2 4655   3.281   1.315  14.142  0.2135  0.0038 -0.3149
  306TMC3    C3 4656   3.374   1.267  14.233 -0.0119  0.3451 -0.1316
  306TMC3    C4 4657   3.114   1.266  14.307 -0.8886  0.9056 -1.0793
  306TMC3    C5 4658   3.207   1.216  14.389 -0.1376  0.7380  0.6582
  306TMC3    C6 4659   3.335   1.210  14.354  0.3385  0.0169  0.3239
  306TMC3     C 4660   3.046   1.361  14.096  0.3910 -0.4534 -0.2885
  306TMC3     O 4661   2.949   1.299  14.109 -0.0303 -0.6327  0.3946
  306TMC3     H 4662   3.311   1.365  14.050  0.8378  2.0446  1.0127
  306TMC3    H1 4663   3.009   1.271  14.334 -1.1101 -0.2458 -1.7537
  306TMC3    H2 4664   3.401   1.149  14.414 -2.0634 -1.8024  1.0893
  306TMC3    C7 4665   3.167   1.216  14.525 -0.7214  0.0473 -0.0973
  306TMC3    C8 4666   3.492   1.209  14.171  0.6998  0.6175  0.2069
  306TMC3    O1 4667   3.045   1.211  14.539 -0.2968  0.1132  0.2441
  306TMC3    O2 4668   3.477   1.174  14.054 -0.2827  0.0950 -0.6517
  307MPD2     C 4669   0.908   4.528   0.292  0.3621 -0.5803  0.4427
  307MPD2    C1 4670   0.823   4.623   0.350 -0.4688  0.4746 -0.1526
  307MPD2    C2 4671   0.729   4.586   0.448 -0.1683 -0.2581  0.2734
  307MPD2    C3 4672   0.742   4.466   0.508  0.1022 -1.4273 -0.2685
  307MPD2    C4 4673   0.824   4.369   0.450  0.4760  0.3471 -0.3254
  307MPD2    C5 4674   0.904   4.399   0.337  0.0877 -0.6934 -0.2923
  307MPD2     H 4675   0.672   4.662   0.500 -0.8363  0.0350 -0.8893
  307MPD2    H1 4676   0.834   4.270   0.493  1.3223 -0.2989 -2.0079
  307MPD2    H2 4677   0.975   4.547   0.209 -0.3582  1.8841  0.4307
  307MPD2    H3 4678   0.966   4.328   0.285  1.2405  0.0626  0.0408
  307MPD2     N 4679   0.670   4.430   0.624  0.4443  0.3263 -0.1017
  307MPD2    H5 4680   0.601   4.497   0.656  0.0066 -0.1519 -0.0298
  307MPD2    N1 4681   0.820   0.023   0.302  0.3822 -0.1597  0.1817
  307MPD2    H7 4682   0.759   0.085   0.354  1.1252  1.8376 -1.3115
  308TMC3    C1 4683   0.425   4.132   0.874 -0.0541  0.3057  0.0201
  308TMC3    C2 4684   0.331   4.226   0.907  0.2550  0.4072 -0.5487
  308TMC3    C3 4685   0.357   4.356   0.866  0.4837 -0.7003 -0.2395
  308TMC3    C4 4686   0.551   4.168   0.832 -0.1465  0.0964  0.6715
  308TMC3    C5 4687   0.568   4.302   0.788 -0.1383 -0.7032  0.4890
  308TMC3    C6 4688   0.472   4.397   0.800 -0.7555  0.6477  0.0971
  308TMC3     C 4689   0.383   4.049   0.759 -0.5759 -0.0634  0.7779
  308TMC3     O 4690   0.470   3.998   0.692 -0.6224 -0.1951  0.0267
  308TMC3     H 4691   0.241   4.199   0.960  0.4580  0.5739 -0.1202
  308TMC3    H1 4692   0.625   4.088   0.827  0.3958  0.7388 -1.5206
  308TMC3    H2 4693   0.502   4.500   0.784 -0.3437  0.5420  0.1902
  308TMC3    C7 4694   0.684   4.318   0.700  0.6575 -0.1163 -0.0379
  308TMC3    C8 4695   0.266   4.455   0.913 -0.6727  0.0140  0.6156
  308TMC3    O1 4696   0.763   4.227   0.692  0.3087 -0.2480 -0.0496
  308TMC3    O2 4697   0.198   4.421   1.008  0.7207 -0.2781 -0.7331
  309MPD2     C 4698   4.464   4.177  16.978 -0.1158 -0.0534  0.3403
  309MPD2    C1 4699   4.458   4.288  16.906 -0.1640  0.5149  0.0533
  309MPD2    C2 4700   4.397   4.404  16.949  0.3763 -0.2147  0.2143
  309MPD2    C3 4701   4.357   4.412  17.087 -0.0381  0.8186 -0.4311
  309MPD2    C4 4702   4.383   4.302  17.172 -0.0527  0.4867  0.1353
  309MPD2    C5 4703   4.428   4.184  17.110 -0.7686  0.5077 -0.7705
  309MPD2     H 4704   4.390   4.488  16.881  2.3964  0.6421  1.0695
  309MPD2    H1 4705   4.368   4.299  17.279 -3.7257  0.7482 -0.3559
  309MPD2    H2 4706   4.496   4.080  16.940  0.7231  0.9365 -1.4440
  309MPD2    H3 4707   4.448   4.096  17.169 -0.1838 -0.9218 -3.0948
  309MPD2     N 4708   4.296   4.534  17.148 -0.7473  0.3419 -0.3634
  309MPD2    H5 4709   4.272   4.538  17.246  0.5287  0.3677 -0.0558
  309MPD2    N1 4710   4.492   4.287  16.769 -0.7635  0.1415  0.0379
  309MPD2    H7 4711   4.474   4.375  16.721  5.2843  1.8834  0.8440
  310TMC3    C1 4712   4.610   4.245  16.577  0.5968  0.2581 -0.2835
  310TMC3    C2 4713   4.529   4.340  16.520  0.3438 -0.2677  0.5500
  310TMC3    C3 4714   4.588   4.430  16.431  0.2768 -0.5143 -0.2737
  310TMC3    C4 4715   0.007   4.226  16.543 -0.6617 -0.6570 -0.5334
  310TMC3    C5 4716   0.057   4.319  16.448 -0.6663  0.1348 -0.5509
  310TMC3    C6 4717   4.721   4.422  16.399 -0.4560 -0.3184 -0.0103
  310TMC3     C 4718   4.571   4.193  16.705  0.0824 -0.0314 -0.4608
  310TMC3     O 4719   4.632   4.104  16.762 -0.0096  0.5722  0.9146
  310TMC3     H 4720   4.422   4.334  16.532 -0.0241  0.1100 -2.6527
  310TMC3    H1 4721   0.069   4.153  16.593  2.1928 -0.3163 -3.5759
  310TMC3    H2 4722   0.029   4.482  16.320  0.7525 -0.7890  0.2980
  310TMC3    C7 4723   0.139   4.264  16.348 -0.8429 -0.9950  0.1243
  310TMC3    C8 4724   4.505   4.493  16.328  0.2367 -0.1287 -0.0694
  310TMC3    O1 4725   0.150   4.326  16.242  0.3460 -0.1046 -0.1872
  310TMC3    O2 4726   4.554   4.534  16.224  0.1519  0.0973  0.2925
  311MPD2     C 4727   1.987   1.361  12.358  0.2431  0.4047 -0.2931
  311MPD2    C1 4728   2.001   1.371  12.494 -0.8715  0.0034  0.0913
  311MPD2    C2 4729   1.894   1.332  12.575  0.7333  0.6697  0.2529
  311MPD2    C3 4730   1.777   1.286  12.519 -0.1185 -0.0562  0.2132
  311MPD2    C4 4731   1.770   1.268  12.385 -0.1641  0.4667  0.1101
  311MPD2    C5 4732   1.871   1.307  12.300  0.1877 -0.1848 -0.4637
  311MPD2     H 4733   1.906   1.333  12.683  1.4509  0.5544  0.1774
  311MPD2    H1 4734   1.691   1.212  12.336 -1.2814  2.6778 -0.6434
  311MPD2    H2 4735   2.064   1.396  12.291  0.9165  0.4248  0.4850
  311MPD2    H3 4736   1.867   1.306  12.192 -1.2455 -1.4937 -0.3986
  311MPD2     N 4737   1.675   1.246  12.604 -0.1703  0.2002 -0.4280
  311MPD2    H5 4738   1.690   1.252  12.704 -1.4872 -1.3335 -0.1319
  311MPD2    N1 4739   2.123   1.383  12.556  0.6060 -0.4034  0.0758
  311MPD2    H7 4740   2.128   1.339  12.647  1.0397 -0.8412 -0.1602
  312TMC3    C1 4741   1.459   1.129  12.663  0.7617  0.9890  0.0739
  312TMC3    C2 4742   1.341   1.088  12.605 -0.5407 -0.2618  0.0822
  312TMC3    C3 4743   1.251   1.036  12.697 -0.0295 -0.3592 -0.4563
  312TMC3    C4 4744   1.493   1.125  12.796 -0.5109 -0.1231  0.4992
  312TMC3    C5 4745   1.403   1.071  12.880 -0.8963 -0.0704  0.0348
  312TMC3    C6 4746   1.278   1.022  12.833  0.4409 -0.8371 -0.3933
  312TMC3     C 4747   1.555   1.186  12.565  0.0855  0.4247 -0.3261
  312TMC3     O 4748   1.498   1.205  12.459 -0.3603 -0.0440  0.0047
  312TMC3     H 4749   1.323   1.077  12.499  0.8653  1.7863 -0.3613
  312TMC3    H1 4750   1.585   1.163  12.841 -0.8742 -1.1973  2.1267
  312TMC3    H2 4751   1.205   0.999  12.910  0.4605  0.0053 -0.1201
  312TMC3    C7 4752   1.385   1.149  12.996  0.2612  0.4298  0.3036
  312TMC3    C8 4753   1.134   0.970  12.643  0.6318 -0.5515  0.1510
  312TMC3    O1 4754   1.291   1.226  13.000  0.2379  0.0960  0.3260
  312TMC3    O2 4755   1.081   0.882  12.708  0.1736 -0.7357  0.4472
  313MPD2     C 4756   0.721   0.471  11.537  0.0288  0.0596 -0.5564
  313MPD2    C1 4757   0.822   0.476  11.445 -0.2430  0.1057 -0.2817
  313MPD2    C2 4758   0.905   0.367  11.428 -0.0849  0.1412 -0.3295
  313MPD2    C3 4759   0.872   0.249  11.482  0.3527  0.0222  0.0167
  313MPD2    C4 4760   0.767   0.242  11.571 -0.1666  0.2205 -0.4205
  313MPD2    C5 4761   0.692   0.353  11.590 -0.5835 -0.2335 -0.4057
  313MPD2     H 4762   0.992   0.384  11.366 -0.8382  1.5819 -0.9917
  313MPD2    H1 4763   0.737   0.154  11.628  0.2882  1.2024  1.3392
  313MPD2    H2 4764   0.663   0.558  11.563  0.1525 -0.3987  1.2122
  313MPD2    H3 4765   0.615   0.345  11.666 -1.2812 -0.4527 -1.1333
  313MPD2     N 4766   0.941   0.133  11.452 -0.5404  0.2589 -0.0384
  313MPD2    H5 4767   1.012   0.141  11.380 -0.5074  2.1038  0.1960
  313MPD2    N1 4768   0.855   0.595  11.368  0.1061 -0.3498 -0.8809
  313MPD2    H7 4769   0.936   0.574  11.311  1.3399 -0.7421  1.0346
  314TMC3    C1 4770   0.819   0.793  11.240  0.1893 -0.1946  0.2891
  314TMC3    C2 4771   0.949   0.796  11.198 -0.1199 -0.2291 -0.0092
  314TMC3    C3 4772   0.977   0.850  11.071  0.0244  1.1255  0.9006
  314TMC3    C4 4773   0.707   0.828  11.162  0.3577 -0.4437  0.1618
  314TMC3    C5 4774   0.748   0.881  11.037 -0.0702  0.2459 -0.5354
  314TMC3    C6 4775   0.877   0.898  10.994 -0.0811  0.0205 -0.6894
  314TMC3     C 4776   0.780   0.707  11.350 -0.9652  0.5310  0.1075
  314TMC3     O 4777   0.668   0.728  11.398  0.6467 -0.0329 -0.5019
  314TMC3     H 4778   1.025   0.765  11.268 -0.8822 -1.2182  0.3769
  314TMC3    H1 4779   0.605   0.820  11.197 -0.0728  1.0907 -0.7315
  314TMC3    H2 4780   0.912   0.945  10.903  1.6213  0.0775  0.0020
  314TMC3    C7 4781   0.638   0.922  10.950 -0.3109  0.5867  0.3523
  314TMC3    C8 4782   1.109   0.900  11.043  0.7805 -0.5023 -0.7737
  314TMC3    O1 4783   0.524   0.881  10.973  0.7583 -0.4085 -0.1749
  314TMC3    O2 4784   1.116   1.009  10.995  0.1684 -0.0480 -0.0763
  315MPD2     C 4785   0.798   4.339  16.947  0.1698 -0.2326  0.7161
  315MPD2    C1 4786   0.890   4.368  17.046 -0.1285  0.1258  0.2369
  315MPD2    C2 4787   0.933   4.500  17.065  0.2396  0.6488 -0.7433
  315MPD2    C3 4788   0.885   4.604  16.985 -0.0193 -0.4486 -0.2769
  315MPD2    C4 4789   0.795   4.573  16.882  0.2609 -0.2515 -1.0083
  315MPD2    C5 4790   0.745   4.445  16.878  0.6159 -0.3572 -0.6325
  315MPD2     H 4791   0.992   4.515  17.154 -0.5129  0.4537 -0.2015
  315MPD2    H1 4792   0.748   4.646  16.817 -2.2100 -0.9745 -0.0360
  315MPD2    H2 4793   0.765   4.238  16.925 -1.4616  0.4172  0.2214
  315MPD2    H3 4794   0.660   4.422  16.816 -0.1736  1.4772 -0.2477
  315MPD2     N 4795   0.916   4.734  17.032 -0.2980  0.2284 -0.3068
  315MPD2    H5 4796   0.973   0.000  17.116  1.0574 -0.1792 -1.2128
  315MPD2    N1 4797   0.937   4.265  17.132 -0.2184 -0.3250 -0.3432
  315MPD2    H7 4798   1.020   4.275  17.190 -1.0811  0.4153  0.7588
  316TMC3    C1 4799   0.934   0.231  17.060  0.2532  0.4138 -0.4052
  316TMC3    C2 4800   1.018   0.215  17.171  0.2503 -0.4002  0.0278
  316TMC3    C3 4801   1.035   0.320  17.255  0.4001 -0.2582 -0.3675
  316TMC3    C4 4802   0.871   0.345  17.038  0.8743 -0.1249  0.7406
  316TMC3    C5 4803   0.898   0.449  17.124 -0.1277 -0.4628  0.5022
  316TMC3    C6 4804   0.976   0.441  17.240  0.0748  0.5089  0.1806
  316TMC3     C 4805   0.886   0.121  16.977 -0.1261 -0.3426 -0.1295
  316TMC3     O 4806   0.828   0.145  16.876 -0.3610 -0.0465 -0.0411
  316TMC3     H 4807   1.061   0.118  17.189 -0.2899 -0.6893 -0.2534
  316TMC3    H1 4808   0.820   0.362  16.944  1.0961 -2.1058  0.2767
  316TMC3    H2 4809   0.989   0.527  17.305 -0.6811 -0.4590  1.6121
  316TMC3    C7 4810   0.842   0.573  17.101 -0.3580 -0.0774 -0.0773
  316TMC3    C8 4811   1.160   0.331  17.331 -0.6333  0.1293 -0.1222
  316TMC3    O1 4812   0.805   0.629  17.201 -0.2576  0.1869  0.2275
  316TMC3    O2 4813   1.232   0.426  17.301  0.4880  0.4061 -0.1970
  317MPD2     C 4814   3.215   2.994  13.431  0.6724  0.1638 -0.4389
  317MPD2    C1 4815   3.315   2.941  13.348  0.4517  0.0788  0.6682
  317MPD2    C2 4816   3.427   2.890  13.406  0.5404 -0.2339  0.4545
  317MPD2    C3 4817   3.447   2.903  13.539 -0.7391  0.4615  0.2982
  317MPD2    C4 4818   3.359   2.972  13.620  0.6831 -0.3039 -0.0409
  317MPD2    C5 4819   3.243   3.022  13.566  0.2046 -0.1824 -0.0724
  317MPD2     H 4820   3.509   2.850  13.346  0.1807 -0.0704 -0.1400
  317MPD2    H1 4821   3.365   2.980  13.728  0.3018 -0.2629 -0.0228
  317MPD2    H2 4822   3.131   3.044  13.385 -2.2590 -2.4731  2.0687
  317MPD2    H3 4823   3.175   3.077  13.630 -0.7838 -1.4997 -0.0037
  317MPD2     N 4824   3.552   2.829  13.585 -0.0997  0.0796 -0.1405
  317MPD2    H5 4825   3.605   2.772  13.519 -1.3680 -1.1091 -0.1298
  317MPD2    N1 4826   3.296   2.916  13.214 -0.1440  0.0932  0.3162
  317MPD2    H7 4827   3.365   2.861  13.163 -2.3296 -1.9815 -0.3956
  318TMC3    C1 4828   3.669   2.717  13.735  0.8840 -0.4252 -0.3324
  318TMC3    C2 4829   3.610   2.600  13.692  0.4034  0.2342 -0.6018
  318TMC3    C3 4830   3.653   2.482  13.739  0.3138  0.2319 -0.0147
  318TMC3    C4 4831   3.765   2.715  13.835 -0.2505  0.0073  0.5632
  318TMC3    C5 4832   3.802   2.593  13.884 -1.2391 -0.3573 -0.0172
  318TMC3    C6 4833   3.747   2.478  13.842  0.3381  0.4207 -0.9491
  318TMC3     C 4834   3.601   2.834  13.709 -0.6876 -0.4158  0.1379
  318TMC3     O 4835   3.598   2.926  13.795 -0.3187  0.7027  0.2946
  318TMC3     H 4836   3.550   2.596  13.602 -0.0079  3.0528 -0.4492
  318TMC3    H1 4837   3.789   2.813  13.874  1.2615 -0.9972  2.1341
  318TMC3    H2 4838   3.775   2.389  13.896 -0.7642  1.8706  2.0177
  318TMC3    C7 4839   3.892   2.600  14.001  1.5677 -0.1101 -0.8640
  318TMC3    C8 4840   3.601   2.357  13.709 -0.7088  0.2839  0.0915
  318TMC3    O1 4841   3.908   2.701  14.069  0.0758 -0.7298 -0.3116
  318TMC3    O2 4842   3.668   2.263  13.748  0.2111 -0.1014  0.0841
  319MPD2     C 4843   4.189   3.748  16.349 -0.1014 -0.3040  0.0568
  319MPD2    C1 4844   4.104   3.749  16.455 -0.2146 -0.5629 -0.2250
  319MPD2    C2 4845   3.966   3.762  16.430  0.1547 -0.8333 -0.0164
  319MPD2    C3 4846   3.916   3.777  16.301 -0.0178  1.0283 -0.0587
  319MPD2    C4 4847   4.005   3.767  16.201  0.1584 -0.1292  0.7908
  319MPD2    C5 4848   4.138   3.750  16.228 -0.6498  0.5857  0.3713
  319MPD2     H 4849   3.897   3.754  16.513  1.1073 -0.1404  0.8541
  319MPD2    H1 4850   3.968   3.775  16.100  0.6897 -0.1456  0.5963
  319MPD2    H2 4851   4.297   3.750  16.358 -0.1658  1.3072  0.3555
  319MPD2    H3 4852   4.207   3.766  16.146  0.0273  0.5446  0.9403
  319MPD2     N 4853   3.774   3.789  16.267  0.1513  0.0643 -0.0799
  319MPD2    H5 4854   3.742   3.791  16.171  0.7983 -1.4371 -0.3324
  319MPD2    N1 4855   4.153   3.753  16.588  0.0771 -0.6032  0.3137
  319MPD2    H7 4856   4.086   3.753  16.663  1.0274  2.0536  1.1586
  320TMC3    C1 4857   3.533   3.779  16.307  0.2639 -0.0758  0.4384
  320TMC3    C2 4858   3.509   3.791  16.179 -1.1217  0.0238 -0.3717
  320TMC3    C3 4859   3.389   3.747  16.128  0.2066  0.4166 -0.0255
  320TMC3    C4 4860   3.439   3.724  16.387  0.0822 -0.5514 -0.8778
  320TMC3    C5 4861   3.324   3.670  16.339  0.1027 -0.6443 -0.3190
  320TMC3    C6 4862   3.301   3.686  16.208 -0.0954  0.7656 -0.4998
  320TMC3     C 4863   3.666   3.797  16.360 -0.0639  0.0609 -0.0997
  320TMC3     O 4864   3.681   3.819  16.480 -0.5800 -0.6478 -0.1979
  320TMC3     H 4865   3.574   3.838  16.106 -0.7095 -1.0412 -0.6820
  320TMC3    H1 4866   3.459   3.714  16.493  0.3894 -1.5618 -1.0329
  320TMC3    H2 4867   3.204   3.660  16.166  0.2825  0.0036 -0.8918
  320TMC3    C7 4868   3.265   3.546  16.395  0.7699  0.8557  0.4571
  320TMC3    C8 4869   3.345   3.783  15.993 -0.4416 -0.5777  0.2830
  320TMC3    O1 4870   3.213   3.465  16.316  0.1713 -0.3319  0.0379
  320TMC3    O2 4871   3.295   3.693  15.932  0.2178  0.2805  0.1235
  321TMC3    C1 4872   4.316   3.741  16.757 -0.1618  0.1760  0.0861
  321TMC3    C2 4873   4.218   3.742  16.851 -0.3753 -0.2439  0.0601
  321TMC3    C3 4874   4.249   3.800  16.975 -0.0547 -0.6741 -0.3771
  321TMC3    C4 4875   4.450   3.766  16.795  0.0775  0.3107  0.4702
  321TMC3    C5 4876   4.475   3.805  16.924 -0.1402 -0.2463 -0.6759
  321TMC3    C6 4877   4.375   3.845  17.005  0.4427 -0.3615 -0.7443
  321TMC3     C 4878   4.288   3.750  16.620 -0.2793 -0.3765  0.1029
  321TMC3     O 4879   4.391   3.753  16.552 -0.4836 -0.0994 -0.4232
  321TMC3     H 4880   4.120   3.703  16.828 -0.2964  0.2115 -1.0846
  321TMC3    H1 4881   4.533   3.756  16.726  2.1514 -0.8038  3.1078
  321TMC3    H2 4882   4.396   3.896  17.098 -0.1972 -1.4656 -0.0062
  321TMC3    C7 4883   4.593   3.768  17.006 -0.6702  0.4164 -0.6894
  321TMC3    C8 4884   4.195   3.717  17.084  0.2752  0.6668 -0.0563
  321TMC3    O1 4885   4.596   3.809  17.123  0.3718  0.0527 -0.2666
  321TMC3    O2 4886   4.075   3.679  17.084 -0.3273  0.3318  0.6452
  322MPD2     C 4887   2.817   0.449  13.386  0.4049  1.1940  0.4086
  322MPD2    C1 4888   2.836   0.416  13.519 -0.3542 -0.1699 -0.0749
  322MPD2    C2 4889   2.878   0.287  13.557 -0.6116  0.5427  0.7828
  322MPD2    C3 4890   2.895   0.187  13.461 -0.3391  0.2365 -0.0478
  322MPD2    C4 4891   2.856   0.218  13.332  0.1696  1.4395  0.7145
  322MPD2    C5 4892   2.830   0.347  13.299 -0.7221  0.6821  0.1308
  322MPD2     H 4893   2.923   0.274  13.654  0.4196  2.7861  0.6186
  322MPD2    H1 4894   2.864   0.145  13.253  0.2830  2.5478 -0.2993
  322MPD2    H2 4895   2.801   0.548  13.346  1.0884  0.7241 -1.0391
  322MPD2    H3 4896   2.809   0.369  13.195  0.9393  1.4892 -0.0212
  322MPD2     N 4897   2.966   0.073  13.508 -0.4243 -0.1493 -0.0391
  322MPD2    H5 4898   2.997   0.082  13.604 -1.1662  0.0603  0.1863
  322MPD2    N1 4899   2.831   0.520  13.613 -0.7423  0.0840 -0.6221
  322MPD2    H7 4900   2.824   0.613  13.572 -1.3152  0.2583 -0.1339
  323TMC3    C1 4901   2.880   0.621  13.814  0.0778  0.5351  0.2690
  323TMC3    C2 4902   3.001   0.667  13.763  0.3617  0.0441  0.6390
  323TMC3    C3 4903   3.086   0.717  13.857  0.1958 -0.3971  0.1382
  323TMC3    C4 4904   2.846   0.624  13.947  0.5485 -0.3515 -0.0703
  323TMC3    C5 4905   2.930   0.696  14.031  0.3527  0.4205 -0.0499
  323TMC3    C6 4906   3.049   0.748  13.987  0.2583 -0.9664  0.0218
  323TMC3     C 4907   2.827   0.502  13.745 -0.0495 -0.4730 -0.0218
  323TMC3     O 4908   2.794   0.401  13.809  0.1507 -0.5012  0.0416
  323TMC3     H 4909   3.033   0.641  13.663  0.3282 -1.0558  0.9124
  323TMC3    H1 4910   2.748   0.593  13.981  0.4136 -1.0167 -1.0658
  323TMC3    H2 4911   3.122   0.781  14.060  1.2880  0.2226 -1.5582
  323TMC3    C7 4912   2.945   0.653  14.168 -0.0667  0.4702  0.9100
  323TMC3    C8 4913   3.227   0.733  13.830  1.1562  0.2752 -0.2403
  323TMC3    O1 4914   2.904   0.541  14.205  0.3805  0.1634  0.0427
  323TMC3    O2 4915   3.298   0.805  13.896  0.4385  0.4907  0.0410
  324MPD2     C 4916   0.410   1.956  14.316 -0.1990  0.1598  0.5248
  324MPD2    C1 4917   0.383   2.025  14.433 -0.1390  0.0671 -1.0528
  324MPD2    C2 4918   0.254   2.045  14.469 -0.4529  0.6471 -0.1519
  324MPD2    C3 4919   0.148   2.002  14.391  0.1563 -0.1908  0.3556
  324MPD2    C4 4920   0.170   1.946  14.271 -0.2862  0.4384 -0.2994
  324MPD2    C5 4921   0.297   1.915  14.239  0.5800 -0.4403  0.4350
  324MPD2     H 4922   0.244   2.083  14.570 -0.1358 -3.2232  1.3040
  324MPD2    H1 4923   0.095   1.942  14.192 -1.9285  0.9700  1.2186
  324MPD2    H2 4924   0.508   1.957  14.270 -0.5516 -0.6398 -0.2430
  324MPD2    H3 4925   0.327   1.870  14.145 -0.3016  1.4595 -0.7354
  324MPD2     N 4926   0.017   2.035  14.420  0.0433 -0.1586  0.1727
  324MPD2    H5 4927   4.678   2.009  14.356  0.8851 -0.9343 -0.4977
  324MPD2    N1 4928   0.490   2.080  14.499  0.2401  0.8020 -0.2525
  324MPD2    H7 4929   0.466   2.117  14.591  3.5097  1.5597  0.2922
  325TMC3    C1 4930   4.567   2.085  14.554 -0.3880 -0.1990 -0.0011
  325TMC3    C2 4931   4.495   1.982  14.489 -0.3323 -0.3919  0.2895
  325TMC3    C3 4932   4.366   1.953  14.537  0.3448 -1.3049 -0.2071
  325TMC3    C4 4933   4.511   2.154  14.660 -0.3551 -0.2938  0.2297
  325TMC3    C5 4934   4.392   2.114  14.709 -0.2995  0.1078  0.4738
  325TMC3    C6 4935   4.312   2.027  14.646 -0.7849  0.2744  0.1747
  325TMC3     C 4936   4.703   2.118  14.518  0.2309  0.0443 -0.9298
  325TMC3     O 4937   0.036   2.185  14.591 -0.3944  0.3556  0.5019
  325TMC3     H 4938   4.530   1.925  14.405  1.0737  0.5990  0.1996
  325TMC3    H1 4939   4.571   2.230  14.709 -1.9688  0.6908  0.6979
  325TMC3    H2 4940   4.208   2.017  14.677 -0.8975 -0.1245 -0.3361
  325TMC3    C7 4941   4.358   2.154  14.846 -0.5150 -0.1798  0.1214
  325TMC3    C8 4942   4.286   1.854  14.465  0.1448  0.0406  0.4840
  325TMC3    O1 4943   4.398   2.266  14.881 -0.0332 -0.0752 -0.1833
  325TMC3    O2 4944   4.309   1.831  14.347  0.2780  0.3284  0.0613
  326MPD2     C 4945   1.216   3.037  10.514  0.0031 -0.3940  0.6717
  326MPD2    C1 4946   1.190   3.117  10.402  0.4044  0.4758  0.4179
  326MPD2    C2 4947   1.264   3.233  10.391  0.2817 -0.7719  0.0497
  326MPD2    C3 4948   1.361   3.269  10.484  0.6899 -0.3246 -0.3087
  326MPD2    C4 4949   1.372   3.188  10.594 -0.4263 -0.3901 -0.5629
  326MPD2    C5 4950   1.307   3.071  10.606  0.2261 -0.1625 -0.5183
  326MPD2     H 4951   1.244   3.298  10.307 -2.0504  0.3068  1.4498
  326MPD2    H1 4952   1.446   3.206  10.672 -1.8080  3.4218 -0.1426
  326MPD2    H2 4953   1.175   2.937  10.521 -1.0127  0.0903  1.5189
  326MPD2    H3 4954   1.320   3.011  10.696 -1.9122  0.8755  0.4790
  326MPD2     N 4955   1.446   3.373  10.470 -0.3015  0.1100 -0.1791
  326MPD2    H5 4956   1.515   3.385  10.544 -1.7910  2.8015  0.7537
  326MPD2    N1 4957   1.086   3.088  10.313  0.0288  0.3463  0.4382
  326MPD2    H7 4958   1.069   3.164  10.247  3.1905 -0.2112 -1.0372
  327TMC3    C1 4959   0.892   2.976  10.234 -0.4322 -0.7228  0.1162
  327TMC3    C2 4960   0.829   3.100  10.220 -0.5963  0.7612  0.5994
  327TMC3    C3 4961   0.692   3.120  10.246 -0.0786 -0.0824  0.5874
  327TMC3    C4 4962   0.813   2.866  10.247 -0.1837  0.1613 -0.4435
  327TMC3    C5 4963   0.680   2.888  10.273 -0.0208  0.1951 -0.5075
  327TMC3    C6 4964   0.622   3.014  10.283 -0.2520  0.5279  0.6157
  327TMC3     C 4965   1.016   2.970  10.307 -0.1726 -1.0112 -0.0094
  327TMC3     O 4966   1.028   2.864  10.369 -0.0338  0.3061 -0.0981
  327TMC3     H 4967   0.880   3.196  10.216  0.6035  0.1057  0.2762
  327TMC3    H1 4968   0.853   2.765  10.246 -0.7376 -0.0854  1.3317
  327TMC3    H2 4969   0.515   3.023  10.298 -0.0314 -0.4193  2.7989
  327TMC3    C7 4970   0.646   2.803  10.386  0.1099 -0.1145  0.4266
  327TMC3    C8 4971   0.640   3.251  10.280 -0.3972 -0.6195 -0.0830
  327TMC3    O1 4972   0.529   2.781  10.411 -0.2002 -0.0481  0.2724
  327TMC3    O2 4973   0.703   3.340  10.224  0.0854  0.4563 -0.3555
  328MPD2     C 4974   3.640   3.341  17.427  0.4819 -0.4046 -0.3717
  328MPD2    C1 4975   3.554   3.242  17.474  1.1159 -0.1786  0.8044
  328MPD2    C2 4976   3.454   3.193  17.385  0.0637 -0.1380 -0.2525
  328MPD2    C3 4977   3.434   3.255  17.265  0.0137 -0.3915 -0.1911
  328MPD2    C4 4978   3.519   3.362  17.224 -0.2124  0.2098 -0.0233
  328MPD2    C5 4979   3.619   3.400  17.301  0.5096  0.1178 -0.6240
  328MPD2     H 4980   3.392   3.111  17.419 -0.8697  0.5818 -0.2523
  328MPD2    H1 4981   3.508   3.399  17.123 -3.0140 -0.5644 -0.0156
  328MPD2    H2 4982   3.724   3.371  17.489 -0.8395  1.0222  0.7514
  328MPD2    H3 4983   3.688   3.477  17.269 -2.5205  3.1679  0.1809
  328MPD2     N 4984   3.320   3.229  17.186  0.1888  0.1833 -0.0316
  328MPD2    H5 4985   3.287   3.300  17.121 -0.3579  0.1102  0.1584
  328MPD2    N1 4986   3.580   3.177  17.603 -0.6315  0.0250 -0.0936
  328MPD2    H7 4987   3.666   3.201  17.653 -1.9331  1.3284  1.4984
  329TMC3    C1 4988   3.525   3.072   0.070  0.4347  0.6377  0.0638
  329TMC3    C2 4989   3.414   3.040   0.149  0.1970 -0.1363  0.3656
  329TMC3    C3 4990   3.436   2.976   0.262 -0.5671  0.2747  0.3988
  329TMC3    C4 4991   3.653   3.054   0.104  0.4756 -0.2794 -0.2808
  329TMC3    C5 4992   3.667   2.993   0.226  0.9604  0.0081  0.4034
  329TMC3    C6 4993   3.561   2.960   0.312 -0.2258 -0.3519 -0.2153
  329TMC3     C 4994   3.487   3.104  17.673  0.0221 -0.0164 -0.5372
  329TMC3     O 4995   3.376   3.063  17.632  0.2545 -0.1800 -0.2014
  329TMC3     H 4996   3.314   3.044   0.107  0.9825  2.2648 -1.2184
  329TMC3    H1 4997   3.731   3.103   0.047  1.5436 -2.0538 -0.3629
  329TMC3    H2 4998   3.572   2.925   0.414  0.2904 -1.5909 -0.6885
  329TMC3    C7 4999   3.798   2.982   0.280  0.3086  0.1927 -0.3763
  329TMC3    C8 5000   3.326   2.924   0.342 -0.3556  0.4439 -0.5224
  329TMC3    O1 5001   3.887   3.043   0.226  0.6475 -0.0845  0.8563
  329TMC3    O2 5002   3.362   2.873   0.449  0.3417  0.0140 -0.1523
  330TMC3    C1 5003   1.707   2.722   9.546 -0.2582 -0.7516 -0.4405
  330TMC3    C2 5004   1.609   2.667   9.465  0.4023  0.0893  0.0451
  330TMC3    C3 5005   1.564   2.538   9.498 -0.0382 -0.8110  0.1048
  330TMC3    C4 5006   1.773   2.651   9.647  0.1326  0.3234  0.0044
  330TMC3    C5 5007   1.719   2.532   9.681 -0.7955  0.6561  0.9402
  330TMC3    C6 5008   1.618   2.474   9.610  0.6563  0.3525  0.1446
  330TMC3     C 5009   1.741   2.862   9.531 -1.0780  0.6503 -0.6016
  330TMC3     O 5010   1.827   2.906   9.607 -0.2623 -0.0718  0.1128
  330TMC3     H 5011   1.560   2.718   9.383  0.1576  0.3114  0.3303
  330TMC3    H1 5012   1.843   2.697   9.716 -0.8624 -0.9043  1.7917
  330TMC3    H2 5013   1.580   2.377   9.641  1.8036  0.3693  1.6177
  330TMC3    C7 5014   1.755   2.477   9.807 -0.1768  0.6221 -0.0604
  330TMC3    C8 5015   1.438   2.502   9.443 -0.0384 -0.7263 -0.0231
  330TMC3    O1 5016   1.685   2.388   9.843  0.6489 -0.4524 -0.1084
  330TMC3    O2 5017   1.401   2.578   9.353 -0.3159 -0.7678  0.6232
  331MPD2     C 5018   3.857   0.923  12.816 -0.0278 -0.1326 -0.4520
  331MPD2    C1 5019   3.967   0.941  12.744  0.2438  0.5220  0.0188
  331MPD2    C2 5020   4.017   0.827  12.677 -0.1845 -0.1211  0.0244
  331MPD2    C3 5021   3.947   0.714  12.675 -0.1045  0.4702 -0.3239
  331MPD2    C4 5022   3.841   0.694  12.758 -0.2466 -0.4609 -0.0338
  331MPD2    C5 5023   3.794   0.801  12.826 -0.3205 -0.0776  0.2516
  331MPD2     H 5024   4.109   0.834  12.620 -0.1189 -0.3476  0.1011
  331MPD2    H1 5025   3.783   0.603  12.765  0.1110 -0.6222  0.7531
  331MPD2    H2 5026   3.808   1.002  12.871  0.2175  0.8167 -1.6102
  331MPD2    H3 5027   3.702   0.803  12.885  0.4762 -1.4387  1.5347
  331MPD2     N 5028   4.008   0.609  12.611  0.3200 -0.5391 -0.6975
  331MPD2    H5 5029   4.100   0.629  12.574  0.7312 -2.3426 -0.6793
  331MPD2    N1 5030   4.031   1.067  12.746 -0.5592  0.2119 -0.0145
  331MPD2    H7 5031   3.987   1.138  12.804 -1.6251 -0.3378 -0.1532
  332TMC3    C1 5032   4.029   0.422  12.474  0.1862  0.0507  0.1178
  332TMC3    C2 5033   4.069   0.499  12.375 -1.5021 -0.0269 -0.0429
  332TMC3    C3 5034   4.194   0.493  12.320 -0.7912 -0.3294  0.7209
  332TMC3    C4 5035   4.127   0.341  12.531 -0.2084  0.5349 -0.4872
  332TMC3    C5 5036   4.257   0.343  12.486  0.1953  0.4618 -0.1094
  332TMC3    C6 5037   4.290   0.409  12.376  0.2528 -0.4627  0.2447
  332TMC3     C 5038   3.952   0.489  12.572  0.1932  0.2099 -0.3114
  332TMC3     O 5039   3.848   0.438  12.613 -0.3410 -0.5478  0.1619
  332TMC3     H 5040   3.990   0.558  12.329 -1.0945 -0.0646 -0.8004
  332TMC3    H1 5041   4.104   0.298  12.628 -2.7735 -0.1822 -1.4175
  332TMC3    H2 5042   4.393   0.409  12.343  0.1563  0.6439 -0.0627
  332TMC3    C7 5043   4.358   0.338  12.597  0.6399  0.1718 -0.7040
  332TMC3    C8 5044   4.244   0.600  12.241 -0.1645 -0.4440 -0.0106
  332TMC3    O1 5045   4.307   0.328  12.709  0.5245 -0.2757  0.2765
  332TMC3    O2 5046   4.363   0.632  12.247  0.0414 -0.0737  0.1655
  333MPD2     C 5047   4.236   1.569  11.135 -0.4794 -0.4041 -0.7379
  333MPD2    C1 5048   4.238   1.501  11.019 -0.4817 -0.0126  0.1767
  333MPD2    C2 5049   4.186   1.369  11.020  0.8612  0.2488 -0.6361
  333MPD2    C3 5050   4.138   1.318  11.138 -0.5127 -0.1685  0.2953
  333MPD2    C4 5051   4.132   1.396  11.254 -0.6144 -0.1445 -1.2528
  333MPD2    C5 5052   4.184   1.521  11.253  0.2383 -0.0338 -0.1577
  333MPD2     H 5053   4.192   1.311  10.929  1.5803 -0.5243 -0.1041
  333MPD2    H1 5054   4.099   1.357  11.349 -3.4027  0.7007 -1.8650
  333MPD2    H2 5055   4.291   1.662  11.139 -0.6618 -0.2681 -1.3375
  333MPD2    H3 5056   4.202   1.569  11.348  0.3970 -2.5510  1.0970
  333MPD2     N 5057   4.098   1.181  11.132 -0.1183 -0.3055 -0.0120
  333MPD2    H5 5058   4.118   1.138  11.043  1.7889  0.2906  0.1288
  333MPD2    N1 5059   4.301   1.565  10.905  0.5307  0.2118 -0.5976
  333MPD2    H7 5060   4.302   1.666  10.897 -0.4938  0.5619  3.7855
  334TMC3    C1 5061   4.377   1.582  10.690  0.3658 -0.0509 -0.0825
  334TMC3    C2 5062   4.459   1.522  10.596 -0.4510 -0.0893 -0.2094
  334TMC3    C3 5063   4.563   1.593  10.546  0.3253  0.6389 -0.6817
  334TMC3    C4 5064   4.381   1.716  10.711 -0.5248  0.4015 -1.1475
  334TMC3    C5 5065   4.481   1.784  10.647  0.3164  0.2122  0.1537
  334TMC3    C6 5066   4.566   1.725  10.553 -0.8275 -0.2989 -0.1145
  334TMC3     C 5067   4.332   1.494  10.792  0.2023  0.8017 -0.0106
  334TMC3     O 5068   4.352   1.375  10.781  0.4437  0.6831  0.2341
  334TMC3     H 5069   4.440   1.417  10.578  3.2212 -1.0817  1.7439
  334TMC3    H1 5070   4.303   1.775  10.757  1.0588  0.6367  1.2464
  334TMC3    H2 5071   4.645   1.777  10.500 -1.6599 -1.5450 -2.5562
  334TMC3    C7 5072   4.494   1.919  10.691  0.2859  0.0368  0.3015
  334TMC3    C8 5073   4.648   1.522  10.455  0.0084  0.1308  0.0283
  334TMC3    O1 5074   4.447   1.942  10.804  0.2506 -0.0228  0.1216
  334TMC3    O2 5075   4.605   1.418  10.410 -0.4255 -0.4822 -0.0759
  335TMC3    C1 5076   3.892   2.591  17.545 -0.0690  0.0199 -0.1439
  335TMC3    C2 5077   3.905   2.562  17.410 -1.1043 -0.1266  0.4987
  335TMC3    C3 5078   4.008   2.619  17.338  0.2552  0.1766 -0.2600
  335TMC3    C4 5079   3.975   2.676  17.613  0.1328 -0.1964 -0.5069
  335TMC3    C5 5080   4.081   2.719  17.539  0.7261 -0.2956 -0.3698
  335TMC3    C6 5081   4.096   2.707  17.405 -0.3341  0.0830  0.1606
  335TMC3     C 5082   3.759   2.585  17.600  0.1297 -0.3274  0.1464
  335TMC3     O 5083   3.674   2.565  17.511 -0.8241  0.7399 -0.4956
  335TMC3     H 5084   3.846   2.481  17.368 -0.0045  0.0015 -1.3014
  335TMC3    H1 5085   3.966   2.722  17.711 -0.0736  0.0602 -0.6490
  335TMC3    H2 5086   4.172   2.756  17.345  2.4683 -3.1957  1.0118
  335TMC3    C7 5087   4.203   2.760  17.613 -0.0147  0.0624 -0.2349
  335TMC3    C8 5088   4.012   2.587  17.194 -0.6024  0.4696  0.6442
  335TMC3    O1 5089   4.286   2.834  17.563 -0.3638  0.5862 -0.0060
  335TMC3    O2 5090   4.103   2.646  17.142  0.6556 -0.1558  0.2318
  336MPD2     C 5091   3.849   0.677  16.015 -0.6235  0.4624  0.7939
  336MPD2    C1 5092   3.722   0.636  15.981  0.3543  0.6754  0.0714
  336MPD2    C2 5093   3.677   0.513  16.030 -0.1329  0.2959 -0.6014
  336MPD2    C3 5094   3.749   0.431  16.126  0.6866 -0.4986 -0.2543
  336MPD2    C4 5095   3.863   0.488  16.174  0.3975 -0.3982 -0.0972
  336MPD2    C5 5096   3.911   0.604  16.117 -0.5755  0.7597 -0.1766
  336MPD2     H 5097   3.581   0.473  15.998  0.2878 -3.2997  2.5483
  336MPD2    H1 5098   3.921   0.452  16.258 -0.9327 -0.5826  0.7519
  336MPD2    H2 5099   3.888   0.777  15.999  0.2234  0.3502  2.2020
  336MPD2    H3 5100   4.010   0.633  16.150 -0.9106  1.5191  0.1541
  336MPD2     N 5101   3.703   0.310  16.189  0.4830 -0.0664  0.4780
  336MPD2    H5 5102   3.745   0.286  16.278  0.1729 -0.9464  0.3823
  336MPD2    N1 5103   3.630   0.705  15.896 -0.1533  0.2306  0.5160
  336MPD2    H7 5104   3.540   0.663  15.872 -0.6105  0.2834  2.1500
  337TMC3    C1 5105   3.563   0.859  15.745  0.6824 -0.4200 -0.2749
  337TMC3    C2 5106   3.427   0.849  15.762 -0.5113 -0.4327  0.1333
  337TMC3    C3 5107   3.345   0.862  15.646 -0.8062 -0.0696 -0.5902
  337TMC3    C4 5108   3.606   0.886  15.617  0.7073 -0.5078  0.2212
  337TMC3    C5 5109   3.522   0.902  15.512  0.5349  0.0344  0.8152
  337TMC3    C6 5110   3.384   0.887  15.522  0.3281 -0.0890 -0.3099
  337TMC3     C 5111   3.658   0.829  15.847 -0.6864 -0.2556  0.5875
  337TMC3     O 5112   3.755   0.905  15.842  0.2883  0.4648 -0.6479
  337TMC3     H 5113   3.384   0.829  15.860  2.5461  0.9684  1.7560
  337TMC3    H1 5114   3.713   0.886  15.598  0.9293 -1.7269  1.4802
  337TMC3    H2 5115   3.308   0.903  15.447 -0.2459 -1.2296  0.0255
  337TMC3    C7 5116   3.579   0.901  15.381 -0.3937 -0.6680 -0.3776
  337TMC3    C8 5117   3.205   0.866  15.675  0.1585  0.0932 -0.3103
  337TMC3    O1 5118   3.695   0.862  15.377 -0.4407 -0.4083 -0.3456
  337TMC3    O2 5119   3.167   0.883  15.793  0.7133 -0.2360 -0.0137
  338MPD2     C 5120   3.896   4.205   0.793 -0.4948 -0.7147 -0.2406
  338MPD2    C1 5121   3.908   4.287   0.682 -0.3695  0.1454 -0.7343
  338MPD2    C2 5122   3.797   4.358   0.643  0.2947  0.4062 -0.4114
  338MPD2    C3 5123   3.675   4.355   0.705 -0.3493 -0.7638  0.8291
  338MPD2    C4 5124   3.672   4.290   0.826  0.1110 -0.3158 -0.6944
  338MPD2    C5 5125   3.780   4.204   0.859  0.2263 -0.2015  0.0206
  338MPD2     H 5126   3.818   4.427   0.561  0.9722  1.3640  0.5783
  338MPD2    H1 5127   3.584   4.293   0.890  0.0684  2.6530 -0.9332
  338MPD2    H2 5128   3.978   4.146   0.832 -0.4293 -0.0040  0.6872
  338MPD2    H3 5129   3.778   4.150   0.953 -0.5599  1.5489  1.0071
  338MPD2     N 5130   3.577   4.439   0.649 -0.2068  0.2418 -0.2296
  338MPD2    H5 5131   3.604   4.494   0.569 -0.2363 -0.9149 -1.0328
  338MPD2    N1 5132   4.021   4.291   0.594 -0.0564  0.6591 -0.0795
  338MPD2    H7 5133   4.017   4.347   0.509  0.8823 -1.0605 -1.2562
  339TMC3    C1 5134   3.362   4.530   0.607 -0.8377  0.3880 -0.2050
  339TMC3    C2 5135   3.290   4.628   0.670  0.3485  0.4323  0.4940
  339TMC3    C3 5136   3.238   4.730   0.598  0.1356 -0.3497 -0.4718
  339TMC3    C4 5137   3.381   4.530   0.472  0.3468  0.3320 -0.8386
  339TMC3    C5 5138   3.328   4.628   0.401  0.1929  0.7440 -0.0797
  339TMC3    C6 5139   3.263   4.729   0.459  0.1887  0.6220 -0.5305
  339TMC3     C 5140   3.449   4.455   0.699  0.4919  0.2288 -0.1980
  339TMC3     O 5141   3.405   4.408   0.804  0.6682 -0.1094  0.0736
  339TMC3     H 5142   3.281   4.633   0.778 -0.3342 -3.0803  0.5850
  339TMC3    H1 5143   3.452   4.455   0.439 -1.2075 -0.6300 -2.0050
  339TMC3    H2 5144   3.220   0.075   0.402 -2.3600 -0.8883 -0.7967
  339TMC3    C7 5145   3.374   4.658   0.265  0.5104  0.5929 -0.0467
  339TMC3    C8 5146   3.187   0.123   0.662  0.3224  0.7113 -0.1346
  339TMC3    O1 5147   3.355   0.035   0.222  0.1317  0.5681  0.3597
  339TMC3    O2 5148   3.217   0.229   0.609  0.6534  0.3953  0.3050
  340MPD2     C 5149   3.847   2.708   9.828 -0.4247 -0.2804  0.2073
  340MPD2    C1 5150   3.965   2.636   9.818  0.7741 -0.7761 -0.6500
  340MPD2    C2 5151   4.081   2.707   9.852  0.3506 -0.2321 -0.3946
  340MPD2    C3 5152   4.080   2.841   9.893 -0.2676  1.4649 -0.1267
  340MPD2    C4 5153   3.958   2.910   9.911  0.3940  0.0155 -0.3008
  340MPD2    C5 5154   3.841   2.838   9.876 -0.7288  0.2775 -0.3345
  340MPD2     H 5155   4.176   2.655   9.863  0.2272 -0.3595  0.0648
  340MPD2    H1 5156   3.946   3.010   9.951 -2.2339 -0.8779  1.1294
  340MPD2    H2 5157   3.751   2.661   9.808  0.0733 -0.2580 -2.2364
  340MPD2    H3 5158   3.745   2.887   9.884  0.0090  1.4518  1.2687
  340MPD2     N 5159   4.188   2.902   9.961  0.5554 -0.3949 -0.4568
  340MPD2    H5 5160   4.162   2.991  10.001  0.4544 -0.3326 -0.6601
  340MPD2    N1 5161   3.953   2.503   9.777  0.0760 -0.0991  0.2443
  340MPD2    H7 5162   3.862   2.464   9.753 -0.7204  1.6041  0.5558
  341TMC3    C1 5163   4.046   2.279   9.742  0.3268 -0.6638 -0.0456
  341TMC3    C2 5164   3.920   2.223   9.752  0.3618 -0.5462  0.4544
  341TMC3    C3 5165   3.912   2.088   9.769 -0.1245  0.5523  0.2952
  341TMC3    C4 5166   4.163   2.204   9.749  0.4040 -0.2405 -0.4296
  341TMC3    C5 5167   4.153   2.073   9.778  0.3567  0.2804 -0.2034
  341TMC3    C6 5168   4.024   2.012   9.778  0.3268  0.4354 -0.4781
  341TMC3     C 5169   4.059   2.425   9.762 -0.7088 -0.2261 -0.3644
  341TMC3     O 5170   4.176   2.454   9.780 -0.4429 -0.2844 -0.2777
  341TMC3     H 5171   3.824   2.272   9.762  0.5278 -0.3298  0.9521
  341TMC3    H1 5172   4.262   2.247   9.753 -0.3792  1.3900  1.2915
  341TMC3    H2 5173   4.021   1.908   9.807  0.7251  0.2457 -1.1246
  341TMC3    C7 5174   4.273   2.010   9.813  0.2016 -0.5825 -0.4965
  341TMC3    C8 5175   3.812   2.015   9.695  0.5885  0.2946  0.4177
  341TMC3    O1 5176   4.372   2.065   9.775  0.2025 -0.0718 -0.3166
  341TMC3    O2 5177   3.824   1.894   9.706 -0.3154 -0.3249  0.3202
  342MPD2     C 5178   1.463   0.883  17.262  0.0027 -0.4800 -0.0171
  342MPD2    C1 5179   1.600   0.850  17.271 -0.1220  0.3438 -0.0958
  342MPD2    C2 5180   1.690   0.959  17.273 -0.2315 -0.3503  0.1802
  342MPD2    C3 5181   1.643   1.092  17.267 -0.9998  0.0514  0.4207
  342MPD2    C4 5182   1.509   1.112  17.249  0.1607 -0.5496  0.4855
  342MPD2    C5 5183   1.420   1.007  17.238  0.2064 -0.0700  0.3911
  342MPD2     H 5184   1.794   0.935  17.296  0.8587  2.8693 -1.3819
  342MPD2    H1 5185   1.467   1.212  17.237 -2.1887 -1.4210  1.5155
  342MPD2    H2 5186   1.392   0.801  17.256  1.7461 -2.1729  2.5038
  342MPD2    H3 5187   1.314   1.026  17.224  0.2703  1.2296  1.7506
  342MPD2     N 5188   1.721   1.208  17.285 -0.2424 -0.0489 -0.6444
  342MPD2    H5 5189   1.675   1.299  17.293  0.4885  0.1496  1.4528
  342MPD2    N1 5190   1.652   0.714  17.273  0.5986  0.3453 -0.2936
  342MPD2    H7 5191   1.751   0.701  17.289  0.9859  2.9573 -0.5325
  343TMC3    C1 5192   1.661   0.479  17.280 -0.2870 -0.5067 -0.1548
  343TMC3    C2 5193   1.798   0.488  17.304  0.0145 -0.4064  0.2416
  343TMC3    C3 5194   1.863   0.376  17.270 -0.4743 -0.4501 -0.2050
  343TMC3    C4 5195   1.591   0.368  17.253  0.8266 -1.4534 -0.0751
  343TMC3    C5 5196   1.662   0.254  17.242 -0.0327  0.3105  0.4518
  343TMC3    C6 5197   1.791   0.260  17.234  0.3173 -0.1644 -0.4598
  343TMC3     C 5198   1.576   0.599  17.275 -0.4205  0.2421 -0.3203
  343TMC3     O 5199   1.456   0.595  17.254 -0.1550 -0.6296  0.4821
  343TMC3     H 5200   1.852   0.574  17.342  0.5159 -1.2009  1.3532
  343TMC3    H1 5201   1.483   0.370  17.247  0.6431 -2.5666  2.8123
  343TMC3    H2 5202   1.843   0.170  17.205  0.0355 -0.1195 -1.0983
  343TMC3    C7 5203   1.593   0.127  17.219 -0.0117 -0.6000 -0.0503
  343TMC3    C8 5204   2.004   0.380  17.270 -0.2296 -0.3205 -0.6599
  343TMC3    O1 5205   1.485   0.132  17.169  0.1007  0.0437  0.2324
  343TMC3    O2 5206   2.065   0.467  17.336 -0.4499 -0.4131 -0.0666
  344MPD2     C 5207   2.948   0.685  11.146 -0.1277 -0.4121 -0.6744
  344MPD2    C1 5208   2.916   0.561  11.089  0.2956  0.2706  0.2353
  344MPD2    C2 5209   2.863   0.554  10.965 -0.2808 -0.5668 -0.1625
  344MPD2    C3 5210   2.864   0.669  10.889 -0.4344 -0.2279  0.1826
  344MPD2    C4 5211   2.902   0.793  10.939  0.9058  0.1705  0.0707
  344MPD2    C5 5212   2.931   0.806  11.072  0.6413  0.5800 -0.0120
  344MPD2     H 5213   2.826   0.460  10.925  0.6222 -1.2027  0.5026
  344MPD2    H1 5214   2.909   0.879  10.874  2.3134  0.6421  0.8509
  344MPD2    H2 5215   3.000   0.691  11.241  0.2207  0.4205 -0.9197
  344MPD2    H3 5216   2.964   0.901  11.111 -0.8233  0.1968  2.1563
  344MPD2     N 5217   2.837   0.665  10.749 -0.2697  0.0439 -0.7933
  344MPD2    H5 5218   2.862   0.749  10.698 -0.8039  0.1424 -0.8902
  344MPD2    N1 5219   2.926   0.439  11.160 -0.4540 -0.0711 -0.6457
  344MPD2    H7 5220   2.908   0.355  11.107 -1.3330 -2.4791  3.4330
  345TMC3    C1 5221   2.834   0.609  10.523  0.6218 -0.5014 -0.3386
  345TMC3    C2 5222   2.909   0.513  10.457  0.2556 -0.0412 -0.9203
  345TMC3    C3 5223   2.999   0.554  10.360  0.2661  0.2923  0.2388
  345TMC3    C4 5224   2.847   0.738  10.490 -0.0818 -0.7341  0.1602
  345TMC3    C5 5225   2.897   0.766  10.362  0.4299 -0.2425  0.0516
  345TMC3    C6 5226   2.978   0.677  10.299 -0.7912 -0.5435  0.1476
  345TMC3     C 5227   2.799   0.564  10.663 -0.2818  0.2499  0.3016
  345TMC3     O 5228   2.788   0.450  10.697 -0.2814 -0.0670  0.1879
  345TMC3     H 5229   2.898   0.412  10.496  0.3503  0.6696  0.9030
  345TMC3    H1 5230   2.793   0.814  10.546 -1.3734 -1.1092 -0.6132
  345TMC3    H2 5231   3.028   0.709  10.209  0.3860 -1.1995  0.5724
  345TMC3    C7 5232   2.880   0.893  10.304  0.0794  0.3970  0.2667
  345TMC3    C8 5233   3.133   0.573  10.422  1.1201 -0.3581 -0.0698
  345TMC3    O1 5234   2.860   0.983  10.382  0.0944  0.8086  0.1701
  345TMC3    O2 5235   3.203   0.666  10.381 -0.7058 -0.3029  0.2558
  346MPD2     C 5236   3.238   1.584  14.391 -0.3900  0.1140  0.0559
  346MPD2    C1 5237   3.367   1.629  14.384 -0.5779  0.7234  0.7259
  346MPD2    C2 5238   3.439   1.655  14.501 -0.3713  0.9344  0.6402
  346MPD2    C3 5239   3.384   1.618  14.630  0.0145 -0.6244 -0.0698
  346MPD2    C4 5240   3.256   1.571  14.629  0.5211 -0.1737 -0.3490
  346MPD2    C5 5241   3.188   1.554  14.513 -0.1562  0.6394  0.2829
  346MPD2     H 5242   3.542   1.685  14.484 -0.5721 -0.2550 -2.6475
  346MPD2    H1 5243   3.203   1.540  14.719  0.9834 -0.1793 -0.0773
  346MPD2    H2 5244   3.171   1.579  14.306 -0.7679 -0.3268  0.3815
  346MPD2    H3 5245   3.089   1.515  14.530 -0.6201  1.0456 -1.4936
  346MPD2     N 5246   3.458   1.641  14.747  0.1292  0.1659  0.2480
  346MPD2    H5 5247   3.556   1.665  14.734  0.2985  0.0271  1.2471
  346MPD2    N1 5248   3.438   1.671  14.272 -0.1243 -0.1405  0.3132
  346MPD2    H7 5249   3.526   1.719  14.287 -0.7369  0.4345  2.0830
  347TMC3    C1 5250   3.525   1.645  14.976 -0.2874 -0.4542  0.9414
  347TMC3    C2 5251   3.631   1.721  14.939 -0.1801 -0.2230 -0.1238
  347TMC3    C3 5252   3.704   1.773  15.038 -0.5134 -0.0702  0.1215
  347TMC3    C4 5253   3.493   1.621  15.106 -0.7723  0.1742 -0.5491
  347TMC3    C5 5254   3.578   1.662  15.209 -0.5361 -0.0772  0.8812
  347TMC3    C6 5255   3.686   1.736  15.169 -0.1142  0.0733  0.2181
  347TMC3     C 5256   3.424   1.613  14.881 -0.0196 -0.4393  0.6347
  347TMC3     O 5257   3.317   1.570  14.921 -0.7239 -0.3151 -0.2733
  347TMC3     H 5258   3.668   1.741  14.839  1.6014 -0.2973  0.5191
  347TMC3    H1 5259   3.405   1.559  15.123 -0.7736  0.1571 -0.6153
  347TMC3    H2 5260   3.778   1.751  15.224  0.9895 -1.2649 -1.2483
  347TMC3    C7 5261   3.543   1.635  15.344  0.5208 -0.4060 -0.2567
  347TMC3    C8 5262   3.825   1.842  15.008  0.0582  0.5304  0.4640
  347TMC3    O1 5263   3.466   1.545  15.366  0.1824  0.2747 -0.0960
  347TMC3    O2 5264   3.861   1.826  14.892 -0.2264  0.3501 -0.0278
  348MPD2     C 5265   1.307   1.347  11.594 -0.6729  0.0362 -0.5112
  348MPD2    C1 5266   1.377   1.435  11.668  0.1312  0.0035 -0.2173
  348MPD2    C2 5267   1.369   1.569  11.630  1.2935  0.3731 -0.3773
  348MPD2    C3 5268   1.312   1.606  11.513  0.2655  0.0109  0.3740
  348MPD2    C4 5269   1.249   1.517  11.432 -0.0928 -0.2229  0.0947
  348MPD2    C5 5270   1.239   1.388  11.476  0.5958 -0.2965  0.2380
  348MPD2     H 5271   1.418   1.640  11.696  0.5718  2.4277 -2.0921
  348MPD2    H1 5272   1.200   1.537  11.337  2.3984  1.9305 -0.7242
  348MPD2    H2 5273   1.310   1.243  11.625  0.6028  0.1346 -0.3394
  348MPD2    H3 5274   1.184   1.315  11.418 -1.0417  0.0534  1.3447
  348MPD2     N 5275   1.297   1.744  11.496 -0.8263  0.1183 -0.4703
  348MPD2    H5 5276   1.319   1.802  11.577 -1.5936  2.3407 -1.8605
  348MPD2    N1 5277   1.457   1.417  11.778 -0.0643  0.9287 -0.6595
  348MPD2    H7 5278   1.501   1.502  11.811 -0.5646  1.6355 -1.8209
  349TMC3    C1 5279   1.601   1.298  11.920 -0.3829  0.0401  0.1302
  349TMC3    C2 5280   1.666   1.179  11.933 -0.6631  0.1744  0.4078
  349TMC3    C3 5281   1.810   1.183  11.933  0.5819  0.3976  0.0566
  349TMC3    C4 5282   1.668   1.421  11.918  0.2472 -1.0834  0.6211
  349TMC3    C5 5283   1.805   1.412  11.915  0.3517 -0.3929  0.0485
  349TMC3    C6 5284   1.878   1.302  11.914  0.2888  0.0027  0.4101
  349TMC3     C 5285   1.474   1.299  11.848 -0.3579  0.4633  0.8372
  349TMC3     O 5286   1.410   1.196  11.838 -0.4554  0.2038 -0.6810
  349TMC3     H 5287   1.603   1.094  11.956  1.1587 -0.7548  1.9928
  349TMC3    H1 5288   1.619   1.517  11.933  2.8761  0.5554 -1.4258
  349TMC3    H2 5289   1.986   1.299  11.909  0.3666  3.7044  0.2368
  349TMC3    C7 5290   1.856   1.517  11.827 -0.4771 -0.3536  0.1491
  349TMC3    C8 5291   1.881   1.079  12.004  0.4654 -0.1301  0.1540
  349TMC3    O1 5292   1.769   1.591  11.777 -0.1057 -1.3532  0.0965
  349TMC3    O2 5293   1.996   1.112  12.043 -0.3037  0.4702 -0.5449
  350MPD2     C 5294   1.589   0.304  10.933 -0.6266 -0.6947 -0.0639
  350MPD2    C1 5295   1.566   0.178  10.877 -0.9670  0.2757 -0.2848
  350MPD2    C2 5296   1.493   0.086  10.947 -0.2061 -0.7674  1.0804
  350MPD2    C3 5297   1.443   0.107  11.071 -0.1707 -0.5440  1.2665
  350MPD2    C4 5298   1.475   0.232  11.135 -0.6650  0.1927  0.9474
  350MPD2    C5 5299   1.550   0.329  11.064  0.1297 -0.2162 -0.0119
  350MPD2     H 5300   1.473   4.725  10.903  0.0760  0.7018 -2.2121
  350MPD2    H1 5301   1.445   0.242  11.239 -1.7530 -2.0244  0.8424
  350MPD2    H2 5302   1.643   0.382  10.881  1.0749 -2.0091 -0.2821
  350MPD2    H3 5303   1.568   0.427  11.105  2.7167 -1.4245  1.7739
  350MPD2     N 5304   1.367   0.004  11.136 -0.2318 -0.0789 -0.2514
  350MPD2    H5 5305   1.341   4.667  11.070 -0.3894  0.0163 -0.2930
  350MPD2    N1 5306   1.606   0.146  10.748 -0.1353  0.5248 -0.4226
  350MPD2    H7 5307   1.596   0.047  10.727  0.5389  0.8085 -2.0535
  351TMC3    C1 5308   1.673   0.183  10.523 -0.6021  0.3056  0.1066
  351TMC3    C2 5309   1.587   0.091  10.476  0.3716 -0.7135  0.2013
  351TMC3    C3 5310   1.600   0.056  10.343 -0.0042 -0.2735 -0.4165
  351TMC3    C4 5311   1.768   0.244  10.449 -0.2934 -0.0738 -0.0939
  351TMC3    C5 5312   1.764   0.226  10.312 -0.1129 -0.0500  0.0035
  351TMC3    C6 5313   1.684   0.131  10.259  0.2290 -0.0401  0.2654
  351TMC3     C 5314   1.646   0.238  10.655 -0.4196  0.0801 -0.0937
  351TMC3     O 5315   1.677   0.355  10.664 -0.3475  0.4866  0.7492
  351TMC3     H 5316   1.505   0.055  10.538 -0.0681 -0.4799 -0.2363
  351TMC3    H1 5317   1.841   0.315  10.486  0.7774 -3.3670  4.1219
  351TMC3    H2 5318   1.692   0.104  10.154  2.5735  2.4604 -0.2109
  351TMC3    C7 5319   1.854   0.301  10.226 -0.7264 -0.6091  0.1447
  351TMC3    C8 5320   1.578   4.650  10.312 -0.2368 -0.5992  0.0617
  351TMC3    O1 5321   1.852   0.422  10.231  0.1777  0.0811  0.3160
  351TMC3    O2 5322   1.605   4.629  10.196  0.1349 -0.0186  0.4614
  352MPD2     C 5323   4.061   1.813   1.483  0.0652  0.9789 -0.6205
  352MPD2    C1 5324   3.974   1.790   1.376  0.6723 -0.2404 -0.1472
  352MPD2    C2 5325   3.996   1.671   1.306  0.5652  0.2589  0.0315
  352MPD2    C3 5326   4.083   1.576   1.351 -0.5450 -0.4927 -0.0939
  352MPD2    C4 5327   4.160   1.601   1.463  0.7104 -0.7381 -0.1207
  352MPD2    C5 5328   4.153   1.721   1.521  0.3987 -0.0371  0.8544
  352MPD2     H 5329   3.937   1.651   1.217 -1.2995 -0.0079  1.3261
  352MPD2    H1 5330   4.227   1.530   1.511 -0.9218 -1.7506  0.6812
  352MPD2    H2 5331   4.062   1.906   1.538 -0.6749  0.9717 -0.5954
  352MPD2    H3 5332   4.205   1.736   1.615 -1.8218  3.2124  1.5318
  352MPD2     N 5333   4.100   1.447   1.293 -0.3258  0.2375  0.0407
  352MPD2    H5 5334   4.156   1.375   1.338  1.6145  0.1473 -2.5443
  352MPD2    N1 5335   3.884   1.889   1.334 -0.0260 -0.3134  0.6299
  352MPD2    H7 5336   3.899   1.980   1.378 -2.7479 -0.2149  1.3441
  353TMC3    C1 5337   4.085   1.279   1.109  0.0526 -0.1412  0.2525
  353TMC3    C2 5338   4.161   1.194   1.186 -0.2269 -0.0738 -0.8433
  353TMC3    C3 5339   4.223   1.089   1.131  0.2305  0.1775  0.3920
  353TMC3    C4 5340   4.066   1.262   0.978 -0.8961 -0.2522  0.2912
  353TMC3    C5 5341   4.127   1.148   0.929  0.7780  0.2902 -0.2706
  353TMC3    C6 5342   4.209   1.065   0.997 -0.8177 -0.0330 -0.1012
  353TMC3     C 5343   4.057   1.411   1.167 -0.2076 -0.1990 -0.2297
  353TMC3     O 5344   3.998   1.486   1.092  0.2126 -0.4771 -0.4953
  353TMC3     H 5345   4.157   1.207   1.294 -1.5452  0.6282 -0.9853
  353TMC3    H1 5346   4.000   1.330   0.925 -1.1880  0.0506  1.0395
  353TMC3    H2 5347   4.261   0.985   0.946 -1.5220  0.7089 -1.9951
  353TMC3    C7 5348   4.119   1.115   0.787 -0.1976 -0.2633 -0.3461
  353TMC3    C8 5349   4.277   0.985   1.222 -0.7790  0.0255 -0.1158
  353TMC3    O1 5350   4.144   0.998   0.752  0.4668  0.6872  0.1262
  353TMC3    O2 5351   4.258   1.008   1.334  0.2675  0.0187 -0.5046
  354TMC3    C1 5352   1.111   2.837  13.327 -0.1640  1.1190 -0.1147
  354TMC3    C2 5353   1.106   2.972  13.357  0.3176  0.0608  0.0030
  354TMC3    C3 5354   1.039   3.059  13.265 -0.0953 -0.2041  0.0797
  354TMC3    C4 5355   1.057   2.792  13.209 -0.2207 -0.0125  0.7035
  354TMC3    C5 5356   1.005   2.884  13.119  0.0382  0.4394 -0.8005
  354TMC3    C6 5357   1.003   3.017  13.143 -0.4587  0.4004 -0.2011
  354TMC3     C 5358   1.176   2.744  13.410 -0.2857 -0.4323  0.6797
  354TMC3     O 5359   1.139   2.627  13.400  0.2840 -0.5351 -0.5145
  354TMC3     H 5360   1.114   3.016  13.456  0.0604 -0.6639  0.3482
  354TMC3    H1 5361   1.065   2.686  13.188  1.7816  0.2475  0.1277
  354TMC3    H2 5362   0.973   3.081  13.061 -1.2756  0.0169 -0.1990
  354TMC3    C7 5363   0.970   2.837  12.985  0.7896  0.2772 -0.2023
  354TMC3    C8 5364   1.059   3.205  13.260 -0.5447  0.2086 -0.2456
  354TMC3    O1 5365   0.923   2.726  12.976 -0.0344  0.3673 -0.2800
  354TMC3    O2 5366   0.992   3.266  13.186 -0.7397  0.1390  0.2418
  355MPD2     C 5367   1.059   3.893  11.713 -0.1566  0.3369 -0.0472
  355MPD2    C1 5368   1.159   3.878  11.627  0.0549 -0.3827 -0.3201
  355MPD2    C2 5369   1.286   3.876  11.686  0.4040 -0.1095  0.0725
  355MPD2    C3 5370   1.319   3.885  11.820 -0.4948 -0.1377  0.2167
  355MPD2    C4 5371   1.211   3.885  11.902 -0.7015 -1.0000  0.4016
  355MPD2    C5 5372   1.082   3.894  11.850  0.2791 -0.5646  0.1817
  355MPD2     H 5373   1.372   3.868  11.621  0.9173  1.3077  0.5879
  355MPD2    H1 5374   1.219   3.888  12.010 -0.5689  0.2147  0.3660
  355MPD2    H2 5375   0.954   3.900  11.686 -0.1631 -2.1987 -0.7171
  355MPD2    H3 5376   0.995   3.911  11.912  1.4263  1.0288  1.3937
  355MPD2     N 5377   1.446   3.884  11.881  0.1667  0.0296 -0.5095
  355MPD2    H5 5378   1.447   3.902  11.981  0.8575 -4.4929  0.2977
  355MPD2    N1 5379   1.133   3.882  11.486  0.1202  0.7520  0.2779
  355MPD2    H7 5380   1.035   3.881  11.460 -0.5937  2.1018  2.8591
  356TMC3    C1 5381   1.677   3.929  11.889 -0.2524 -0.2378 -0.4774
  356TMC3    C2 5382   1.794   3.914  11.823 -0.2081  0.2183  0.3871
  356TMC3    C3 5383   1.891   3.998  11.863  0.7958 -0.9893  0.2150
  356TMC3    C4 5384   1.657   4.010  11.996  0.2465 -0.1395  0.5000
  356TMC3    C5 5385   1.763   4.086  12.035  0.6845 -0.3343 -0.2915
  356TMC3    C6 5386   1.880   4.081  11.972 -0.4585 -0.9679  0.0022
  356TMC3     C 5387   1.563   3.874  11.809 -0.0755  0.3602  0.4141
  356TMC3     O 5388   1.580   3.838  11.692  0.3185  0.0299  0.6101
  356TMC3     H 5389   1.804   3.865  11.727  2.7111 -0.4624  1.0501
  356TMC3    H1 5390   1.555   4.031  12.026 -0.3973 -0.4568 -1.4637
  356TMC3    H2 5391   1.972   4.117  12.016 -0.9259  0.8413 -0.4911
  356TMC3    C7 5392   1.757   4.117  12.176  0.8064 -0.5370  0.1393
  356TMC3    C8 5393   1.990   4.029  11.762 -0.0296  0.1643 -0.4760
  356TMC3    O1 5394   1.670   4.052  12.233 -0.1401  0.1897  0.0014
  356TMC3    O2 5395   1.996   3.957  11.659  0.9477  0.4028  0.3333
  357MPD2     C 5396   1.248   3.708   0.627  0.3613  0.2860 -0.2905
  357MPD2    C1 5397   1.136   3.656   0.695 -0.1961  0.0961 -0.3987
  357MPD2    C2 5398   1.019   3.641   0.634 -0.1853 -0.3980 -0.0125
  357MPD2    C3 5399   1.007   3.661   0.497  0.3686  0.0528  0.1782
  357MPD2    C4 5400   1.117   3.714   0.429 -0.5349  0.1077  0.2166
  357MPD2    C5 5401   1.235   3.738   0.489 -0.5020 -0.0519  0.2609
  357MPD2     H 5402   0.927   3.606   0.679 -0.3179  0.8617  0.7041
  357MPD2    H1 5403   1.107   3.758   0.331  2.1965 -2.2479 -1.1124
  357MPD2    H2 5404   1.346   3.738   0.663  1.7511 -2.5881 -1.6609
  357MPD2    H3 5405   1.322   3.785   0.444 -0.4679 -1.8054 -1.5162
  357MPD2     N 5406   0.884   3.646   0.426 -0.3557  0.5931  0.7334
  357MPD2    H5 5407   0.885   3.678   0.330 -1.4224 -0.6363  0.3214
  357MPD2    N1 5408   1.165   3.649   0.833 -0.1747 -0.1987  0.6326
  357MPD2    H7 5409   1.256   3.684   0.860 -1.1850  0.0571  3.6697
  358TMC3    C1 5410   0.988   3.505   0.901 -0.1029  0.2252  0.0163
  358TMC3    C2 5411   1.004   3.396   0.813  0.1600  0.3241  0.4213
  358TMC3    C3 5412   0.910   3.309   0.800  0.0648  0.2267  0.4408
  358TMC3    C4 5413   0.887   3.489   0.991  0.2511  0.0086 -0.3827
  358TMC3    C5 5414   0.789   3.413   0.969  0.0017 -0.0680 -0.1958
  358TMC3    C6 5415   0.790   3.328   0.859 -0.2118  0.0581  0.4126
  358TMC3     C 5416   1.097   3.594   0.936  0.1563 -1.2494  0.0913
  358TMC3     O 5417   1.115   3.611   1.056  0.1104  0.0371 -0.3502
  358TMC3     H 5418   1.090   3.393   0.747  0.6188 -2.5421  1.1561
  358TMC3    H1 5419   0.887   3.548   1.082 -0.2434  1.9294 -1.6304
  358TMC3    H2 5420   0.715   3.250   0.859 -0.8854  0.6957  1.1282
  358TMC3    C7 5421   0.691   3.403   1.073 -0.2482  0.2899  0.3128
  358TMC3    C8 5422   0.907   3.248   0.670  0.2004 -0.4541  0.5084
  358TMC3    O1 5423   0.736   3.394   1.190 -0.0346 -0.5688 -0.4676
  358TMC3    O2 5424   1.003   3.254   0.595  0.4325  0.3051 -0.0108
  359MPD2     C 5425   1.112   2.290  12.468 -0.0618 -0.4351 -0.4803
  359MPD2    C1 5426   1.227   2.241  12.423 -0.6266 -0.1676  0.1471
  359MPD2    C2 5427   1.284   2.126  12.487  0.0630  0.0292 -0.1059
  359MPD2    C3 5428   1.212   2.067  12.593  0.0391 -0.3977  0.1585
  359MPD2    C4 5429   1.104   2.127  12.639 -0.6746  0.7019 -0.5462
  359MPD2    C5 5430   1.050   2.235  12.576  0.5376  0.7866  0.6149
  359MPD2     H 5431   1.379   2.090  12.448 -0.5289 -0.3475 -1.1895
  359MPD2    H1 5432   1.051   2.090  12.726 -1.1751  0.9963 -0.7231
  359MPD2    H2 5433   1.054   2.372  12.427 -0.3618 -0.4672 -0.1209
  359MPD2    H3 5434   0.956   2.278  12.608  0.5776 -1.0155  3.1725
  359MPD2     N 5435   1.258   1.941  12.646  0.0504  0.1667  0.0716
  359MPD2    H5 5436   1.213   1.912  12.732  2.1883 -1.4677  0.6428
  359MPD2    N1 5437   1.292   2.279  12.308  0.5216  0.4807  0.4449
  359MPD2    H7 5438   1.362   2.219  12.266  1.5606  1.6277  0.5556
  360TMC3    C1 5439   1.319   2.386  12.103 -0.0155 -0.8503  0.4464
  360TMC3    C2 5440   1.429   2.305  12.096  0.6508  0.0074 -0.6037
  360TMC3    C3 5441   1.463   2.228  11.988  0.3877  0.4108 -0.1963
  360TMC3    C4 5442   1.230   2.379  12.002 -0.3342 -0.0857  0.5167
  360TMC3    C5 5443   1.263   2.296  11.903  0.0538 -0.0026  0.1082
  360TMC3    C6 5444   1.373   2.222  11.883  0.0149  0.1717  0.8512
  360TMC3     C 5445   1.260   2.390  12.233  1.4938 -0.1865  0.0391
  360TMC3     O 5446   1.167   2.471  12.246  0.4702  0.7376 -0.7878
  360TMC3     H 5447   1.513   2.318  12.163 -0.2943 -0.9102  0.7755
  360TMC3    H1 5448   1.137   2.436  12.006 -0.5587 -0.5980  2.4751
  360TMC3    H2 5449   1.382   2.150  11.803 -0.3301  0.0029  0.9628
  360TMC3    C7 5450   1.167   2.291  11.796 -0.0570 -0.4783  0.3736
  360TMC3    C8 5451   1.583   2.146  12.002  0.6729 -0.0310  0.3468
  360TMC3    O1 5452   1.051   2.277  11.825  0.1624  0.1232  0.0359
  360TMC3    O2 5453   1.632   2.141  12.117 -0.4726 -0.5063 -0.9323
  361MPD2     C 5454   2.773   1.234  16.902 -0.1395  1.0291  0.6189
  361MPD2    C1 5455   2.860   1.336  16.942  0.4311 -0.1841  0.3322
  361MPD2    C2 5456   2.994   1.312  16.984 -0.2684 -0.2191  0.2227
  361MPD2    C3 5457   3.032   1.184  16.984  0.0360 -1.2557  0.6445
  361MPD2    C4 5458   2.950   1.084  16.937  0.6524  0.5186 -0.2636
  361MPD2    C5 5459   2.820   1.109  16.902  0.0295 -1.0864 -0.4480
  361MPD2     H 5460   3.056   1.398  17.007 -2.4762  1.8313 -1.5202
  361MPD2    H1 5461   2.982   0.981  16.945 -1.3077 -0.0550  0.0895
  361MPD2    H2 5462   2.671   1.250  16.867 -0.3357  1.1150  1.2276
  361MPD2    H3 5463   2.751   1.029  16.876  1.5138 -1.8239 -2.1161
  361MPD2     N 5464   3.157   1.140  17.024 -0.4937 -0.1363  0.2344
  361MPD2    H5 5465   3.171   1.039  17.030  3.0851  0.3276 -0.3646
  361MPD2    N1 5466   2.832   1.475  16.927  0.0582 -0.1503 -0.2517
  361MPD2    H7 5467   2.885   1.539  16.986  0.5073  0.6069 -1.4870
  362TMC3    C1 5468   2.728   1.672  16.838 -0.7390 -0.1981 -0.2638
  362TMC3    C2 5469   2.838   1.742  16.884 -0.2943 -0.3620 -0.4917
  362TMC3    C3 5470   2.815   1.874  16.881 -0.7395  0.3347  0.1498
  362TMC3    C4 5471   2.621   1.724  16.770  0.2854  0.2026  0.5528
  362TMC3    C5 5472   2.623   1.856  16.754  0.2557  0.8586  0.3158
  362TMC3    C6 5473   2.718   1.935  16.814  0.0631  0.0910  0.2692
  362TMC3     C 5474   2.728   1.527  16.853  0.1520 -0.5280 -0.4154
  362TMC3     O 5475   2.648   1.465  16.783 -0.1288  0.6730  0.1318
  362TMC3     H 5476   2.928   1.693  16.920  0.0600 -0.2934 -1.2932
  362TMC3    H1 5477   2.536   1.668  16.732  0.9990  1.0500 -2.3004
  362TMC3    H2 5478   2.708   2.043  16.817 -1.3330 -0.0387  0.2369
  362TMC3    C7 5479   2.510   1.932  16.704 -0.4403 -0.6861  0.1917
  362TMC3    C8 5480   2.889   1.939  16.993  1.1989 -0.1009 -0.0974
  362TMC3    O1 5481   2.514   2.051  16.724  0.3211 -0.4450  0.5156
  362TMC3    O2 5482   2.999   1.894  17.019 -0.6560  0.6266 -0.0876
  363TMC3    C1 5483   1.620   4.342   9.349  0.2006  0.2548  0.4603
  363TMC3    C2 5484   1.703   4.277   9.433  0.4468  0.6175  0.7110
  363TMC3    C3 5485   1.750   4.345   9.541  0.3328 -0.0909  0.7402
  363TMC3    C4 5486   1.573   4.468   9.369  0.0316 -0.2852  0.7143
  363TMC3    C5 5487   1.614   4.537   9.482  0.1997 -0.0205  0.0826
  363TMC3    C6 5488   1.702   4.473   9.566 -0.0783  0.2847  0.0369
  363TMC3     C 5489   1.603   4.294   9.210 -0.7806 -0.2047  0.4172
  363TMC3     O 5490   1.571   4.375   9.127  0.2022 -0.4854 -0.2287
  363TMC3     H 5491   1.742   4.177   9.414  1.5252  1.9171 -3.7571
  363TMC3    H1 5492   1.509   4.518   9.297 -0.3722 -1.5353  0.1990
  363TMC3    H2 5493   1.734   4.523   9.657  1.9871 -0.7404 -0.1516
  363TMC3    C7 5494   1.595   4.684   9.497  0.1720  0.1777 -0.3621
  363TMC3    C8 5495   1.815   4.280   9.652  0.5262  0.4597  0.0100
  363TMC3    O1 5496   1.563   0.018   9.396  0.7390 -0.7646 -0.3275
  363TMC3    O2 5497   1.808   4.332   9.763  0.1944  0.1358 -0.4928
  364MPD2     C 5498   0.322   3.601  10.478  0.2139  0.8788  0.1213
  364MPD2    C1 5499   0.440   3.611  10.410  0.2129  0.7928 -0.1029
  364MPD2    C2 5500   0.501   3.502  10.354  0.0197  1.1134 -0.4822
  364MPD2    C3 5501   0.453   3.376  10.384 -0.2550  0.8197 -0.4230
  364MPD2    C4 5502   0.334   3.366  10.457  0.3811  0.2306 -0.6541
  364MPD2    C5 5503   0.268   3.481  10.496  0.1990 -0.1722  0.5486
  364MPD2     H 5504   0.596   3.514  10.302  0.2213 -4.3406 -1.4707
  364MPD2    H1 5505   0.290   3.271  10.486  0.2821  1.3074  2.7180
  364MPD2    H2 5506   0.260   3.687  10.500 -2.0369 -0.3295 -1.5534
  364MPD2    H3 5507   0.166   3.472  10.530 -0.5846  1.4201 -1.3813
  364MPD2     N 5508   0.525   3.257  10.357 -0.1906 -0.4467 -1.3839
  364MPD2    H5 5509   0.504   3.174  10.411 -0.0830  0.1995 -0.3401
  364MPD2    N1 5510   0.501   3.738  10.403  0.1495  0.4416  0.4721
  364MPD2    H7 5511   0.458   3.812  10.459 -3.0406 -1.6625  0.7856
  365TMC3    C1 5512   0.616   3.924  10.326  0.7140 -0.1438  0.4773
  365TMC3    C2 5513   0.662   3.981  10.213  0.1678  0.2797 -0.3892
  365TMC3    C3 5514   0.701   4.111  10.212  0.7481 -0.0402 -0.1911
  365TMC3    C4 5515   0.624   3.987  10.444  0.2190  0.0734 -0.4534
  365TMC3    C5 5516   0.654   4.120  10.439 -0.0042 -0.3832  0.5547
  365TMC3    C6 5517   0.695   4.188  10.324 -0.4608  0.1248  0.1293
  365TMC3     C 5518   0.595   3.779  10.320 -0.2793  0.2212 -0.3509
  365TMC3     O 5519   0.651   3.724  10.225 -0.7342  0.5818 -0.3038
  365TMC3     H 5520   0.681   3.919  10.127  0.9316  1.7975 -1.3136
  365TMC3    H1 5521   0.617   3.927  10.534  0.4523 -0.6294 -0.9071
  365TMC3    H2 5522   0.731   4.290  10.325  1.1925 -0.4586  0.8623
  365TMC3    C7 5523   0.642   4.196  10.561  0.0697 -0.2366  0.3571
  365TMC3    C8 5524   0.746   4.174  10.084 -0.3134 -0.0254  0.0289
  365TMC3    O1 5525   0.681   4.311  10.560  0.1744  0.5791 -0.4194
  365TMC3    O2 5526   0.728   4.294  10.081  0.6781 -0.0037  0.0254
  366MPD2     C 5527   3.410   4.065  15.252  0.0243  0.1557 -0.3749
  366MPD2    C1 5528   3.446   4.174  15.171  0.3075  0.4721  0.2187
  366MPD2    C2 5529   3.576   4.179  15.119  0.3465  0.2489  0.7162
  366MPD2    C3 5530   3.679   4.102  15.164  0.2728  0.4250 -0.0954
  366MPD2    C4 5531   3.639   3.989  15.235  0.1574 -0.1138 -0.7169
  366MPD2    C5 5532   3.508   3.970  15.269  0.7650  0.2831  0.2178
  366MPD2     H 5533   3.602   4.267  15.062  1.2072 -0.3437  0.1759
  366MPD2    H1 5534   3.704   3.910  15.269  1.2362  2.2668  2.7851
  366MPD2    H2 5535   3.312   4.054  15.297  0.6527 -0.5593  0.8105
  366MPD2    H3 5536   3.482   3.879  15.324 -0.8107 -0.0954 -1.1318
  366MPD2     N 5537   3.811   4.147  15.132 -0.1984  0.1013  0.4524
  366MPD2    H5 5538   3.817   4.235  15.083 -0.6454  1.2265  2.4134
  366MPD2    N1 5539   3.367   4.294  15.162  0.1447 -0.8070 -0.1355
  366MPD2    H7 5540   3.421   4.376  15.136  2.4225 -2.2409  0.0483
  367TMC3    C1 5541   3.234   4.451  15.248 -0.1280  0.0498  0.2743
  367TMC3    C2 5542   3.346   4.494  15.299  0.8018 -0.4694 -0.9094
  367TMC3    C3 5543   3.373   4.631  15.286 -0.5179  0.5019  0.4246
  367TMC3    C4 5544   3.160   4.534  15.162  0.2358  0.6196  0.2711
  367TMC3    C5 5545   3.199   4.664  15.145  0.2987 -0.3397  0.0523
  367TMC3    C6 5546   3.310   4.715  15.198 -0.9034 -0.4923  0.2315
  367TMC3     C 5547   3.240   4.318  15.206  0.4102  0.2058  0.7514
  367TMC3     O 5548   3.151   4.237  15.226  0.4528 -0.1007  0.2666
  367TMC3     H 5549   3.415   4.431  15.354 -0.0143  0.8693  1.6482
  367TMC3    H1 5550   3.065   4.498  15.126 -0.6679  2.6854  0.6004
  367TMC3    H2 5551   3.329   0.086  15.186  0.3440 -1.0833 -3.0630
  367TMC3    C7 5552   3.105   0.027  15.089  0.2558 -0.4456 -0.0049
  367TMC3    C8 5553   3.498   4.670  15.344 -0.3864 -0.0609  0.0215
  367TMC3    O1 5554   3.110   0.143  15.126 -0.1389  0.0255 -0.0831
  367TMC3    O2 5555   3.534   4.610  15.444 -0.1838  0.0514 -0.6396
  368MPD2     C 5556   4.678   1.336  13.426  0.0637 -0.4599  0.6450
  368MPD2    C1 5557   4.723   1.432  13.341 -0.3003  0.0030 -0.5938
  368MPD2    C2 5558   0.097   1.409  13.260  0.4519 -0.3443 -0.4789
  368MPD2    C3 5559   0.157   1.282  13.252 -0.6206  0.9895 -0.2993
  368MPD2    C4 5560   0.109   1.184  13.341 -0.0709 -0.2172 -0.7707
  368MPD2    C5 5561   4.733   1.210  13.418  0.0315  1.0082 -0.4969
  368MPD2     H 5562   0.126   1.496  13.202  3.1401 -0.5243  0.6123
  368MPD2    H1 5563   0.159   1.088  13.334  1.7197  0.8705 -2.7210
  368MPD2    H2 5564   4.589   1.350  13.486 -0.1972  0.0843  0.1310
  368MPD2    H3 5565   4.683   1.132  13.474  1.9819  0.9217  1.1372
  368MPD2     N 5566   0.270   1.245  13.174  0.1719 -0.0519  0.0616
  368MPD2    H5 5567   0.325   1.169  13.213  1.2041 -0.4431 -2.1530
  368MPD2    N1 5568   4.656   1.556  13.365  0.3197  0.1518  0.2082
  368MPD2    H7 5569   4.601   1.552  13.450  0.4900  0.8201  0.3504
  369TMC3    C1 5570   4.606   1.792  13.379  0.5596  0.4485  0.5025
  369TMC3    C2 5571   4.626   1.918  13.321 -1.2097  0.3803 -0.5468
  369TMC3    C3 5572   4.532   2.014  13.365 -0.1795  0.2611  0.0804
  369TMC3    C4 5573   4.500   1.762  13.459 -0.6644 -0.0370  0.1897
  369TMC3    C5 5574   4.400   1.853  13.471 -0.1250 -0.6630  0.2848
  369TMC3    C6 5575   4.419   1.986  13.434 -0.3653  0.9462 -0.1616
  369TMC3     C 5576   4.692   1.682  13.319  0.5963  0.6444 -0.0688
  369TMC3     O 5577   0.049   1.715  13.251  0.0695  0.1708 -0.4932
  369TMC3     H 5578   4.708   1.932  13.251  0.5488 -3.6889  0.7268
  369TMC3    H1 5579   4.481   1.660  13.491  0.6747  0.4858  2.6555
  369TMC3    H2 5580   4.344   2.062  13.456 -1.3453 -0.4673  1.3442
  369TMC3    C7 5581   4.270   1.805  13.508 -0.6403 -0.2333  0.1493
  369TMC3    C8 5582   4.557   2.149  13.333 -1.0144  0.9518 -0.5590
  369TMC3    O1 5583   4.271   1.698  13.571 -0.3493  0.3084 -0.1821
  369TMC3    O2 5584   4.475   2.227  13.384 -0.3916 -0.2815  0.2349
  370TMC3    C1 5585   4.151   2.208  16.589  1.0411 -0.1401  0.2126
  370TMC3    C2 5586   4.075   2.123  16.660 -0.4375  0.8822 -0.0376
  370TMC3    C3 5587   4.017   2.020  16.595 -0.3836 -0.3556  0.0548
  370TMC3    C4 5588   4.173   2.196  16.454  0.3432  0.4898  1.1094
  370TMC3    C5 5589   4.126   2.083  16.395 -0.5762  0.4374 -0.2715
  370TMC3    C6 5590   4.045   1.996  16.460  0.5767  0.4409  0.3801
  370TMC3     C 5591   4.230   2.302  16.662  0.3459  0.4496 -0.1543
  370TMC3     O 5592   4.216   2.301  16.783  0.3172 -0.0633 -0.1043
  370TMC3     H 5593   4.056   2.152  16.763  0.0192  1.5111 -0.1296
  370TMC3    H1 5594   4.249   2.248  16.398  0.4898 -1.9798 -0.9909
  370TMC3    H2 5595   4.009   1.904  16.415  3.3210 -0.1759 -0.5614
  370TMC3    C7 5596   4.201   2.039  16.280 -0.4958  0.5277 -0.1709
  370TMC3    C8 5597   3.934   1.928  16.661 -0.4781 -0.5071  0.9172
  370TMC3    O1 5598   4.250   2.123  16.207 -0.6053  0.2791  0.3164
  370TMC3    O2 5599   3.900   1.826  16.601  0.1336  0.3424 -0.3532
  371TMC3    C1 5600   0.864   0.842  15.603 -0.4557  1.0439 -0.5261
  371TMC3    C2 5601   0.795   0.805  15.710  0.2976 -0.2134  0.5463
  371TMC3    C3 5602   0.736   0.896  15.788  0.3492 -0.6687  0.1958
  371TMC3    C4 5603   0.881   0.974  15.573 -0.6820  0.0215 -0.7574
  371TMC3    C5 5604   0.819   1.066  15.659 -0.3083 -0.4679 -0.2308
  371TMC3    C6 5605   0.741   1.028  15.765 -0.0735 -0.4487  0.1322
  371TMC3     C 5606   0.917   0.741  15.513  0.2800 -0.1474  0.3677
  371TMC3     O 5607   0.983   0.776  15.415 -0.1303 -0.2479  0.4755
  371TMC3     H 5608   0.806   0.701  15.739 -0.1629 -0.6564 -0.8598
  371TMC3    H1 5609   0.938   1.008  15.487 -0.7019  1.2892 -0.2786
  371TMC3    H2 5610   0.697   1.107  15.825  1.2712  0.5949 -0.2545
  371TMC3    C7 5611   0.827   1.213  15.639  0.4538 -0.3486 -0.0045
  371TMC3    C8 5612   0.656   0.842  15.895  0.7710 -1.0119  0.4586
  371TMC3    O1 5613   0.756   1.285  15.708 -0.7867  0.5644  0.3745
  371TMC3    O2 5614   0.669   0.720  15.922  0.0838 -0.1390  0.1406
  372MPD2     C 5615   0.520   1.814  13.335 -0.2301  0.0761  0.3967
  372MPD2    C1 5616   0.622   1.753  13.404 -1.0128  0.7372  0.5245
  372MPD2    C2 5617   0.594   1.637  13.474 -0.5991  0.7957  0.5531
  372MPD2    C3 5618   0.464   1.587  13.480 -0.3763 -0.4822 -0.0957
  372MPD2    C4 5619   0.367   1.649  13.408  0.0732  0.2415  0.5817
  372MPD2    C5 5620   0.393   1.763  13.333 -0.6396  0.3975  0.6113
  372MPD2     H 5621   0.669   1.583  13.529 -0.0328 -0.0327 -1.0554
  372MPD2    H1 5622   0.265   1.612  13.404 -0.6961  2.2299  1.8743
  372MPD2    H2 5623   0.536   1.900  13.271  0.7103 -2.0171 -2.1827
  372MPD2    H3 5624   0.317   1.819  13.278 -1.1576  0.0266  0.9485
  372MPD2     N 5625   0.443   1.461  13.540  0.4523  0.3057 -0.2581
  372MPD2    H5 5626   0.523   1.398  13.551 -0.5592 -1.0641 -0.7301
  372MPD2    N1 5627   0.754   1.801  13.398  0.3822  0.2261 -0.1595
  372MPD2    H7 5628   0.826   1.762  13.458 -0.1606 -1.9394 -0.9008
  373TMC3    C1 5629   0.317   1.284  13.626  0.5673  0.1464 -0.8686
  373TMC3    C2 5630   0.285   1.269  13.753 -0.3940  0.6131  1.0984
  373TMC3    C3 5631   0.339   1.166  13.828 -0.4897  0.6427  0.1351
  373TMC3    C4 5632   0.404   1.203  13.566 -0.1427  0.4328  0.3204
  373TMC3    C5 5633   0.458   1.105  13.646  0.8651 -0.1342 -0.1713
  373TMC3    C6 5634   0.431   1.082  13.777 -0.0340  0.2284  0.1285
  373TMC3     C 5635   0.316   1.421  13.588  0.1312 -0.0395 -0.1739
  373TMC3     O 5636   0.212   1.476  13.614 -0.3704 -0.0346 -0.3446
  373TMC3     H 5637   0.242   1.354  13.804 -3.2163  0.5034 -1.1360
  373TMC3    H1 5638   0.448   1.224  13.469 -0.4338 -1.6335 -0.2588
  373TMC3    H2 5639   0.468   0.996  13.831 -0.3496 -0.3245 -0.5412
  373TMC3    C7 5640   0.538   0.999  13.588 -0.2263  0.3700 -0.1983
  373TMC3    C8 5641   0.336   1.176  13.967 -0.3438 -0.4859 -0.4146
  373TMC3    O1 5642   0.524   0.982  13.469  0.4433 -0.4365 -0.5447
  373TMC3    O2 5643   0.226   1.200  14.014  0.0993 -0.4087 -0.0999
  374TMC3    C1 5644   0.879   2.563   9.520 -0.0485  0.2673  0.6030
  374TMC3    C2 5645   0.991   2.625   9.576 -0.9644  0.6493  0.3031
  374TMC3    C3 5646   1.080   2.679   9.489 -0.2827 -0.3191  0.3676
  374TMC3    C4 5647   0.862   2.556   9.383 -0.1582  0.1389 -0.3883
  374TMC3    C5 5648   0.946   2.617   9.296  0.6670 -0.1218  0.0162
  374TMC3    C6 5649   1.057   2.679   9.348  0.2624 -0.1568 -0.4601
  374TMC3     C 5650   0.771   2.536   9.607 -1.0750  0.3503  0.8353
  374TMC3     O 5651   0.686   2.464   9.563 -0.1493  0.2043  0.2889
  374TMC3     H 5652   1.005   2.628   9.683  0.3765  0.5156  0.1293
  374TMC3    H1 5653   0.760   2.538   9.351  0.4915 -1.7725 -1.3724
  374TMC3    H2 5654   1.132   2.722   9.282 -0.3838 -0.0430 -1.1258
  374TMC3    C7 5655   0.897   2.640   9.165  0.8797 -0.2245  0.5659
  374TMC3    C8 5656   1.192   2.755   9.532 -0.5067 -0.2914  0.8549
  374TMC3    O1 5657   0.809   2.570   9.122  0.0194 -0.4454  0.5828
  374TMC3    O2 5658   1.243   2.841   9.459 -0.3037 -0.1625 -0.0300
  375MPD2     C 5659   0.658   2.292  17.505  0.1181 -0.3909  0.3811
  375MPD2    C1 5660   0.589   2.405  17.467  0.2868 -0.3807  0.7362
  375MPD2    C2 5661   0.601   2.446  17.338  0.2146  0.0065  0.0429
  375MPD2    C3 5662   0.687   2.388  17.254  0.0021 -0.1203  0.3731
  375MPD2    C4 5663   0.777   2.290  17.304 -0.2121  0.0431  0.0561
  375MPD2    C5 5664   0.758   2.236  17.429 -0.0447 -0.6585 -0.7259
  375MPD2     H 5665   0.551   2.537  17.308  0.7535  0.1047 -0.5412
  375MPD2    H1 5666   0.853   2.241  17.244  1.1770  0.6646  1.3186
  375MPD2    H2 5667   0.648   2.243  17.601 -0.3164  1.4392  1.2527
  375MPD2    H3 5668   0.822   2.156  17.463  0.4649  0.1031  0.0930
  375MPD2     N 5669   0.702   2.431  17.120  0.1046 -0.0149 -0.7362
  375MPD2    H5 5670   0.779   2.388  17.069 -0.6823 -0.3196 -1.6671
  375MPD2    N1 5671   0.507   2.482  17.547 -0.5422  0.7108  0.3134
  375MPD2    H7 5672   0.462   2.561  17.502  0.6486  1.9435  1.2902
  376TMC3    C1 5673   0.680   2.572  16.941  0.2392 -0.1588 -0.1686
  376TMC3    C2 5674   0.818   2.594  16.933 -0.3818 -0.1701  0.1047
  376TMC3    C3 5675   0.862   2.662  16.823  0.0862 -0.0354 -0.2739
  376TMC3    C4 5676   0.592   2.605  16.847 -0.2431 -0.0688  0.0654
  376TMC3    C5 5677   0.639   2.674  16.745 -0.6059  0.1153 -0.0909
  376TMC3    C6 5678   0.777   2.700  16.730  0.2443  0.1098 -0.2770
  376TMC3     C 5679   0.624   2.527  17.066 -1.0587 -0.2967  0.4005
  376TMC3     O 5680   0.503   2.544  17.075 -0.1099 -0.3166  0.1458
  376TMC3     H 5681   0.881   2.586  17.021 -1.3280 -1.2127  0.6816
  376TMC3    H1 5682   0.485   2.590  16.856 -0.1770 -1.4552 -1.4839
  376TMC3    H2 5683   0.808   2.738  16.633  0.2048 -0.2168 -0.4184
  376TMC3    C7 5684   0.554   2.737  16.638  0.1486  0.2481 -0.5323
  376TMC3    C8 5685   1.003   2.661  16.793  0.0023 -0.4835 -0.2359
  376TMC3    O1 5686   0.614   2.790  16.549 -0.2303  0.0477  0.2264
  376TMC3    O2 5687   1.045   2.750  16.718  0.8414 -0.0141  0.8588
  377MPD2     C 5688   3.929   1.488  13.307  0.0701  0.8523 -0.8844
  377MPD2    C1 5689   3.874   1.590  13.237 -0.5589 -0.0968  0.4159
  377MPD2    C2 5690   3.739   1.611  13.247 -0.6707 -0.4209  0.2253
  377MPD2    C3 5691   3.654   1.537  13.331 -0.0415 -0.2420 -0.5923
  377MPD2    C4 5692   3.711   1.433  13.401 -0.3372 -0.2068 -0.5182
  377MPD2    C5 5693   3.845   1.411  13.385 -0.2609 -0.4980 -0.1754
  377MPD2     H 5694   3.689   1.690  13.191  0.9641 -0.6444 -1.5568
  377MPD2    H1 5695   3.646   1.368  13.459 -2.2937  1.6919 -0.5921
  377MPD2    H2 5696   4.032   1.459  13.291  1.0423  2.8256  1.7578
  377MPD2    H3 5697   3.889   1.321  13.427  0.3742 -0.0381  0.1468
  377MPD2     N 5698   3.510   1.555  13.343 -1.1689  0.4326 -0.4027
  377MPD2    H5 5699   3.467   1.508  13.422  1.8329 -1.7318 -0.0228
  377MPD2    N1 5700   3.958   1.672  13.159 -0.3406  0.2691  0.9293
  377MPD2    H7 5701   4.057   1.653  13.171 -0.4768 -1.7016 -1.0600
  378TMC3    C1 5702   4.122   1.992  12.855 -0.0713 -0.6073  0.5549
  378TMC3    C2 5703   4.030   1.962  12.951  0.4806  0.4240 -0.2783
  378TMC3    C3 5704   4.040   1.838  13.004 -0.4293  0.9339  0.1921
  378TMC3    C4 5705   4.214   1.906  12.797  0.1955  0.2525  1.0327
  378TMC3    C5 5706   4.212   1.777  12.851  0.3944 -0.2224  0.6075
  378TMC3    C6 5707   4.127   1.748  12.955 -0.3796  0.1726  0.0702
  378TMC3     C 5708   4.117   2.127  12.807  0.3001  0.2152  0.1015
  378TMC3     O 5709   4.018   2.194  12.837  0.5263  0.2848  0.8995
  378TMC3     H 5710   3.956   2.032  12.988  0.5080 -1.7070  3.8336
  378TMC3    H1 5711   4.271   1.935  12.710 -1.0831  2.6004  0.9908
  378TMC3    H2 5712   4.127   1.645  12.987 -0.1138  0.0762 -0.2449
  378TMC3    C7 5713   4.316   1.674  12.830  0.1416 -0.3023 -0.0301
  378TMC3    C8 5714   3.925   1.784  13.086 -0.5645 -0.0417  0.0867
  378TMC3    O1 5715   4.309   1.569  12.897 -0.3564  0.3226  0.9967
  378TMC3    O2 5716   3.816   1.840  13.083  0.0003  0.5358 -0.3989
  379MPD2     C 5717   4.046   4.518  16.110  0.9682  0.7052 -1.0628
  379MPD2    C1 5718   4.166   4.551  16.059  0.9117  0.0240  0.2727
  379MPD2    C2 5719   4.282   4.546  16.138  0.0732  0.0289  0.0657
  379MPD2    C3 5720   4.268   4.497  16.268 -0.2912 -0.7247 -0.3952
  379MPD2    C4 5721   4.144   4.452  16.313  0.4085  0.0997 -0.6699
  379MPD2    C5 5722   4.034   4.466  16.232 -0.0794 -0.1887 -0.1662
  379MPD2     H 5723   4.378   4.581  16.103 -0.2815  0.3198 -0.6156
  379MPD2    H1 5724   4.138   4.422  16.417 -3.8093 -0.7296 -1.1391
  379MPD2    H2 5725   3.959   4.512  16.046  0.6324 -0.5614 -0.5019
  379MPD2    H3 5726   3.938   4.424  16.261 -0.1029  0.2422  0.3579
  379MPD2     N 5727   4.379   4.483  16.359 -0.4972 -0.0257  0.6529
  379MPD2    H5 5728   4.351   4.450  16.450 -1.0469 -0.3085  0.3847
  379MPD2    N1 5729   4.169   4.593  15.926  0.4643  0.5777 -0.5656
  379MPD2    H7 5730   4.084   4.617  15.877 -0.0623  0.1213  0.1286
  380TMC3    C1 5731   4.277   4.627  15.717 -0.7157 -0.3788  0.3922
  380TMC3    C2 5732   4.385   4.613  15.637  0.1353  0.7268  0.0281
  380TMC3    C3 5733   4.400   4.695  15.530 -0.0358 -0.4210 -0.2155
  380TMC3    C4 5734   4.185   4.723  15.689 -0.0595  0.0352 -0.1944
  380TMC3    C5 5735   4.205   0.072  15.588 -0.1867 -0.2752 -0.3484
  380TMC3    C6 5736   4.310   0.057  15.501  0.3387  0.2934  1.0440
  380TMC3     C 5737   4.286   4.576  15.852 -0.9828 -0.3205  0.3969
  380TMC3     O 5738   4.401   4.557  15.886 -0.4319  0.4369  0.3484
  380TMC3     H 5739   4.453   4.529  15.649  0.0033  0.6156 -0.0058
  380TMC3    H1 5740   4.115   0.018  15.766  2.0208  1.2466  1.2062
  380TMC3    H2 5741   4.332   0.134  15.427  1.1489 -0.2892  0.6855
  380TMC3    C7 5742   4.101   0.165  15.544 -0.6086  0.4236  0.4824
  380TMC3    C8 5743   4.536   0.007  15.537 -0.2986 -0.0668 -0.5388
  380TMC3    O1 5744   4.143   0.278  15.522 -0.2743  0.4233  0.1746
  380TMC3    O2 5745   4.604   4.691  15.624 -0.0671  0.0897  0.2131
  381TMC3    C1 5746   4.267   1.161  16.484 -0.0907  0.1942  0.4618
  381TMC3    C2 5747   4.329   1.268  16.550  0.8054  0.0527 -0.6230
  381TMC3    C3 5748   4.249   1.373  16.595  0.2832  0.6195 -0.5029
  381TMC3    C4 5749   4.133   1.159  16.450  0.9407  0.6430  0.5318
  381TMC3    C5 5750   4.061   1.272  16.492 -0.5082 -0.5843  0.3080
  381TMC3    C6 5751   4.113   1.374  16.565 -0.5411  0.2070  0.0595
  381TMC3     C 5752   4.358   1.056  16.450  0.3067  0.6627 -0.2167
  381TMC3     O 5753   4.466   1.049  16.512  0.1349  0.2668  0.1900
  381TMC3     H 5754   4.431   1.280  16.583  0.2866  3.2104 -0.1943
  381TMC3    H1 5755   4.084   1.075  16.402  0.5321  0.7245  0.8095
  381TMC3    H2 5756   4.052   1.453  16.607 -0.7913 -0.4238  0.8862
  381TMC3    C7 5757   3.922   1.270  16.448  0.0699  0.1926 -0.3123
  381TMC3    C8 5758   4.326   1.498  16.590 -1.0731  0.7271  0.1416
  381TMC3    O1 5759   3.877   1.169  16.394 -0.1753 -0.4314  0.0609
  381TMC3    O2 5760   4.420   1.498  16.512  0.0149  0.0525  0.0944
  382MPD2     C 5761   3.450   4.052  16.966  0.2253  1.4599  0.4022
  382MPD2    C1 5762   3.545   3.962  17.003  0.0212 -0.0854  0.4054
  382MPD2    C2 5763   3.523   3.888  17.116  0.0042  0.0449  0.6616
  382MPD2    C3 5764   3.404   3.898  17.184 -0.2306  0.6229  0.0303
  382MPD2    C4 5765   3.305   3.990  17.142  0.4435 -0.3186 -0.6919
  382MPD2    C5 5766   3.336   4.070  17.035 -0.1699 -0.4583  0.1750
  382MPD2     H 5767   3.596   3.812  17.142 -1.2203 -1.8021 -1.2471
  382MPD2    H1 5768   3.208   3.995  17.189  0.5278 -2.1888 -0.2983
  382MPD2    H2 5769   3.463   4.118  16.881  0.1842  0.2539 -0.5434
  382MPD2    H3 5770   3.256   4.137  17.005 -0.3736 -0.2366  1.1821
  382MPD2     N 5771   3.366   3.814  17.286  0.3945  0.3539  0.1419
  382MPD2    H5 5772   3.272   3.819  17.325  0.9487  1.9904  1.2773
  382MPD2    N1 5773   3.663   3.934  16.928 -0.3395 -0.1549  0.2695
  382MPD2    H7 5774   3.722   3.857  16.957  0.9421  0.2454 -1.2614
  383TMC3    C1 5775   3.392   3.644  17.445  0.0735  0.0031  0.4278
  383TMC3    C2 5776   3.283   3.580  17.401 -0.1511 -0.7004  0.2284
  383TMC3    C3 5777   3.240   3.475  17.478  0.7275  0.3613 -0.3392
  383TMC3    C4 5778   3.466   3.615  17.563  0.1070 -0.3605 -0.3833
  383TMC3    C5 5779   3.412   3.522  17.643 -0.9040  0.2215  0.2163
  383TMC3    C6 5780   3.309   3.446  17.598  0.1926  0.1896  0.1011
  383TMC3     C 5781   3.456   3.732  17.352 -0.2079 -0.1191 -0.2521
  383TMC3     O 5782   3.580   3.733  17.355  0.1051 -0.1654 -0.1404
  383TMC3     H 5783   3.242   3.604  17.304  0.1944  0.6889  0.4288
  383TMC3    H1 5784   3.548   3.677  17.598 -0.0700  0.6714 -1.7951
  383TMC3    H2 5785   3.271   3.360  17.651 -3.5081  1.4264 -0.5514
  383TMC3    C7 5786   3.502   3.485   0.013 -0.6450  0.0879  0.4579
  383TMC3    C8 5787   3.127   3.397  17.435 -0.4857  0.4474 -0.1593
  383TMC3    O1 5788   3.619   3.515   0.013 -0.3686 -0.3943  0.1715
  383TMC3    O2 5789   3.047   3.447  17.361  0.2413  0.1078  0.0513
  384MPD2     C 5790   0.524   4.717  12.274 -0.0504 -0.1010  0.1193
  384MPD2    C1 5791   0.533   4.628  12.379  0.0106 -0.2701  0.2746
  384MPD2    C2 5792   0.633   4.533  12.369  0.1533  0.4506  0.4388
  384MPD2    C3 5793   0.713   4.518  12.259 -0.5133 -0.0745 -0.1923
  384MPD2    C4 5794   0.694   4.601  12.150 -0.4082 -0.3369 -0.2802
  384MPD2    C5 5795   0.597   4.693  12.160 -0.6232  0.2040  0.2232
  384MPD2     H 5796   0.651   4.462  12.450 -0.7008  0.8166  0.9561
  384MPD2    H1 5797   0.745   4.589  12.056  0.5440  1.3224  0.0296
  384MPD2    H2 5798   0.450   0.060  12.273 -0.6283 -0.6473  0.0112
  384MPD2    H3 5799   0.572   0.027  12.080  1.3584  1.7842  0.9582
  384MPD2     N 5800   0.804   4.410  12.269 -0.6932  0.1275  0.4644
  384MPD2    H5 5801   0.774   4.356  12.350  0.7526  0.5458  1.2884
  384MPD2    N1 5802   0.469   4.644  12.505 -0.7376  0.5705  0.0482
  384MPD2    H7 5803   0.494   4.575  12.575  2.9335  1.5897 -0.2564
  385TMC3    C1 5804   0.934   4.229  12.189  0.4787  0.8404 -0.8559
  385TMC3    C2 5805   0.889   4.164  12.079  0.5705  0.0262 -0.4822
  385TMC3    C3 5806   0.815   4.053  12.114  0.4605 -0.3134 -0.0448
  385TMC3    C4 5807   0.911   4.190  12.318 -0.4342 -0.2245 -0.2125
  385TMC3    C5 5808   0.837   4.080  12.346  0.0018  0.2646 -0.1522
  385TMC3    C6 5809   0.781   4.010  12.243 -0.5716 -0.5487 -0.0836
  385TMC3     C 5810   0.896   4.365  12.173  0.0438 -0.4877  0.3344
  385TMC3     O 5811   0.931   4.422  12.073  0.3524 -0.0475 -0.0790
  385TMC3     H 5812   0.908   4.185  11.974 -0.5161  1.7299 -0.3366
  385TMC3    H1 5813   0.946   4.251  12.401  0.0050 -0.6870 -0.0599
  385TMC3    H2 5814   0.695   3.945  12.252 -0.3258 -0.8233  0.2747
  385TMC3    C7 5815   0.740   4.116  12.443 -0.1894  0.4829 -0.2669
  385TMC3    C8 5816   0.747   3.982  12.005  0.4928  0.1258  0.0680
  385TMC3    O1 5817   0.730   4.239  12.469 -1.1215 -0.7579 -0.2594
  385TMC3    O2 5818   0.686   4.052  11.923 -0.3179 -0.2027  0.0469
  386TMC3    C1 5819   0.302   2.503  12.165  0.1088  0.2993 -0.6325
  386TMC3    C2 5820   0.318   2.520  12.034 -0.0509 -0.3386  0.2385
  386TMC3    C3 5821   0.217   2.592  11.974 -0.8788 -0.1214  0.9174
  386TMC3    C4 5822   0.192   2.543  12.235  0.5677  0.0530  0.0533
  386TMC3    C5 5823   0.089   2.601  12.175  0.8128 -0.1780 -0.0306
  386TMC3    C6 5824   0.108   2.634  12.040  0.6305 -0.5816 -0.2861
  386TMC3     C 5825   0.385   2.406  12.237  0.3403 -0.7249  0.1456
  386TMC3     O 5826   0.359   2.391  12.357  0.3785 -0.0136 -0.1941
  386TMC3     H 5827   0.411   2.515  11.978 -1.2623  1.6095 -1.9484
  386TMC3    H1 5828   0.185   2.518  12.340  1.3172  0.9430  0.3140
  386TMC3    H2 5829   0.045   2.709  11.995 -1.8535 -1.3690  1.8778
  386TMC3    C7 5830   4.709   2.639  12.253  0.4382  0.6326  0.3092
  386TMC3    C8 5831   0.211   2.612  11.829  0.3786  0.1511  0.8334
  386TMC3    O1 5832   4.711   2.620  12.376  0.3344 -0.0852 -0.3370
  386TMC3    O2 5833   0.133   2.702  11.790 -0.0733 -0.2497 -0.1745
  387MPD2     C 5834   3.278   2.419  10.292  0.4037  0.1537 -0.1005
  387MPD2    C1 5835   3.386   2.336  10.301  0.3101 -0.5643  0.1452
  387MPD2    C2 5836   3.364   2.199  10.285  0.3445 -0.5755 -0.2413
  387MPD2    C3 5837   3.249   2.150  10.230  0.8331  0.6803  0.0497
  387MPD2    C4 5838   3.148   2.239  10.201  0.1563 -0.1262 -0.1997
  387MPD2    C5 5839   3.162   2.367  10.248  0.3049 -0.0711  0.1811
  387MPD2     H 5840   3.433   2.126  10.327 -1.6561 -0.3646  3.4405
  387MPD2    H1 5841   3.051   2.209  10.164  0.3709 -0.6832 -0.3140
  387MPD2    H2 5842   3.272   2.520  10.331 -1.0293  0.2914 -0.7021
  387MPD2    H3 5843   3.081   2.439  10.246  1.3161  1.0868  1.3812
  387MPD2     N 5844   3.238   2.012  10.221  0.9584  0.1176 -0.0101
  387MPD2    H5 5845   3.321   1.964  10.253  1.7289  1.4679  0.0265
  387MPD2    N1 5846   3.502   2.368  10.373 -0.1825 -0.3747  0.8301
  387MPD2    H7 5847   3.579   2.301  10.375 -1.0954 -1.4010  2.0956
  388TMC3    C1 5848   3.609   2.442  10.562  0.7150  0.1036 -0.2905
  388TMC3    C2 5849   3.676   2.545  10.618 -0.0344  0.2616  0.1555
  388TMC3    C3 5850   3.744   2.511  10.728 -1.3168 -0.1640 -0.0227
  388TMC3    C4 5851   3.634   2.314  10.596 -0.9026  0.8166  0.4623
  388TMC3    C5 5852   3.721   2.281  10.699  0.1913  0.3061 -0.4288
  388TMC3    C6 5853   3.776   2.386  10.775  0.0004  0.0389 -0.0362
  388TMC3     C 5854   3.523   2.474  10.452  0.3445 -0.4566  0.1460
  388TMC3     O 5855   3.469   2.582  10.458 -0.3930  0.6083 -0.1352
  388TMC3     H 5856   3.650   2.649  10.601  0.5670  0.6045  1.3629
  388TMC3    H1 5857   3.568   2.240  10.552 -1.1573  0.4113  1.5350
  388TMC3    H2 5858   3.828   2.377  10.870 -0.2334 -3.2252 -0.2115
  388TMC3    C7 5859   3.728   2.142  10.742 -0.4828 -0.1263  0.3401
  388TMC3    C8 5860   3.733   2.617  10.823  0.4599 -0.4659  0.2590
  388TMC3    O1 5861   3.770   2.110  10.854 -0.0331 -0.2010 -0.0804
  388TMC3    O2 5862   3.748   2.733  10.781 -0.0887 -0.4271  0.0309
  389MPD2     C 5863   2.227   0.754  11.126  0.2680  0.1225  0.3407
  389MPD2    C1 5864   2.278   0.633  11.090 -0.7892  0.2027 -0.7490
  389MPD2    C2 5865   2.280   0.530  11.188 -0.0648  0.7937  0.2032
  389MPD2    C3 5866   2.222   0.542  11.311 -0.1044 -0.0859 -0.5572
  389MPD2    C4 5867   2.173   0.665  11.337 -0.5816  0.1733  0.2286
  389MPD2    C5 5868   2.167   0.772  11.249 -0.1672 -0.3835 -0.3644
  389MPD2     H 5869   2.302   0.427  11.165 -1.6324  0.8140 -1.3454
  389MPD2    H1 5870   2.116   0.680  11.428  0.2507  1.2565  0.5847
  389MPD2    H2 5871   2.234   0.844  11.064 -0.5882 -0.3914 -0.4954
  389MPD2    H3 5872   2.108   0.859  11.275  1.1615  0.4973 -0.3355
  389MPD2     N 5873   2.201   0.435  11.402  0.5365 -0.6285  0.0531
  389MPD2    H5 5874   2.166   0.470  11.491  1.2882  2.1790 -0.7489
  389MPD2    N1 5875   2.312   0.620  10.954  0.0814  0.4649  0.0704
  389MPD2    H7 5876   2.297   0.701  10.895  0.8764  0.3517 -0.2849
  390TMC3    C1 5877   2.181   0.221  11.509 -1.0601 -0.6874  0.7118
  390TMC3    C2 5878   2.117   0.104  11.504 -0.1567  0.4418  0.1336
  390TMC3    C3 5879   2.069   0.045  11.610  0.4700 -0.4789 -0.3165
  390TMC3    C4 5880   2.186   0.293  11.627  0.4129  0.4945  0.2684
  390TMC3    C5 5881   2.138   0.231  11.737 -0.5890  0.2185 -0.0186
  390TMC3    C6 5882   2.081   0.105  11.734  0.0816 -0.7463 -0.2193
  390TMC3     C 5883   2.205   0.294  11.383  0.3246  0.8644  0.1462
  390TMC3     O 5884   2.210   0.231  11.276 -0.5908  0.0977  0.2828
  390TMC3     H 5885   2.092   0.054  11.411 -0.3123 -3.2734  2.1486
  390TMC3    H1 5886   2.236   0.389  11.635 -1.2640  1.3093  1.0555
  390TMC3    H2 5887   2.077   0.052  11.828 -0.9710  1.3221  0.9077
  390TMC3    C7 5888   2.135   0.305  11.858  0.4537  0.0906 -0.5211
  390TMC3    C8 5889   1.984   4.664  11.589 -0.2777  0.2600 -0.4283
  390TMC3    O1 5890   2.222   0.382  11.874  0.1285 -0.0971  0.0232
  390TMC3    O2 5891   1.987   4.601  11.482  0.0088  0.0638  0.4798
  391MPD2     C 5892   1.014   2.230  10.885  0.6607 -0.7446  0.5717
  391MPD2    C1 5893   1.145   2.206  10.910 -0.6227 -0.2048  0.6926
  391MPD2    C2 5894   1.237   2.224  10.813 -0.0900  1.1346  0.4408
  391MPD2    C3 5895   1.204   2.281  10.693 -0.7189  0.0810 -0.7850
  391MPD2    C4 5896   1.072   2.316  10.667  0.0755  0.4501  0.0239
  391MPD2    C5 5897   0.980   2.285  10.763 -0.5080  0.3705 -0.0615
  391MPD2     H 5898   1.341   2.194  10.822  1.0516  4.4464 -1.7412
  391MPD2    H1 5899   1.036   2.362  10.576 -0.3372 -0.7881 -0.4335
  391MPD2    H2 5900   0.933   2.209  10.954 -0.2993  2.5662  0.4697
  391MPD2    H3 5901   0.873   2.301  10.762 -0.6692 -0.9399 -4.1555
  391MPD2     N 5902   1.312   2.300  10.599  0.6982  0.1627  0.3261
  391MPD2    H5 5903   1.404   2.303  10.642  0.4886 -0.8088  0.8510
  391MPD2    N1 5904   1.179   2.160  11.041  0.6893  0.4229 -0.1221
  391MPD2    H7 5905   1.102   2.134  11.102  0.6241 -0.4522 -0.5820
  392TMC3    C1 5906   1.415   2.378  10.402 -0.1404  0.3470  0.0496
  392TMC3    C2 5907   1.410   2.385  10.266  0.3070 -0.1382  0.1002
  392TMC3    C3 5908   1.512   2.459  10.200  0.2263  0.2888  0.6074
  392TMC3    C4 5909   1.519   2.425  10.478  0.3595  0.0219  0.0443
  392TMC3    C5 5910   1.622   2.486  10.406  0.2387  0.0262 -0.3052
  392TMC3    C6 5911   1.620   2.508  10.271 -0.1176  0.0243 -0.1370
  392TMC3     C 5912   1.296   2.341  10.469 -0.0076  0.1665 -0.3923
  392TMC3     O 5913   1.203   2.332  10.390 -0.2602 -0.8647  0.2449
  392TMC3     H 5914   1.322   2.344  10.218  0.2528  0.9004 -0.6761
  392TMC3    H1 5915   1.513   2.433  10.586  1.4918  1.3727  0.0126
  392TMC3    H2 5916   1.702   2.553  10.215  0.5743 -1.8088 -0.6201
  392TMC3    C7 5917   1.735   2.532  10.480 -0.4672  0.7599 -0.5066
  392TMC3    C8 5918   1.474   2.511  10.070 -0.2998 -0.5031  0.0254
  392TMC3    O1 5919   1.742   2.486  10.589 -0.3673  0.0193 -0.4301
  392TMC3    O2 5920   1.390   2.446  10.007 -0.3037 -0.3650 -0.0590
  393TMC3    C1 5921   0.176   0.499  10.673 -0.3631  0.0815  0.5105
  393TMC3    C2 5922   0.083   0.474  10.768 -0.4303 -0.1289 -0.2301
  393TMC3    C3 5923   0.115   0.384  10.865  0.3407  0.2230 -0.2657
  393TMC3    C4 5924   0.292   0.427  10.670 -0.4436  0.3033 -0.2528
  393TMC3    C5 5925   0.309   0.325  10.762  0.2883 -0.6757  0.1594
  393TMC3    C6 5926   0.227   0.306  10.868 -0.3196 -0.2602 -0.0189
  393TMC3     C 5927   0.162   0.597  10.568  0.1636  0.2984 -0.0889
  393TMC3     O 5928   0.058   0.658  10.554  0.2977  0.8268 -0.3368
  393TMC3     H 5929   4.725   0.530  10.776  1.3477  2.8776 -0.3173
  393TMC3    H1 5930   0.352   0.421  10.580  0.9880  0.8698  0.6568
  393TMC3    H2 5931   0.232   0.221  10.935  2.2706 -0.9276 -1.0745
  393TMC3    C7 5932   0.421   0.234  10.734  0.6817  0.4211  0.1793
  393TMC3    C8 5933   0.019   0.373  10.974 -0.0118 -0.5624  0.9824
  393TMC3    O1 5934   0.468   0.235  10.621  0.8226 -0.7220  0.1642
  393TMC3    O2 5935   4.642   0.414  10.959  0.4362  0.3200  0.2798
  394TMC3    C1 5936   2.373   0.510  10.763  0.4352  0.0160 -0.3828
  394TMC3    C2 5937   2.330   0.384  10.716 -0.2447 -0.0334  0.8118
  394TMC3    C3 5938   2.313   0.380  10.582  0.1998 -0.0370  0.5506
  394TMC3    C4 5939   2.389   0.622  10.687  0.3902  0.2655 -0.5094
  394TMC3    C5 5940   2.375   0.602  10.557  0.0382  0.4346  0.3700
  394TMC3    C6 5941   2.339   0.485  10.503  0.7452  0.0292  0.6380
  394TMC3     C 5942   2.372   0.509  10.908  0.2709 -0.0601 -0.2635
  394TMC3     O 5943   2.396   0.407  10.964 -0.1773 -0.0964  0.3990
  394TMC3     H 5944   2.308   0.297  10.776 -0.7884 -0.6708 -0.3206
  394TMC3    H1 5945   2.427   0.717  10.724  0.8170 -0.4204  0.8107
  394TMC3    H2 5946   2.338   0.476  10.395  0.2639 -0.3347  0.6750
  394TMC3    C7 5947   2.394   0.714  10.463 -0.1707  0.0433  0.1078
  394TMC3    C8 5948   2.236   0.276  10.519  0.8195  0.3320 -0.1620
  394TMC3    O1 5949   2.442   0.819  10.500  0.3259  0.3979  0.0657
  394TMC3    O2 5950   2.121   0.296  10.477  0.1092  0.2848 -0.1151
  395TMC3    C1 5951   1.405   2.514  14.525 -0.2879  0.0765  0.3871
  395TMC3    C2 5952   1.390   2.398  14.605  0.1006 -0.0589 -0.2718
  395TMC3    C3 5953   1.418   2.409  14.735 -0.2900  0.1458  0.2041
  395TMC3    C4 5954   1.452   2.630  14.572 -0.6814  0.1463  0.1294
  395TMC3    C5 5955   1.498   2.630  14.700 -0.5208 -0.1465  0.3197
  395TMC3    C6 5956   1.481   2.522  14.780  0.0665  0.1485  0.7104
  395TMC3     C 5957   1.383   2.496  14.379 -0.3581 -0.0332  0.2505
  395TMC3     O 5958   1.291   2.568  14.338 -0.6152  0.0653 -0.0952
  395TMC3     H 5959   1.336   2.316  14.558  0.3877  0.4946 -1.5874
  395TMC3    H1 5960   1.469   2.717  14.510  4.0274 -1.3766 -0.7318
  395TMC3    H2 5961   1.505   2.536  14.885  1.8172  1.4555  0.1408
  395TMC3    C7 5962   1.598   2.731  14.743 -0.0133 -0.2295 -0.5284
  395TMC3    C8 5963   1.454   2.283  14.816 -0.4268 -0.8367  0.3097
  395TMC3    O1 5964   1.628   2.740  14.860 -0.4008  0.2441 -1.0160
  395TMC3    O2 5965   1.499   2.304  14.929 -0.2531  0.3330 -0.0316
  396MPD2     C 5966   1.005   3.261  16.842 -0.3417 -0.1246 -0.7619
  396MPD2    C1 5967   1.099   3.342  16.884 -0.4812  0.7850 -0.7602
  396MPD2    C2 5968   1.157   3.434  16.789 -0.1351 -0.1465  0.7577
  396MPD2    C3 5969   1.113   3.429  16.657  0.3988  0.4721 -0.1604
  396MPD2    C4 5970   1.019   3.333  16.616  0.3489  0.6131 -0.3787
  396MPD2    C5 5971   0.964   3.252  16.710 -0.7719  0.5025  0.0584
  396MPD2     H 5972   1.227   3.508  16.825 -1.3470  2.4894 -2.2795
  396MPD2    H1 5973   0.979   3.327  16.515 -0.0422  0.0147 -0.1896
  396MPD2    H2 5974   0.948   3.200  16.911  3.2119 -0.9191  1.4477
  396MPD2    H3 5975   0.890   3.181  16.676 -1.2648  0.1615  1.8652
  396MPD2     N 5976   1.182   3.517  16.569  0.0692  0.3497 -0.0744
  396MPD2    H5 5977   1.257   3.574  16.608  1.6978 -1.5131 -0.4492
  396MPD2    N1 5978   1.131   3.350  17.019  0.1728  0.0474  0.1325
  396MPD2    H7 5979   1.087   3.274  17.071 -1.1599 -0.0492 -1.1352
  397TMC3    C1 5980   1.256   3.377  17.213 -0.1587  0.2784  0.7100
  397TMC3    C2 5981   1.368   3.293  17.208  0.2246  0.3551  0.3711
  397TMC3    C3 5982   1.364   3.163  17.259  0.0869  0.6978  0.8855
  397TMC3    C4 5983   1.143   3.322  17.270  0.1961  0.2335  0.1245
  397TMC3    C5 5984   1.154   3.196  17.325 -0.5975  0.4209  0.0383
  397TMC3    C6 5985   1.261   3.117  17.324  0.2069 -0.0967  0.0194
  397TMC3     C 5986   1.234   3.424  17.075 -0.2110  0.3134 -0.3839
  397TMC3     O 5987   1.313   3.510  17.028 -0.2663  0.2153 -0.3502
  397TMC3     H 5988   1.434   3.325  17.129 -0.6288 -0.4044 -0.6471
  397TMC3    H1 5989   1.050   3.378  17.266  1.4331  1.9848 -3.4995
  397TMC3    H2 5990   1.264   3.015  17.360  1.7330 -0.3589 -0.8121
  397TMC3    C7 5991   1.030   3.145  17.374  0.3714  0.1278  0.4050
  397TMC3    C8 5992   1.464   3.066  17.230 -0.5091  0.2160  0.8265
  397TMC3    O1 5993   0.930   3.202  17.332 -0.1715 -0.8368 -0.5827
  397TMC3    O2 5994   1.425   2.957  17.195  0.0683  0.0407 -1.0407
  398MPD2     C 5995   4.304   0.053  17.553 -0.1301  0.2232  0.6213
  398MPD2    C1 5996   4.366   4.715  17.654 -1.2015 -0.2826 -0.3115
  398MPD2    C2 5997   4.397   0.039   0.036 -0.1044  0.4747  0.0490
  398MPD2    C3 5998   4.370   0.167   0.063  0.7062  0.2289  0.6963
  398MPD2    C4 5999   4.298   0.232  17.714  0.4716 -0.9034  0.2370
  398MPD2    C5 6000   4.258   0.177  17.593 -0.1968 -0.4798 -0.4991
  398MPD2     H 6001   4.443   4.718   0.117  0.2732  0.2391 -0.3303
  398MPD2    H1 6002   4.265   0.333  17.737 -0.9436 -1.1120 -0.8215
  398MPD2    H2 6003   4.281   0.014  17.455  1.7669  0.7633 -0.0248
  398MPD2    H3 6004   4.183   0.232  17.537 -0.3365  0.3911  0.5479
  398MPD2     N 6005   4.422   0.220   0.183 -0.7924  0.2852 -0.4921
  398MPD2    H5 6006   4.485   0.165   0.241 -2.5826 -2.0795 -0.7607
  398MPD2    N1 6007   4.418   4.584  17.627 -0.2130  0.5675  0.1230
  398MPD2    H7 6008   4.468   4.532  17.699 -1.2572  0.0639  0.4911
  399TMC3    C1 6009   4.447   4.390  17.530 -0.5585  0.3906  0.7436
  399TMC3    C2 6010   4.575   4.412  17.568 -0.3570  0.1618 -0.6597
  399TMC3    C3 6011   4.637   4.316  17.639 -0.6023  0.2558  0.1280
  399TMC3    C4 6012   4.379   4.266  17.562  0.3175 -0.0192  0.2252
  399TMC3    C5 6013   4.451   4.172  17.632  0.1911  0.5201 -0.0215
  399TMC3    C6 6014   4.582   4.195  17.669  0.1402 -0.0007 -0.5569
  399TMC3     C 6015   4.379   4.513  17.517 -0.0995 -0.0733  0.3842
  399TMC3     O 6016   4.285   4.525  17.435  0.5495 -0.0856 -0.4760
  399TMC3     H 6017   4.631   4.499  17.535 -1.7334  1.0724 -0.5817
  399TMC3    H1 6018   4.271   4.266  17.553  0.3440  0.6663 -0.1206
  399TMC3    H2 6019   4.632   4.124  17.733 -0.2513  0.2231  0.0017
  399TMC3    C7 6020   4.387   4.059  17.692 -0.3428  0.0315 -0.0103
  399TMC3    C8 6021   0.034   4.353  17.682  0.7055  0.0533  0.7233
  399TMC3    O1 6022   4.464   3.962  17.708  0.2259 -0.2219  0.1778
  399TMC3    O2 6023   0.077   4.459  17.641  0.1504  0.3171 -0.0509
  400TMC3    C1 6024   3.115   3.113  17.128  0.5793  0.3816 -0.4700
  400TMC3    C2 6025   3.055   2.990  17.111 -0.3216 -0.1473 -0.3900
  400TMC3    C3 6026   2.961   2.987  17.015  0.7345 -0.3318  0.5062
  400TMC3    C4 6027   3.091   3.224  17.050  0.4184  0.0317 -0.0656
  400TMC3    C5 6028   3.004   3.207  16.948 -0.4463  0.3297  0.2612
  400TMC3    C6 6029   2.934   3.087  16.925 -0.0975 -0.2468  0.7205
  400TMC3     C 6030   3.240   3.112  17.208 -0.6312 -0.0076 -0.3642
  400TMC3     O 6031   3.270   3.005  17.261  0.3323  0.1548 -0.2958
  400TMC3     H 6032   3.089   2.908  17.173 -0.9274 -1.3389 -1.6255
  400TMC3    H1 6033   3.123   3.320  17.090 -2.1534  0.7271  0.3049
  400TMC3    H2 6034   2.855   3.080  16.851  0.1769 -0.0234  0.4087
  400TMC3    C7 6035   2.973   3.320  16.862 -0.5992  0.4622 -0.4435
  400TMC3    C8 6036   2.874   2.880  17.036  0.2359 -0.3090  0.6530
  400TMC3    O1 6037   3.004   3.432  16.903  0.2919 -0.2292  0.1303
  400TMC3    O2 6038   2.882   2.833  17.147  0.4146  0.2895 -0.8398
  401MPD2     C 6039   0.760   1.238   0.240 -0.0663 -0.5162  0.6041
  401MPD2    C1 6040   0.856   1.249   0.336 -0.8614  0.1215 -0.2663
  401MPD2    C2 6041   0.926   1.130   0.381  0.1074  0.3228  0.2037
  401MPD2    C3 6042   0.915   1.012   0.307  0.4075 -0.0657  0.1514
  401MPD2    C4 6043   0.819   1.008   0.210 -0.2872 -0.3777 -0.0587
  401MPD2    C5 6044   0.737   1.115   0.177 -0.2904 -0.0320 -0.1874
  401MPD2     H 6045   0.997   1.133   0.463 -0.0088  0.6567  0.2935
  401MPD2    H1 6046   0.781   0.915   0.170  1.1532 -0.9594 -0.0533
  401MPD2    H2 6047   0.685   1.314   0.219  0.3354 -0.9054 -2.1325
  401MPD2    H3 6048   0.650   1.102   0.114 -0.3217 -1.4066  0.1429
  401MPD2     N 6049   0.989   0.897   0.337  0.0368  0.1218 -0.5256
  401MPD2    H5 6050   1.050   0.901   0.418 -0.4043 -0.7323 -0.1487
  401MPD2    N1 6051   0.894   1.365   0.410 -0.5125 -0.2794 -0.2600
  401MPD2    H7 6052   0.966   1.366   0.483  0.9062 -0.1408 -1.6628
  402TMC3    C1 6053   1.078   0.686   0.335 -0.3595 -0.0708 -0.0431
  402TMC3    C2 6054   1.168   0.735   0.430  0.2343 -0.1259 -0.1854
  402TMC3    C3 6055   1.273   0.658   0.468 -0.8057 -0.0476 -0.1808
  402TMC3    C4 6056   1.099   0.566   0.276 -0.4210  0.6751  0.2434
  402TMC3    C5 6057   1.210   0.495   0.318 -0.0694  0.1358  0.7974
  402TMC3    C6 6058   1.302   0.544   0.403  0.0307 -0.1628 -0.0715
  402TMC3     C 6059   0.990   0.777   0.272  0.6255 -0.0461 -0.1677
  402TMC3     O 6060   0.936   0.737   0.169  0.0611 -0.4419  0.0978
  402TMC3     H 6061   1.156   0.826   0.487 -3.0289 -1.2424  0.9339
  402TMC3    H1 6062   1.034   0.532   0.195  1.1067  0.2911 -0.8321
  402TMC3    H2 6063   1.375   0.480   0.451 -0.4329  1.4492  2.7357
  402TMC3    C7 6064   1.234   0.372   0.250 -0.2453  0.0017 -0.3599
  402TMC3    C8 6065   1.355   0.686   0.580 -0.1051  0.3309 -0.3235
  402TMC3    O1 6066   1.146   0.335   0.174  0.7398 -0.0419 -0.0738
  402TMC3    O2 6067   1.448   0.606   0.608  0.4188  0.6396  0.1487
  403MPD2     C 6068   4.608   4.642  13.124 -0.2215  1.4300  0.1313
  403MPD2    C1 6069   4.648   4.522  13.170 -0.1358 -0.2774 -0.7909
  403MPD2    C2 6070   0.006   4.529  13.275  0.8482 -0.0446 -0.3691
  403MPD2    C3 6071   0.062   4.649  13.322  1.2231  0.0169 -0.1312
  403MPD2    C4 6072   0.011   0.029  13.271  0.2311 -0.2881 -0.4299
  403MPD2    C5 6073   4.654   0.030  13.169  0.5710  0.3271 -0.1685
  403MPD2     H 6074   0.051   4.439  13.316  0.4385 -0.3672 -0.6235
  403MPD2    H1 6075   0.036   0.125  13.315  0.4915 -1.0366  1.0452
  403MPD2    H2 6076   4.544   4.640  13.037  0.5564 -0.9655 -0.4001
  403MPD2    H3 6077   4.621   0.125  13.128 -0.7500  0.5667  1.4496
  403MPD2     N 6078   0.163   4.639  13.418 -0.4913 -0.1284  0.3765
  403MPD2    H5 6079   0.171   4.545  13.454  0.3185 -0.6913 -1.2634
  403MPD2    N1 6080   4.575   4.406  13.123 -0.3845 -0.1943 -0.2859
  403MPD2    H7 6081   4.520   4.425  13.040 -3.0208  0.9538  1.7087
  404TMC3    C1 6082   4.480   4.191  13.132  0.3831  0.6390  0.0553
  404TMC3    C2 6083   4.412   4.115  13.225  0.2336  0.2008 -0.2924
  404TMC3    C3 6084   4.317   4.024  13.176  0.3839  0.1068  0.4378
  404TMC3    C4 6085   4.439   4.205  13.005  0.3455  0.2282 -0.1336
  404TMC3    C5 6086   4.337   4.119  12.959  0.0128  0.9361 -0.5125
  404TMC3    C6 6087   4.279   4.029  13.046  0.5230  0.0041  1.3675
  404TMC3     C 6088   4.578   4.283  13.186  0.3809  0.6267  0.5082
  404TMC3     O 6089   4.641   4.252  13.287  0.3096  0.1322 -0.6679
  404TMC3     H 6090   4.458   4.101  13.323  2.2455  0.5702 -1.1894
  404TMC3    H1 6091   4.491   4.263  12.929 -1.2677  0.3705 -1.1322
  404TMC3    H2 6092   4.223   3.949  12.999  1.7538  0.7815 -1.4661
  404TMC3    C7 6093   4.271   4.153  12.832  0.0846 -1.0207  0.1455
  404TMC3    C8 6094   4.289   3.913  13.256 -0.6403 -0.0055  0.0478
  404TMC3    O1 6095   4.338   4.237  12.773 -0.0329 -0.5184  0.0467
  404TMC3    O2 6096   4.284   3.807  13.197  0.5926 -0.0258  0.1226
  405MPD2     C 6097   4.127   0.312  14.223  0.8547 -0.3700 -0.1520
  405MPD2    C1 6098   4.203   0.258  14.328 -0.1498 -0.2032 -0.3101
  405MPD2    C2 6099   4.343   0.259  14.318  0.0854  0.2334  0.3715
  405MPD2    C3 6100   4.412   0.303  14.203 -0.7228 -0.0857  0.2312
  405MPD2    C4 6101   4.330   0.344  14.097  0.5209 -0.5736 -0.1456
  405MPD2    C5 6102   4.195   0.368  14.114  0.7759 -0.3486 -0.2577
  405MPD2     H 6103   4.393   0.207  14.399 -0.4075  0.3625  0.7566
  405MPD2    H1 6104   4.384   0.394  14.017 -0.4453  0.1777 -0.3193
  405MPD2    H2 6105   4.025   0.340  14.243  0.7401  0.2911 -1.7111
  405MPD2    H3 6106   4.144   0.428  14.040  0.6765 -1.1896 -0.8603
  405MPD2     N 6107   4.550   0.272  14.196 -0.7282 -0.4508 -0.1602
  405MPD2    H5 6108   4.592   0.241  14.283  1.7324  1.0849 -0.7832
  405MPD2    N1 6109   4.131   0.216  14.446  0.5821 -0.0413  0.1617
  405MPD2    H7 6110   4.032   0.236  14.447  0.5868 -0.0419  0.7356
  406TMC3    C1 6111   0.038   0.063  13.904 -0.1667 -0.7810  0.6691
  406TMC3    C2 6112   0.050   4.689  13.991  0.7156 -0.0390  0.7634
  406TMC3    C3 6113   0.023   4.701  14.122  0.5482  0.7073 -0.8828
  406TMC3    C4 6114   0.037   0.186  13.963 -0.0734 -0.2997  0.3355
  406TMC3    C5 6115   0.007   0.203  14.093 -0.6342  0.2430  0.2452
  406TMC3    C6 6116   0.007   0.094  14.180  0.1907 -0.6805  0.0734
  406TMC3     C 6117   4.693   0.051  13.782  0.0305  0.1162  1.1340
  406TMC3     O 6118   4.677   4.677  13.725  0.5353 -0.1074  0.5782
  406TMC3     H 6119   0.051   4.588  13.952 -0.3512  0.6607 -1.0789
  406TMC3    H1 6120   0.051   0.273  13.899 -0.8252  1.2470  2.2371
  406TMC3    H2 6121   0.013   0.117  14.286  1.4362 -1.2594  0.1281
  406TMC3    C7 6122   4.625   0.288  14.090  0.3990 -0.2271 -0.0647
  406TMC3    C8 6123   4.697   4.590  14.192  1.0614  0.2930  0.4415
  406TMC3    O1 6124   4.606   0.344  13.980 -0.6567 -0.5233  0.2780
  406TMC3    O2 6125   0.013   4.485  14.165  0.2047  0.5159  0.4073
  407MPD2     C 6126   2.865   2.246   9.634 -0.1499 -0.4670  0.8454
  407MPD2    C1 6127   2.935   2.236   9.753  0.5245 -0.0410 -0.8301
  407MPD2    C2 6128   2.889   2.313   9.857 -0.2796  0.5211  0.2172
  407MPD2    C3 6129   2.775   2.395   9.839 -0.4009 -0.2468 -0.4776
  407MPD2    C4 6130   2.717   2.411   9.712  0.8347  0.7829 -0.2095
  407MPD2    C5 6131   2.759   2.331   9.613  0.4107 -0.4547 -0.0531
  407MPD2     H 6132   2.943   2.312   9.951  0.6504 -2.1507 -0.3650
  407MPD2    H1 6133   2.629   2.472   9.698  0.4329 -0.2170 -2.1092
  407MPD2    H2 6134   2.897   2.195   9.543  0.0533  0.2728  0.5062
  407MPD2    H3 6135   2.705   2.338   9.520  0.4014 -1.2085 -0.1090
  407MPD2     N 6136   2.711   2.466   9.942 -1.1267 -0.6784 -0.3611
  407MPD2    H5 6137   2.636   2.529   9.916 -0.3852 -0.5571 -2.2390
  407MPD2    N1 6138   3.055   2.166   9.770  0.3161  0.1682 -0.0627
  407MPD2    H7 6139   3.098   2.166   9.862 -0.9268  0.4156  0.5214
  408TMC3    C1 6140   3.249   2.050   9.726  0.7299  1.0215 -0.1645
  408TMC3    C2 6141   3.242   1.916   9.736 -0.4168  0.8357 -0.1898
  408TMC3    C3 6142   3.348   1.857   9.803 -1.0440 -0.4007 -0.7243
  408TMC3    C4 6143   3.337   2.137   9.787 -0.1770  0.2930 -0.2251
  408TMC3    C5 6144   3.427   2.073   9.870  0.3130 -0.2441  0.5997
  408TMC3    C6 6145   3.441   1.937   9.875 -0.1612 -0.1098 -0.4559
  408TMC3     C 6146   3.123   2.096   9.674  0.0126  0.0785 -0.8034
  408TMC3     O 6147   3.073   2.033   9.576  0.1128 -0.3700  0.6933
  408TMC3     H 6148   3.162   1.849   9.706 -0.5130  2.0129 -2.5181
  408TMC3    H1 6149   3.328   2.245   9.786 -1.9788  0.1316 -2.8950
  408TMC3    H2 6150   3.527   1.890   9.921 -1.4104 -1.0790  0.8885
  408TMC3    C7 6151   3.515   2.146   9.956 -0.2894 -0.3673  0.6150
  408TMC3    C8 6152   3.338   1.720   9.833  0.3779 -0.0864  0.4266
  408TMC3    O1 6153   3.590   2.073  10.019 -1.2629 -0.4136 -0.0358
  408TMC3    O2 6154   3.240   1.660   9.791  0.2219 -0.4633  0.5282
  409MPD2     C 6155   2.028   2.469  17.049  0.4808 -0.2329  0.2821
  409MPD2    C1 6156   2.083   2.523  17.165 -0.4982  0.2216 -0.4318
  409MPD2    C2 6157   2.155   2.641  17.151  0.1994 -0.5359  0.0880
  409MPD2    C3 6158   2.166   2.702  17.032 -0.2869  0.2422  0.8084
  409MPD2    C4 6159   2.101   2.654  16.922  0.0456  0.3098  1.2258
  409MPD2    C5 6160   2.023   2.548  16.937  0.2638 -0.3946 -0.1598
  409MPD2     H 6161   2.206   2.675  17.241  0.4128 -2.6536  0.7793
  409MPD2    H1 6162   2.106   2.707  16.828 -2.5018 -1.3658  0.1497
  409MPD2    H2 6163   1.966   2.380  17.044  0.6304 -0.1450 -2.9231
  409MPD2    H3 6164   1.951   2.518  16.862 -0.4155 -2.1590  1.2231
  409MPD2     N 6165   2.245   2.820  17.018 -0.2380  0.3520  0.3078
  409MPD2    H5 6166   2.248   2.864  16.927  1.7419  0.3910  0.4008
  409MPD2    N1 6167   2.088   2.454  17.291  0.1137  0.1301  0.1083
  409MPD2    H7 6168   2.081   2.354  17.280  0.6302  0.2118 -0.9565
  410TMC3    C1 6169   2.418   2.976  17.076 -0.4828 -0.3119 -0.1278
  410TMC3    C2 6170   2.508   3.017  17.168 -0.0096 -0.9563 -1.0944
  410TMC3    C3 6171   2.597   3.113  17.128 -0.1827 -0.4134 -0.8660
  410TMC3    C4 6172   2.419   3.026  16.946 -0.6967  0.2423 -0.2181
  410TMC3    C5 6173   2.506   3.129  16.913  0.2545 -0.0679  0.4389
  410TMC3    C6 6174   2.593   3.168  17.007  0.0551  0.4838 -0.9575
  410TMC3     C 6175   2.327   2.868  17.116 -0.4116  0.7998  0.1543
  410TMC3     O 6176   2.364   2.816  17.219 -0.2970 -0.2969 -0.1532
  410TMC3     H 6177   2.491   3.000  17.273 -0.0485 -0.4533 -1.0197
  410TMC3    H1 6178   2.357   2.989  16.865 -1.0769  0.8800 -0.2164
  410TMC3    H2 6179   2.673   3.236  16.979 -0.1906  1.2960  0.3105
  410TMC3    C7 6180   2.534   3.162  16.767  0.4127  0.1792 -0.1412
  410TMC3    C8 6181   2.702   3.140  17.219 -0.1879  0.0343 -0.5189
  410TMC3    O1 6182   2.648   3.192  16.736  0.0395  0.8680  0.4439
  410TMC3    O2 6183   2.767   3.238  17.180 -0.1017  0.0701  1.0633
  411MPD2     C 6184   2.524   2.933  14.576  0.2052  0.7248  0.4052
  411MPD2    C1 6185   2.409   2.987  14.524  0.0330  0.4249 -1.3435
  411MPD2    C2 6186   2.317   2.906  14.450  0.0574  0.0694  0.0667
  411MPD2    C3 6187   2.360   2.774  14.410 -0.2055 -0.5526 -0.0943
  411MPD2    C4 6188   2.480   2.723  14.461  0.2526  0.3655  0.1223
  411MPD2    C5 6189   2.555   2.802  14.552  0.1455  0.1424 -0.5131
  411MPD2     H 6190   2.220   2.946  14.426  0.0848  0.4705  0.6180
  411MPD2    H1 6191   2.513   2.621  14.450 -0.7638  0.2443 -1.9418
  411MPD2    H2 6192   2.598   2.992  14.628 -0.0505  0.2526  1.3038
  411MPD2    H3 6193   2.649   2.772  14.597  1.0618  1.7578 -1.3543
  411MPD2     N 6194   2.284   2.681  14.337 -0.2219  0.1984  0.1073
  411MPD2    H5 6195   2.322   2.587  14.334 -1.1216 -0.1126 -1.4023
  411MPD2    N1 6196   2.371   3.115  14.558  0.0433 -0.0145 -0.0322
  411MPD2    H7 6197   2.283   3.153  14.525  0.9840  1.8059 -0.4438
  412TMC3    C1 6198   2.085   2.584  14.262 -0.1236  0.0046  0.1545
  412TMC3    C2 6199   1.962   2.575  14.325  0.3693  0.2870  0.1933
  412TMC3    C3 6200   1.860   2.530  14.252 -0.1353 -0.9321  0.1599
  412TMC3    C4 6201   2.102   2.554  14.130  0.4088  0.4629  0.0863
  412TMC3    C5 6202   1.993   2.509  14.055 -0.5714  0.4813  0.0704
  412TMC3    C6 6203   1.879   2.488  14.122 -0.0578 -1.1358  0.5797
  412TMC3     C 6204   2.156   2.704  14.302  0.0838 -0.2624 -0.1667
  412TMC3     O 6205   2.088   2.805  14.318 -0.0076  0.6756  0.3115
  412TMC3     H 6206   1.951   2.635  14.414  0.4339  0.1575  0.2875
  412TMC3    H1 6207   2.183   2.601  14.075  0.2903  1.4115  0.7251
  412TMC3    H2 6208   1.786   2.463  14.073 -0.6054 -0.3792  1.2193
  412TMC3    C7 6209   1.964   2.604  13.946  0.3278  0.0894 -0.3976
  412TMC3    C8 6210   1.747   2.616  14.265  0.2777  0.5282  0.4080
  412TMC3    O1 6211   1.940   2.720  13.982 -0.1748 -0.4752 -0.0513
  412TMC3    O2 6212   1.680   2.629  14.368 -0.1424 -0.2709  0.8047
  413MPD2     C 6213   3.950   0.715  15.211 -0.4319  0.2640  0.2386
  413MPD2    C1 6214   4.009   0.842  15.195  0.5822 -0.0139 -0.5549
  413MPD2    C2 6215   4.139   0.869  15.158  0.0370 -0.5190 -0.1330
  413MPD2    C3 6216   4.223   0.764  15.131  0.0139 -0.0103 -0.2723
  413MPD2    C4 6217   4.169   0.633  15.138  0.3957 -0.4621  0.0258
  413MPD2    C5 6218   4.036   0.616  15.179  0.0003  0.3686 -0.3203
  413MPD2     H 6219   4.180   0.969  15.153 -1.7722  0.3469  1.9006
  413MPD2    H1 6220   4.227   0.545  15.113  1.3277  0.0218  0.4645
  413MPD2    H2 6221   3.849   0.692  15.243 -1.1368  0.2910 -1.9668
  413MPD2    H3 6222   4.009   0.512  15.188  2.0503 -0.0842  0.6662
  413MPD2     N 6223   4.352   0.791  15.086  0.2218  1.0029  0.2340
  413MPD2    H5 6224   4.378   0.889  15.095 -1.1288  1.5386 -1.7016
  413MPD2    N1 6225   3.926   0.953  15.236 -0.0298  0.3305 -0.5904
  413MPD2    H7 6226   3.843   0.931  15.292  0.6436 -0.0600  0.2614
  414TMC3    C1 6227   4.555   0.777  14.973  0.1234  0.6040 -0.4449
  414TMC3    C2 6228   4.663   0.714  15.013  0.5336 -0.0974 -0.0573
  414TMC3    C3 6229   0.042   0.789  15.039 -0.0092 -0.2158 -0.2982
  414TMC3    C4 6230   4.558   0.914  14.965  0.2857 -0.0844 -0.8296
  414TMC3    C5 6231   4.677   0.986  14.976  0.2235  0.2110  0.4693
  414TMC3    C6 6232   0.056   0.925  15.015  0.2740  0.0051  0.4919
  414TMC3     C 6233   4.424   0.710  15.006  0.0711 -0.8439  0.5302
  414TMC3     O 6234   4.411   0.596  14.976 -0.2163  0.5892 -0.0148
  414TMC3     H 6235   4.674   0.606  15.024 -1.2513 -0.0990  1.6984
  414TMC3    H1 6236   4.484   0.963  14.903 -2.1276 -1.6046  0.8383
  414TMC3    H2 6237   0.147   0.976  15.046 -0.8857  1.1582  1.9294
  414TMC3    C7 6238   4.676   1.128  14.984 -0.5235  0.5090 -0.1329
  414TMC3    C8 6239   0.101   0.750  15.169 -0.0580  0.0827  0.0407
  414TMC3    O1 6240   0.049   1.185  14.971 -0.0046  0.1667  0.1340
  414TMC3    O2 6241   0.038   0.671  15.245  0.4956  0.1587 -0.7521
  415TMC3    C1 6242   0.284   4.363  10.761  0.3326  0.2691 -0.4450
  415TMC3    C2 6243   0.272   4.502  10.774 -0.0945  0.0229  0.6094
  415TMC3    C3 6244   0.295   4.578  10.664 -0.0832  0.4409 -0.0194
  415TMC3    C4 6245   0.322   4.303  10.642  0.3076 -0.2284  0.2285
  415TMC3    C5 6246   0.352   4.386  10.542 -0.0173 -0.7802  0.5496
  415TMC3    C6 6247   0.351   4.525  10.548 -0.3605  0.8872  0.5563
  415TMC3     C 6248   0.226   4.271  10.860 -0.0291 -0.1308  0.7692
  415TMC3     O 6249   0.159   4.174  10.815  0.0544  0.1848 -0.0469
  415TMC3     H 6250   0.222   4.545  10.860  1.0251  2.2891  0.1352
  415TMC3    H1 6251   0.340   4.197  10.639 -1.2181 -0.4552 -0.8407
  415TMC3    H2 6252   0.336   4.565  10.448 -0.3982 -2.1069 -0.6651
  415TMC3    C7 6253   0.361   4.329  10.408 -0.0485  0.5058  0.1055
  415TMC3    C8 6254   0.212   4.701  10.646  1.1212 -0.0495  0.3151
  415TMC3    O1 6255   0.444   4.381  10.334  0.1427 -0.0827 -0.7530
  415TMC3    O2 6256   0.135   4.727  10.740  0.6251  0.3494  0.2818
  416MPD2     C 6257   1.579   3.214  11.564 -0.2813 -0.1739  0.1288
  416MPD2    C1 6258   1.450   3.190  11.518  0.6448  0.1093  0.3340
  416MPD2    C2 6259   1.426   3.133  11.397  0.1435 -0.2211 -0.4796
  416MPD2    C3 6260   1.537   3.075  11.332 -0.4811  0.4229 -0.0270
  416MPD2    C4 6261   1.661   3.083  11.393 -0.2441 -0.3083  0.1044
  416MPD2    C5 6262   1.684   3.163  11.499  0.0284  0.2390 -0.2811
  416MPD2     H 6263   1.327   3.110  11.358  0.0279 -0.3986 -0.0843
  416MPD2    H1 6264   1.749   3.055  11.336 -0.7432  2.1541 -1.8834
  416MPD2    H2 6265   1.598   3.265  11.658 -1.6457  0.5106  0.0270
  416MPD2    H3 6266   1.784   3.178  11.539  0.0266  1.2103 -0.6595
  416MPD2     N 6267   1.517   2.992  11.219 -0.4408 -0.9129  0.2273
  416MPD2    H5 6268   1.597   2.937  11.189  1.0472  2.5925 -2.1688
  416MPD2    N1 6269   1.343   3.241  11.602 -0.0895  0.6245 -0.4680
  416MPD2    H7 6270   1.382   3.291  11.681  0.0594  0.4616 -0.4396
  417TMC3    C1 6271   1.135   3.329  11.665 -0.7027  0.0508  0.4861
  417TMC3    C2 6272   1.189   3.377  11.776 -0.1554 -0.4251  0.2821
  417TMC3    C3 6273   1.124   3.470  11.844 -0.0504 -0.8769  0.2847
  417TMC3    C4 6274   1.012   3.370  11.623 -0.4755 -0.1360  0.3012
  417TMC3    C5 6275   0.949   3.474  11.684 -0.0551 -0.3568 -0.2142
  417TMC3    C6 6276   1.015   3.534  11.792 -0.0237  0.0757  0.5906
  417TMC3     C 6277   1.213   3.245  11.573  0.4130 -0.1724  0.4817
  417TMC3     O 6278   1.152   3.192  11.479 -0.3629 -0.5089  0.2075
  417TMC3     H 6279   1.283   3.335  11.809 -0.3798 -1.0451  0.1243
  417TMC3    H1 6280   0.987   3.346  11.520 -0.6312 -0.6017  0.4490
  417TMC3    H2 6281   0.965   3.618  11.839 -0.0858  0.4336 -0.1206
  417TMC3    C7 6282   0.858   3.550  11.595 -0.6990  0.9651  0.6711
  417TMC3    C8 6283   1.149   3.461  11.988 -0.4052  0.2152 -0.3948
  417TMC3    O1 6284   0.862   3.672  11.599  0.4531  0.2369  0.2342
  417TMC3    O2 6285   1.112   3.556  12.053 -0.3292  0.5898 -0.3226
  418TMC3    C1 6286   4.677   0.524   0.425  0.7918 -0.2897 -0.1504
  418TMC3    C2 6287   4.571   0.500   0.344 -0.1696  0.7879  0.0416
  418TMC3    C3 6288   4.522   0.370   0.333  0.7907 -0.4924 -0.5448
  418TMC3    C4 6289   4.723   0.419   0.500 -0.0145 -0.4080 -0.2184
  418TMC3    C5 6290   4.661   0.293   0.495  0.5370 -0.1687 -0.3597
  418TMC3    C6 6291   4.567   0.263   0.404  0.1800 -0.0618  0.2787
  418TMC3     C 6292   0.032   0.634   0.392  0.2459  0.0175  0.7369
  418TMC3     O 6293   4.723   0.748   0.373  0.4739  0.6052  0.0315
  418TMC3     H 6294   4.536   0.586   0.290 -0.8250  1.1217  1.0008
  418TMC3    H1 6295   0.072   0.441   0.564 -1.2576 -0.6913  1.5228
  418TMC3    H2 6296   4.518   0.166   0.406  1.4245 -0.6940 -0.1268
  418TMC3    C7 6297   4.727   0.186   0.563  0.0340  1.1486  0.2381
  418TMC3    C8 6298   4.419   0.351   0.221 -0.2309 -0.1322 -0.5889
  418TMC3    O1 6299   0.001   0.081   0.501 -0.2842  0.0774 -0.2665
  418TMC3    O2 6300   4.355   0.448   0.183 -0.3771 -0.2503 -0.1841
  419MPD2     C 6301   3.552   2.888  12.535  0.4633  0.5675 -0.1959
  419MPD2    C1 6302   3.471   3.007  12.527 -0.1481 -0.6377 -0.4351
  419MPD2    C2 6303   3.456   3.081  12.639 -0.6387 -0.5925  0.5993
  419MPD2    C3 6304   3.512   3.059  12.761 -0.0571 -0.1625 -1.2526
  419MPD2    C4 6305   3.586   2.944  12.767 -0.5322 -0.8937  0.1925
  419MPD2    C5 6306   3.606   2.860  12.655  0.6713 -0.5285 -0.4456
  419MPD2     H 6307   3.385   3.163  12.630 -0.8164 -0.7565  0.5043
  419MPD2    H1 6308   3.640   2.909  12.854 -1.0672 -1.1849  0.4102
  419MPD2    H2 6309   3.573   2.816  12.457 -0.4348 -0.1482  0.2264
  419MPD2    H3 6310   3.654   2.764  12.661  0.6240 -0.5494 -0.3951
  419MPD2     N 6311   3.497   3.152  12.862  0.1068  0.4580  0.7167
  419MPD2    H5 6312   3.436   3.228  12.834  0.2519 -0.3702 -1.8194
  419MPD2    N1 6313   3.380   3.034  12.418 -0.3395  0.1657 -0.1462
  419MPD2    H7 6314   3.320   3.116  12.418  1.8973  1.8180 -1.3212
  420TMC3    C1 6315   3.501   3.242  13.080 -0.2367  0.4371  0.1411
  420TMC3    C2 6316   3.382   3.306  13.051  0.3456 -0.2873  0.3656
  420TMC3    C3 6317   3.314   3.360  13.160 -0.6477 -0.6320 -0.4421
  420TMC3    C4 6318   3.552   3.238  13.208  0.5333  0.0702 -0.6357
  420TMC3    C5 6319   3.484   3.283  13.314 -0.7287  0.0267  0.5107
  420TMC3    C6 6320   3.369   3.351  13.291 -0.2683  0.6916  0.3207
  420TMC3     C 6321   3.552   3.144  12.988 -0.3259  0.7130  0.0912
  420TMC3     O 6322   3.631   3.062  13.034 -0.6493  0.0343 -0.6345
  420TMC3     H 6323   3.326   3.301  12.958  0.2955  1.1494  0.3171
  420TMC3    H1 6324   3.649   3.192  13.223  1.0902  1.4300 -0.0715
  420TMC3    H2 6325   3.310   3.377  13.378 -1.4219  4.2150 -1.5395
  420TMC3    C7 6326   3.546   3.281  13.445 -0.7894 -0.5193  0.0254
  420TMC3    C8 6327   3.186   3.422  13.132  0.3354  0.1304 -0.4408
  420TMC3    O1 6328   3.616   3.179  13.470  0.1712 -0.5411  0.5254
  420TMC3    O2 6329   3.149   3.430  13.018  0.0344 -0.6995 -0.3046
  421TMC3    C1 6330   0.279   4.708  13.618  0.3256 -0.1552 -0.2823
  421TMC3    C2 6331   0.324   0.080  13.685  0.0021 -0.8098 -0.0178
  421TMC3    C3 6332   0.419   0.070  13.784  0.6548 -0.2629  0.5887
  421TMC3    C4 6333   0.325   4.586  13.651 -0.3089  0.1736 -0.5299
  421TMC3    C5 6334   0.432   4.581  13.732  0.4332 -0.7779  0.7484
  421TMC3    C6 6335   0.493   4.689  13.789 -0.0144 -0.3552 -0.3568
  421TMC3     C 6336   0.217   0.009  13.490 -0.7915 -1.0433 -0.0423
  421TMC3     O 6337   0.221   0.127  13.460  0.4746 -0.2540  0.0859
  421TMC3     H 6338   0.287   0.180  13.665 -0.2279 -0.0948  3.8629
  421TMC3    H1 6339   0.282   4.500  13.600 -0.6044 -0.0232  0.0515
  421TMC3    H2 6340   0.560   4.673  13.873 -0.5015 -0.0717  0.0901
  421TMC3    C7 6341   0.507   4.457  13.756 -0.5234 -0.0003 -0.8476
  421TMC3    C8 6342   0.457   0.181  13.867 -0.6665  0.8985 -0.1397
  421TMC3    O1 6343   0.625   4.474  13.789 -0.2573  0.6236  0.1008
  421TMC3    O2 6344   0.362   0.266  13.874 -0.2038 -0.1580  0.2586
  422TMC3    C1 6345   2.570   1.430  12.448  0.5791  0.3755 -0.3415
  422TMC3    C2 6346   2.612   1.514  12.550  0.1279 -0.4873  0.0878
  422TMC3    C3 6347   2.519   1.547  12.643 -0.5793  0.7322 -0.4359
  422TMC3    C4 6348   2.441   1.381  12.449  0.2196 -0.4523 -0.8281
  422TMC3    C5 6349   2.350   1.408  12.546  0.0009  0.9507 -0.4440
  422TMC3    C6 6350   2.393   1.492  12.654  0.0495 -1.0362  0.8959
  422TMC3     C 6351   2.652   1.425  12.326  0.6677 -0.0549 -0.2662
  422TMC3     O 6352   2.772   1.429  12.344 -0.3338  0.3540  0.0282
  422TMC3     H 6353   2.710   1.560  12.562  0.2447 -0.4600 -1.0231
  422TMC3    H1 6354   2.413   1.308  12.374 -1.2579 -0.3356 -0.4017
  422TMC3    H2 6355   2.316   1.535  12.717  0.5680  1.8158 -0.4080
  422TMC3    C7 6356   2.225   1.438  12.487  0.2738 -0.2893 -0.8721
  422TMC3    C8 6357   2.531   1.671  12.700 -0.2915  0.2654  0.3398
  422TMC3    O1 6358   2.243   1.491  12.372  0.4619  0.6479 -0.1748
  422TMC3    O2 6359   2.469   1.692  12.800 -0.0379 -0.2518 -0.1577
  423MPD2     C 6360   3.166   2.085   0.954 -0.4374 -0.2059 -0.1089
  423MPD2    C1 6361   3.295   2.046   0.928  0.2348  0.1352  0.0717
  423MPD2    C2 6362   3.327   2.014   0.800  0.4354 -0.0632  0.6496
  423MPD2    C3 6363   3.233   2.010   0.701  0.1004 -0.9433 -0.1708
  423MPD2    C4 6364   3.099   2.034   0.729 -0.6373 -1.0879  0.2398
  423MPD2    C5 6365   3.068   2.076   0.856 -0.3291  0.4183  0.0186
  423MPD2     H 6366   3.433   1.996   0.783  0.0732 -2.6746  1.1866
  423MPD2    H1 6367   3.019   2.029   0.655  0.0706  0.6324 -0.6425
  423MPD2    H2 6368   3.138   2.119   1.053 -1.0982  2.1655 -1.1149
  423MPD2    H3 6369   2.969   2.108   0.889 -0.7783  0.0996 -1.0106
  423MPD2     N 6370   3.271   1.991   0.562 -0.2982  0.2594  0.4821
  423MPD2    H5 6371   3.195   1.962   0.501 -0.2731  0.9732  0.1118
  423MPD2    N1 6372   3.393   2.040   1.023  0.1646  0.0262 -0.4438
  423MPD2    H7 6373   3.487   2.003   1.008  0.0155 -0.4785 -0.1307
  424TMC3    C1 6374   3.511   2.085   1.223 -0.2490  0.0817  0.5135
  424TMC3    C2 6375   3.588   1.982   1.188  0.1077 -0.4994  0.0353
  424TMC3    C3 6376   3.721   1.998   1.214  0.5445 -0.8624 -0.6630
  424TMC3    C4 6377   3.550   2.202   1.272 -0.4351 -0.4608 -0.2167
  424TMC3    C5 6378   3.684   2.211   1.292 -0.5089 -0.8141  0.5570
  424TMC3    C6 6379   3.775   2.107   1.276  0.1536  0.2593  0.0147
  424TMC3     C 6380   3.382   2.091   1.152  0.3167  0.1789 -0.1130
  424TMC3     O 6381   3.300   2.160   1.205 -0.2207  0.2681 -0.3853
  424TMC3     H 6382   3.549   1.884   1.164 -1.9539  0.6781 -1.4881
  424TMC3    H1 6383   3.483   2.286   1.283 -0.5182 -0.6633  0.7691
  424TMC3    H2 6384   3.879   2.136   1.287  0.5706 -0.5214 -1.7985
  424TMC3    C7 6385   3.739   2.341   1.322 -0.4177  0.1698  0.0703
  424TMC3    C8 6386   3.794   1.871   1.232 -1.0871 -0.1983  0.6365
  424TMC3    O1 6387   3.853   2.352   1.373 -0.0999  0.4798 -0.3637
  424TMC3    O2 6388   3.754   1.774   1.169 -0.0673 -0.3230  0.3906
  425MPD2     C 6389   2.680   1.241  17.576 -0.4929  0.4694 -0.2201
  425MPD2    C1 6390   2.619   1.174  17.469 -0.1985  0.0665 -0.7272
  425MPD2    C2 6391   2.497   1.213  17.421  1.1109  0.4332  0.6997
  425MPD2    C3 6392   2.430   1.320  17.480 -0.0781  0.1011  1.2590
  425MPD2    C4 6393   2.499   1.389  17.586  1.2808 -0.3892 -0.4101
  425MPD2    C5 6394   2.629   1.353  17.621  0.4168 -0.3072 -0.1094
  425MPD2     H 6395   2.444   1.158  17.345  3.4746 -1.8625  0.7130
  425MPD2    H1 6396   2.445   1.468  17.636 -0.8949 -0.7765 -2.1588
  425MPD2    H2 6397   2.777   1.218  17.619  0.3987  1.0946 -1.9229
  425MPD2    H3 6398   2.674   1.412  17.700  2.2586  2.3937 -3.1827
  425MPD2     N 6399   2.296   1.347  17.445 -0.3253 -0.8464  0.4223
  425MPD2    H5 6400   2.255   1.284  17.378 -3.7085  0.5328  1.1743
  425MPD2    N1 6401   2.687   1.066  17.415 -0.0466  0.1761 -0.2641
  425MPD2    H7 6402   2.772   1.038  17.463 -1.2014  0.3188  1.8851
  426TMC3    C1 6403   2.735   0.873  17.297 -0.2655 -0.1321  0.0226
  426TMC3    C2 6404   2.770   0.841  17.169  0.0140 -0.2392 -0.6669
  426TMC3    C3 6405   2.809   0.715  17.145  0.0132  0.2966 -0.4335
  426TMC3    C4 6406   2.726   0.786  17.401  0.5984  0.1946  0.3946
  426TMC3    C5 6407   2.772   0.657  17.370 -0.0266 -0.2378  0.6262
  426TMC3    C6 6408   2.827   0.624  17.245 -0.6391 -0.5756 -0.6601
  426TMC3     C 6409   2.646   0.989  17.304 -0.0966 -0.3318 -0.5766
  426TMC3     O 6410   2.565   1.015  17.214 -0.2974  0.4691  0.0566
  426TMC3     H 6411   2.763   0.922  17.099 -0.5612  0.5112  0.2595
  426TMC3    H1 6412   2.676   0.814  17.493 -0.0858 -1.0510  0.3964
  426TMC3    H2 6413   2.857   0.522  17.224 -0.4535 -0.4738 -0.8853
  426TMC3    C7 6414   2.802   0.558  17.473 -0.0215 -0.1609  0.0784
  426TMC3    C8 6415   2.800   0.670  17.012 -0.9531  0.4408 -0.0148
  426TMC3    O1 6416   2.880   0.471  17.435 -0.2369 -0.4817 -0.6530
  426TMC3    O2 6417   2.809   0.757  16.924 -0.3044  0.8604  0.0516
  427MPD2     C 6418   0.775   2.853  15.297 -0.2213 -0.1585 -0.3492
  427MPD2    C1 6419   0.849   2.951  15.230 -0.3726  0.1783  0.2381
  427MPD2    C2 6420   0.776   3.039  15.156 -0.3970 -0.5509 -0.3328
  427MPD2    C3 6421   0.637   3.034  15.144 -0.2109  0.4043 -0.3338
  427MPD2    C4 6422   0.568   2.925  15.203  0.0960 -0.6570  1.0927
  427MPD2    C5 6423   0.638   2.842  15.285 -0.0683 -0.6995  0.3423
  427MPD2     H 6424   0.824   3.117  15.097 -0.2307 -1.3921 -1.3179
  427MPD2    H1 6425   0.461   2.911  15.202  0.1801 -1.1560 -0.4782
  427MPD2    H2 6426   0.822   2.793  15.374 -0.7480  1.5092  1.2675
  427MPD2    H3 6427   0.584   2.772  15.348 -0.5264 -0.8032 -0.1643
  427MPD2     N 6428   0.562   3.124  15.071 -0.2149 -0.2352 -0.6503
  427MPD2    H5 6429   0.462   3.114  15.088  0.0123  0.5083  1.1787
  427MPD2    N1 6430   0.992   2.965  15.241  0.1578  0.6284  0.1265
  427MPD2    H7 6431   1.039   3.040  15.190  1.2286 -0.8651 -1.0596
  428TMC3    C1 6432   1.205   2.920  15.274 -0.3524  0.1901 -0.9860
  428TMC3    C2 6433   1.297   2.819  15.266 -0.8204  0.0839 -0.8778
  428TMC3    C3 6434   1.426   2.853  15.222  0.6907  0.0088 -0.8774
  428TMC3    C4 6435   1.243   3.051  15.256  0.0815 -0.6354  0.0938
  428TMC3    C5 6436   1.372   3.075  15.220  0.0233 -0.1728 -0.1055
  428TMC3    C6 6437   1.462   2.978  15.199 -0.4196 -0.2155  0.1525
  428TMC3     C 6438   1.072   2.883  15.312 -0.5231 -0.6118 -0.0623
  428TMC3     O 6439   1.051   2.775  15.367  0.0424 -0.6307  0.1538
  428TMC3     H 6440   1.262   2.717  15.264  1.5611 -0.7671  0.5890
  428TMC3    H1 6441   1.180   3.136  15.277  0.2170 -0.8978  1.5780
  428TMC3    H2 6442   1.564   3.005  15.176 -0.9644  1.8043  0.0352
  428TMC3    C7 6443   1.415   3.214  15.204  0.4828  1.0675  0.1679
  428TMC3    C8 6444   1.526   2.750  15.229 -0.5607 -0.2753 -0.4632
  428TMC3    O1 6445   1.354   3.300  15.262  0.0289  0.3753  0.0419
  428TMC3    O2 6446   1.641   2.787  15.195 -0.4325  0.5274 -0.4638
  429MPD2     C 6447   2.675   3.886  17.518  0.2294 -0.7387 -0.5547
  429MPD2    C1 6448   2.697   3.773  17.449 -0.2304  0.6622 -0.4858
  429MPD2    C2 6449   2.666   3.769  17.316  0.0665  0.3700 -0.3266
  429MPD2    C3 6450   2.620   3.886  17.258  0.0919 -0.4177 -0.1456
  429MPD2    C4 6451   2.612   4.007  17.325 -0.6376 -0.2142 -0.2865
  429MPD2    C5 6452   2.636   4.004  17.462 -0.2522  0.1652 -0.8502
  429MPD2     H 6453   2.689   3.677  17.263 -1.5860 -0.2919  0.1218
  429MPD2    H1 6454   2.587   4.104  17.284  1.7138 -0.4542 -2.2782
  429MPD2    H2 6455   2.698   3.890  17.624  1.3841 -1.4904 -0.7779
  429MPD2    H3 6456   2.626   4.084  17.535 -1.4019 -0.3656 -0.4280
  429MPD2     N 6457   2.582   3.889  17.120  0.5932 -0.3198  0.0544
  429MPD2    H5 6458   2.618   3.811  17.066  0.1020  0.8538 -1.9586
  429MPD2    N1 6459   2.746   3.651  17.493 -0.4720 -0.0009  0.1633
  429MPD2    H7 6460   2.756   3.574  17.428 -1.8856  0.1280 -0.1870
  430TMC3    C1 6461   2.523   3.959  16.916 -0.0272 -0.0871 -0.0391
  430TMC3    C2 6462   2.401   3.924  16.871  0.1502 -1.3303 -0.2841
  430TMC3    C3 6463   2.397   3.875  16.739 -0.4026 -0.1124  0.2786
  430TMC3    C4 6464   2.639   3.932  16.856  0.3134  0.7658 -0.4849
  430TMC3    C5 6465   2.632   3.872  16.739  0.3438  0.5522  1.1237
  430TMC3    C6 6466   2.512   3.857  16.666 -0.0995 -0.2181 -0.0379
  430TMC3     C 6467   2.521   3.984  17.056  0.5337 -0.0214 -0.2039
  430TMC3     O 6468   2.446   4.071  17.103  0.4058 -0.2178 -0.2896
  430TMC3     H 6469   2.316   3.949  16.934 -0.0073 -0.2391 -0.9365
  430TMC3    H1 6470   2.734   3.950  16.905 -0.6552 -1.9396  2.3936
  430TMC3    H2 6471   2.513   3.805  16.571 -3.2228 -0.7204  0.2280
  430TMC3    C7 6472   2.741   3.781  16.718 -0.1831 -0.3199  0.0397
  430TMC3    C8 6473   2.269   3.870  16.671 -0.3611 -0.0789  0.2198
  430TMC3    O1 6474   2.804   3.751  16.819 -0.0320  0.2141 -0.1716
  430TMC3    O2 6475   2.167   3.834  16.733  0.1994  0.3501  0.2839
  431MPD2     C 6476   2.957   3.519  12.677  0.1423  0.4251 -0.7380
  431MPD2    C1 6477   3.064   3.562  12.608  0.1642  0.8234  0.4066
  431MPD2    C2 6478   3.092   3.493  12.488  0.8347  0.2080  0.1157
  431MPD2    C3 6479   3.014   3.379  12.461  0.1534  0.4712  0.6514
  431MPD2    C4 6480   2.919   3.336  12.548  0.7081  0.0652  0.1356
  431MPD2    C5 6481   2.890   3.408  12.652  0.0512 -0.7148  0.2897
  431MPD2     H 6482   3.172   3.522  12.420  1.5979  1.0352  1.3678
  431MPD2    H1 6483   2.863   3.244  12.542  0.9239  0.0508 -1.9661
  431MPD2    H2 6484   2.943   3.569  12.772 -0.6255 -0.9507 -0.1353
  431MPD2    H3 6485   2.809   3.383  12.719  0.4334  0.3868  1.1655
  431MPD2     N 6486   3.044   3.302  12.345  0.5378  0.2277 -0.1413
  431MPD2    H5 6487   3.003   3.209  12.346  0.2683  0.3341 -0.9980
  431MPD2    N1 6488   3.142   3.670  12.660 -0.2731 -0.0827 -0.2939
  431MPD2    H7 6489   3.116   3.734  12.734  1.4973 -0.2150  0.4524
  432TMC3    C1 6490   3.162   3.231  12.155  1.1283  0.3514  1.0166
  432TMC3    C2 6491   3.233   3.276  12.046 -0.6342 -0.6154 -0.2670
  432TMC3    C3 6492   3.344   3.208  12.021 -0.1214 -0.0427 -0.0244
  432TMC3    C4 6493   3.202   3.113  12.226 -0.1071 -0.1282  0.6734
  432TMC3    C5 6494   3.316   3.057  12.195 -0.1314 -0.4330  1.2009
  432TMC3    C6 6495   3.395   3.101  12.092 -0.4814  0.2593 -0.4697
  432TMC3     C 6496   3.112   3.342  12.239  1.1016 -0.5984  0.8732
  432TMC3     O 6497   3.137   3.456  12.200 -0.3605  0.0493 -0.5516
  432TMC3     H 6498   3.203   3.364  11.991 -0.5850 -0.3796  0.0824
  432TMC3    H1 6499   3.143   3.072  12.307 -0.4053  0.1601  0.5992
  432TMC3    H2 6500   3.477   3.038  12.060  0.9675  1.4661  0.8382
  432TMC3    C7 6501   3.375   2.977  12.297  0.5487 -0.1974  0.1561
  432TMC3    C8 6502   3.429   3.286  11.938 -0.1434 -0.1858 -0.0172
  432TMC3    O1 6503   3.443   2.881  12.254 -0.0073 -0.9750 -0.7913
  432TMC3    O2 6504   3.384   3.343  11.839 -0.0026  0.0715 -0.1134
  433MPD2     C 6505   2.186   2.198  10.588  0.4417  0.0239 -0.2955
  433MPD2    C1 6506   2.276   2.109  10.647 -0.2060  0.4513  0.2102
  433MPD2    C2 6507   2.286   2.112  10.790  0.6055 -0.2706 -0.2800
  433MPD2    C3 6508   2.213   2.197  10.873 -0.5011 -0.0154  0.0237
  433MPD2    C4 6509   2.128   2.283  10.804 -0.3863 -0.2158  0.4426
  433MPD2    C5 6510   2.114   2.287  10.666 -0.4375 -0.4230 -0.8654
  433MPD2     H 6511   2.361   2.054  10.843 -0.3997 -0.7370  0.6307
  433MPD2    H1 6512   2.066   2.353  10.859 -1.3622  1.4372 -2.7547
  433MPD2    H2 6513   2.181   2.210  10.480  3.6889  2.1726 -0.2167
  433MPD2    H3 6514   2.047   2.358  10.618  0.5819  0.0809 -1.5516
  433MPD2     N 6515   2.234   2.186  11.012 -0.6802 -0.0120 -0.3256
  433MPD2    H5 6516   2.282   2.104  11.047 -1.5490  0.0892  1.0882
  433MPD2    N1 6517   2.353   2.022  10.568 -0.3264 -0.2801  0.1582
  433MPD2    H7 6518   2.356   2.040  10.469  0.1453  0.8667  0.3757
  434TMC3    C1 6519   2.483   1.835  10.511 -0.0775 -0.0603  0.0586
  434TMC3    C2 6520   2.569   1.750  10.574  0.1469  0.0455 -0.4936
  434TMC3    C3 6521   2.569   1.618  10.545  0.4584  0.3181 -1.5384
  434TMC3    C4 6522   2.408   1.779  10.412  0.6589 -0.5305  0.1608
  434TMC3    C5 6523   2.413   1.649  10.378  0.4894 -0.1590  0.0605
  434TMC3    C6 6524   2.489   1.561  10.450 -0.7063  0.1527  0.0312
  434TMC3     C 6525   2.422   1.916  10.617  0.0301 -0.0884  0.1603
  434TMC3     O 6526   2.436   1.871  10.733  0.3252 -0.0531 -0.2160
  434TMC3     H 6527   2.633   1.783  10.654 -2.3336 -0.4520  1.6900
  434TMC3    H1 6528   2.326   1.839  10.373  0.7553 -0.1670  0.5201
  434TMC3    H2 6529   2.475   1.454  10.437 -0.1043 -0.1027  1.4616
  434TMC3    C7 6530   2.307   1.606  10.284 -0.0545 -0.0673 -0.4744
  434TMC3    C8 6531   2.589   1.547  10.662  0.3018  0.0138 -0.3266
  434TMC3    O1 6532   2.262   1.697  10.218 -0.0813  0.3673  0.2330
  434TMC3    O2 6533   2.573   1.608  10.765 -0.0060  0.4624  0.0276
  435MPD2     C 6534   4.403   2.462  15.640  0.7486  0.2988  0.2911
  435MPD2    C1 6535   4.368   2.453  15.774 -0.3746 -0.7199 -0.0178
  435MPD2    C2 6536   4.452   2.391  15.870  0.3543  0.0010  0.4482
  435MPD2    C3 6537   4.564   2.323  15.829 -0.2859  0.5513  0.3104
  435MPD2    C4 6538   4.594   2.321  15.694  0.3532 -0.0944 -1.0207
  435MPD2    C5 6539   4.516   2.391  15.603 -0.1941 -0.0726  0.0249
  435MPD2     H 6540   4.428   2.401  15.975  0.5100 -0.9597  0.5768
  435MPD2    H1 6541   4.688   2.285  15.655  0.6259  1.4451 -1.7842
  435MPD2    H2 6542   4.349   2.522  15.567 -0.3705 -0.0842  0.8001
  435MPD2    H3 6543   4.537   2.397  15.496  0.8808  1.0834  0.3027
  435MPD2     N 6544   4.645   2.242  15.915 -0.0688  0.0147  0.2334
  435MPD2    H5 6545   4.710   2.180  15.868 -2.6067 -0.0866 -3.1964
  435MPD2    N1 6546   4.258   2.522  15.825 -0.3240  0.3131  0.5053
  435MPD2    H7 6547   4.240   2.513  15.924 -1.2218  0.9987  0.4067
  436TMC3    C1 6548   4.003   2.666  16.066  0.9041  0.0054 -0.5769
  436TMC3    C2 6549   4.107   2.644  15.978 -0.1897  0.5152 -0.5948
  436TMC3    C3 6550   4.069   2.634  15.850 -0.5313 -0.7142 -0.1196
  436TMC3    C4 6551   3.871   2.680  16.028  0.3421 -0.4019 -0.4181
  436TMC3    C5 6552   3.845   2.669  15.892 -0.2692 -0.1656  0.2539
  436TMC3    C6 6553   3.947   2.645  15.801 -0.1119  0.7456  0.3783
  436TMC3     C 6554   4.048   2.700  16.199 -0.5217  0.2175  0.1920
  436TMC3     O 6555   4.154   2.765  16.210 -0.5345  0.1754  0.0682
  436TMC3     H 6556   4.210   2.649  16.013 -0.2291 -3.0437  0.0238
  436TMC3    H1 6557   3.801   2.704  16.107  0.0788 -1.1924 -0.4082
  436TMC3    H2 6558   3.923   2.640  15.696 -1.5543 -3.4366  0.9099
  436TMC3    C7 6559   3.708   2.668  15.855 -0.1952  0.1153  0.1048
  436TMC3    C8 6560   4.161   2.583  15.752  0.1649 -0.1651 -0.4673
  436TMC3    O1 6561   3.627   2.706  15.941  0.7175  0.4942 -0.3309
  436TMC3    O2 6562   4.138   2.601  15.627  0.1783 -0.1897 -0.2348
  437TMC3    C1 6563   3.147   3.925  13.192 -0.4386  0.0075  0.2936
  437TMC3    C2 6564   3.042   3.979  13.264 -0.1407 -0.5711 -0.0472
  437TMC3    C3 6565   2.966   4.079  13.213 -0.0575  0.3084 -0.1320
  437TMC3    C4 6566   3.170   3.968  13.064  0.5269 -0.5147  0.4564
  437TMC3    C5 6567   3.099   4.073  13.015 -0.1570 -0.0641 -0.4017
  437TMC3    C6 6568   3.003   4.135  13.089  0.4072 -0.6366 -0.1739
  437TMC3     C 6569   3.237   3.836  13.261  0.5274  0.3234  0.1017
  437TMC3     O 6570   3.211   3.822  13.382  0.6518  0.1678  0.3699
  437TMC3     H 6571   3.034   3.952  13.368  2.1748 -0.6514  0.1125
  437TMC3    H1 6572   3.251   3.922  13.009 -0.1853 -0.1576 -0.9074
  437TMC3    H2 6573   2.955   4.222  13.045  0.4302 -0.2638  0.5425
  437TMC3    C7 6574   3.141   4.146  12.901  0.0574 -0.4737  0.2779
  437TMC3    C8 6575   2.893   4.163  13.312  0.3582 -0.9669 -0.2223
  437TMC3    O1 6576   3.051   4.203  12.836 -0.5583  0.0440 -0.2294
  437TMC3    O2 6577   2.869   4.105  13.417 -0.4390 -0.2368  0.0337
  438MPD2     C 6578   0.321   0.651  16.501 -0.7480 -0.1980  0.0712
  438MPD2    C1 6579   0.403   0.572  16.575 -0.7084  0.0239  0.1818
  438MPD2    C2 6580   0.438   0.605  16.704  0.2756  0.2293 -0.4492
  438MPD2    C3 6581   0.381   0.718  16.762  0.7823  0.6897  0.5496
  438MPD2    C4 6582   0.293   0.793  16.688  0.3380 -0.3914  0.3696
  438MPD2    C5 6583   0.252   0.747  16.570  0.4695  0.4878  0.7443
  438MPD2     H 6584   0.516   0.549  16.756 -1.3162  1.2950  3.1065
  438MPD2    H1 6585   0.248   0.881  16.733 -1.7212 -1.2700  0.0188
  438MPD2    H2 6586   0.302   0.647  16.394  1.8870  2.2084 -0.4713
  438MPD2    H3 6587   0.187   0.822  16.527  0.2619 -0.1890 -0.1444
  438MPD2     N 6588   0.403   0.755  16.897  0.3337 -0.0868 -0.2782
  438MPD2    H5 6589   0.368   0.845  16.930 -0.6926 -0.3193 -0.7422
  438MPD2    N1 6590   0.489   0.474  16.518 -0.2863 -0.4806  0.2155
  438MPD2    H7 6591   0.564   0.436  16.576 -0.4794 -0.3555  0.5473
  439TMC3    C1 6592   0.586   0.343  16.351  0.8928  0.0584 -0.3757
  439TMC3    C2 6593   0.617   0.344  16.218  0.2628 -0.4860 -0.4043
  439TMC3    C3 6594   0.618   0.224  16.152  0.3565 -0.1203  0.5871
  439TMC3    C4 6595   0.588   0.227  16.422  0.6111 -0.6726  0.1083
  439TMC3    C5 6596   0.592   0.110  16.354  0.1095  0.6704 -0.3989
  439TMC3    C6 6597   0.605   0.104  16.217 -0.7063 -0.0104  0.0134
  439TMC3     C 6598   0.490   0.436  16.387  0.5287  0.0626 -0.1177
  439TMC3     O 6599   0.430   0.476  16.290 -0.0339  0.1128 -0.0517
  439TMC3     H 6600   0.619   0.438  16.164  4.5014 -0.2351  0.2637
  439TMC3    H1 6601   0.556   0.227  16.525  0.4064 -1.1904  0.0436
  439TMC3    H2 6602   0.619   0.006  16.173  1.0414 -0.1036  0.7533
  439TMC3    C7 6603   0.595   4.731  16.435  0.8777  1.1980 -0.2842
  439TMC3    C8 6604   0.663   0.215  16.009  0.5749 -0.5506  1.0819
  439TMC3    O1 6605   0.634   0.001  16.550 -0.2675  0.2715  0.4753
  439TMC3    O2 6606   0.634   0.120  15.940  0.4105  0.6333 -0.1289
  440MPD2     C 6607   4.290   0.219  15.987 -0.2046 -0.3513  0.8502
  440MPD2    C1 6608   4.315   0.333  15.916 -0.3347 -0.1719 -0.5908
  440MPD2    C2 6609   4.449   0.366  15.910 -0.2968  0.0598  0.2067
  440MPD2    C3 6610   4.550   0.303  15.984 -0.6699 -0.4364 -0.3848
  440MPD2    C4 6611   4.512   0.192  16.062 -0.1777 -0.8278 -0.0969
  440MPD2    C5 6612   4.384   0.145  16.052 -0.2943 -0.2511 -0.4910
  440MPD2     H 6613   4.481   0.436  15.832 -0.4577  0.2917  0.3494
  440MPD2    H1 6614   4.585   0.132  16.115  0.5017  0.0323 -0.0474
  440MPD2    H2 6615   4.192   0.174  15.991 -0.2380 -0.3107  0.4307
  440MPD2    H3 6616   4.363   0.049  16.099 -2.4884  0.2074 -0.5275
  440MPD2     N 6617   4.689   0.340  15.997  0.2852  0.1064  0.4379
  440MPD2    H5 6618   0.003   0.270  16.052 -0.1901 -0.3248  0.3238
  440MPD2    N1 6619   4.218   0.410  15.842  0.1172  0.5619  0.3037
  440MPD2    H7 6620   4.251   0.485  15.782  0.1967 -0.2445 -0.6631
  441TMC3    C1 6621   0.165   0.423  15.935 -0.2594  0.0475 -0.1011
  441TMC3    C2 6622   0.240   0.519  15.874  0.1306  0.9169 -0.5309
  441TMC3    C3 6623   0.343   0.490  15.799 -1.0911  0.0042  0.9030
  441TMC3    C4 6624   0.211   0.295  15.920 -0.3191 -0.1100  0.3348
  441TMC3    C5 6625   0.316   0.262  15.834 -0.3556 -0.0220 -0.1982
  441TMC3    C6 6626   0.385   0.364  15.780  0.5895  0.3623 -0.0200
  441TMC3     C 6627   0.019   0.441  15.928 -0.2681  0.3169  0.1861
  441TMC3     O 6628   4.708   0.520  15.849 -0.0901 -0.1624  0.4313
  441TMC3     H 6629   0.222   0.626  15.886 -2.6563  0.4513 -0.6049
  441TMC3    H1 6630   0.157   0.209  15.959  1.8741 -1.3354  0.6625
  441TMC3    H2 6631   0.468   0.345  15.712  0.9861  1.8122  0.0567
  441TMC3    C7 6632   0.257   0.182  15.730  0.1509  0.3433  0.3705
  441TMC3    C8 6633   0.405   0.591  15.717  0.3078 -0.7783 -0.0912
  441TMC3    O1 6634   0.192   0.087  15.770  0.4505  0.2223  0.8742
  441TMC3    O2 6635   0.526   0.609  15.722  0.1357 -0.5298  0.5327
  442MPD2     C 6636   2.452   0.750  16.316  0.0822 -0.5835 -0.2388
  442MPD2    C1 6637   2.379   0.635  16.344  0.2115 -0.1478 -0.4071
  442MPD2    C2 6638   2.323   0.563  16.235 -0.2312  0.0839 -0.2182
  442MPD2    C3 6639   2.365   0.595  16.108 -0.2001 -0.1573 -0.0467
  442MPD2    C4 6640   2.451   0.701  16.082 -0.0779  0.2623  0.4140
  442MPD2    C5 6641   2.492   0.778  16.188  0.1994  0.0143 -0.2105
  442MPD2     H 6642   2.263   0.474  16.248  0.5177 -0.4060 -0.1415
  442MPD2    H1 6643   2.504   0.699  15.988 -1.4321  0.2458 -0.3523
  442MPD2    H2 6644   2.496   0.811  16.394 -0.6889 -2.2677  1.5241
  442MPD2    H3 6645   2.564   0.859  16.178  0.9579 -0.6361 -0.0313
  442MPD2     N 6646   2.348   0.514  15.997 -0.4100 -0.3451 -0.1582
  442MPD2    H5 6647   2.392   0.554  15.915  1.6644 -1.1018  0.5887
  442MPD2    N1 6648   2.362   0.580  16.478 -0.2202  0.0891 -0.3482
  442MPD2    H7 6649   2.317   0.489  16.482  0.0965  0.0014  1.6749
  443TMC3    C1 6650   2.372   0.590  16.724  0.1020 -0.2798  0.3975
  443TMC3    C2 6651   2.416   0.660  16.836  0.3336 -0.0024  0.2685
  443TMC3    C3 6652   2.330   0.666  16.941  0.1064  0.0271  1.0074
  443TMC3    C4 6653   2.264   0.507  16.726  0.0677  1.0544 -0.7613
  443TMC3    C5 6654   2.180   0.510  16.838  0.1981  0.4821  0.2105
  443TMC3    C6 6655   2.214   0.589  16.945 -0.0381  0.1874  0.6333
  443TMC3     C 6656   2.416   0.637  16.590  0.3141 -0.0908 -0.3478
  443TMC3     O 6657   2.509   0.719  16.598 -0.2248  0.7017 -0.4739
  443TMC3     H 6658   2.502   0.726  16.835 -0.2977  0.8419  1.4534
  443TMC3    H1 6659   2.244   0.443  16.640 -1.7194  1.3644 -0.5761
  443TMC3    H2 6660   2.160   0.578  17.038  1.0585 -1.4430  1.0877
  443TMC3    C7 6661   2.085   0.397  16.848  0.5319 -0.3847 -0.7923
  443TMC3    C8 6662   2.340   0.760  17.047  0.2072 -0.4941 -0.1582
  443TMC3    O1 6663   2.116   0.290  16.792  0.4761  0.1319 -0.4490
  443TMC3    O2 6664   2.339   0.710  17.158  0.1395 -0.0836 -0.2150
  444MPD2     C 6665   2.270   0.273  17.291 -0.2627 -0.4068  0.4951
  444MPD2    C1 6666   2.195   0.249  17.179 -0.5698 -0.6558  0.0174
  444MPD2    C2 6667   2.254   0.175  17.080  0.1239 -0.2463 -0.7942
  444MPD2    C3 6668   2.384   0.135  17.093 -0.5609 -0.0959  0.2941
  444MPD2    C4 6669   2.456   0.168  17.204  0.4519  0.1622  0.2772
  444MPD2    C5 6670   2.399   0.234  17.308  0.0076  0.1185  0.3656
  444MPD2     H 6671   2.208   0.155  16.984  2.6077 -1.0816 -1.8145
  444MPD2    H1 6672   2.555   0.128  17.223  0.3243  0.4984  1.6475
  444MPD2    H2 6673   2.220   0.306  17.381  0.4628 -1.5335  1.3088
  444MPD2    H3 6674   2.452   0.255  17.400 -1.1471  1.1900  0.7924
  444MPD2     N 6675   2.441   0.055  16.984 -0.0411  0.1255 -0.4762
  444MPD2    H5 6676   2.388   0.052  16.897 -1.3274  0.7347  0.2903
  444MPD2    N1 6677   2.064   0.299  17.164  0.3314 -0.2831 -0.1210
  444MPD2    H7 6678   2.006   0.258  17.091 -0.6956  1.1406 -0.1033
  445TMC3    C1 6679   2.602   4.676  16.855  0.3369 -0.0452  0.0969
  445TMC3    C2 6680   2.501   4.654  16.766  0.3960 -0.5272 -0.0960
  445TMC3    C3 6681   2.537   4.614  16.639 -0.1213 -0.0839  0.3530
  445TMC3    C4 6682   2.735   4.670  16.823  0.4749 -0.6331 -0.5552
  445TMC3    C5 6683   2.766   4.655  16.693 -0.3764  0.0094  0.0435
  445TMC3    C6 6684   2.670   4.619  16.601  0.8740  0.1383 -0.2901
  445TMC3     C 6685   2.564   4.735  16.982 -0.2585 -0.1053  0.1955
  445TMC3     O 6686   2.648   4.725  17.071  0.6237 -0.1535  0.0366
  445TMC3     H 6687   2.398   4.645  16.800  0.3827 -0.8242 -0.2225
  445TMC3    H1 6688   2.812   4.679  16.899 -1.2848  0.9004  1.0611
  445TMC3    H2 6689   2.695   4.613  16.496  0.0466  0.7602 -0.5265
  445TMC3    C7 6690   2.903   4.680  16.646  0.6039  0.4485  0.6244
  445TMC3    C8 6691   2.437   4.549  16.550 -0.4668 -0.0346  0.2396
  445TMC3    O1 6692   2.951   4.634  16.540  0.2777  0.7979 -0.2494
  445TMC3    O2 6693   2.322   4.564  16.576  0.4833  0.3796  0.0775
  446MPD2     C 6694   2.208   1.428  11.187 -0.0736  0.1864 -0.5304
  446MPD2    C1 6695   2.195   1.486  11.061  0.0599 -0.1499  0.6130
  446MPD2    C2 6696   2.298   1.565  11.014 -0.2542 -0.2520  0.3397
  446MPD2    C3 6697   2.407   1.598  11.094 -0.7885  0.6157 -0.1517
  446MPD2    C4 6698   2.401   1.560  11.228 -0.2404  1.2433 -0.1924
  446MPD2    C5 6699   2.304   1.471  11.275 -0.0707 -0.1790  0.2389
  446MPD2     H 6700   2.296   1.589  10.908  0.3355  1.9579  0.8341
  446MPD2    H1 6701   2.476   1.596  11.297  0.2749  0.8505 -0.5410
  446MPD2    H2 6702   2.152   1.345  11.227  0.2483  0.0874 -0.2909
  446MPD2    H3 6703   2.311   1.436  11.377 -2.2030 -2.3107 -0.3637
  446MPD2     N 6704   2.520   1.665  11.037 -0.3821 -0.1320  0.0122
  446MPD2    H5 6705   2.514   1.710  10.946 -0.3556 -1.6104 -0.7259
  446MPD2    N1 6706   2.088   1.447  10.969 -0.1058  0.3688 -0.3440
  446MPD2    H7 6707   2.083   1.502  10.884  0.2475  1.4430  0.3261
  447TMC3    C1 6708   2.751   1.729  11.025 -0.1444  0.7458  0.6563
  447TMC3    C2 6709   2.719   1.834  10.935 -0.1517  0.3207 -0.3583
  447TMC3    C3 6710   2.828   1.901  10.887  0.5016  0.3131 -0.0305
  447TMC3    C4 6711   2.877   1.705  11.057 -0.3391  0.2857 -0.3664
  447TMC3    C5 6712   2.982   1.769  11.001  0.4868  0.4542 -0.2724
  447TMC3    C6 6713   2.954   1.874  10.919 -0.0255 -0.2994  0.6645
  447TMC3     C 6714   2.646   1.651  11.090  0.4967  0.7162  0.6288
  447TMC3     O 6715   2.681   1.565  11.166  0.5945 -0.7260 -0.3818
  447TMC3     H 6716   2.619   1.858  10.901 -0.4457 -0.2564  0.1029
  447TMC3    H1 6717   2.895   1.633  11.136 -0.6189  0.4425 -0.1640
  447TMC3    H2 6718   3.032   1.915  10.857 -2.0361  0.2200 -1.5436
  447TMC3    C7 6719   3.105   1.745  11.064 -0.1993 -0.1212  0.4644
  447TMC3    C8 6720   2.796   2.021  10.816  0.5614 -0.0652  0.8393
  447TMC3    O1 6721   3.111   1.667  11.160 -0.0073 -0.0055  0.4410
  447TMC3    O2 6722   2.853   2.055  10.715 -0.2523  0.3999 -0.1324
  448TMC3    C1 6723   0.022   1.417  17.169 -0.2832 -0.5594 -0.1915
  448TMC3    C2 6724   0.091   1.452  17.055 -0.3912 -0.8202  0.2811
  448TMC3    C3 6725   0.228   1.429  17.065  0.0835  0.1799 -0.5650
  448TMC3    C4 6726   0.079   1.362  17.282 -0.1265 -0.0884 -0.2420
  448TMC3    C5 6727   0.211   1.350  17.286 -0.0477 -0.3832 -0.0171
  448TMC3    C6 6728   0.288   1.394  17.177  0.1048 -0.5425  0.7728
  448TMC3     C 6729   4.616   1.470  17.185  0.1158  0.2927  0.0705
  448TMC3     O 6730   4.602   1.589  17.161  0.7336  0.3778  0.2835
  448TMC3     H 6731   0.038   1.477  16.964  0.4526  0.7815  0.2289
  448TMC3    H1 6732   0.021   1.354  17.373 -0.2008 -0.4431 -0.3201
  448TMC3    H2 6733   0.394   1.373  17.181  0.1883 -0.1050  0.8080
  448TMC3    C7 6734   0.281   1.380  17.408  0.3894 -0.1755 -0.1112
  448TMC3    C8 6735   0.305   1.429  16.943  0.0414 -0.2720  0.0571
  448TMC3    O1 6736   0.370   1.461  17.396 -0.6742 -0.1583 -0.1313
  448TMC3    O2 6737   0.409   1.362  16.935  0.3119 -0.9798 -0.3422
  449MPD2     C 6738   2.081   0.386  13.683  0.2359  0.1474 -1.2790
  449MPD2    C1 6739   1.969   0.325  13.625  0.6289  0.1506 -0.0632
  449MPD2    C2 6740   1.879   0.252  13.706  0.2935 -0.3284  0.1965
  449MPD2    C3 6741   1.898   0.240  13.842  0.6797 -0.5592  0.1194
  449MPD2    C4 6742   2.006   0.306  13.899  0.0213 -0.1047  0.4551
  449MPD2    C5 6743   2.091   0.377  13.819 -0.0932 -0.4148  0.1270
  449MPD2     H 6744   1.794   0.208  13.655  0.7925 -0.1827 -0.7641
  449MPD2    H1 6745   2.027   0.308  14.005 -0.2972 -1.3543  0.5407
  449MPD2    H2 6746   2.148   0.455  13.632 -0.1440 -0.5937 -2.7746
  449MPD2    H3 6747   2.159   0.447  13.864  0.7847 -0.8710 -0.4981
  449MPD2     N 6748   1.810   0.156  13.908  0.4867 -0.3663 -0.3987
  449MPD2    H5 6749   1.734   0.111  13.857  0.1027 -1.2958  0.9986
  449MPD2    N1 6750   1.938   0.330  13.490  0.0487 -0.3589 -0.5529
  449MPD2    H7 6751   1.852   0.282  13.468 -0.2851  0.0502 -0.1465
  450TMC3    C1 6752   1.959   0.341  13.263  0.5901  0.0295 -0.3923
  450TMC3    C2 6753   2.038   0.255  13.193  0.2879 -0.1735  0.3876
  450TMC3    C3 6754   1.968   0.160  13.114  0.0742  0.1971 -0.7280
  450TMC3    C4 6755   1.822   0.334  13.268 -0.3791  0.4036 -0.2785
  450TMC3    C5 6756   1.759   0.232  13.204 -0.4249  0.8943 -0.9794
  450TMC3    C6 6757   1.830   0.151  13.122 -0.3675 -0.4707 -0.0508
  450TMC3     C 6758   2.018   0.367  13.389  0.2658  0.1772 -0.7338
  450TMC3     O 6759   2.133   0.406  13.381  0.3217  0.2361 -0.1300
  450TMC3     H 6760   2.143   0.244  13.218  0.0778 -2.0052  0.4873
  450TMC3    H1 6761   1.770   0.401  13.335 -0.0527 -1.1051  1.4887
  450TMC3    H2 6762   1.783   0.083  13.051 -1.5168  0.6479 -0.3614
  450TMC3    C7 6763   1.684   0.162  13.306  0.3512  0.4008  0.1419
  450TMC3    C8 6764   2.040   0.054  13.048  0.2452 -0.2359  0.8189
  450TMC3    O1 6765   1.696   0.198  13.421  0.1468  0.1220  0.1554
  450TMC3    O2 6766   1.978   4.684  13.042 -0.5235  0.1832 -0.6041
  451MPD2     C 6767   2.848   3.228   0.618 -0.0110 -0.0764  0.1986
  451MPD2    C1 6768   2.969   3.298   0.626  0.1197 -0.1447 -1.0432
  451MPD2    C2 6769   3.084   3.231   0.668  0.4978  0.0608  0.4469
  451MPD2    C3 6770   3.079   3.097   0.691 -0.2167  0.1290  0.4773
  451MPD2    C4 6771   2.964   3.024   0.667 -0.7677 -0.5333  0.2513
  451MPD2    C5 6772   2.849   3.092   0.631  0.1283  0.8653 -0.4098
  451MPD2     H 6773   3.180   3.279   0.677  0.9314 -0.5790 -0.8611
  451MPD2    H1 6774   2.960   2.916   0.677  0.6819 -0.6588 -0.5488
  451MPD2    H2 6775   2.754   3.273   0.591  0.0415  0.4067  0.8313
  451MPD2    H3 6776   2.755   3.040   0.614  0.3221  0.5951 -0.6434
  451MPD2     N 6777   3.195   3.018   0.729  0.2460 -0.1892  0.4429
  451MPD2    H5 6778   3.187   2.918   0.715 -0.4108 -0.3272  1.8138
  451MPD2    N1 6779   2.964   3.438   0.599  0.2325  0.2942  0.1278
  451MPD2    H7 6780   2.875   3.467   0.559  1.3089  2.7446 -0.5036
  452TMC3    C1 6781   3.424   2.975   0.777  0.1587  0.1347  0.3866
  452TMC3    C2 6782   3.407   2.848   0.745 -0.7446 -0.3890  0.4443
  452TMC3    C3 6783   3.516   2.762   0.736 -0.6513  0.7943 -0.0375
  452TMC3    C4 6784   3.547   3.020   0.810  0.3880 -0.6317 -0.5572
  452TMC3    C5 6785   3.648   2.931   0.819 -0.3903 -0.6926  0.1531
  452TMC3    C6 6786   3.637   2.806   0.771 -0.3167 -0.2389 -0.7172
  452TMC3     C 6787   3.322   3.076   0.760  1.0126  0.4960 -0.9072
  452TMC3     O 6788   3.348   3.190   0.789  0.8593  0.6105  0.6768
  452TMC3     H 6789   3.311   2.817   0.704 -2.1302 -0.3197  3.5861
  452TMC3    H1 6790   3.557   3.117   0.858 -1.1137 -0.3767 -0.7732
  452TMC3    H2 6791   3.721   2.740   0.751  0.8285  0.8729  0.4560
  452TMC3    C7 6792   3.768   2.997   0.788 -1.2784 -0.0908 -0.1801
  452TMC3    C8 6793   3.503   2.644   0.652  0.6682  0.8584 -0.3366
  452TMC3    O1 6794   3.759   3.111   0.746 -0.9149 -0.2081 -0.6689
  452TMC3    O2 6795   3.601   2.611   0.587 -0.3101  0.2409 -0.5285
  453TMC3    C1 6796   4.571   0.553  11.694  0.6250 -0.0133  0.2802
  453TMC3    C2 6797   4.482   0.493  11.772 -0.0668 -0.5119  0.8830
  453TMC3    C3 6798   4.353   0.485  11.730 -0.1004  0.2128 -0.2232
  453TMC3    C4 6799   4.534   0.606  11.575 -0.0508  0.0752 -0.8654
  453TMC3    C5 6800   4.413   0.593  11.525  0.4586  0.0431 -0.0470
  453TMC3    C6 6801   4.311   0.536  11.604  0.5988 -0.8488  0.0071
  453TMC3     C 6802   4.709   0.565  11.747 -0.0330 -0.3339 -0.0622
  453TMC3     O 6803   0.044   0.647  11.690 -0.0424  0.2814 -0.1143
  453TMC3     H 6804   4.505   0.447  11.868  2.3378 -2.3762 -0.5945
  453TMC3    H1 6805   4.609   0.646  11.508 -0.3868  1.3411 -0.4909
  453TMC3    H2 6806   4.208   0.533  11.570  0.2043  0.6453  1.0621
  453TMC3    C7 6807   4.363   0.681  11.410 -0.3890  0.1392  0.1607
  453TMC3    C8 6808   4.256   0.409  11.808  0.5296 -0.6393  0.4770
  453TMC3    O1 6809   4.288   0.624  11.334 -0.1849 -0.5391 -0.0170
  453TMC3    O2 6810   4.143   0.399  11.770  0.0502  0.3123  0.2018
  454MPD2     C 6811   3.271   0.013  16.142  0.0876  0.5366 -0.5073
  454MPD2    C1 6812   3.282   0.113  16.048 -0.7971  0.5527  0.1057
  454MPD2    C2 6813   3.221   0.232  16.071 -1.1296 -0.2147  0.5493
  454MPD2    C3 6814   3.163   0.261  16.195  1.0990  0.2023 -0.5161
  454MPD2    C4 6815   3.165   0.160  16.288  0.5834 -0.0727  0.0826
  454MPD2    C5 6816   3.211   0.033  16.260  0.0706  0.3972 -0.7193
  454MPD2     H 6817   3.227   0.306  15.993 -1.1548  0.2009  0.9449
  454MPD2    H1 6818   3.114   0.161  16.384  1.0557  1.3569  0.3075
  454MPD2    H2 6819   3.314   4.651  16.123  0.0711  0.2002  1.1809
  454MPD2    H3 6820   3.188   4.693  16.334  0.9432  1.2063  0.3905
  454MPD2     N 6821   3.077   0.378  16.211  0.0200 -0.0165 -0.1946
  454MPD2    H5 6822   3.017   0.385  16.293 -1.3853  0.4226 -1.2730
  454MPD2    N1 6823   3.335   0.093  15.923  0.7825  0.4317  0.1901
  454MPD2    H7 6824   3.323   0.169  15.856 -1.5491 -0.4164 -0.3594
  455TMC3    C1 6825   2.942   0.541  16.166  0.1287 -0.1014 -1.0424
  455TMC3    C2 6826   2.941   0.578  16.296 -0.5356 -0.2835 -0.0053
  455TMC3    C3 6827   2.816   0.585  16.357  0.5533  0.4055 -0.3748
  455TMC3    C4 6828   2.836   0.487  16.102 -0.3797 -0.3764  0.3766
  455TMC3    C5 6829   2.714   0.488  16.160 -0.4710  0.1292 -0.4869
  455TMC3    C6 6830   2.706   0.543  16.292  0.2137  0.2787  0.4335
  455TMC3     C 6831   3.063   0.485  16.125 -0.0459 -0.2496  0.0215
  455TMC3     O 6832   3.101   0.496  16.010  0.2751  0.4006  0.3690
  455TMC3     H 6833   3.026   0.605  16.358 -1.3508 -0.1885  1.0706
  455TMC3    H1 6834   2.867   0.450  16.005 -1.0992 -3.9096  1.5032
  455TMC3    H2 6835   2.606   0.554  16.333  0.1051 -0.3218  0.3236
  455TMC3    C7 6836   2.625   0.378  16.143  0.0688 -0.7619  0.5885
  455TMC3    C8 6837   2.819   0.574  16.500  0.0497  0.3321  0.4055
  455TMC3    O1 6838   2.546   0.348  16.231 -0.0591 -0.4293  0.0921
  455TMC3    O2 6839   2.926   0.606  16.559  0.4852 -0.4001  0.1213
  456MPD2     C 6840   1.168   1.179  15.901  0.5693  0.3982  0.1224
  456MPD2    C1 6841   1.144   1.048  15.894 -0.3496  0.5607  0.3245
  456MPD2    C2 6842   1.037   0.985  15.960  1.0638 -0.1355  0.1521
  456MPD2    C3 6843   0.949   1.074  16.022 -0.2145 -0.9090 -0.1198
  456MPD2    C4 6844   0.987   1.211  16.031 -0.1654  0.1939 -0.0799
  456MPD2    C5 6845   1.095   1.266  15.969  0.5253 -0.0862 -0.2762
  456MPD2     H 6846   1.023   0.878  15.959 -0.1973  0.0203  3.5573
  456MPD2    H1 6847   0.925   1.281  16.086 -1.5771 -1.8749  0.9813
  456MPD2    H2 6848   1.253   1.222  15.849 -1.5477  2.5834 -1.5796
  456MPD2    H3 6849   1.123   1.370  15.975  0.3274  0.0112 -1.1273
  456MPD2     N 6850   0.843   1.028  16.098  1.0482 -0.3268 -0.9592
  456MPD2    H5 6851   0.845   0.928  16.112  1.0428 -0.3289 -0.9728
  456MPD2    N1 6852   1.230   0.973  15.815  0.2664  0.2602  0.4118
  456MPD2    H7 6853   1.311   1.021  15.776 -1.3693  2.6207 -0.0174
  457TMC3    C1 6854   0.683   1.062  16.258 -0.1137  0.7068  0.2830
  457TMC3    C2 6855   0.570   1.133  16.292  0.6900 -0.6336  0.3174
  457TMC3    C3 6856   0.475   1.079  16.372 -0.7968 -0.6494  0.2392
  457TMC3    C4 6857   0.706   0.937  16.310  0.0364 -0.5547 -0.0139
  457TMC3    C5 6858   0.617   0.887  16.396 -0.1117 -0.3276  0.2519
  457TMC3    C6 6859   0.501   0.951  16.427 -0.3551  0.2499 -0.6726
  457TMC3     C 6860   0.754   1.111  16.151 -0.1386 -0.3598  0.1775
  457TMC3     O 6861   0.717   1.213  16.097 -0.4427 -0.0694  0.1035
  457TMC3     H 6862   0.563   1.237  16.264 -1.1606 -0.3238  1.9676
  457TMC3    H1 6863   0.798   0.885  16.289  1.9187  1.9975  1.9282
  457TMC3    H2 6864   0.428   0.916  16.499  2.0926 -1.5286  0.9430
  457TMC3    C7 6865   0.674   0.813  16.510 -0.1586 -0.1287  0.9560
  457TMC3    C8 6866   0.437   1.168  16.476 -0.2833 -0.2813 -0.4298
  457TMC3    O1 6867   0.745   0.717  16.498 -0.5876 -0.1433  0.0611
  457TMC3    O2 6868   0.462   1.135  16.592  0.1651  0.3458 -0.4695
  458MPD2     C 6869   3.539   4.429  12.713  0.5598 -0.0622  0.2729
  458MPD2    C1 6870   3.583   4.335  12.805 -0.4479  0.4813  0.8830
  458MPD2    C2 6871   3.480   4.250  12.855  0.1610  0.0987 -0.6037
  458MPD2    C3 6872   3.347   4.258  12.826  0.4312 -0.6449 -0.2406
  458MPD2    C4 6873   3.304   4.343  12.731 -0.2699 -0.5552 -0.3055
  458MPD2    C5 6874   3.404   4.426  12.673 -0.0448 -0.4744 -0.5476
  458MPD2     H 6875   3.505   4.172  12.925 -0.9957 -1.3163 -1.7436
  458MPD2    H1 6876   3.202   4.360  12.698 -0.2415  0.1076 -0.0467
  458MPD2    H2 6877   3.608   4.496  12.664 -2.1905  1.6025 -1.3794
  458MPD2    H3 6878   3.378   4.498  12.597 -0.8888 -0.1988  0.0045
  458MPD2     N 6879   3.272   4.166  12.908  0.3423 -0.4888 -0.0177
  458MPD2    H5 6880   3.321   4.117  12.982 -1.3437 -1.2352  0.5865
  458MPD2    N1 6881   3.721   4.331  12.845  0.5294  0.0729  0.4040
  458MPD2    H7 6882   3.779   4.403  12.805 -0.1045 -0.5435 -1.6105
  459TMC3    C1 6883   3.898   4.291  13.000  0.0036  0.0396 -0.2350
  459TMC3    C2 6884   3.989   4.377  12.939 -0.2660  0.2096  0.5192
  459TMC3    C3 6885   4.096   4.416  13.007  0.4624  0.1017  0.0360
  459TMC3    C4 6886   3.905   4.245  13.127  0.3182 -0.4996 -0.1262
  459TMC3    C5 6887   4.025   4.281  13.188 -0.3404  0.0696  0.1712
  459TMC3    C6 6888   4.127   4.361  13.127 -0.7084  0.9444 -0.3942
  459TMC3     C 6889   3.768   4.247  12.942  0.2212  0.3567  0.2108
  459TMC3     O 6890   3.707   4.157  12.996 -0.8497  0.1332 -0.0007
  459TMC3     H 6891   3.971   4.395  12.834  1.3585  1.9323  0.5331
  459TMC3    H1 6892   3.836   4.171  13.167  1.0500 -0.2657  1.5505
  459TMC3    H2 6893   4.204   4.397  13.195 -1.0344  1.6393 -0.3969
  459TMC3    C7 6894   4.039   4.242  13.327  0.4804 -0.1456  0.4127
  459TMC3    C8 6895   4.200   4.495  12.940  0.7674  0.4783 -0.6104
  459TMC3    O1 6896   4.142   4.196  13.373 -0.1650 -0.6648 -0.2465
  459TMC3    O2 6897   4.309   4.505  12.998  0.5136 -0.3965  0.4112
  460MPD2     C 6898   2.557   2.284  10.915  0.0326  0.2664  0.0565
  460MPD2    C1 6899   2.638   2.219  10.824  0.3310 -0.9431 -0.0398
  460MPD2    C2 6900   2.659   2.281  10.704 -0.3384 -1.0103 -0.1658
  460MPD2    C3 6901   2.597   2.401  10.675 -0.2787  1.0710 -0.2622
  460MPD2    C4 6902   2.519   2.467  10.771 -0.5245  0.7412 -0.1488
  460MPD2    C5 6903   2.506   2.406  10.894 -0.2124  0.1984 -0.8898
  460MPD2     H 6904   2.718   2.231  10.629 -0.7508 -1.4572 -0.1903
  460MPD2    H1 6905   2.457   2.556  10.764  0.7833  1.4989 -1.9122
  460MPD2    H2 6906   2.536   2.242  11.013  0.7659 -0.5895 -0.1590
  460MPD2    H3 6907   2.438   2.445  10.969 -1.2704 -0.7500 -1.3614
  460MPD2     N 6908   2.610   2.455  10.543  0.2794 -0.2135  0.5564
  460MPD2    H5 6909   2.675   2.411  10.478 -1.5765  0.7567 -1.9427
  460MPD2    N1 6910   2.685   2.091  10.863  0.1272 -0.0966  0.1319
  460MPD2    H7 6911   2.644   2.058  10.949  0.6931  1.0034  0.8350
  461TMC3    C1 6912   2.564   2.604  10.370 -1.7333  0.8344 -0.4266
  461TMC3    C2 6913   2.628   2.511  10.287  0.4456  0.4191 -0.0551
  461TMC3    C3 6914   2.645   2.545  10.159 -0.2401 -0.0465 -0.0792
  461TMC3    C4 6915   2.530   2.731  10.321 -0.3649  0.1789 -0.3141
  461TMC3    C5 6916   2.565   2.766  10.198 -0.5961 -0.4846  1.0820
  461TMC3    C6 6917   2.620   2.673  10.109  1.1137  0.6054  1.2375
  461TMC3     C 6918   2.535   2.568  10.507  0.2063 -0.3116 -0.1476
  461TMC3     O 6919   2.490   2.660  10.570 -0.0535  0.3762 -0.8873
  461TMC3     H 6920   2.647   2.405  10.303 -0.2180 -0.0890 -2.6563
  461TMC3    H1 6921   2.486   2.808  10.382 -0.1730  0.2496 -0.2647
  461TMC3    H2 6922   2.656   2.695  10.010 -1.8737  0.3953  0.0917
  461TMC3    C7 6923   2.560   2.900  10.143  0.5236  0.4004 -0.1303
  461TMC3    C8 6924   2.736   2.460  10.081 -0.7825  0.0143 -0.2612
  461TMC3    O1 6925   2.558   2.900  10.022 -0.0164  0.3589  0.3101
  461TMC3    O2 6926   2.813   2.382  10.138  0.0095 -0.4469 -0.1245
  462TMC3    C1 6927   2.414   3.176   0.232 -0.0902 -0.1352 -0.3786
  462TMC3    C2 6928   2.511   3.096   0.274  0.0378 -0.3247 -0.4913
  462TMC3    C3 6929   2.479   2.960   0.280 -0.6074  0.2437 -0.0942
  462TMC3    C4 6930   2.299   3.132   0.178 -0.7879 -0.5916 -0.6156
  462TMC3    C5 6931   2.270   2.998   0.182 -0.2957 -1.0033  0.8732
  462TMC3    C6 6932   2.351   2.912   0.250  0.0838 -0.7112  0.5049
  462TMC3     C 6933   2.460   3.310   0.219 -0.2455  0.1914  0.5683
  462TMC3     O 6934   2.577   3.345   0.237  0.0987 -0.0982 -0.8352
  462TMC3     H 6935   2.601   3.138   0.318 -1.2802  0.8324  1.0964
  462TMC3    H1 6936   2.224   3.198   0.135  0.0776  0.9268  0.1918
  462TMC3    H2 6937   2.338   2.810   0.218  3.0144 -0.9658  0.1343
  462TMC3    C7 6938   2.162   2.940   0.103  0.9847  0.6590  0.0948
  462TMC3    C8 6939   2.583   2.876   0.320 -0.0009 -0.5519 -0.5557
  462TMC3    O1 6940   2.132   2.825   0.146  0.8100  0.8318 -0.1112
  462TMC3    O2 6941   2.540   2.782   0.385 -0.8055 -0.0347  0.1486
  463MPD2     C 6942   4.007   1.325   1.598  0.5777 -0.0999  0.3363
  463MPD2    C1 6943   3.891   1.400   1.573  0.6385 -0.6758 -0.3137
  463MPD2    C2 6944   3.859   1.517   1.650  0.3454 -0.0937 -0.6046
  463MPD2    C3 6945   3.938   1.540   1.762 -0.1163  0.0813 -0.5781
  463MPD2    C4 6946   4.052   1.460   1.787  0.2835  0.6393 -0.8019
  463MPD2    C5 6947   4.085   1.352   1.713  0.0835 -0.4804 -0.1324
  463MPD2     H 6948   3.769   1.573   1.626  2.5045  3.0757 -1.1911
  463MPD2    H1 6949   4.120   1.471   1.871  1.7944  1.6926 -2.1634
  463MPD2    H2 6950   4.026   1.238   1.536 -1.0351  1.3508 -2.2064
  463MPD2    H3 6951   4.174   1.292   1.727  0.7307  0.8336  1.3285
  463MPD2     N 6952   3.901   1.631   1.865  0.3939 -0.3662 -0.5450
  463MPD2    H5 6953   3.961   1.633   1.947 -0.6548  0.9505  0.1814
  463MPD2    N1 6954   3.808   1.369   1.466  1.0539  0.8388  0.1694
  463MPD2    H7 6955   3.740   1.441   1.444 -1.8413 -1.5934  1.0629
  464TMC3    C1 6956   3.699   1.261   1.295 -0.0748  0.1305  0.2515
  464TMC3    C2 6957   3.575   1.322   1.314 -0.5765  0.3775  0.0242
  464TMC3    C3 6958   3.496   1.335   1.202  0.4820 -0.2043  0.2652
  464TMC3    C4 6959   3.724   1.197   1.179  0.7622  0.1720  0.2252
  464TMC3    C5 6960   3.648   1.209   1.069  0.6622  0.4543 -0.1137
  464TMC3    C6 6961   3.530   1.279   1.073 -0.1885  0.5815 -0.7416
  464TMC3     C 6962   3.807   1.260   1.383 -0.3486  0.0236  0.6652
  464TMC3     O 6963   3.882   1.163   1.378 -0.1844  0.5526  0.0587
  464TMC3     H 6964   3.554   1.371   1.408  1.3350  0.2029  0.5276
  464TMC3    H1 6965   3.805   1.125   1.177  1.3065  0.8312 -1.1155
  464TMC3    H2 6966   3.467   1.294   0.986  0.0242 -1.0536 -1.1740
  464TMC3    C7 6967   3.675   1.109   0.972 -0.1583 -0.0146  0.9912
  464TMC3    C8 6968   3.376   1.414   1.205  0.8261 -0.3414 -0.3420
  464TMC3    O1 6969   3.791   1.076   0.954  0.0932 -0.2022  0.0418
  464TMC3    O2 6970   3.286   1.384   1.123 -0.8375 -0.3067 -0.4520
  465MPD2     C 6971   0.173   1.008  17.206  0.0275 -0.1666  0.2825
  465MPD2    C1 6972   0.140   0.876  17.236 -0.0920  0.6345 -0.3030
  465MPD2    C2 6973   0.101   0.795  17.129 -0.1110 -0.3859 -0.3418
  465MPD2    C3 6974   0.086   0.845  16.999  0.1683 -0.7013 -0.2530
  465MPD2    C4 6975   0.117   0.981  16.975 -0.2701 -0.3156 -0.2233
  465MPD2    C5 6976   0.159   1.059  17.083  0.2191 -0.0084  0.1952
  465MPD2     H 6977   0.090   0.691  17.161 -0.4529 -0.2101  0.1104
  465MPD2    H1 6978   0.102   1.030  16.880 -3.3537 -2.0384 -0.6089
  465MPD2    H2 6979   0.208   1.075  17.285 -1.7343  0.7431  0.2866
  465MPD2    H3 6980   0.178   1.163  17.060  1.1445 -0.1135  0.4772
  465MPD2     N 6981   0.029   0.756  16.899 -0.1097 -0.2600  0.1478
  465MPD2    H5 6982   0.020   0.659  16.926  0.5421 -0.6672 -1.1046
  465MPD2    N1 6983   0.162   0.822  17.363  0.0933  0.2639 -0.4372
  465MPD2    H7 6984   0.148   0.722  17.369  1.3635  0.1569  0.7769
  466TMC3    C1 6985   4.595   0.457  16.730 -0.3853 -0.1188 -0.0209
  466TMC3    C2 6986   4.475   0.480  16.666  0.4188  0.2465  0.5939
  466TMC3    C3 6987   4.453   0.610  16.615 -0.1105  0.3981  0.0294
  466TMC3    C4 6988   4.685   0.555  16.745 -0.4348 -0.2393  0.0135
  466TMC3    C5 6989   4.661   0.682  16.697 -0.5033  0.5440 -0.3233
  466TMC3    C6 6990   4.543   0.709  16.631 -0.0584  0.0797  0.2211
  466TMC3     C 6991   4.570   0.383  16.850  0.7611 -0.0155 -0.7066
  466TMC3     O 6992   4.522   0.271  16.844 -0.4682 -0.4443  0.4320
  466TMC3     H 6993   4.408   0.396  16.651  0.8035 -0.1149  0.8979
  466TMC3    H1 6994   0.042   0.531  16.797 -0.2449  3.8103  1.5552
  466TMC3    H2 6995   4.507   0.809  16.609  2.1077  0.5217 -1.2765
  466TMC3    C7 6996   4.711   0.795  16.778  0.8544 -0.2004  0.1384
  466TMC3    C8 6997   4.321   0.637  16.567  0.3907  0.0889 -0.0434
  466TMC3    O1 6998   4.703   0.914  16.749 -0.7609  0.3272 -0.2864
  466TMC3    O2 6999   4.261   0.541  16.517 -0.1463  0.0988 -0.9390
  467TMC3    C1 7000   1.439   3.412  14.129  1.1220 -0.5196  0.7010
  467TMC3    C2 7001   1.386   3.447  14.011  0.2181  0.1309 -0.2491
  467TMC3    C3 7002   1.254   3.428  13.994 -0.6726  0.2675  0.4536
  467TMC3    C4 7003   1.367   3.364  14.238 -1.4091  0.3183 -0.0302
  467TMC3    C5 7004   1.230   3.340  14.219 -0.0528 -0.4070 -1.0138
  467TMC3    C6 7005   1.175   3.379  14.096 -0.1135  0.0484 -0.6118
  467TMC3     C 7006   1.567   3.470  14.153  0.1580  0.8849  0.1747
  467TMC3     O 7007   1.635   3.496  14.054  0.4201 -0.0689  0.3351
  467TMC3     H 7008   1.443   3.510  13.944  0.0815 -0.3855 -0.8463
  467TMC3    H1 7009   1.407   3.325  14.331  0.4653 -1.9447 -1.7750
  467TMC3    H2 7010   1.069   3.363  14.079  0.0950  0.4479 -2.2870
  467TMC3    C7 7011   1.151   3.265  14.318  0.4456 -0.1046 -0.0282
  467TMC3    C8 7012   1.194   3.493  13.881 -0.1196  0.4759 -0.4622
  467TMC3    O1 7013   1.205   3.169  14.374 -0.2810  0.5518  0.0634
  467TMC3    O2 7014   1.251   3.597  13.839 -0.0170 -0.1256  0.3920
  468MPD2     C 7015   4.526   2.419  10.585  0.3615  0.8653 -0.2083
  468MPD2    C1 7016   4.510   2.360  10.706 -0.2101  0.5274 -0.2744
  468MPD2    C2 7017   4.528   2.222  10.709  0.0825  0.4280  0.2326
  468MPD2    C3 7018   4.535   2.143  10.593  0.1025  0.2106  0.4516
  468MPD2    C4 7019   4.547   2.212  10.470  0.3443 -0.0307 -0.2270
  468MPD2    C5 7020   4.548   2.345  10.468  0.3333  0.4949 -0.4438
  468MPD2     H 7021   4.509   2.172  10.804 -1.6460 -0.2715 -0.4806
  468MPD2    H1 7022   4.570   2.152  10.383  1.3783 -0.0195  0.0318
  468MPD2    H2 7023   4.522   2.526  10.569 -2.9064  0.7524 -0.1541
  468MPD2    H3 7024   4.553   2.402  10.376 -0.6790 -0.5998 -1.1620
  468MPD2     N 7025   4.532   2.006  10.588 -0.5827  0.0064  0.1805
  468MPD2    H5 7026   4.552   1.964  10.497  1.6905 -1.9760  1.5967
  468MPD2    N1 7027   4.504   2.436  10.829  0.4941 -0.1071  0.1531
  468MPD2    H7 7028   4.522   2.380  10.911  1.3134  0.3424  0.2809
  469TMC3    C1 7029   4.526   2.624  10.967 -0.2734  0.0890 -0.1975
  469TMC3    C2 7030   4.631   2.560  11.028  0.2271 -0.4521  0.4285
  469TMC3    C3 7031   4.690   2.622  11.136 -0.0060 -0.2742  0.2280
  469TMC3    C4 7032   4.495   2.757  10.994  0.2141 -0.2491  0.4338
  469TMC3    C5 7033   4.555   2.810  11.101 -0.4945  0.3656 -0.2869
  469TMC3    C6 7034   4.649   2.746  11.176  0.3454  0.1962 -0.3749
  469TMC3     C 7035   4.498   2.575  10.838 -0.2845  0.1311  0.3303
  469TMC3     O 7036   4.472   2.654  10.750 -0.0836 -0.4273 -0.5114
  469TMC3     H 7037   4.661   2.458  11.005 -0.7960 -0.3661 -1.2781
  469TMC3    H1 7038   4.420   2.813  10.940  0.8162  0.2119  0.0834
  469TMC3    H2 7039   4.697   2.797  11.259  0.1501  1.5636 -1.0988
  469TMC3    C7 7040   4.474   2.896  11.179 -0.9071 -0.0528  0.8149
  469TMC3    C8 7041   0.067   2.550  11.190 -1.0895  0.1406 -0.1220
  469TMC3    O1 7042   4.523   2.987  11.240  0.2715 -0.1367  0.3636
  469TMC3    O2 7043   0.109   2.455  11.121 -0.0528 -0.5598 -0.5594
  470TMC3    C1 7044   2.054   2.539   0.397 -0.0305 -0.1900  0.0028
  470TMC3    C2 7045   2.120   2.637   0.456  0.1613  0.0975 -0.6492
  470TMC3    C3 7046   2.043   2.710   0.548 -0.4150 -0.1435 -0.1570
  470TMC3    C4 7047   1.925   2.500   0.427 -0.2595 -0.3131 -0.6423
  470TMC3    C5 7048   1.860   2.571   0.526 -0.8881  0.4998 -0.6061
  470TMC3    C6 7049   1.917   2.676   0.590  0.1116 -0.3194 -0.6309
  470TMC3     C 7050   2.132   2.462   0.304 -0.3828  0.5085 -0.3791
  470TMC3     O 7051   2.250   2.463   0.324 -0.0557  0.1692 -0.0990
  470TMC3     H 7052   2.217   2.673   0.424  0.8391  0.5590  1.9330
  470TMC3    H1 7053   1.880   2.410   0.387  0.8222 -1.5053  0.8300
  470TMC3    H2 7054   1.859   2.746   0.650 -0.7026 -1.4166 -0.1322
  470TMC3    C7 7055   1.735   2.518   0.577 -0.7655  0.2474 -0.2242
  470TMC3    C8 7056   2.078   2.847   0.584 -0.7186  0.6598  0.4882
  470TMC3    O1 7057   1.664   2.456   0.500 -0.2849 -0.0951 -0.3928
  470TMC3    O2 7058   1.999   2.915   0.646  0.2530 -0.0096  0.5755
  471MPD2     C 7059   1.966   3.890  16.285 -0.1124  0.1969 -0.4221
  471MPD2    C1 7060   1.989   3.790  16.381 -0.0479 -0.4666 -0.2172
  471MPD2    C2 7061   2.091   3.802  16.471 -0.2172 -0.4225 -0.3886
  471MPD2    C3 7062   2.165   3.917  16.465  0.0719 -0.7518  0.1283
  471MPD2    C4 7063   2.148   4.013  16.371 -0.3969  0.0549  0.7076
  471MPD2    C5 7064   2.049   3.999  16.279  0.4823 -0.4810  0.0405
  471MPD2     H 7065   2.106   3.727  16.548  0.4828  0.8218  0.6858
  471MPD2    H1 7066   2.206   4.105  16.376 -2.2757  1.2812 -0.3890
  471MPD2    H2 7067   1.888   3.885  16.209 -2.7215 -0.3385  2.2641
  471MPD2    H3 7068   2.028   4.087  16.219  1.2599 -0.1570  0.2382
  471MPD2     N 7069   2.272   3.938  16.556  0.1053 -0.7178  0.0139
  471MPD2    H5 7070   2.341   4.012  16.544  0.5831 -0.7907  2.4254
  471MPD2    N1 7071   1.914   3.669  16.375  0.4932  0.1345 -0.2294
  471MPD2    H7 7072   1.938   3.596  16.440  0.4961 -0.3540 -0.7758
  472TMC3    C1 7073   1.787   3.494  16.312 -0.3913 -0.8381 -0.4789
  472TMC3    C2 7074   1.677   3.455  16.387  0.2417  0.7184  0.2538
  472TMC3    C3 7075   1.677   3.327  16.423 -0.5955 -0.3654 -0.2542
  472TMC3    C4 7076   1.894   3.414  16.296 -0.9652 -0.5958  0.3246
  472TMC3    C5 7077   1.890   3.286  16.338 -0.4682 -0.0056  0.3682
  472TMC3    C6 7078   1.782   3.239  16.403  0.3869 -0.3587 -0.9148
  472TMC3     C 7079   1.815   3.632  16.294  0.0158  0.5754  0.2724
  472TMC3     O 7080   1.739   3.694  16.218  0.3357  0.4433 -0.1245
  472TMC3     H 7081   1.586   3.514  16.383  1.7138  2.9568 -0.4186
  472TMC3    H1 7082   1.981   3.457  16.247 -1.0906  0.9084  1.4093
  472TMC3    H2 7083   1.776   3.132  16.419  1.3069 -0.4314 -1.0702
  472TMC3    C7 7084   2.007   3.221  16.385 -0.1376 -0.4156 -0.1879
  472TMC3    C8 7085   1.562   3.278  16.500  0.3787 -0.1493 -1.1820
  472TMC3    O1 7086   1.996   3.132  16.469  0.2133 -0.3132 -0.2466
  472TMC3    O2 7087   1.484   3.360  16.544  0.5559 -0.2102  0.4161
  473MPD2     C 7088   2.187   1.344  13.662 -0.2503 -1.2795  0.2475
  473MPD2    C1 7089   2.247   1.441  13.583 -0.4252 -0.9738 -0.2280
  473MPD2    C2 7090   2.316   1.549  13.642 -0.2114 -0.2866 -0.0056
  473MPD2    C3 7091   2.331   1.553  13.776 -0.2877 -0.1676  0.3279
  473MPD2    C4 7092   2.271   1.454  13.852  0.3887  0.9103  0.1388
  473MPD2    C5 7093   2.196   1.357  13.799  0.0631 -0.0662  0.1198
  473MPD2     H 7094   2.349   1.636  13.587  0.5047  0.4420  1.5915
  473MPD2    H1 7095   2.269   1.465  13.960  0.7047 -0.2680  0.2654
  473MPD2    H2 7096   2.147   1.253  13.620  0.5853 -2.1430  1.3535
  473MPD2    H3 7097   2.136   1.294  13.865  0.8679  0.5002  1.3966
  473MPD2     N 7098   2.405   1.648  13.844 -0.1583 -0.2098  0.4021
  473MPD2    H5 7099   2.409   1.640  13.945  4.0102 -1.0095  0.1814
  473MPD2    N1 7100   2.234   1.432  13.443  0.0720 -0.1775  0.4851
  473MPD2    H7 7101   2.280   1.510  13.398  1.0672 -0.9475  0.2030
  474TMC3    C1 7102   2.511   1.849  13.896  0.6233  0.5281  0.3556
  474TMC3    C2 7103   2.523   1.988  13.883 -0.3942 -0.1678 -0.1355
  474TMC3    C3 7104   2.558   2.058  13.994 -0.3838 -0.3751  0.2441
  474TMC3    C4 7105   2.568   1.788  14.005 -0.3840 -0.1900 -0.0095
  474TMC3    C5 7106   2.640   1.865  14.092 -0.0245 -0.4269  0.0564
  474TMC3    C6 7107   2.626   2.000  14.107  1.0428  0.1253 -0.4255
  474TMC3     C 7108   2.459   1.766  13.790  0.3034 -0.0540  1.0127
  474TMC3     O 7109   2.441   1.819  13.683  0.1225  0.3248 -0.1628
  474TMC3     H 7110   2.465   2.028  13.800 -0.0896  1.3225  0.3655
  474TMC3    H1 7111   2.588   1.682  13.992 -1.2235 -0.2812 -0.5474
  474TMC3    H2 7112   2.650   2.058  14.195 -0.4244  2.8183 -1.7843
  474TMC3    C7 7113   2.672   1.788  14.210 -0.4965 -0.4452 -0.2871
  474TMC3    C8 7114   2.529   2.204  14.005 -0.7045 -0.1633  0.0721
  474TMC3    O1 7115   2.645   1.669  14.203  0.0444  0.5919 -0.7226
  474TMC3    O2 7116   2.559   2.260  14.110  0.5967  0.3182  0.4751
  475MPD2     C 7117   0.763   4.603  10.820 -0.7041 -0.2402 -0.4574
  475MPD2    C1 7118   0.737   4.673  10.939 -0.3335  0.3109  0.7120
  475MPD2    C2 7119   0.631   0.025  10.946  0.0453  0.2869 -0.3037
  475MPD2    C3 7120   0.560   0.064  10.829 -0.8942 -0.1848 -0.0695
  475MPD2    C4 7121   0.598   0.005  10.713  0.1156 -0.9677  0.6168
  475MPD2    C5 7122   0.684   4.637  10.718 -0.4783  0.2457  0.2949
  475MPD2     H 7123   0.608   0.059  11.046 -3.0985  3.4732 -2.0974
  475MPD2    H1 7124   0.546   0.018  10.619  2.0893  1.1096 -0.1739
  475MPD2    H2 7125   0.827   4.518  10.798 -0.3107 -0.1587  0.3736
  475MPD2    H3 7126   0.715   4.590  10.625  0.5554  0.8266  0.3466
  475MPD2     N 7127   0.466   0.170  10.843  0.1333 -0.0784  0.0716
  475MPD2    H5 7128   0.440   0.196  10.937 -1.0475  1.5127 -0.6928
  475MPD2    N1 7129   0.809   4.650  11.053 -0.3418 -0.1209  0.2768
  475MPD2    H7 7130   0.782   4.702  11.136  0.6017 -1.2317  1.2929
  476TMC3    C1 7131   0.992   4.592  11.183 -0.1996 -0.5574 -0.5666
  476TMC3    C2 7132   1.127   4.602  11.182 -0.5621 -0.5044 -0.6551
  476TMC3    C3 7133   1.194   4.659  11.286 -0.4847  0.3307 -0.4551
  476TMC3    C4 7134   0.922   4.609  11.301  0.1412  0.7002  0.0035
  476TMC3    C5 7135   0.990   4.659  11.411  0.2074  0.0470  0.2479
  476TMC3    C6 7136   1.120   4.692  11.400  0.1894 -0.2893 -0.2848
  476TMC3     C 7137   0.917   4.567  11.068  0.4888 -0.1460 -0.3361
  476TMC3     O 7138   0.976   4.521  10.971  0.2541 -0.3150 -0.4359
  476TMC3     H 7139   1.178   4.592  11.087 -2.5524 -0.5259 -1.7079
  476TMC3    H1 7140   0.817   4.589  11.318 -0.1181 -0.7584 -3.3899
  476TMC3    H2 7141   1.162   0.007  11.486 -0.8543  2.5688 -1.4361
  476TMC3    C7 7142   0.903   0.008  11.486  0.5376 -0.1460  0.5558
  476TMC3    C8 7143   1.301   0.018  11.259  0.0558 -0.0896  0.4712
  476TMC3    O1 7144   0.812   4.695  11.550  0.0480 -0.1270 -0.3575
  476TMC3    O2 7145   1.315   0.105  11.344  0.4581  0.1475  0.3971
  477MPD2     C 7146   3.475   1.578  11.692  0.1144 -0.2900 -0.3679
  477MPD2    C1 7147   3.406   1.464  11.661  0.2170  1.1270  0.8306
  477MPD2    C2 7148   3.420   1.352  11.739 -0.0154 -0.0477  0.2925
  477MPD2    C3 7149   3.496   1.363  11.852  0.2043 -0.3291 -1.0134
  477MPD2    C4 7150   3.582   1.468  11.866 -0.3784  1.5503  0.3404
  477MPD2    C5 7151   3.570   1.580  11.793 -0.1190  0.5662  0.2963
  477MPD2     H 7152   3.361   1.262  11.729  1.2165 -0.8186 -0.0135
  477MPD2    H1 7153   3.651   1.470  11.949 -2.2064 -0.5963  1.9131
  477MPD2    H2 7154   3.454   1.671  11.641  0.1982 -0.3132 -0.4465
  477MPD2    H3 7155   3.641   1.660  11.807 -0.8150  1.3110 -0.4192
  477MPD2     N 7156   3.504   1.246  11.930 -0.5138 -0.0500  0.1671
  477MPD2    H5 7157   3.443   1.167  11.911  0.5103 -1.6258  3.3489
  477MPD2    N1 7158   3.311   1.474  11.559 -0.0992  0.2690  0.1717
  477MPD2    H7 7159   3.306   1.563  11.510 -3.3184  0.2724  0.5157
  478TMC3    C1 7160   3.140   1.407  11.417  0.3328 -0.0498  0.0316
  478TMC3    C2 7161   3.061   1.514  11.461  0.8097  0.3927  0.2393
  478TMC3    C3 7162   2.925   1.514  11.424 -0.7924 -0.2258 -0.0381
  478TMC3    C4 7163   3.095   1.310  11.330 -0.0767  0.4814 -0.2490
  478TMC3    C5 7164   2.965   1.328  11.287 -0.6340  0.0255 -0.3392
  478TMC3    C6 7165   2.870   1.420  11.346 -0.1200 -0.3686 -0.1303
  478TMC3     C 7166   3.247   1.365  11.501 -0.3734 -0.7274  0.0190
  478TMC3     O 7167   3.268   1.246  11.518  0.2086  0.1428  0.0804
  478TMC3     H 7168   3.093   1.585  11.537 -1.0672  3.1435 -1.5165
  478TMC3    H1 7169   3.172   1.243  11.296 -0.8171 -0.9687  0.9461
  478TMC3    H2 7170   2.765   1.415  11.321  0.2748 -3.9260 -1.0179
  478TMC3    C7 7171   2.918   1.248  11.168  0.1453 -0.3556 -0.6094
  478TMC3    C8 7172   2.849   1.636  11.426  0.4544  0.1786 -0.0820
  478TMC3    O1 7173   2.949   1.133  11.173 -0.4821 -0.8772  0.1300
  478TMC3    O2 7174   2.733   1.632  11.468 -0.3740  0.1590  0.0257
  479MPD2     C 7175   1.723   3.321  15.020 -0.1116  0.3230 -0.4345
  479MPD2    C1 7176   1.629   3.328  15.122  0.3542  0.1750 -0.1558
  479MPD2    C2 7177   1.651   3.416  15.222  0.1275  0.3678  0.1047
  479MPD2    C3 7178   1.767   3.492  15.229 -0.1954 -0.9531  0.1799
  479MPD2    C4 7179   1.862   3.483  15.133 -0.0521 -0.0057  0.5591
  479MPD2    C5 7180   1.839   3.392  15.029  0.4359  0.4001  0.2447
  479MPD2     H 7181   1.575   3.410  15.299 -1.8234  0.4289 -1.7989
  479MPD2    H1 7182   1.951   3.543  15.122 -1.7713  2.6254  1.0913
  479MPD2    H2 7183   1.728   3.239  14.949 -0.6261 -0.0108 -0.0843
  479MPD2    H3 7184   1.910   3.385  14.947  0.8452 -1.6916  0.7743
  479MPD2     N 7185   1.805   3.585  15.329  0.6491 -0.1535  0.2595
  479MPD2    H5 7186   1.900   3.619  15.324  0.1442  0.9755 -1.7464
  479MPD2    N1 7187   1.528   3.230  15.122 -0.8055  0.7745 -0.3092
  479MPD2    H7 7188   1.537   3.161  15.048  0.8292  2.4108 -1.6262
  480TMC3    C1 7189   1.871   3.571  15.775 -0.4872 -0.6798 -0.1375
  480TMC3    C2 7190   2.006   3.585  15.759  0.1230  0.0672 -0.7168
  480TMC3    C3 7191   2.045   3.623  15.632 -0.2535 -0.0189 -0.6733
  480TMC3    C4 7192   1.782   3.600  15.676  0.3446  0.1627 -0.0738
  480TMC3    C5 7193   1.826   3.651  15.552 -0.8206  0.3007 -0.4445
  480TMC3    C6 7194   1.963   3.659  15.525 -0.4905  0.8377  0.0333
  480TMC3     C 7195   1.828   3.471  15.865  0.3038  0.6932 -0.1433
  480TMC3     O 7196   1.911   3.393  15.899  0.2359  0.2612 -0.3385
  480TMC3     H 7197   2.079   3.561  15.836 -0.2775  0.9172 -0.0764
  480TMC3    H1 7198   1.675   3.590  15.694  0.1744  2.8709  0.4098
  480TMC3    H2 7199   2.003   3.728  15.452 -0.5859 -0.8880 -1.6370
  480TMC3    C7 7200   1.736   3.601  15.445 -0.1159  0.0238 -0.1038
  480TMC3    C8 7201   2.181   3.581  15.600  0.0134  0.3780  0.5704
  480TMC3    O1 7202   1.624   3.564  15.477 -0.0518  0.2266 -0.8150
  480TMC3    O2 7203   2.262   3.560  15.697  0.3343  0.4613 -0.0596
  481MPD2     C 7204   4.011   3.183  14.576  0.1218 -0.1595  0.2334
  481MPD2    C1 7205   4.009   3.050  14.522 -0.3649  0.0606 -0.5679
  481MPD2    C2 7206   4.093   2.958  14.569 -0.3316  0.3152 -0.4102
  481MPD2    C3 7207   4.185   2.989  14.669 -0.4039  0.4579  0.3209
  481MPD2    C4 7208   4.186   3.113  14.721 -0.1111  0.1092 -0.1385
  481MPD2    C5 7209   4.099   3.212  14.679  0.0966 -0.5334  0.6109
  481MPD2     H 7210   4.099   2.856  14.531  0.9882 -0.4776  1.9582
  481MPD2    H1 7211   4.250   3.135  14.805 -0.1476  1.2548 -0.4128
  481MPD2    H2 7212   3.939   3.256  14.543 -2.6005 -2.2130  1.6171
  481MPD2    H3 7213   4.107   3.308  14.728 -0.3151 -0.5960  0.8069
  481MPD2     N 7214   4.266   2.900  14.742 -0.4342  0.2228 -0.1985
  481MPD2    H5 7215   4.325   2.936  14.816 -1.6132 -0.7115  1.1915
  481MPD2    N1 7216   3.912   3.017  14.422 -0.2241  0.2370 -0.2922
  481MPD2    H7 7217   3.852   3.089  14.382 -1.1172 -0.2142  0.2284
  482TMC3    C1 7218   3.768   2.898  14.277  0.3177  0.8666  0.4182
  482TMC3    C2 7219   3.686   2.786  14.263  0.3490 -0.1544 -0.4392
  482TMC3    C3 7220   3.578   2.797  14.174  0.0530 -0.5084 -0.3408
  482TMC3    C4 7221   3.753   3.009  14.200 -0.1883 -0.3498  0.6282
  482TMC3    C5 7222   3.651   3.015  14.114  0.3236 -0.0168  0.1965
  482TMC3    C6 7223   3.556   2.916  14.108  0.2589  1.2008 -0.1788
  482TMC3     C 7224   3.870   2.892  14.381 -0.0647  0.1945  0.6063
  482TMC3     O 7225   3.906   2.784  14.426 -0.0369  0.6939 -0.2033
  482TMC3     H 7226   3.715   2.693  14.309  1.3891  0.8560  0.9408
  482TMC3    H1 7227   3.815   3.097  14.210  1.3102 -0.9396 -3.5944
  482TMC3    H2 7228   3.475   2.931  14.038 -0.3621  0.4448  0.3762
  482TMC3    C7 7229   3.605   3.153  14.086  0.1194  0.1357 -0.4213
  482TMC3    C8 7230   3.508   2.674  14.159  0.2130 -0.7110  0.6335
  482TMC3    O1 7231   3.608   3.232  14.176  0.1585 -0.2684  0.3723
  482TMC3    O2 7232   3.528   2.586  14.239  0.0830 -0.1196 -0.0633
  483TMC3    C1 7233   0.894   1.602   0.464 -0.0713  1.1047 -0.2140
  483TMC3    C2 7234   0.903   1.725   0.406 -0.1224 -0.1102  0.0751
  483TMC3    C3 7235   0.986   1.813   0.469  0.1572 -0.1269 -0.2518
  483TMC3    C4 7236   0.947   1.569   0.585  0.6121  0.2801 -0.3796
  483TMC3    C5 7237   1.013   1.671   0.648 -0.7553  0.2680 -0.0650
  483TMC3    C6 7238   1.043   1.787   0.587 -0.6451 -0.3723 -0.7290
  483TMC3     C 7239   0.844   1.491   0.380 -0.2339 -0.3436  0.6026
  483TMC3     O 7240   0.781   1.516   0.279  0.1044 -0.1106 -0.3820
  483TMC3     H 7241   0.871   1.738   0.304  1.1098 -3.4057 -0.7343
  483TMC3    H1 7242   0.936   1.472   0.633  2.1598  0.2877 -0.0049
  483TMC3    H2 7243   1.111   1.864   0.623 -2.2214  0.6785  0.0344
  483TMC3    C7 7244   1.079   1.630   0.768  0.2678  0.2275 -0.5070
  483TMC3    C8 7245   1.029   1.938   0.399  0.2699  0.5662  0.3723
  483TMC3    O1 7246   1.080   1.513   0.810  0.1146  0.0987 -0.1210
  483TMC3    O2 7247   1.136   1.986   0.431  0.5177 -0.3803  0.2793
  484MPD2     C 7248   4.183   4.692  12.626  0.0766 -0.1648  0.6614
  484MPD2    C1 7249   4.242   4.631  12.732 -0.0332 -1.0766 -0.6158
  484MPD2    C2 7250   4.379   4.622  12.730  0.1854 -0.2107 -0.2349
  484MPD2    C3 7251   4.464   4.682  12.643 -0.2568 -0.3386  0.3455
  484MPD2    C4 7252   4.405   0.015  12.540 -0.0864 -0.9029 -0.2333
  484MPD2    C5 7253   4.267   0.016  12.533 -0.2381  0.6713 -0.3495
  484MPD2     H 7254   4.423   4.575  12.818 -0.2718 -2.0925 -1.0018
  484MPD2    H1 7255   4.459   0.063  12.459  0.2446  0.6905  0.9479
  484MPD2    H2 7256   4.077   4.713  12.633  0.0688  0.3429 -0.8824
  484MPD2    H3 7257   4.225   0.087  12.462  0.7081  1.9571  0.3539
  484MPD2     N 7258   4.610   4.665  12.638  0.1363 -0.1264 -0.1342
  484MPD2    H5 7259   4.656   4.725  12.570 -0.8644 -0.5404 -1.1816
  484MPD2    N1 7260   4.156   4.563  12.828  0.2436 -0.0467 -0.4189
  484MPD2    H7 7261   4.058   4.554  12.805  0.0342 -0.3265  0.5847
  485TMC3    C1 7262   0.089   4.572  12.688 -0.0148  0.4603 -0.6990
  485TMC3    C2 7263   0.155   4.472  12.753  0.3342 -0.4154  0.5504
  485TMC3    C3 7264   0.288   4.487  12.764  0.1682 -0.9730  0.6033
  485TMC3    C4 7265   0.158   4.677  12.628  0.4046 -0.6133  0.1966
  485TMC3    C5 7266   0.292   4.693  12.649  0.2645 -0.7164 -0.1288
  485TMC3    C6 7267   0.350   4.601  12.724  0.1732  0.2333 -0.4662
  485TMC3     C 7268   4.681   4.576  12.716 -0.0417 -0.1557  0.1898
  485TMC3     O 7269   4.634   4.494  12.793  0.4343 -0.0269 -0.1221
  485TMC3     H 7270   0.107   4.377  12.775 -0.5422 -0.0329  0.3153
  485TMC3    H1 7271   0.105   0.017  12.571 -0.6267  0.5523  2.7030
  485TMC3    H2 7272   0.456   4.605  12.745  0.2909 -1.8082 -0.7315
  485TMC3    C7 7273   0.364   4.730  12.528 -0.3747 -0.2095  0.1290
  485TMC3    C8 7274   0.374   4.377  12.719  0.3276  0.1324 -0.7176
  485TMC3    O1 7275   0.311   0.077  12.451  0.4765  0.2612 -0.5942
  485TMC3    O2 7276   0.483   4.408  12.673  0.6805  0.2210 -0.4658
  486MPD2     C 7277   1.705   3.424  12.827  0.3705 -0.1959  0.4522
  486MPD2    C1 7278   1.700   3.415  12.693 -0.5156 -0.0624 -0.4192
  486MPD2    C2 7279   1.659   3.524  12.619  0.5985 -1.5070  0.2608
  486MPD2    C3 7280   1.623   3.642  12.680 -0.2190  0.3233  0.2833
  486MPD2    C4 7281   1.631   3.654  12.819 -0.4942 -0.2289 -0.2500
  486MPD2    C5 7282   1.674   3.544  12.890 -0.5843  0.0040  0.9088
  486MPD2     H 7283   1.662   3.506  12.512 -0.6730 -2.2627  0.3553
  486MPD2    H1 7284   1.620   3.747  12.873 -2.7317 -0.2870 -0.6016
  486MPD2    H2 7285   1.741   3.337  12.882 -0.3143 -0.1096  1.0385
  486MPD2    H3 7286   1.677   3.551  12.998  0.4233 -1.7484  1.0053
  486MPD2     N 7287   1.565   3.741  12.593 -0.0916  0.2862 -0.2101
  486MPD2    H5 7288   1.541   3.709  12.500  1.0765 -2.2444  0.3489
  486MPD2    N1 7289   1.731   3.285  12.632  0.5734  0.0860  0.1719
  486MPD2    H7 7290   1.750   3.210  12.698 -1.9040  0.5826  1.4661
  487TMC3    C1 7291   1.728   3.105  12.482 -0.4071 -0.0953 -0.0098
  487TMC3    C2 7292   1.618   3.037  12.434 -0.1485  0.6361  0.2096
  487TMC3    C3 7293   1.594   2.907  12.479  0.1685  0.0800 -0.1163
  487TMC3    C4 7294   1.801   3.049  12.578 -0.3249  0.3131  0.4080
  487TMC3    C5 7295   1.773   2.929  12.631 -0.1971  0.1261  0.4254
  487TMC3    C6 7296   1.670   2.851  12.576  0.2773  0.1568  0.1465
  487TMC3     C 7297   1.714   3.241  12.497  0.0593 -0.9433  0.1930
  487TMC3     O 7298   1.677   3.304  12.397  0.2322 -0.0705 -0.5002
  487TMC3     H 7299   1.541   3.089  12.378 -0.7131  1.2067  1.5014
  487TMC3    H1 7300   1.887   3.106  12.613 -0.0290  0.2601 -0.2479
  487TMC3    H2 7301   1.666   2.743  12.588  3.2453  0.0444  0.0719
  487TMC3    C7 7302   1.752   2.951  12.775 -0.2896 -0.0521 -0.0586
  487TMC3    C8 7303   1.461   2.857  12.462 -0.4467  0.2729 -0.1835
  487TMC3    O1 7304   1.790   3.060  12.813 -0.2130  0.2786  0.7814
  487TMC3    O2 7305   1.443   2.775  12.375  0.0354  0.7763  0.0146
  488MPD2     C 7306   1.832   0.422  16.041  0.1673 -0.2867 -0.6199
  488MPD2    C1 7307   1.876   0.435  16.174  0.2909  0.1632  0.2370
  488MPD2    C2 7308   1.849   0.333  16.264  0.6090 -0.3917  0.3095
  488MPD2    C3 7309   1.791   0.210  16.227  0.0998 -0.2111  0.3598
  488MPD2    C4 7310   1.764   0.195  16.095 -0.3532  0.1286 -0.4180
  488MPD2    C5 7311   1.789   0.296  16.004  0.1130 -0.0145 -0.4614
  488MPD2     H 7312   1.859   0.359  16.369 -1.1115  0.3287  0.3013
  488MPD2    H1 7313   1.726   0.104  16.052 -0.7994  0.6659 -1.1567
  488MPD2    H2 7314   1.842   0.496  15.963 -1.3804 -1.1818 -1.6956
  488MPD2    H3 7315   1.757   0.279  15.901  0.8658  1.8624 -0.9949
  488MPD2     N 7316   1.755   0.110  16.326 -0.5843 -0.7165  0.4940
  488MPD2    H5 7317   1.748   0.143  16.422 -0.2046  0.4531  0.1115
  488MPD2    N1 7318   1.934   0.555  16.223 -0.2841 -0.1043  0.5532
  488MPD2    H7 7319   1.988   0.552  16.309 -0.2580  1.0345  0.5747
  489TMC3    C1 7320   1.688   4.647  16.426  0.0709 -0.1804 -0.2135
  489TMC3    C2 7321   1.769   4.676  16.534  0.1797  0.1905  0.0186
  489TMC3    C3 7322   1.748   4.600  16.646  1.0442 -0.3178  0.2431
  489TMC3    C4 7323   1.584   4.556  16.431 -0.0926  0.4268  0.5149
  489TMC3    C5 7324   1.566   4.492  16.546 -0.3774 -0.0838  0.4740
  489TMC3    C6 7325   1.651   4.502  16.651  0.0457  1.3631  0.5090
  489TMC3     C 7326   1.699   4.724  16.303 -0.7331  0.4687  0.1119
  489TMC3     O 7327   1.671   4.668  16.199 -0.1933 -0.8122 -0.2148
  489TMC3     H 7328   1.851   0.009  16.516  0.7072 -0.4332  0.0595
  489TMC3    H1 7329   1.521   4.546  16.343 -0.2889 -2.2396  0.9536
  489TMC3    H2 7330   1.623   4.465  16.749  0.9086 -1.4175 -0.2931
  489TMC3    C7 7331   1.472   4.380  16.556  0.3687 -0.4005 -0.7463
  489TMC3    C8 7332   1.788   4.675  16.758  0.3996  0.3326  0.2266
  489TMC3    O1 7333   1.486   4.306  16.652 -0.4259 -0.4477  0.1338
  489TMC3    O2 7334   1.910   4.689  16.768  0.2802  0.0395 -1.1540
  490MPD2     C 7335   2.648   4.203  16.591 -0.0872  0.3831 -0.2519
  490MPD2    C1 7336   2.623   4.249  16.715  0.5716  0.4244  0.8552
  490MPD2    C2 7337   2.724   4.309  16.788  0.0431  0.5590  0.0083
  490MPD2    C3 7338   2.855   4.309  16.744 -0.2930  0.0253  0.2155
  490MPD2    C4 7339   2.882   4.259  16.619 -0.2127  0.8209 -0.7823
  490MPD2    C5 7340   2.774   4.206  16.548 -0.4722 -0.1082  0.2810
  490MPD2     H 7341   2.697   4.365  16.877 -0.9733 -0.1036  0.1137
  490MPD2    H1 7342   2.979   4.269  16.571  0.2350  2.1272  0.4016
  490MPD2    H2 7343   2.579   4.155  16.523  1.6907 -0.6000 -1.3306
  490MPD2    H3 7344   2.794   4.155  16.455 -0.1568 -1.1893  0.9406
  490MPD2     N 7345   2.963   4.375  16.805  0.2293 -0.0932 -0.0422
  490MPD2    H5 7346   3.045   4.391  16.747  0.5396  0.0877  0.4450
  490MPD2    N1 7347   2.494   4.265  16.763 -0.0701  0.0175 -0.1578
  490MPD2    H7 7348   2.490   4.304  16.857  2.3564 -1.4159  0.5619
  491TMC3    C1 7349   2.255   4.249  16.766  0.1808  0.3207 -0.1591
  491TMC3    C2 7350   2.252   4.235  16.904 -0.4229 -0.1327  0.0087
  491TMC3    C3 7351   2.145   4.183  16.964  0.3413 -0.1358  0.0769
  491TMC3    C4 7352   2.148   4.205  16.695  0.0097 -0.3733  0.6899
  491TMC3    C5 7353   2.041   4.148  16.756 -0.0621 -0.5530  0.4968
  491TMC3    C6 7354   2.028   4.140  16.893 -0.1992  0.1409 -0.0594
  491TMC3     C 7355   2.377   4.233  16.694  1.2698 -0.0762  0.1447
  491TMC3     O 7356   2.371   4.185  16.583  0.2292  0.6191 -0.3590
  491TMC3     H 7357   2.334   4.269  16.965 -0.6770  1.1203 -0.3358
  491TMC3    H1 7358   2.147   4.207  16.587  1.5502  0.4822  0.6897
  491TMC3    H2 7359   1.945   4.097  16.948  0.0191 -0.3836 -0.1341
  491TMC3    C7 7360   1.929   4.114  16.675 -0.1421 -0.1438 -0.2353
  491TMC3    C8 7361   2.098   4.239  17.096  0.4353 -0.0025  1.0584
  491TMC3    O1 7362   1.837   4.054  16.732 -0.2802 -0.1241  0.5145
  491TMC3    O2 7363   2.014   4.179  17.160 -0.3982 -0.1659 -0.0213
  492MPD2     C 7364   2.865   0.264  11.951 -0.3500 -0.1315  0.1694
  492MPD2    C1 7365   2.836   0.166  11.858  0.6401 -0.1515  0.2985
  492MPD2    C2 7366   2.785   0.049  11.908  0.4141 -0.7646 -0.5521
  492MPD2    C3 7367   2.742   0.033  12.042 -0.0976  0.5120  0.4640
  492MPD2    C4 7368   2.749   0.146  12.123  0.1057 -0.1329 -0.6162
  492MPD2    C5 7369   2.814   0.261  12.077  0.0026 -0.4994 -0.3763
  492MPD2     H 7370   2.771   4.703  11.837  0.5546 -1.0731 -0.2277
  492MPD2    H1 7371   2.703   0.156  12.221  1.1618  0.9810 -0.2205
  492MPD2    H2 7372   2.908   0.358  11.918 -0.4853 -0.1981 -0.1942
  492MPD2    H3 7373   2.837   0.347  12.139 -0.5985 -1.1243  0.7216
  492MPD2     N 7374   2.673   4.653  12.096  0.2523 -0.0368  0.2570
  492MPD2    H5 7375   2.635   4.652  12.190  1.4476 -0.1425  0.7362
  492MPD2    N1 7376   2.865   0.183  11.713 -0.3946  1.0443 -0.2162
  492MPD2    H7 7377   2.898   0.273  11.680  0.3866  1.3463  1.3663
  493TMC3    C1 7378   2.924   0.119  11.495  0.0629  0.2868 -0.4380
  493TMC3    C2 7379   2.924   0.255  11.461  0.2682 -0.5468 -0.6543
  493TMC3    C3 7380   2.972   0.290  11.332 -0.0824  0.4188  0.0553
  493TMC3    C4 7381   2.977   0.026  11.412 -0.4220 -0.0692  0.6471
  493TMC3    C5 7382   3.024   0.063  11.288  0.6651 -0.3928  0.1506
  493TMC3    C6 7383   3.025   0.196  11.251 -0.6076  0.5060  0.2498
  493TMC3     C 7384   2.880   0.077  11.627  0.1073  0.0967 -0.3763
  493TMC3     O 7385   2.874   4.691  11.639  0.3667  0.3044  0.4297
  493TMC3     H 7386   2.877   0.330  11.524  1.5980 -0.3972  0.1725
  493TMC3    H1 7387   2.969   4.657  11.440  1.9309 -0.1686  0.9272
  493TMC3    H2 7388   3.063   0.229  11.155  1.2480  1.7845  1.4220
  493TMC3    C7 7389   3.043   4.691  11.195 -0.0182  0.3769 -0.0631
  493TMC3    C8 7390   2.966   0.427  11.293  0.5503  0.6008 -0.8780
  493TMC3    O1 7391   3.012   4.713  11.080  0.3617  0.1187  0.1264
  493TMC3    O2 7392   2.967   0.518  11.379 -0.0834 -0.0913  0.8648
  494TMC3    C1 7393   2.910   1.592   0.055 -0.1296 -0.1936  0.5032
  494TMC3    C2 7394   2.938   1.460   0.071  0.3249 -0.0144  0.0329
  494TMC3    C3 7395   3.028   1.402  17.732  0.6951 -0.4902 -0.1259
  494TMC3    C4 7396   2.988   1.667  17.716 -0.0552  0.1221  0.0981
  494TMC3    C5 7397   3.083   1.607  17.634  0.4892 -0.1722 -0.1463
  494TMC3    C6 7398   3.100   1.474  17.634 -1.2774  0.0383  0.1992
  494TMC3     C 7399   2.873   1.650   0.182 -0.2492  0.0221 -0.2471
  494TMC3     O 7400   2.904   1.599   0.290  0.1217  0.1154  0.1998
  494TMC3     H 7401   2.874   1.402   0.138  0.3373 -1.1418 -0.9359
  494TMC3    H1 7402   2.973   1.774  17.726  1.7148  0.3484  0.3644
  494TMC3    H2 7403   3.189   1.436  17.585 -1.1477  2.0586 -1.1205
  494TMC3    C7 7404   3.151   1.684  17.525 -0.0873 -0.3114 -0.1669
  494TMC3    C8 7405   3.068   1.263   0.016  0.1949  0.3885  0.1629
  494TMC3    O1 7406   3.192   1.617  17.430  0.1298  0.0258  0.3324
  494TMC3    O2 7407   3.130   1.205  17.664  0.2201 -0.2838 -0.0468
  495TMC3    C1 7408   2.355   3.331  14.647 -0.3869  0.1661  0.3175
  495TMC3    C2 7409   2.236   3.344  14.578 -0.2280 -0.2679 -0.2913
  495TMC3    C3 7410   2.137   3.427  14.630  0.4738  0.0998 -0.3813
  495TMC3    C4 7411   2.371   3.371  14.770 -0.4443 -0.5647  0.1092
  495TMC3    C5 7412   2.270   3.450  14.826  0.7338  0.3734  0.2304
  495TMC3    C6 7413   2.162   3.484  14.752 -0.0804  0.3093 -0.4590
  495TMC3     C 7414   2.436   3.210  14.628  0.4235 -0.0591  0.3340
  495TMC3     O 7415   2.544   3.198  14.680 -0.0414  0.0897 -0.0099
  495TMC3     H 7416   2.217   3.297  14.482 -2.1520 -0.9978  0.4423
  495TMC3    H1 7417   2.462   3.355  14.826  0.2806  0.9044 -0.6475
  495TMC3    H2 7418   2.079   3.546  14.782 -0.3648  0.4385 -1.5458
  495TMC3    C7 7419   2.278   3.505  14.962 -0.8711 -0.1156  0.0964
  495TMC3    C8 7420   1.997   3.381  14.614  0.3212  1.1681 -0.2787
  495TMC3    O1 7421   2.189   3.584  14.985 -0.0730  1.0368  0.6997
  495TMC3    O2 7422   1.924   3.405  14.707  0.2640 -0.1824 -0.3719
  496MPD2     C 7423   4.237   4.163  14.964  0.0527  0.1201  0.8246
  496MPD2    C1 7424   4.294   4.073  15.048 -0.1584  0.2223  0.1050
  496MPD2    C2 7425   4.223   3.962  15.060  0.3645 -0.1098  0.5682
  496MPD2    C3 7426   4.105   3.933  14.997 -0.1335 -0.5175  0.5501
  496MPD2    C4 7427   4.043   4.029  14.923 -0.2661 -0.3086  0.2553
  496MPD2    C5 7428   4.116   4.143  14.902  0.1175 -0.1186 -0.1485
  496MPD2     H 7429   4.262   3.884  15.125  1.2900 -0.0756  0.0425
  496MPD2    H1 7430   3.947   4.020  14.875 -1.3982 -0.6398  2.5718
  496MPD2    H2 7431   4.281   4.261  14.949 -2.1438  1.3021  2.0745
  496MPD2    H3 7432   4.081   4.210  14.824  0.7837  0.4033 -0.0060
  496MPD2     N 7433   4.039   3.813  15.021 -0.2938  0.5140  0.5131
  496MPD2    H5 7434   3.945   3.807  14.983 -0.6586 -1.3664  1.7341
  496MPD2    N1 7435   4.419   4.100  15.101  0.2507  0.9785  0.3703
  496MPD2    H7 7436   4.463   4.186  15.069  0.0001  1.5404  1.5199
  497TMC3    C1 7437   3.997   3.601  15.088 -0.2204 -0.0048  0.0836
  497TMC3    C2 7438   4.021   3.470  15.061  0.1160  1.0224  0.1583
  497TMC3    C3 7439   3.927   3.379  15.095  0.4695  0.5124 -0.2063
  497TMC3    C4 7440   3.881   3.641  15.140  0.2198  0.2573  0.0363
  497TMC3    C5 7441   3.799   3.548  15.183  0.1733  0.4139  0.0055
  497TMC3    C6 7442   3.807   3.410  15.159  0.3210 -0.1278 -0.6215
  497TMC3     C 7443   4.096   3.700  15.069 -0.2670 -0.6340  0.0581
  497TMC3     O 7444   4.210   3.664  15.068  0.3197  0.4466  0.5534
  497TMC3     H 7445   4.107   3.442  15.001  0.7397  2.2744  0.4591
  497TMC3    H1 7446   3.859   3.746  15.161  0.1312  0.5832 -1.7141
  497TMC3    H2 7447   3.729   3.342  15.191  0.4769  0.9128  1.9697
  497TMC3    C7 7448   3.711   3.580  15.292  0.3183  0.2387  0.0829
  497TMC3    C8 7449   3.943   3.241  15.054  0.3172 -0.9058  0.1211
  497TMC3    O1 7450   3.606   3.524  15.306 -0.6866 -0.5770 -0.6800
  497TMC3    O2 7451   4.046   3.217  14.993  0.0005 -0.4989  0.5080
  498MPD2     C 7452   0.015   0.340  10.361 -0.5991 -0.0784 -0.1368
  498MPD2    C1 7453   0.153   0.327  10.328 -0.4366  0.1413 -0.5465
  498MPD2    C2 7454   0.221   0.225  10.390  0.0996  0.1883 -0.1118
  498MPD2    C3 7455   0.165   0.146  10.487 -0.1341  0.8488  0.1655
  498MPD2    C4 7456   0.037   0.168  10.534 -0.5946 -0.0836  0.8075
  498MPD2    C5 7457   4.695   0.264  10.465  0.6121  1.1166  0.7990
  498MPD2     H 7458   0.326   0.212  10.364 -0.4659 -3.4152 -0.6105
  498MPD2    H1 7459   4.725   0.114  10.615  1.5467 -0.9646  1.4753
  498MPD2    H2 7460   4.689   0.416  10.315 -1.0956  0.3136  1.1531
  498MPD2    H3 7461   4.593   0.288  10.494 -0.3632 -0.5523 -1.2721
  498MPD2     N 7462   0.246   0.038  10.531 -0.4716 -0.1506  0.6225
  498MPD2    H5 7463   0.330   0.012  10.481  0.0041  0.0305  1.3269
  498MPD2    N1 7464   0.211   0.402  10.224 -0.3920 -0.6663  0.1033
  498MPD2    H7 7465   0.306   0.378  10.198 -0.0365 -0.1942  0.9595
  499TMC3    C1 7466   0.243   0.589  10.075 -0.0004  0.2239  0.9713
  499TMC3    C2 7467   0.376   0.569  10.087 -0.2144  0.3531  0.6794
  499TMC3    C3 7468   0.455   0.632   9.991 -0.7905  0.6731  0.0057
  499TMC3    C4 7469   0.186   0.660   9.971  0.1447 -0.3977 -0.4528
  499TMC3    C5 7470   0.266   0.710   9.873  0.5039 -0.6613  0.1849
  499TMC3    C6 7471   0.401   0.689   9.876  0.3426 -0.5260  0.0281
  499TMC3     C 7472   0.152   0.522  10.174  0.4105 -0.3441 -0.7194
  499TMC3     O 7473   0.048   0.576  10.208  0.1450  0.3705  0.3189
  499TMC3     H 7474   0.424   0.530  10.176 -0.1563 -2.7143 -0.6901
  499TMC3    H1 7475   0.078   0.665   9.980 -0.0284 -1.3197 -2.0052
  499TMC3    H2 7476   0.470   0.737   9.807 -0.4216  1.3967  0.6160
  499TMC3    C7 7477   0.223   0.821   9.787 -0.2423  0.2937 -0.5836
  499TMC3    C8 7478   0.603   0.640  10.009 -0.2665  0.1973 -0.1899
  499TMC3    O1 7479   0.297   0.872   9.702 -0.3898  0.2949  0.3323
  499TMC3    O2 7480   0.660   0.718   9.933  0.2640 -0.3263  0.6844
  500MPD2     C 7481   1.392   0.840  10.642 -0.4155  0.1248 -0.1131
  500MPD2    C1 7482   1.449   0.857  10.520 -0.4990 -0.3703  0.6652
  500MPD2    C2 7483   1.378   0.935  10.427  0.5227  0.5338 -0.1863
  500MPD2    C3 7484   1.251   0.985  10.455  0.3609  0.6912 -0.6132
  500MPD2    C4 7485   1.198   0.961  10.580  0.0107  0.5723 -0.9192
  500MPD2    C5 7486   1.270   0.888  10.668  0.0489 -0.3301  0.3539
  500MPD2     H 7487   1.416   0.968  10.331 -1.1079 -1.4714 -1.5201
  500MPD2    H1 7488   1.104   0.995  10.623 -1.2865 -3.4638 -0.4952
  500MPD2    H2 7489   1.442   0.784  10.720 -0.9084 -0.4953 -0.2505
  500MPD2    H3 7490   1.228   0.877  10.767  0.7822 -1.1801  0.5724
  500MPD2     N 7491   1.170   1.062  10.366 -0.2405 -0.3942  0.6742
  500MPD2    H5 7492   1.085   1.102  10.404 -1.3811 -1.5653 -0.6409
  500MPD2    N1 7493   1.579   0.816  10.477 -0.0728 -0.2684 -0.2304
  500MPD2    H7 7494   1.604   0.854  10.386 -1.7590  2.0763  0.2697
  501TMC3    C1 7495   1.806   0.755  10.491 -0.2302 -0.0654 -0.2973
  501TMC3    C2 7496   1.819   0.817  10.364 -0.1143  0.7534 -0.3836
  501TMC3    C3 7497   1.944   0.874  10.334 -0.5034  0.3572 -0.3271
  501TMC3    C4 7498   1.909   0.764  10.588  0.2196  0.1549 -0.2540
  501TMC3    C5 7499   2.024   0.819  10.550 -0.9463 -0.2669 -0.4101
  501TMC3    C6 7500   2.046   0.868  10.422 -0.1030  0.9395 -0.7818
  501TMC3     C 7501   1.673   0.760  10.559  0.2854 -0.2089  0.2113
  501TMC3     O 7502   1.657   0.716  10.673  0.1841  0.1224 -0.2367
  501TMC3     H 7503   1.740   0.829  10.290 -0.6613  3.1060  0.5512
  501TMC3    H1 7504   1.888   0.736  10.691  1.2050 -0.7811 -0.3072
  501TMC3    H2 7505   2.146   0.904  10.398  1.6971 -3.1320  0.7411
  501TMC3    C7 7506   2.105   0.881  10.660  0.5425  0.7194 -0.0155
  501TMC3    C8 7507   1.941   0.992  10.247  0.1303  0.8158  0.0615
  501TMC3    O1 7508   2.115   0.834  10.774  0.1424 -0.4227  0.0672
  501TMC3    O2 7509   1.832   1.016  10.204  0.2378 -0.0956 -0.4955
  502TMC3    C1 7510   1.825   0.013  15.044  0.3026  0.1942 -0.8279
  502TMC3    C2 7511   1.808   0.148  15.050 -0.2831  0.4060  0.0841
  502TMC3    C3 7512   1.680   0.190  15.011  0.2136  0.5300 -0.2084
  502TMC3    C4 7513   1.723   4.666  15.000 -0.0198 -0.5453  0.0336
  502TMC3    C5 7514   1.600   4.712  14.963 -1.1001 -0.5979  0.5893
  502TMC3    C6 7515   1.573   0.115  14.973 -0.5987 -0.1274 -0.1777
  502TMC3     C 7516   1.896   4.695  15.159  0.1561 -0.3713  0.7016
  502TMC3     O 7517   1.998   0.010  15.208 -0.2383 -0.2345  0.0370
  502TMC3     H 7518   1.877   0.214  15.102  0.8066  0.8392 -1.9239
  502TMC3    H1 7519   1.740   4.559  14.999  1.0181 -0.3606 -3.6091
  502TMC3    H2 7520   1.481   0.158  14.937  0.4164  1.6378 -0.6715
  502TMC3    C7 7521   1.501   4.620  15.026  0.4891  0.0911 -0.2164
  502TMC3    C8 7522   1.643   0.323  15.053 -0.2913  0.0124 -0.6201
  502TMC3    O1 7523   1.548   4.541  15.107  0.5862  0.1190 -0.3009
  502TMC3    O2 7524   1.726   0.413  15.046 -0.4072  0.2948  0.3313
  503MPD2     C 7525   3.785   0.709  16.900  0.3970 -0.0686 -0.5540
  503MPD2    C1 7526   3.785   0.726  17.042  0.1598  0.0479 -0.5348
  503MPD2    C2 7527   3.871   0.639  17.116  0.6026 -0.1287  0.0079
  503MPD2    C3 7528   3.956   0.547  17.054 -0.7920 -0.3083 -0.7104
  503MPD2    C4 7529   3.949   0.534  16.917  1.0167 -0.0741 -0.8821
  503MPD2    C5 7530   3.867   0.613  16.844 -0.3379 -0.1531 -0.3208
  503MPD2     H 7531   3.855   0.634  17.223 -1.0950 -1.5555 -0.3127
  503MPD2    H1 7532   4.011   0.461  16.866 -0.1505  0.6317 -3.3142
  503MPD2    H2 7533   3.723   0.773  16.837 -0.2978  0.1986  0.4053
  503MPD2    H3 7534   3.884   0.611  16.737  0.2603  1.4371 -0.2563
  503MPD2     N 7535   4.032   0.460  17.132  0.3466 -0.0914 -0.1754
  503MPD2    H5 7536   4.021   0.474  17.232  1.3468  1.0015 -0.2195
  503MPD2    N1 7537   3.692   0.811  17.109  0.4543  0.3284 -1.1617
  503MPD2    H7 7538   3.694   0.815  17.210  0.5455  1.0161 -1.1934
  504TMC3    C1 7539   4.146   0.257  17.183  0.8675  0.1177  0.6725
  504TMC3    C2 7540   4.043   0.221  17.264  0.0137 -0.2285  0.2121
  504TMC3    C3 7541   4.017   0.088  17.296  0.0687 -0.3415  0.4489
  504TMC3    C4 7542   4.223   0.152  17.129 -0.2971  0.5478 -0.1738
  504TMC3    C5 7543   4.205   0.018  17.164  0.4274  0.1464  0.7874
  504TMC3    C6 7544   4.103   4.720  17.255 -0.7787 -0.3283  0.0765
  504TMC3     C 7545   4.113   0.356  17.084 -0.1176 -0.3683  0.6019
  504TMC3     O 7546   4.146   0.336  16.967  0.0960  0.6367  0.0282
  504TMC3     H 7547   3.962   0.290  17.282 -1.1036 -1.2255 -1.0700
  504TMC3    H1 7548   4.298   0.175  17.055 -1.0233  0.2536 -1.0008
  504TMC3    H2 7549   4.069   4.618  17.272 -1.8001  0.2734  1.5706
  504TMC3    C7 7550   4.278   4.659  17.086 -0.3633 -0.0033  0.4301
  504TMC3    C8 7551   3.941   0.081  17.426  0.2018  0.1530  0.4069
  504TMC3    O1 7552   4.330   4.697  16.979 -0.4909 -0.0490 -0.0226
  504TMC3    O2 7553   3.861   0.171  17.448 -0.4513 -0.0536 -0.0272
  505MPD2     C 7554   4.249   3.932  10.482  0.1638 -0.8127  0.6073
  505MPD2    C1 7555   4.311   3.815  10.508 -0.2188  0.5597  0.5292
  505MPD2    C2 7556   4.326   3.774  10.645  0.6010  0.2881  0.0812
  505MPD2    C3 7557   4.271   3.843  10.748  0.1959  0.0313  0.1517
  505MPD2    C4 7558   4.205   3.961  10.719 -0.6377 -0.6378 -0.1601
  505MPD2    C5 7559   4.193   3.997  10.587 -0.5189  0.2819  0.4359
  505MPD2     H 7560   4.402   3.702  10.674 -0.2390 -1.0889 -1.1061
  505MPD2    H1 7561   4.157   4.014  10.801  1.1343 -0.7157  0.9226
  505MPD2    H2 7562   4.226   3.973  10.385 -0.9537  1.0552  1.6558
  505MPD2    H3 7563   4.126   4.080  10.565 -1.3481 -0.3788  0.4674
  505MPD2     N 7564   4.310   3.799  10.886  0.0284 -0.3605  0.2430
  505MPD2    H5 7565   4.348   3.705  10.894 -1.4977 -0.9434  0.6128
  505MPD2    N1 7566   4.363   3.743  10.401  0.1811 -0.2198 -0.0706
  505MPD2    H7 7567   4.373   3.788  10.311 -0.4170  1.4986  0.7303
  506TMC3    C1 7568   4.502   3.584  10.301 -0.1972  0.2081 -0.3716
  506TMC3    C2 7569   4.608   3.662  10.277  0.4355 -0.2732 -0.0628
  506TMC3    C3 7570   4.726   3.604  10.229  0.3918  0.5667 -0.0260
  506TMC3    C4 7571   4.514   3.445  10.294  0.9760 -0.8202  0.0774
  506TMC3    C5 7572   4.637   3.384  10.266 -0.3657  0.1864 -0.6750
  506TMC3    C6 7573   0.008   3.466  10.224 -0.1237  0.0070  0.0891
  506TMC3     C 7574   4.423   3.621  10.416  0.1353  0.0159 -0.5713
  506TMC3     O 7575   4.411   3.536  10.503 -0.6957  0.1490 -0.4391
  506TMC3     H 7576   4.596   3.769  10.293  0.8151 -0.0935 -1.0194
  506TMC3    H1 7577   4.431   3.375  10.303  0.2570 -0.1759 -1.5400
  506TMC3    H2 7578   0.107   3.437  10.192 -0.7835 -0.8548 -1.1941
  506TMC3    C7 7579   4.674   3.287  10.367 -0.4363 -0.1705  0.2954
  506TMC3    C8 7580   0.104   3.681  10.189  0.5858 -0.4172  0.0289
  506TMC3    O1 7581   0.038   3.218  10.337  0.3198 -0.3829 -0.0506
  506TMC3    O2 7582   0.187   3.625  10.115  0.1673  0.1748  0.1988
  507TMC3    C1 7583   3.926   4.719  14.695  0.3760  0.6290  0.7782
  507TMC3    C2 7584   4.007   4.631  14.761  0.0861 -0.1658 -0.3475
  507TMC3    C3 7585   4.134   4.667  14.783 -0.2074 -0.7858 -0.5204
  507TMC3    C4 7586   3.970   0.100  14.629  0.2041 -0.0057 -0.4982
  507TMC3    C5 7587   4.101   0.132  14.666 -0.0135 -0.1167  0.2437
  507TMC3    C6 7588   4.171   0.055  14.753 -0.4236  0.4852  0.5599
  507TMC3     C 7589   3.780   4.688  14.662  0.3504 -0.3781  0.4907
  507TMC3     O 7590   3.724   0.038  14.598 -0.2981 -0.3679  0.1291
  507TMC3     H 7591   3.972   4.533  14.792 -0.6495  0.3548  0.4802
  507TMC3    H1 7592   3.916   0.163  14.559  1.6866 -0.7982 -2.3459
  507TMC3    H2 7593   4.253   0.107  14.802  0.9795 -0.9085 -0.3525
  507TMC3    C7 7594   4.187   0.178  14.561  0.3171  0.0205 -0.6992
  507TMC3    C8 7595   4.236   4.565  14.748  0.4627  0.5295 -0.1240
  507TMC3    O1 7596   4.303   0.164  14.590  0.4917 -0.6125  0.5893
  507TMC3    O2 7597   4.204   4.450  14.773 -0.2497 -0.1060  0.9173
  508MPD2     C 7598   0.190   2.719  16.563 -0.0123  0.8632  0.3951
  508MPD2    C1 7599   0.318   2.756  16.542 -0.7181 -0.0515  0.1712
  508MPD2    C2 7600   0.345   2.857  16.449  0.2272  0.4587 -0.5701
  508MPD2    C3 7601   0.238   2.908  16.372  0.0373  0.1403  0.4048
  508MPD2    C4 7602   0.108   2.863  16.383 -0.2369 -0.5328 -0.0487
  508MPD2    C5 7603   0.085   2.780  16.488 -0.1150 -0.5078  0.4541
  508MPD2     H 7604   0.443   2.902  16.441  0.8170 -1.2204 -2.8167
  508MPD2    H1 7605   0.022   2.897  16.325  0.4955  1.6573  0.1689
  508MPD2    H2 7606   0.179   2.652  16.647 -2.2816  0.8969  0.1228
  508MPD2    H3 7607   4.715   2.760  16.505 -0.7564  1.7258 -0.8825
  508MPD2     N 7608   0.267   3.008  16.277 -0.1525 -0.3585  0.4659
  508MPD2    H5 7609   0.363   3.037  16.288  0.2283 -1.8720  1.1546
  508MPD2    N1 7610   0.419   2.704  16.631  0.5727 -0.6598  0.4975
  508MPD2    H7 7611   0.390   2.625  16.689 -3.7779  2.0469  1.9955
  509TMC3    C1 7612   0.203   3.281  15.904  0.6974 -0.0195 -0.2674
  509TMC3    C2 7613   0.331   3.322  15.901 -0.4360  0.8886  0.2567
  509TMC3    C3 7614   0.420   3.269  15.994  0.3966  0.1826  0.1454
  509TMC3    C4 7615   0.160   3.207  16.006 -0.3087  0.3444  0.5357
  509TMC3    C5 7616   0.243   3.154  16.090 -0.5467 -0.0326 -0.3594
  509TMC3    C6 7617   0.378   3.180  16.089  0.4582 -0.2360 -0.0442
  509TMC3     C 7618   0.114   3.344  15.809  0.0931  0.3997 -0.1847
  509TMC3     O 7619   4.734   3.369  15.839 -0.3457  0.5594 -1.1442
  509TMC3     H 7620   0.369   3.390  15.826  2.6340  0.3847  1.3365
  509TMC3    H1 7621   0.053   3.189  16.007 -0.6096  2.2094  0.5377
  509TMC3    H2 7622   0.455   3.125  16.143  2.6738  1.5807 -1.3706
  509TMC3    C7 7623   0.178   3.055  16.183  0.5013  0.1443  1.0888
  509TMC3    C8 7624   0.550   3.238  15.938  0.0909 -0.1993 -0.5194
  509TMC3    O1 7625   0.066   3.018  16.155 -0.3065  0.7013  0.5365
  509TMC3    O2 7626   0.577   3.120  15.934 -0.1514 -0.2660 -0.5295
  510MPD2     C 7627   3.646   4.110  14.606  0.5370  0.1609 -0.3173
  510MPD2    C1 7628   3.715   4.003  14.659 -0.1188 -0.5178 -1.0097
  510MPD2    C2 7629   3.835   3.950  14.603  0.2474 -0.4442  0.2697
  510MPD2    C3 7630   3.896   4.030  14.504  0.2519 -0.1472 -0.4383
  510MPD2    C4 7631   3.828   4.144  14.459 -0.6506  0.2044  0.1419
  510MPD2    C5 7632   3.702   4.176  14.498 -0.0394 -0.2316 -0.0618
  510MPD2     H 7633   3.883   3.864  14.647 -1.2403 -1.2213  0.3687
  510MPD2    H1 7634   3.874   4.206  14.384  0.3882 -1.3366 -0.5060
  510MPD2    H2 7635   3.542   4.125  14.633  0.3878  0.5464 -1.1109
  510MPD2    H3 7636   3.654   4.258  14.446  1.8394  1.3954  0.7880
  510MPD2     N 7637   4.014   3.987  14.440 -0.0779  0.4759  0.5738
  510MPD2    H5 7638   4.058   3.898  14.465  0.3231  0.1149 -1.4414
  510MPD2    N1 7639   3.650   3.939  14.768  0.1679  0.0145 -0.3006
  510MPD2    H7 7640   3.553   3.966  14.776  0.4394  1.0516 -0.5320
  511TMC3    C1 7641   3.587   3.779  14.923 -0.0244 -0.1107  0.2717
  511TMC3    C2 7642   3.469   3.839  14.948  0.3227 -0.1324  0.0259
  511TMC3    C3 7643   3.364   3.759  14.984  0.4547  0.5422 -0.4424
  511TMC3    C4 7644   3.605   3.644  14.924 -0.2369 -0.0733 -0.0570
  511TMC3    C5 7645   3.495   3.568  14.955  0.4045 -0.2062  0.2207
  511TMC3    C6 7646   3.373   3.622  14.995  0.0850 -0.2919  0.2392
  511TMC3     C 7647   3.699   3.852  14.863  0.5213  0.0727 -0.6408
  511TMC3     O 7648   3.809   3.803  14.874  0.0010  0.9608  0.0681
  511TMC3     H 7649   3.474   3.946  14.959  0.7462 -0.0470 -0.9985
  511TMC3    H1 7650   3.700   3.595  14.906  0.5425  0.8083  1.6294
  511TMC3    H2 7651   3.289   3.555  15.014 -0.2144  0.1775  0.5757
  511TMC3    C7 7652   3.505   3.423  14.944  0.6564  0.4114 -0.3760
  511TMC3    C8 7653   3.259   3.824  15.063  0.2735 -0.1668 -0.0336
  511TMC3    O1 7654   3.597   3.380  14.871  0.0320 -0.0747  0.2399
  511TMC3    O2 7655   3.225   3.936  15.035 -0.7133 -0.7930 -0.6625
  512TMC3    C1 7656   2.408   3.318  13.858  0.2230  0.3693  1.3011
  512TMC3    C2 7657   2.530   3.306  13.917 -0.6840 -0.0924  0.4079
  512TMC3    C3 7658   2.603   3.199  13.884  0.4201  0.2583 -0.2079
  512TMC3    C4 7659   2.364   3.232  13.763 -0.7821 -0.5005  0.4108
  512TMC3    C5 7660   2.438   3.119  13.738  0.5935  0.7211  0.0740
  512TMC3    C6 7661   2.554   3.096  13.805  0.0973  0.1663 -0.0963
  512TMC3     C 7662   2.334   3.440  13.887  0.4423  0.6895  0.4260
  512TMC3     O 7663   2.408   3.531  13.911  0.6625  0.4808  0.6439
  512TMC3     H 7664   2.565   3.377  13.991  0.1137  0.3141 -0.3629
  512TMC3    H1 7665   2.284   3.272  13.701  1.3641  4.1336  0.6046
  512TMC3    H2 7666   2.626   3.016  13.791 -2.9609 -2.9762  2.0754
  512TMC3    C7 7667   2.373   3.022  13.654  0.0976  0.2873 -0.0500
  512TMC3    C8 7668   2.746   3.215  13.901 -0.0362 -0.1675 -0.7770
  512TMC3    O1 7669   2.252   3.035  13.633  0.0934 -0.6608  0.5289
  512TMC3    O2 7670   2.811   3.111  13.925 -0.5750 -0.4516 -0.0344
  513MPD2     C 7671   3.839   3.273  13.746 -0.2588 -0.6556 -0.4623
  513MPD2    C1 7672   3.888   3.151  13.706  0.1761 -0.4374  0.1939
  513MPD2    C2 7673   3.987   3.085  13.785 -0.0071 -0.2347 -0.0246
  513MPD2    C3 7674   4.015   3.140  13.911 -0.4722 -0.2792 -0.0480
  513MPD2    C4 7675   3.947   3.252  13.961 -0.2049  0.2891  0.1009
  513MPD2    C5 7676   3.869   3.319  13.871 -0.5095 -0.2011  0.3182
  513MPD2     H 7677   4.034   2.992  13.754 -0.3166 -0.3033 -0.2965
  513MPD2    H1 7678   3.967   3.294  14.059 -0.1719 -1.8583  1.0233
  513MPD2    H2 7679   3.775   3.334  13.683 -1.8118 -1.3126  0.5024
  513MPD2    H3 7680   3.818   3.410  13.899 -1.3775 -1.3936  2.6711
  513MPD2     N 7681   4.102   3.070  13.995  0.0738 -0.3935 -0.0276
  513MPD2    H5 7682   4.128   2.980  13.955 -0.8266 -0.4398 -0.5021
  513MPD2    N1 7683   3.852   3.107  13.576 -0.6053 -0.2285 -0.0271
  513MPD2    H7 7684   3.784   3.165  13.528 -1.0633 -0.0960  0.7943
  514TMC3    C1 7685   3.872   2.990  13.379 -0.0273  1.2397  0.0424
  514TMC3    C2 7686   3.899   3.104  13.317  0.0237  0.7235  0.4485
  514TMC3    C3 7687   3.978   3.107  13.199 -0.3528  0.0936 -0.6104
  514TMC3    C4 7688   3.934   2.880  13.323 -0.1091 -0.5349  0.3477
  514TMC3    C5 7689   4.021   2.884  13.216 -0.6729 -0.2730  0.1113
  514TMC3    C6 7690   4.046   3.002  13.154 -0.0330 -0.3818 -0.1354
  514TMC3     C 7691   3.898   2.990  13.522  0.0692 -0.7677 -0.5674
  514TMC3     O 7692   3.964   2.901  13.569  0.5312  0.1704  0.0130
  514TMC3     H 7693   3.836   3.187  13.347  1.5382  2.0819 -0.0694
  514TMC3    H1 7694   3.907   2.782  13.362  1.3444 -0.4536  1.5749
  514TMC3    H2 7695   4.110   3.008  13.067  1.5964  0.2810  1.1216
  514TMC3    C7 7696   4.149   2.831  13.263  0.2211  0.3267  0.6287
  514TMC3    C8 7697   3.950   3.220  13.114 -1.1063 -0.9392 -0.2115
  514TMC3    O1 7698   4.232   2.823  13.177 -0.0162  0.4312  0.3295
  514TMC3    O2 7699   3.895   3.319  13.165  0.1708  0.0334 -0.1769
  515MPD2     C 7700   1.962   0.853  14.669  0.1213 -0.3351  0.5474
  515MPD2    C1 7701   1.998   0.719  14.672  0.0075  0.3169 -1.1403
  515MPD2    C2 7702   2.105   0.677  14.749 -0.4397 -0.7776  0.0147
  515MPD2    C3 7703   2.182   0.765  14.819  1.3959 -0.8032  0.1581
  515MPD2    C4 7704   2.141   0.894  14.828  0.7068  0.4343 -0.3287
  515MPD2    C5 7705   2.034   0.936  14.757  0.3894 -0.5351  0.2341
  515MPD2     H 7706   2.139   0.575  14.738  0.7179 -0.7191  3.3088
  515MPD2    H1 7707   2.189   0.964  14.895 -0.2564  3.2790 -2.6417
  515MPD2    H2 7708   1.870   0.890  14.626  0.1073 -0.9443  0.0490
  515MPD2    H3 7709   2.007   1.039  14.773 -1.1186 -0.8834 -0.0994
  515MPD2     N 7710   2.318   0.734  14.868 -0.4615 -0.4060  0.0865
  515MPD2    H5 7711   2.363   0.810  14.919  1.0302 -0.0405 -1.7701
  515MPD2    N1 7712   1.930   0.615  14.604  0.1138 -0.2631 -0.0295
  515MPD2    H7 7713   1.974   0.526  14.582  1.2028  0.1649  0.4274
  516TMC3    C1 7714   1.784   0.510  14.465  0.3635 -0.5742 -0.0906
  516TMC3    C2 7715   1.711   0.511  14.355 -0.0002  0.2333  0.5030
  516TMC3    C3 7716   1.646   0.404  14.310 -0.5242 -0.7888 -0.3653
  516TMC3    C4 7717   1.791   0.397  14.545  0.2143 -0.1299 -0.0361
  516TMC3    C5 7718   1.710   0.284  14.509  0.9918 -0.3420  0.1907
  516TMC3    C6 7719   1.644   0.286  14.383  0.4542 -0.4433  0.3165
  516TMC3     C 7720   1.831   0.641  14.508 -0.7385 -0.4912  0.3460
  516TMC3     O 7721   1.790   0.743  14.454 -0.1680 -0.3771  0.2173
  516TMC3     H 7722   1.713   0.602  14.297  0.9225 -0.2996 -0.3072
  516TMC3    H1 7723   1.842   0.398  14.640 -3.7289 -1.5687  2.0801
  516TMC3    H2 7724   1.589   0.202  14.342 -0.2684 -0.0970  0.5614
  516TMC3    C7 7725   1.754   0.155  14.562  0.0196  0.0561 -0.2133
  516TMC3    C8 7726   1.613   0.392  14.166  0.6122 -0.5780  1.1169
  516TMC3    O1 7727   1.855   0.155  14.632 -0.7114 -0.1759 -0.6439
  516TMC3    O2 7728   1.529   0.304  14.146 -0.1407 -0.3754 -0.0282
  517MPD2     C 7729   1.829   1.964  17.166 -0.3015 -0.1326  0.8185
  517MPD2    C1 7730   1.826   1.921  17.289 -0.2331  0.7860  0.7168
  517MPD2    C2 7731   1.784   2.009  17.386 -0.2212  0.4949 -0.2335
  517MPD2    C3 7732   1.745   2.142  17.357  0.1871  1.1416  0.3732
  517MPD2    C4 7733   1.775   2.192  17.236  0.7604 -0.1010  0.1290
  517MPD2    C5 7734   1.817   2.102  17.140 -0.2747  0.0289  0.3984
  517MPD2     H 7735   1.772   1.977  17.488  0.6148  0.5945 -0.1017
  517MPD2    H1 7736   1.768   2.298  17.212 -0.0401 -0.9171 -3.2525
  517MPD2    H2 7737   1.853   1.900  17.082  2.0285  1.4963  0.2228
  517MPD2    H3 7738   1.827   2.133  17.037 -0.1337  0.1242  0.4405
  517MPD2     N 7739   1.693   2.226  17.449 -0.2694  0.2755  0.0473
  517MPD2    H5 7740   1.691   2.324  17.422 -3.8932  0.1475 -0.1316
  517MPD2    N1 7741   1.857   1.786  17.325 -0.7378  0.2981  0.2962
  517MPD2    H7 7742   1.869   1.771  17.425  0.7756 -2.1218 -0.2507
  518TMC3    C1 7743   1.904   1.565  17.310  0.0616 -0.5369 -0.0595
  518TMC3    C2 7744   1.850   1.446  17.284  0.1698  0.2681 -0.1418
  518TMC3    C3 7745   1.903   1.331  17.348  1.1192  0.3362  0.5241
  518TMC3    C4 7746   2.026   1.577  17.374 -0.5070  0.0941  0.2803
  518TMC3    C5 7747   2.092   1.463  17.412  0.1477  0.0798 -0.0032
  518TMC3    C6 7748   2.026   1.343  17.404 -0.7603 -0.8817 -0.0800
  518TMC3     C 7749   1.857   1.679  17.241 -0.9999  0.7503 -0.2116
  518TMC3     O 7750   1.801   1.667  17.134 -0.0671  0.3215 -0.1118
  518TMC3     H 7751   1.756   1.448  17.229 -0.5000 -1.2911  0.9451
  518TMC3    H1 7752   2.065   1.677  17.394  0.5208 -0.6365  1.8890
  518TMC3    H2 7753   2.073   1.253  17.441 -1.0696 -2.0343 -2.4840
  518TMC3    C7 7754   2.231   1.467  17.473  0.5487 -0.0118  0.1320
  518TMC3    C8 7755   1.843   1.201  17.341 -0.4021  0.1346 -0.0238
  518TMC3    O1 7756   2.277   1.576  17.503 -1.0604  0.2061  0.2277
  518TMC3    O2 7757   1.919   1.111  17.354 -0.2392 -0.4149 -0.3160
  519MPD2     C 7758   3.772   4.731  14.278  0.5543  0.3815 -0.4064
  519MPD2    C1 7759   3.758   0.093  14.179 -0.4040 -0.4179  0.0803
  519MPD2    C2 7760   3.868   0.109  14.094 -0.0289  0.2539  0.4779
  519MPD2    C3 7761   3.983   0.029  14.106 -0.0927  0.0238 -0.4105
  519MPD2    C4 7762   3.988   4.673  14.209  0.4650 -0.3068 -0.5459
  519MPD2    C5 7763   3.887   4.665  14.302  0.5291 -0.4486 -0.4695
  519MPD2     H 7764   3.869   0.180  14.013  0.9090 -1.3597 -0.9090
  519MPD2    H1 7765   4.077   4.615  14.229  0.5148 -0.6650 -1.7898
  519MPD2    H2 7766   3.693   4.718  14.352 -0.8047  3.1799 -1.3756
  519MPD2    H3 7767   3.885   4.599  14.388  0.6992 -2.2224 -1.8379
  519MPD2     N 7768   4.095   0.039  14.013  0.1908 -0.2661  0.1686
  519MPD2    H5 7769   4.168   4.706  14.030 -0.0305 -0.5390  0.0230
  519MPD2    N1 7770   3.633   0.167  14.168 -0.3510  0.4715 -0.8385
  519MPD2    H7 7771   3.556   0.141  14.230 -1.5045  1.9560 -1.6259
  520TMC3    C1 7772   4.182   0.053  13.809 -0.5798 -0.1656  0.2385
  520TMC3    C2 7773   4.124   0.020  13.690  0.2584 -0.9434  0.5815
  520TMC3    C3 7774   4.181   4.650  13.622  0.0085  0.3496 -0.4744
  520TMC3    C4 7775   4.294   4.723  13.858 -0.8744 -0.6564 -0.0366
  520TMC3    C5 7776   4.350   4.619  13.782 -0.0760 -0.5383  0.5146
  520TMC3    C6 7777   4.294   4.582  13.663 -1.1666 -0.0023  0.2037
  520TMC3     C 7778   4.099   0.116  13.897  0.2038 -0.0285  0.2818
  520TMC3     O 7779   4.017   0.191  13.842 -0.4923  0.7099 -0.4232
  520TMC3     H 7780   4.048   0.086  13.650 -0.8090 -2.2973  0.3493
  520TMC3    H1 7781   4.345   0.025  13.946 -0.7621 -0.3218 -0.2458
  520TMC3    H2 7782   4.311   4.496  13.600 -1.6498  0.9465 -1.2288
  520TMC3    C7 7783   4.431   4.525  13.847 -0.1703 -0.1590  0.1815
  520TMC3    C8 7784   4.123   4.617  13.498 -1.1823 -0.3543  0.2632
  520TMC3    O1 7785   4.471   4.555  13.964  0.5882  0.5006 -0.2911
  520TMC3    O2 7786   4.181   4.561  13.402  0.2244  0.5490  0.2079
  521MPD2     C 7787   4.283   2.630   0.217 -0.1154 -0.0682  0.2715
  521MPD2    C1 7788   4.306   2.686   0.092  0.1432  0.6164  0.2789
  521MPD2    C2 7789   4.438   2.698   0.053 -0.2648 -0.1643 -0.2887
  521MPD2    C3 7790   4.543   2.649   0.131 -0.1230 -0.3016 -1.0320
  521MPD2    C4 7791   4.514   2.608   0.257  0.3492 -0.2938  0.2920
  521MPD2    C5 7792   4.388   2.605   0.305 -0.0302  0.6863 -0.6623
  521MPD2     H 7793   4.461   2.720  17.689  0.7754 -0.6775 -0.1736
  521MPD2    H1 7794   4.588   2.578   0.330 -0.6044 -1.7892  0.6387
  521MPD2    H2 7795   4.184   2.604   0.252 -1.0110  1.9948 -0.7232
  521MPD2    H3 7796   4.375   2.571   0.407  1.5990  0.8429 -0.4017
  521MPD2     N 7797   4.674   2.649   0.068 -0.2326  0.4983  0.3008
  521MPD2    H5 7798   4.680   2.706  17.725  0.8162 -4.7288 -3.1434
  521MPD2    N1 7799   4.198   2.700  17.737  0.6786  0.3655  0.0560
  521MPD2    H7 7800   4.106   2.672   0.030  0.3509 -0.5646 -1.6089
  522TMC3    C1 7801   0.162   2.623   0.028 -0.0553 -0.2355  0.1605
  522TMC3    C2 7802   0.274   2.541   0.043 -0.2803 -0.2355 -0.4872
  522TMC3    C3 7803   0.384   2.575  17.711  0.0266  0.6000  0.5098
  522TMC3    C4 7804   0.167   2.745  17.695  0.4265  0.4677  0.3574
  522TMC3    C5 7805   0.286   2.770  17.631 -0.9038  0.3121 -0.0832
  522TMC3    C6 7806   0.394   2.691  17.639 -0.8559  0.4719 -0.4727
  522TMC3     C 7807   0.048   2.580   0.110 -1.1678  0.1555 -0.2799
  522TMC3     O 7808   0.065   2.497   0.196  0.3654  0.4662  0.0441
  522TMC3     H 7809   0.273   2.444   0.093 -0.6814 -1.1775 -2.3232
  522TMC3    H1 7810   0.087   2.817  17.687  1.5495  1.5812 -0.8201
  522TMC3    H2 7811   0.482   2.722  17.584 -1.1112  2.1152  0.0547
  522TMC3    C7 7812   0.295   2.882  17.534  0.2527 -0.8000 -0.3829
  522TMC3    C8 7813   0.477   2.469  17.679 -0.1754 -0.8662  0.6249
  522TMC3    O1 7814   0.409   2.908  17.493 -0.1040 -0.7629 -0.0910
  522TMC3    O2 7815   0.498   2.375   0.015  0.2767 -0.1582 -0.5005
  523MPD2     C 7816   2.583   3.242  10.295 -0.1654 -0.3608 -0.7261
  523MPD2    C1 7817   2.564   3.149  10.194  0.8556 -0.1849  0.2524
  523MPD2    C2 7818   2.534   3.188  10.065  0.1151  0.1617  0.0965
  523MPD2    C3 7819   2.545   3.318  10.035 -0.0242  0.3315 -0.3138
  523MPD2    C4 7820   2.581   3.416  10.129  0.2764  0.5266 -0.0399
  523MPD2    C5 7821   2.596   3.373  10.257 -0.1430  0.4317  0.1236
  523MPD2     H 7822   2.517   3.120   9.982 -1.4701  1.7416 -0.8555
  523MPD2    H1 7823   2.600   3.518  10.100 -1.1414  0.7927 -0.0318
  523MPD2    H2 7824   2.604   3.220  10.399 -0.9673 -0.1563 -0.5231
  523MPD2    H3 7825   2.631   3.443  10.331  0.0836  1.1794 -0.6964
  523MPD2     N 7826   2.537   3.369   9.904  0.6048  0.3408  0.4241
  523MPD2    H5 7827   2.550   3.468   9.889  0.0326  0.4438  0.6384
  523MPD2    N1 7828   2.566   3.007  10.232 -0.0722  0.1728  0.3043
  523MPD2    H7 7829   2.577   2.981  10.329  0.0324 -0.9962 -0.0235
  524TMC3    C1 7830   2.447   3.403   9.704 -0.4100  0.4745 -0.1823
  524TMC3    C2 7831   2.428   3.358   9.578  0.2086  0.9703 -0.7502
  524TMC3    C3 7832   2.363   3.444   9.492  0.8389  0.2491  0.4028
  524TMC3    C4 7833   2.400   3.529   9.750  0.3874 -0.0749 -0.4340
  524TMC3    C5 7834   2.339   3.611   9.660  0.2592 -0.5119 -0.6125
  524TMC3    C6 7835   2.317   3.569   9.532  0.6693 -0.4821 -0.2340
  524TMC3     C 7836   2.485   3.304   9.796 -0.5196  0.7231  0.0932
  524TMC3     O 7837   2.437   3.193   9.783  0.2212  0.0213  0.3021
  524TMC3     H 7838   2.443   3.255   9.546 -1.5958  0.0199  1.5234
  524TMC3    H1 7839   2.398   3.559   9.855  0.6242 -1.4237 -0.0446
  524TMC3    H2 7840   2.286   3.646   9.463  1.4911  0.7271  0.7519
  524TMC3    C7 7841   2.306   3.743   9.711 -0.4204  0.5572  0.4106
  524TMC3    C8 7842   2.328   3.385   9.362 -0.1944 -0.2108  0.4071
  524TMC3    O1 7843   2.358   3.782   9.813 -0.0814 -0.0170 -0.0145
  524TMC3    O2 7844   2.355   3.268   9.331  0.6152 -0.3278 -0.0348
  525MPD2     C 7845   0.945   4.538  14.284  0.4969 -0.1397  0.3108
  525MPD2    C1 7846   0.883   4.559  14.407 -0.3438  0.2047 -0.3961
  525MPD2    C2 7847   0.867   4.686  14.450  0.2330 -0.7451 -0.0453
  525MPD2    C3 7848   0.931   0.058  14.383  0.1221  0.1092 -0.4309
  525MPD2    C4 7849   0.999   0.036  14.267 -0.4089  0.1785  0.4045
  525MPD2    C5 7850   1.002   4.646  14.220 -0.0899 -0.7190 -0.3771
  525MPD2     H 7851   0.807   4.709  14.538 -2.2292 -0.2186 -1.8667
  525MPD2    H1 7852   1.048   0.114  14.210 -0.4898 -1.8941 -2.4518
  525MPD2    H2 7853   0.945   4.437  14.244 -0.9268 -1.1089  2.7570
  525MPD2    H3 7854   1.065   4.627  14.134  2.3328  2.7070  0.6493
  525MPD2     N 7855   0.911   0.191  14.434 -0.2287  0.8605 -0.2681
  525MPD2    H5 7856   0.848   0.192  14.513  0.4932 -0.4085  0.3266
  525MPD2    N1 7857   0.837   4.452  14.491  0.1449 -0.5899  0.3687
  525MPD2    H7 7858   0.776   4.486  14.564 -1.5521 -0.9523 -0.8739
  526TMC3    C1 7859   0.809   4.239  14.580  0.3318  0.0965  0.4760
  526TMC3    C2 7860   0.699   4.292  14.652 -0.4569 -1.1252  0.6060
  526TMC3    C3 7861   0.668   4.231  14.772 -0.4401 -0.2265 -0.2698
  526TMC3    C4 7862   0.880   4.131  14.622  0.6128  0.4386  0.3975
  526TMC3    C5 7863   0.857   4.080  14.750  0.4136 -0.4663  0.0841
  526TMC3    C6 7864   0.749   4.135  14.824 -0.1223  0.5929 -0.9620
  526TMC3     C 7865   0.873   4.322  14.481 -0.3575  1.0326  0.3993
  526TMC3     O 7866   0.978   4.280  14.428 -0.7000  0.7700  0.6378
  526TMC3     H 7867   0.638   4.362  14.595 -2.2520 -3.2400 -0.0416
  526TMC3    H1 7868   0.972   4.102  14.573  0.1741  1.3598 -0.9509
  526TMC3    H2 7869   0.722   4.089  14.919  0.1805  0.2201 -1.0556
  526TMC3    C7 7870   0.943   3.971  14.800 -0.5723  0.7381 -0.2189
  526TMC3    C8 7871   0.587   4.305  14.860 -0.1226  0.3001  0.0565
  526TMC3    O1 7872   1.018   3.921  14.717  0.1101  0.4981 -0.0979
  526TMC3    O2 7873   0.608   4.286  14.978 -0.8079 -0.0278 -0.0346
  527MPD2     C 7874   3.725   2.846   1.200 -0.7969 -0.1034  0.1995
  527MPD2    C1 7875   3.598   2.795   1.197 -1.1691 -0.2672  0.6565
  527MPD2    C2 7876   3.581   2.666   1.231 -0.0098 -1.0617  0.6632
  527MPD2    C3 7877   3.689   2.583   1.263 -0.5322 -0.6079  0.4344
  527MPD2    C4 7878   3.818   2.638   1.268 -0.2889  0.3518 -0.2856
  527MPD2    C5 7879   3.832   2.766   1.228  0.3871 -0.0393  0.1537
  527MPD2     H 7880   3.480   2.627   1.226 -1.6124  3.0587  0.1879
  527MPD2    H1 7881   3.902   2.573   1.288  0.3153  1.3021  0.2590
  527MPD2    H2 7882   3.752   2.946   1.168 -5.1837  2.3966  4.1738
  527MPD2    H3 7883   3.931   2.805   1.209  0.9355 -1.2407  0.5860
  527MPD2     N 7884   3.654   2.447   1.285  0.0086  0.5569  0.2630
  527MPD2    H5 7885   3.557   2.420   1.273  0.3137 -0.6062  0.4845
  527MPD2    N1 7886   3.492   2.883   1.168  0.4616 -0.4219  0.3825
  527MPD2    H7 7887   3.403   2.835   1.169  0.1834  0.1061  0.7996
  528TMC3    C1 7888   3.369   3.075   1.107  0.4978 -0.0855 -0.3302
  528TMC3    C2 7889   3.254   2.990   1.099  0.2772 -0.0953 -0.1781
  528TMC3    C3 7890   3.132   3.046   1.065  0.8682 -0.0289 -0.7514
  528TMC3    C4 7891   3.358   3.211   1.087 -0.0575 -0.5526  0.6327
  528TMC3    C5 7892   3.224   3.263   1.062 -0.6040 -0.1540  0.0721
  528TMC3    C6 7893   3.116   3.180   1.046  0.5070  0.0482  0.0531
  528TMC3     C 7894   3.494   3.018   1.139 -0.8898  0.3723 -0.5961
  528TMC3     O 7895   3.593   3.092   1.128  0.0235  0.4203 -0.5772
  528TMC3     H 7896   3.254   2.887   1.133  1.2604 -0.0880 -0.1713
  528TMC3    H1 7897   3.441   3.269   1.126 -0.6544 -0.5671  1.9128
  528TMC3    H2 7898   3.020   3.220   1.016 -0.7515 -1.9846  1.4194
  528TMC3    C7 7899   3.189   3.395   1.109  0.3066  0.2596  0.0077
  528TMC3    C8 7900   3.023   2.956   1.027 -0.1864  0.3063 -0.4309
  528TMC3    O1 7901   3.071   3.400   1.137  0.3181 -0.3077  0.4416
  528TMC3    O2 7902   3.056   2.838   1.009 -0.1973 -0.2929  0.2518
  529MPD2     C 7903   0.073   0.500   1.094  0.2876  0.3042  0.1536
  529MPD2    C1 7904   0.170   0.509   1.005  0.5857  0.4320 -0.2921
  529MPD2    C2 7905   0.169   0.616   0.916 -0.0952  0.2948  0.6235
  529MPD2    C3 7906   0.080   0.718   0.920 -0.1245  0.3556  0.5819
  529MPD2    C4 7907   4.720   0.700   1.015 -0.6694  0.0263 -0.7923
  529MPD2    C5 7908   4.721   0.603   1.110 -0.3594  0.2158  0.2893
  529MPD2     H 7909   0.233   0.607   0.829 -0.6114  1.1746  0.1520
  529MPD2    H1 7910   4.639   0.771   1.023  1.1458  1.8251  1.7181
  529MPD2    H2 7911   0.072   0.420   1.167 -1.2033  0.9133  0.8054
  529MPD2    H3 7912   4.650   0.587   1.190  1.1583  0.0316  1.5866
  529MPD2     N 7913   0.075   0.824   0.827  0.1120 -0.7991  0.2855
  529MPD2    H5 7914   4.727   0.880   0.839  1.5171  1.4318 -0.3231
  529MPD2    N1 7915   0.286   0.427   1.005  0.5631 -0.3062 -0.7752
  529MPD2    H7 7916   0.355   0.436   0.932  0.2363  2.2182 -0.7781
  530TMC3    C1 7917   0.440   0.254   1.064 -0.5055 -0.5518 -0.7578
  530TMC3    C2 7918   0.525   0.336   1.002  0.0332  0.2017 -0.6859
  530TMC3    C3 7919   0.642   0.273   0.947  0.7928  0.1000 -0.0228
  530TMC3    C4 7920   0.456   0.118   1.067 -0.3780 -0.6524 -0.0433
  530TMC3    C5 7921   0.568   0.063   1.010 -0.0068 -0.3608  0.1077
  530TMC3    C6 7922   0.653   0.134   0.936 -0.2571  0.0452  0.1175
  530TMC3     C 7923   0.314   0.315   1.082  0.4454 -0.1011 -0.4091
  530TMC3     O 7924   0.234   0.263   1.163  0.3120  0.2221 -0.0456
  530TMC3     H 7925   0.519   0.444   1.012  1.6987  0.3197 -0.9665
  530TMC3    H1 7926   0.384   0.055   1.118 -0.4547 -1.0926 -0.6924
  530TMC3    H2 7927   0.727   0.086   0.873  0.2953  1.2269 -0.1410
  530TMC3    C7 7928   0.600   4.657   1.020  0.7296 -0.0488 -0.0232
  530TMC3    C8 7929   0.753   0.365   0.940  0.4264  0.5333  0.4374
  530TMC3    O1 7930   0.704   4.614   0.973 -0.0739 -0.4817 -0.2932
  530TMC3    O2 7931   0.734   0.484   0.966  0.1857  0.3284 -0.2628
  531MPD2     C 7932   4.482   2.680  13.625 -0.4633  0.6586 -0.1668
  531MPD2    C1 7933   4.367   2.724  13.686 -0.3599  0.2932  0.3606
  531MPD2    C2 7934   4.258   2.758  13.606 -0.0980  0.0257 -0.5245
  531MPD2    C3 7935   4.261   2.754  13.474 -0.0663 -1.1446 -0.8689
  531MPD2    C4 7936   4.370   2.689  13.416 -0.7075 -0.4149 -0.1787
  531MPD2    C5 7937   4.482   2.663  13.493  0.3187 -0.9013  0.4804
  531MPD2     H 7938   4.171   2.807  13.647  0.7718  0.3359  0.9565
  531MPD2    H1 7939   4.379   2.676  13.309 -0.9947  2.9282 -0.6037
  531MPD2    H2 7940   4.570   2.678  13.688 -0.4798 -0.9527 -0.1922
  531MPD2    H3 7941   4.575   2.632  13.447 -0.7808 -0.7711 -1.7804
  531MPD2     N 7942   4.151   2.793  13.396 -0.0229  0.3381 -0.1314
  531MPD2    H5 7943   4.074   2.823  13.454 -0.4534 -1.7661  0.3645
  531MPD2    N1 7944   4.371   2.748  13.829  0.4242 -0.3720 -0.0146
  531MPD2    H7 7945   4.451   2.715  13.882 -1.6332 -0.1429  3.2703
  532TMC3    C1 7946   4.292   2.817  14.042  0.1134 -0.3895  0.3791
  532TMC3    C2 7947   4.188   2.873  14.104 -0.8888 -0.4865  0.0204
  532TMC3    C3 7948   4.202   2.974  14.190  0.4530 -0.2221 -0.2146
  532TMC3    C4 7949   4.415   2.856  14.084 -1.2235 -0.0678 -0.1230
  532TMC3    C5 7950   4.434   2.943  14.186 -0.5597  0.1006 -0.1645
  532TMC3    C6 7951   4.325   3.004  14.238 -0.0115  0.2880 -0.1343
  532TMC3     C 7952   4.265   2.791  13.906 -0.0602 -0.7655  0.0532
  532TMC3     O 7953   4.150   2.812  13.873  0.2003  0.3957 -0.5416
  532TMC3     H 7954   4.086   2.848  14.079 -0.3824 -0.9794 -1.5504
  532TMC3    H1 7955   4.491   2.783  14.059  1.0744  2.8384 -1.5588
  532TMC3    H2 7956   4.333   3.096  14.295  2.0454 -0.5940  0.9916
  532TMC3    C7 7957   4.559   2.936  14.264 -0.0434  0.6564 -0.3843
  532TMC3    C8 7958   4.128   3.087  14.129 -0.1468 -0.3709 -0.1227
  532TMC3    O1 7959   4.553   2.976  14.381  0.2758  0.4781 -0.1033
  532TMC3    O2 7960   4.127   3.198  14.192 -0.1677  0.3058  0.2455
  533TMC3    C1 7961   0.875   0.424  14.413  0.0413  0.4823  0.2749
  533TMC3    C2 7962   0.923   0.545  14.380  0.2807 -0.0543  0.6671
  533TMC3    C3 7963   0.866   0.656  14.438 -0.3961 -0.1947  0.3720
  533TMC3    C4 7964   0.763   0.409  14.495  0.2988 -0.2935 -0.2522
  533TMC3    C5 7965   0.698   0.522  14.541 -0.6800  0.0334 -0.5888
  533TMC3    C6 7966   0.756   0.647  14.525 -0.2316 -0.0901 -0.4919
  533TMC3     C 7967   0.964   0.315  14.388 -0.3866  0.0562  0.5249
  533TMC3     O 7968   1.065   0.327  14.319  0.1557 -0.5637  0.4290
  533TMC3     H 7969   1.024   0.549  14.341 -0.3751  0.1399 -1.0170
  533TMC3    H1 7970   0.727   0.310  14.521  2.1548  0.0707  3.6949
  533TMC3    H2 7971   0.715   0.734  14.574  0.8363 -0.8435  1.7352
  533TMC3    C7 7972   0.624   0.496  14.664  0.1366 -0.9662 -0.2413
  533TMC3    C8 7973   0.951   0.779  14.455  0.3272  0.5818 -0.3356
  533TMC3    O1 7974   0.548   0.400  14.665  0.0803 -0.4214 -0.0313
  533TMC3    O2 7975   0.907   0.870  14.526  0.5059 -0.2619  0.7902
  534MPD2     C 7976   3.628   0.933   0.739 -0.4411 -0.1237 -0.0365
  534MPD2    C1 7977   3.527   0.980   0.822  0.0002  0.5110 -0.0883
  534MPD2    C2 7978   3.399   0.932   0.804  0.2398 -0.4427  0.2426
  534MPD2    C3 7979   3.378   0.826   0.704 -0.0194  0.9850  0.1641
  534MPD2    C4 7980   3.483   0.787   0.623 -0.2934 -0.2484  0.7230
  534MPD2    C5 7981   3.608   0.840   0.639  0.4914 -0.2291  0.1237
  534MPD2     H 7982   3.317   0.957   0.871 -0.3606 -2.3440  0.2142
  534MPD2    H1 7983   3.460   0.711   0.549  1.3868 -0.8792  0.8487
  534MPD2    H2 7984   3.729   0.971   0.753 -0.2716 -1.5574  2.6476
  534MPD2    H3 7985   3.690   0.809   0.575  0.6039 -0.2190  0.2624
  534MPD2     N 7986   3.257   0.754   0.698  0.0536  0.9107 -0.1209
  534MPD2    H5 7987   3.250   0.699   0.613  2.0282 -0.8866  0.8908
  534MPD2    N1 7988   3.554   1.064   0.926  0.0277  0.0808 -0.1222
  534MPD2    H7 7989   3.474   1.106   0.972 -0.9890 -1.9513 -0.0189
  535TMC3    C1 7990   3.020   0.721   0.733 -0.1898 -0.4257  0.0410
  535TMC3    C2 7991   2.908   0.753   0.808 -0.1264  0.4742 -0.1079
  535TMC3    C3 7992   2.789   0.744   0.742  0.3313 -0.3466 -0.1889
  535TMC3    C4 7993   3.003   0.680   0.604 -0.1466  0.5105 -0.1680
  535TMC3    C5 7994   2.884   0.649   0.553 -0.1865 -0.1206 -0.3443
  535TMC3    C6 7995   2.775   0.686   0.623  0.4850  0.3545 -0.1227
  535TMC3     C 7996   3.153   0.762   0.782 -0.0665  0.1314 -0.0019
  535TMC3     O 7997   3.153   0.793   0.899 -0.7334 -0.1992 -0.4261
  535TMC3     H 7998   2.921   0.796   0.907 -0.8554  0.3247  0.0542
  535TMC3    H1 7999   3.093   0.658   0.548  0.7306  2.1023  0.6097
  535TMC3    H2 8000   2.683   0.661   0.570 -0.8769  1.5671  1.6574
  535TMC3    C7 8001   2.889   0.653   0.409 -0.2537 -0.1481  0.8888
  535TMC3    C8 8002   2.669   0.788   0.807 -0.2285  0.0313 -0.2990
  535TMC3    O1 8003   2.972   0.585   0.357 -0.0816 -0.4392 -0.6253
  535TMC3    O2 8004   2.559   0.766   0.764 -0.5316  0.3125  0.1967
  536MPD2     C 8005   0.861   4.012  16.090 -0.3782  0.3330  0.2685
  536MPD2    C1 8006   0.991   3.986  16.046 -0.5045  0.1172 -0.1993
  536MPD2    C2 8007   1.042   4.068  15.945 -0.2558  0.0467  0.4780
  536MPD2    C3 8008   0.961   4.162  15.883 -0.4614  0.0159 -0.2193
  536MPD2    C4 8009   0.827   4.182  15.937 -0.2258  0.5429 -0.1849
  536MPD2    C5 8010   0.785   4.106  16.040  0.4248  0.0656 -0.2407
  536MPD2     H 8011   1.143   4.056  15.908 -0.7088  2.7333 -1.6434
  536MPD2    H1 8012   0.752   4.248  15.894  0.0392  1.8832  1.4343
  536MPD2    H2 8013   0.824   3.953  16.173 -1.1862 -2.0605 -1.7785
  536MPD2    H3 8014   0.682   4.124  16.071  0.9222  2.3111  0.1088
  536MPD2     N 8015   0.997   4.250  15.782 -0.1296 -0.1089 -0.6015
  536MPD2    H5 8016   0.925   4.321  15.768 -1.4938 -1.7254 -1.7309
  536MPD2    N1 8017   1.069   3.882  16.103  0.2547  0.3719 -0.2485
  536MPD2    H7 8018   1.015   3.818  16.161 -0.1882 -0.7438 -1.8870
  537TMC3    C1 8019   1.272   3.758  16.176 -0.0958 -0.8949 -0.3424
  537TMC3    C2 8020   1.385   3.810  16.233  0.1958  0.4309 -0.2761
  537TMC3    C3 8021   1.429   3.768  16.351  0.2388 -0.3237 -0.1457
  537TMC3    C4 8022   1.197   3.670  16.248 -0.1396 -0.0201 -0.3328
  537TMC3    C5 8023   1.242   3.624  16.368  0.1948  0.1971 -0.5109
  537TMC3    C6 8024   1.363   3.672  16.421 -0.5179 -0.0688  0.0969
  537TMC3     C 8025   1.206   3.871  16.105 -0.3745  0.2945  0.2016
  537TMC3     O 8026   1.287   3.959  16.080 -0.1828  0.1141  0.1194
  537TMC3     H 8027   1.464   3.839  16.164 -0.4713 -1.3910 -1.7936
  537TMC3    H1 8028   1.104   3.637  16.203 -0.9373  0.2386  1.1116
  537TMC3    H2 8029   1.408   3.636  16.512 -0.7061 -1.9256 -0.5499
  537TMC3    C7 8030   1.152   3.540  16.437 -0.6557 -0.0353 -0.3769
  537TMC3    C8 8031   1.514   3.858  16.420  0.3176  0.6426 -0.1755
  537TMC3    O1 8032   1.067   3.482  16.369 -0.0155 -0.2227  0.4840
  537TMC3    O2 8033   1.560   3.818  16.526  0.1197  0.1690 -0.0223
  538TMC3    C1 8034   3.118   2.379  11.543  0.1081  1.1634 -0.2463
  538TMC3    C2 8035   3.221   2.310  11.496 -0.2512  0.1319 -0.3267
  538TMC3    C3 8036   3.236   2.299  11.364  0.0018 -0.0425 -0.1298
  538TMC3    C4 8037   3.028   2.440  11.465 -0.2744  0.0723  0.2090
  538TMC3    C5 8038   3.044   2.426  11.330  0.6492  0.5222  0.2732
  538TMC3    C6 8039   3.166   2.373  11.274  0.0064  0.0568  0.9204
  538TMC3     C 8040   3.083   2.367  11.678  0.3317 -0.2865  0.3738
  538TMC3     O 8041   2.969   2.348  11.712 -0.1973 -0.3897  0.0773
  538TMC3     H 8042   3.276   2.256  11.572 -0.4432  0.2609 -0.0940
  538TMC3    H1 8043   2.938   2.489  11.501 -0.2601 -0.2985  0.7544
  538TMC3    H2 8044   3.166   2.360  11.167  0.3141 -0.7247  1.0131
  538TMC3    C7 8045   2.936   2.477  11.244 -0.4347 -0.1308 -0.1736
  538TMC3    C8 8046   3.369   2.248  11.320 -0.1325  0.2924  0.0839
  538TMC3    O1 8047   2.832   2.468  11.303  0.6675 -0.5897  0.0466
  538TMC3    O2 8048   3.410   2.287  11.209  0.1154  0.3526 -0.5234
  539MPD2     C 8049   2.978   1.955  11.284  0.0969 -0.3937  1.1426
  539MPD2    C1 8050   2.887   1.860  11.330 -0.0950 -0.2607 -1.1925
  539MPD2    C2 8051   2.755   1.897  11.352  0.0893  0.0578 -0.0524
  539MPD2    C3 8052   2.713   2.023  11.307  0.1732 -0.0216  0.3207
  539MPD2    C4 8053   2.802   2.107  11.243  0.6127  0.2725 -0.4085
  539MPD2    C5 8054   2.936   2.072  11.242  0.7850  0.2454  0.0717
  539MPD2     H 8055   2.676   1.833  11.389  0.6230 -0.6407 -0.1157
  539MPD2    H1 8056   2.768   2.200  11.198 -1.3309 -1.1330 -1.8305
  539MPD2    H2 8057   3.081   1.922  11.270 -0.2421 -0.7718 -0.4763
  539MPD2    H3 8058   3.007   2.144  11.202 -1.3110  2.1257 -0.2495
  539MPD2     N 8059   2.580   2.069  11.317 -0.8595 -0.2987 -0.1482
  539MPD2    H5 8060   2.561   2.162  11.280  0.6422  0.6430  1.4604
  539MPD2    N1 8061   2.928   1.737  11.377  0.0851  0.0642 -0.0848
  539MPD2    H7 8062   3.015   1.712  11.330 -1.3487  0.0023 -2.7423
  540TMC3    C1 8063   2.357   2.094  11.377  0.9542  0.2574  0.2735
  540TMC3    C2 8064   2.332   2.172  11.265  0.5883 -0.6319 -0.2632
  540TMC3    C3 8065   2.202   2.205  11.238  0.1120 -0.6279 -0.1106
  540TMC3    C4 8066   2.258   2.061  11.456 -0.3321 -0.7583  0.0623
  540TMC3    C5 8067   2.127   2.093  11.425  0.3250  0.4371 -0.1998
  540TMC3    C6 8068   2.099   2.163  11.311 -0.4587 -0.4996 -0.3747
  540TMC3     C 8069   2.477   2.016  11.392 -0.1767  0.8090  0.5959
  540TMC3     O 8070   2.464   1.915  11.458  0.0910  0.1018  0.1797
  540TMC3     H 8071   2.410   2.205  11.197  0.7915 -1.3173 -0.3644
  540TMC3    H1 8072   2.277   2.001  11.544  2.9993 -2.4533 -1.8288
  540TMC3    H2 8073   1.998   2.189  11.281  0.3572  1.7545 -1.2446
  540TMC3    C7 8074   2.006   2.071  11.503  0.3912  0.2951  0.3808
  540TMC3    C8 8075   2.156   2.249  11.105  0.2602  0.7056 -0.1706
  540TMC3    O1 8076   1.897   2.089  11.447 -0.0655 -0.3117  0.3801
  540TMC3    O2 8077   2.054   2.321  11.099 -0.0492 -0.7292 -0.1007
  541MPD2     C 8078   1.253   3.438  13.458 -0.4338 -0.0034  0.2001
  541MPD2    C1 8079   1.198   3.377  13.357 -0.6328  0.5309 -0.3205
  541MPD2    C2 8080   1.210   3.440  13.233 -0.1231 -0.3779 -0.5288
  541MPD2    C3 8081   1.266   3.567  13.215 -0.7308  0.5616 -0.1982
  541MPD2    C4 8082   1.308   3.638  13.325  0.4980  0.2873 -0.2585
  541MPD2    C5 8083   1.305   3.563  13.443 -0.0453 -0.3510 -0.7389
  541MPD2     H 8084   1.177   3.388  13.144 -2.3191 -1.3010  0.8341
  541MPD2    H1 8085   1.352   3.736  13.312  1.2795 -0.2166 -1.3634
  541MPD2    H2 8086   1.270   3.397  13.557 -0.1176 -0.1650  0.0792
  541MPD2    H3 8087   1.343   3.623  13.525 -2.1716 -0.4827  0.3290
  541MPD2     N 8088   1.269   3.626  13.087  0.2527  0.7146  0.6639
  541MPD2    H5 8089   1.273   3.727  13.077 -2.0548  0.8967  1.6287
  541MPD2    N1 8090   1.148   3.244  13.357  0.2638  0.9346 -0.1109
  541MPD2    H7 8091   1.176   3.183  13.434  0.1727  0.1373 -0.7080
  542TMC3    C1 8092   1.227   3.643  12.851 -0.0943  0.4595 -0.5894
  542TMC3    C2 8093   1.252   3.587  12.730  0.0380  0.6608  0.1790
  542TMC3    C3 8094   1.217   3.652  12.621 -0.2720  0.3633 -0.3034
  542TMC3    C4 8095   1.154   3.756  12.874  0.0549 -0.0079  0.2730
  542TMC3    C5 8096   1.109   3.810  12.755  0.1630 -0.1637 -0.2461
  542TMC3    C6 8097   1.145   3.765  12.630  0.6912  0.3616 -0.1048
  542TMC3     C 8098   1.265   3.555  12.969  0.0199 -0.2175 -0.5688
  542TMC3     O 8099   1.270   3.434  12.943  0.1191  0.4952  0.0651
  542TMC3     H 8100   1.310   3.495  12.727 -1.3488 -0.2225 -0.1290
  542TMC3    H1 8101   1.124   3.801  12.968 -1.0362  0.1410 -0.1475
  542TMC3    H2 8102   1.103   3.816  12.545  0.5695 -1.5454 -1.1793
  542TMC3    C7 8103   1.010   3.917  12.763 -0.3623  0.2089 -0.2442
  542TMC3    C8 8104   1.213   3.584  12.494 -0.3244  0.1030 -0.2106
  542TMC3    O1 8105   1.002   3.993  12.669 -0.2703 -0.3097 -0.5947
  542TMC3    O2 8106   1.175   3.651  12.404 -0.4115  0.3117 -0.4865
  543TMC3    C1 8107   0.480   0.738  17.119  0.3406 -0.0919  0.3122
  543TMC3    C2 8108   0.502   0.660  17.233  0.2192 -0.1124 -0.0798
  543TMC3    C3 8109   0.529   0.723  17.350  0.1931  0.6831  0.8632
  543TMC3    C4 8110   0.480   0.874  17.125 -0.3193  0.4730 -0.0093
  543TMC3    C5 8111   0.524   0.929  17.243  0.0057  0.5001  0.0075
  543TMC3    C6 8112   0.542   0.860  17.357  0.3611 -1.0712  0.0439
  543TMC3     C 8113   0.457   0.672  16.991 -0.4641  0.4571 -0.2923
  543TMC3     O 8114   0.469   0.550  16.988 -0.2477 -0.1470 -0.0401
  543TMC3     H 8115   0.490   0.552  17.229 -0.6781  0.0552 -1.9996
  543TMC3    H1 8116   0.472   0.942  17.041  0.8083 -0.2477 -0.7095
  543TMC3    H2 8117   0.572   0.909  17.449 -1.2509 -1.3083  0.6988
  543TMC3    C7 8118   0.571   1.073  17.237 -0.2120  0.5453  0.5048
  543TMC3    C8 8119   0.537   0.656  17.476  0.7278  0.4908 -0.5814
  543TMC3    O1 8120   0.528   1.142  17.150  0.0195 -0.6047 -0.7182
  543TMC3    O2 8121   0.491   0.704  17.578 -0.1274 -0.6530 -0.1586
  544MPD2     C 8122   0.552   0.189  17.675 -0.0187  0.3168  0.7784
  544MPD2    C1 8123   0.628   0.187  17.562  0.2593  0.4443 -0.8719
  544MPD2    C2 8124   0.640   0.306  17.486 -0.6670  0.4808 -0.2127
  544MPD2    C3 8125   0.581   0.422  17.529  0.3237  0.3072  0.5281
  544MPD2    C4 8126   0.502   0.417  17.644 -0.0536 -0.1006 -0.4177
  544MPD2    C5 8127   0.491   0.302  17.716  0.1874  0.3385 -0.3090
  544MPD2     H 8128   0.703   0.308  17.398 -0.6162 -1.7089 -0.2221
  544MPD2    H1 8129   0.459   0.500  17.699  0.3607 -0.4936  0.4984
  544MPD2    H2 8130   0.522   0.095  17.720 -1.2821 -0.4945 -1.7526
  544MPD2    H3 8131   0.426   0.300   0.063 -0.6759  3.1745 -0.8578
  544MPD2     N 8132   0.594   0.532  17.450 -0.6872  0.3928  0.2278
  544MPD2    H5 8133   0.647   0.520  17.364 -0.5698  1.1980  0.1941
  544MPD2    N1 8134   0.665   0.061  17.517 -0.3857  0.4068  0.4012
  544MPD2    H7 8135   0.622   4.720  17.568 -0.4746  1.2665  1.6227
  545TMC3    C1 8136   0.711   4.621  17.366 -0.4529 -0.7054  0.0646
  545TMC3    C2 8137   0.656   4.561  17.256  0.8112  0.1505  0.2747
  545TMC3    C3 8138   0.631   4.426  17.262  0.4777 -0.2969  0.0748
  545TMC3    C4 8139   0.764   4.541  17.466 -0.9734 -0.0216 -0.2399
  545TMC3    C5 8140   0.759   4.400  17.454  0.3435  0.4414 -0.0546
  545TMC3    C6 8141   0.685   4.343  17.355 -1.0472  1.0101  0.3010
  545TMC3     C 8142   0.706   0.032  17.386 -0.0043 -0.4426 -0.0395
  545TMC3     O 8143   0.703   0.108  17.291 -0.5433  0.2786  0.3510
  545TMC3     H 8144   0.614   4.615  17.173  0.4145  0.6976  0.8317
  545TMC3    H1 8145   0.810   4.593  17.549  0.7215  1.5441 -2.1568
  545TMC3    H2 8146   0.663   4.237  17.347  1.8041  0.4478 -0.2357
  545TMC3    C7 8147   0.797   4.320  17.571 -0.9294 -0.2973  0.2042
  545TMC3    C8 8148   0.512   4.379  17.193  0.2824 -0.4392  0.6244
  545TMC3    O1 8149   0.828   4.398  17.661  0.4324 -0.0519 -0.7823
  545TMC3    O2 8150   0.445   4.459  17.132  0.8721 -0.0205 -0.6138
  546MPD2     C 8151   1.674   4.391  17.072 -0.9358  0.5144  0.5122
  546MPD2    C1 8152   1.559   4.465  17.063 -0.4566 -0.0394  0.0285
  546MPD2    C2 8153   1.559   4.585  17.117  0.0564 -0.2431  0.3022
  546MPD2    C3 8154   1.664   4.628  17.192 -0.1705 -0.1412  0.5101
  546MPD2    C4 8155   1.770   4.541  17.220  0.2544 -0.2802 -0.1977
  546MPD2    C5 8156   1.776   4.424  17.159  0.1727  0.3870  0.3249
  546MPD2     H 8157   1.480   4.659  17.108  0.7546  0.6074  1.0722
  546MPD2    H1 8158   1.846   4.569  17.292 -1.1598 -0.2627  1.2827
  546MPD2    H2 8159   1.670   4.291  17.030  0.8508 -0.2314  2.0889
  546MPD2    H3 8160   1.857   4.355  17.179 -0.2581 -0.9446 -2.5304
  546MPD2     N 8161   1.676   0.023  17.243  0.3667  0.6158 -0.0278
  546MPD2    H5 8162   1.759   0.048  17.295  0.8273  1.5141 -1.1928
  546MPD2    N1 8163   1.451   4.409  16.994 -0.8522 -0.1966 -0.3311
  546MPD2    H7 8164   1.472   4.321  16.948  1.0606 -2.1169  4.2573
  547TMC3    C1 8165   1.244   4.377  16.882 -0.2732 -0.6168  0.4300
  547TMC3    C2 8166   1.150   4.442  16.805  0.3951 -0.1457  1.3537
  547TMC3    C3 8167   1.085   4.351  16.721 -0.1779  0.0853  0.2936
  547TMC3    C4 8168   1.282   4.246  16.879 -0.2367  0.6396  0.4058
  547TMC3    C5 8169   1.200   4.162  16.810  0.0106  0.8742  0.4517
  547TMC3    C6 8170   1.097   4.214  16.730  0.5059 -0.3354 -0.3891
  547TMC3     C 8171   1.330   4.467  16.962  0.4805 -0.4439 -0.1588
  547TMC3     O 8172   1.300   4.585  16.959  0.3281 -0.2049 -0.7691
  547TMC3     H 8173   1.115   4.544  16.813 -0.7445 -0.2504 -2.4887
  547TMC3    H1 8174   1.366   4.195  16.925 -0.1194  2.4312  2.1725
  547TMC3    H2 8175   1.028   4.145  16.683  0.4201 -0.5779  0.0853
  547TMC3    C7 8176   1.181   4.039  16.892 -0.4612  0.3945  0.0002
  547TMC3    C8 8177   0.983   4.413  16.640 -0.4794 -0.1544  0.3831
  547TMC3    O1 8178   1.234   4.023  17.001 -0.3671 -0.2160 -0.7014
  547TMC3    O2 8179   0.977   4.537  16.624 -0.3894 -0.4178 -0.1022
  548MPD2     C 8180   1.758   0.459  12.896 -0.5547  0.1294  0.1350
  548MPD2    C1 8181   1.702   0.369  12.809  0.0901  0.1413  0.1187
  548MPD2    C2 8182   1.785   0.288  12.732  0.0699  0.1455  0.3937
  548MPD2    C3 8183   1.925   0.296  12.749  0.4526 -0.2351  0.6709
  548MPD2    C4 8184   1.974   0.385  12.849 -0.4182  0.3009  0.8991
  548MPD2    C5 8185   1.887   0.471  12.920 -0.0202  0.2814  0.1492
  548MPD2     H 8186   1.736   0.214  12.669 -1.9167  1.3089  0.5802
  548MPD2    H1 8187   2.081   0.393  12.867 -0.4766  0.8279  1.0117
  548MPD2    H2 8188   1.687   0.524  12.946 -0.9237  0.0972 -0.3513
  548MPD2    H3 8189   1.930   0.542  12.990  0.0937 -0.5215  0.8877
  548MPD2     N 8190   2.008   0.219  12.665  0.1448 -0.4931  0.6836
  548MPD2    H5 8191   1.970   0.152  12.598 -0.5708  0.9116 -0.3205
  548MPD2    N1 8192   1.565   0.375  12.789 -0.2604 -0.5608  0.1612
  548MPD2    H7 8193   1.516   0.453  12.832  0.5700  0.5753 -1.0023
  549TMC3    C1 8194   1.347   0.299  12.760  0.2025  0.3516 -0.5773
  549TMC3    C2 8195   1.310   0.411  12.688 -0.0179 -0.1745 -0.5732
  549TMC3    C3 8196   1.185   0.414  12.635 -0.0538  0.0194  0.8078
  549TMC3    C4 8197   1.252   0.202  12.786  0.7410 -0.2744 -0.2234
  549TMC3    C5 8198   1.127   0.225  12.763  0.5142 -0.3725  0.2252
  549TMC3    C6 8199   1.089   0.323  12.679 -0.0416 -0.5057  0.4625
  549TMC3     C 8200   1.486   0.264  12.759  0.1483  0.4901  0.1317
  549TMC3     O 8201   1.523   0.148  12.734 -0.0299 -0.5166  0.4350
  549TMC3     H 8202   1.385   0.489  12.685  0.3243 -0.4246  1.2959
  549TMC3    H1 8203   1.284   0.120  12.849 -0.1248 -1.3521 -1.1779
  549TMC3    H2 8204   0.987   0.324  12.641  0.1465  0.9450 -0.0271
  549TMC3    C7 8205   1.036   0.109  12.777  0.1051 -0.3538  0.3973
  549TMC3    C8 8206   1.139   0.501  12.532  0.2107  0.4357 -0.2867
  549TMC3    O1 8207   0.916   0.130  12.759 -0.6040  0.4526 -0.0018
  549TMC3    O2 8208   1.024   0.491  12.485  0.1779  0.4975  0.8667
  550TMC3    C1 8209   0.567   2.695  12.584 -0.8167 -0.4214  0.0008
  550TMC3    C2 8210   0.616   2.788  12.680  0.3311  0.3662 -0.5483
  550TMC3    C3 8211   0.532   2.884  12.730 -0.5762  1.2135  0.4461
  550TMC3    C4 8212   0.433   2.695  12.544  0.0259  0.2066 -0.1351
  550TMC3    C5 8213   0.355   2.782  12.618 -0.2729  0.3067 -0.1654
  550TMC3    C6 8214   0.400   2.873  12.706 -0.3733  0.3680 -0.8601
  550TMC3     C 8215   0.658   2.614  12.507 -1.3035  0.0361  0.3188
  550TMC3     O 8216   0.743   2.543  12.563 -0.9438 -0.3638  0.0478
  550TMC3     H 8217   0.720   2.792  12.711  0.6724 -1.7063 -1.3776
  550TMC3    H1 8218   0.395   2.619  12.476 -0.0883 -0.6397  0.8670
  550TMC3    H2 8219   0.325   2.947  12.732  0.6909  0.9615  0.5140
  550TMC3    C7 8220   0.234   2.822  12.551 -0.2287  0.1501 -0.2109
  550TMC3    C8 8221   0.580   2.990  12.810 -0.2415 -0.0163  0.0665
  550TMC3    O1 8222   0.141   2.871  12.613  0.1007  0.1977 -0.3559
  550TMC3    O2 8223   0.673   2.970  12.886  0.6806 -0.3525  0.0678
  551TMC3    C1 8224   2.540   1.145  13.551 -0.0706  0.1098 -0.4254
  551TMC3    C2 8225   2.578   1.035  13.618  0.4249  0.5264  0.6414
  551TMC3    C3 8226   2.600   1.028  13.754  0.2956 -1.0761 -0.1203
  551TMC3    C4 8227   2.521   1.266  13.615  0.1209  0.2944 -0.1485
  551TMC3    C5 8228   2.533   1.263  13.753  0.1989 -0.3297 -0.3128
  551TMC3    C6 8229   2.559   1.138  13.821 -0.1963  0.4322 -0.2156
  551TMC3     C 8230   2.500   1.134  13.411 -0.7167 -0.2928  0.5871
  551TMC3     O 8231   2.477   1.017  13.369 -0.3836 -0.1148 -0.0564
  551TMC3     H 8232   2.624   0.951  13.567 -0.1531  0.4870  0.1872
  551TMC3    H1 8233   2.498   1.363  13.573 -0.8369 -0.2906 -0.9932
  551TMC3    H2 8234   2.573   1.141  13.928  0.2468  0.2336 -0.2672
  551TMC3    C7 8235   2.601   1.371  13.821  0.2713  0.5745  0.3050
  551TMC3    C8 8236   2.734   1.003  13.796 -0.5815 -0.7394  0.3654
  551TMC3    O1 8237   2.604   1.361  13.941  0.4183  0.2881  0.2918
  551TMC3    O2 8238   2.756   0.989  13.917 -0.1581  0.0961 -0.3830
  552MPD2     C 8239   4.633   2.511  14.620 -0.4499  0.0292 -0.8186
  552MPD2    C1 8240   0.022   2.507  14.567 -0.4309 -0.5466 -0.0190
  552MPD2    C2 8241   0.130   2.521  14.649 -0.0655  0.3293 -0.2566
  552MPD2    C3 8242   0.115   2.522  14.788 -0.2304  0.9252  0.0366
  552MPD2    C4 8243   4.717   2.519  14.836 -0.1062 -0.0617 -0.1472
  552MPD2    C5 8244   4.615   2.522  14.752  0.2340 -0.0178 -0.0922
  552MPD2     H 8245   0.229   2.530  14.608 -0.1685 -1.0048 -0.7893
  552MPD2    H1 8246   4.692   2.541  14.939  0.1998 -1.5437  0.2431
  552MPD2    H2 8247   4.545   2.512  14.557 -1.4493 -0.6212  0.5782
  552MPD2    H3 8248   4.515   2.536  14.792 -0.3219 -1.6530 -0.9042
  552MPD2     N 8249   0.232   2.526  14.866 -0.9398 -0.0208 -0.1678
  552MPD2    H5 8250   0.321   2.561  14.832 -1.3794 -0.0247 -1.3092
  552MPD2    N1 8251   0.035   2.486  14.430 -0.3304 -0.3661 -0.3490
  552MPD2    H7 8252   4.686   2.499  14.374 -2.0223  2.4709  2.8548
  553TMC3    C1 8253   0.134   2.417  14.222  0.0188  0.7339  0.0791
  553TMC3    C2 8254   0.064   2.485  14.128 -0.5346 -0.6414 -0.2647
  553TMC3    C3 8255   0.034   2.430  14.011 -0.1594  0.4567 -0.1167
  553TMC3    C4 8256   0.183   2.294  14.193 -0.0951 -0.3051 -0.8177
  553TMC3    C5 8257   0.150   2.240  14.073  0.0361  0.3936 -0.2532
  553TMC3    C6 8258   0.079   2.307  13.974 -0.7248 -0.0603  0.1070
  553TMC3     C 8259   0.151   2.459  14.361 -0.1851  0.1509 -0.1044
  553TMC3     O 8260   0.262   2.428  14.402  0.0687  0.6832 -0.2521
  553TMC3     H 8261   0.043   2.590  14.146 -1.0489  0.0607 -4.9528
  553TMC3    H1 8262   0.257   2.244  14.254 -0.1224 -0.7214 -1.1239
  553TMC3    H2 8263   0.071   2.261  13.876  1.0922 -1.2063  0.4869
  553TMC3    C7 8264   0.217   2.141  14.007 -0.2655  0.1305  0.1626
  553TMC3    C8 8265   0.013   2.525  13.899  0.2117 -0.0941  0.4999
  553TMC3    O1 8266   0.151   2.065  13.941  0.2826  0.0463  0.7060
  553TMC3    O2 8267   4.710   2.637  13.928 -0.1391  0.4694  0.2838
  554TMC3    C1 8268   1.283   1.952  11.379 -0.4255  0.0264  0.3352
  554TMC3    C2 8269   1.249   2.013  11.262  1.4663 -0.3176 -0.2933
  554TMC3    C3 8270   1.316   2.128  11.227 -0.0648  1.0433  0.6246
  554TMC3    C4 8271   1.371   2.014  11.466 -0.3874 -0.1933 -0.7220
  554TMC3    C5 8272   1.436   2.124  11.424 -0.8387  0.1102 -0.6729
  554TMC3    C6 8273   1.418   2.181  11.305 -0.2529  0.0846 -0.4765
  554TMC3     C 8274   1.266   1.807  11.375 -0.6943  0.0612  0.0466
  554TMC3     O 8275   1.236   1.770  11.265  0.6288 -0.2032  0.8939
  554TMC3     H 8276   1.179   1.972  11.189 -0.4116  1.8584  0.2815
  554TMC3    H1 8277   1.405   1.950  11.547 -1.1047  1.5309  0.9257
  554TMC3    H2 8278   1.459   2.276  11.272 -3.2126  0.5213 -2.9373
  554TMC3    C7 8279   1.541   2.179  11.511 -0.0983  0.5902  0.3433
  554TMC3    C8 8280   1.305   2.170  11.089  1.0454  0.0428  0.0261
  554TMC3    O1 8281   1.537   2.157  11.629 -0.1969 -0.0998  0.0661
  554TMC3    O2 8282   1.405   2.205  11.029  0.7507  0.1667  0.0920
  555TMC3    C1 8283   0.588   2.021  15.650  1.1509 -0.8847  0.1204
  555TMC3    C2 8284   0.561   2.039  15.786  0.3844 -0.3007 -0.3518
  555TMC3    C3 8285   0.633   1.973  15.882 -0.0892  0.7783 -0.0870
  555TMC3    C4 8286   0.692   1.931  15.609  0.2102  0.1362  0.2921
  555TMC3    C5 8287   0.756   1.865  15.710 -0.1627 -0.5515 -0.0181
  555TMC3    C6 8288   0.731   1.889  15.843  0.2176  0.1295 -0.1493
  555TMC3     C 8289   0.504   2.087  15.551 -0.2238  0.4516 -0.7167
  555TMC3     O 8290   0.399   2.137  15.589  0.0426 -0.3884 -0.1661
  555TMC3     H 8291   0.485   2.114  15.808  1.0894  0.3994 -0.3191
  555TMC3    H1 8292   0.688   1.877  15.515 -1.0272 -0.0974  0.4795
  555TMC3    H2 8293   0.796   1.834  15.910  0.1684 -0.2832 -0.4377
  555TMC3    C7 8294   0.837   1.740  15.692  0.2677 -0.2016  0.2502
  555TMC3    C8 8295   0.622   2.023  16.018 -0.4133 -0.3078  0.0970
  555TMC3    O1 8296   0.833   1.648  15.769  0.1741 -0.2070  0.5516
  555TMC3    O2 8297   0.530   2.095  16.044 -0.5561 -0.2320 -0.3075
  556MPD2     C 8298   4.015   3.119  11.024 -0.0971  0.3214 -0.5196
  556MPD2    C1 8299   3.914   3.049  11.093 -0.8453 -0.6823  0.5532
  556MPD2    C2 8300   3.919   2.909  11.085 -0.5339  0.1692  0.3915
  556MPD2    C3 8301   4.022   2.842  11.023 -0.7403 -0.4921  0.4515
  556MPD2    C4 8302   4.113   2.923  10.959 -0.4653  0.4269  0.5686
  556MPD2    C5 8303   4.114   3.055  10.955 -0.0155  0.0972 -0.2810
  556MPD2     H 8304   3.842   2.849  11.131  0.2713  0.3468  1.9798
  556MPD2    H1 8305   4.197   2.875  10.909  0.3161  2.9599 -0.5277
  556MPD2    H2 8306   4.022   3.227  11.031 -0.1331  0.1717  2.1958
  556MPD2    H3 8307   4.183   3.115  10.897  0.1007 -0.7166 -0.9905
  556MPD2     N 8308   4.022   2.695  11.028  0.2354  0.4190  0.0799
  556MPD2    H5 8309   3.960   2.652  11.096  0.7012 -0.1424  0.1466
  556MPD2    N1 8310   3.807   3.108  11.168  0.0933  0.1015  1.1092
  556MPD2    H7 8311   3.734   3.047  11.202  0.8741 -2.4898 -1.8467
  557TMC3    C1 8312   4.088   2.474  10.997  0.2562 -0.2063  0.8633
  557TMC3    C2 8313   4.137   2.391  10.899  0.4982 -0.3135 -0.3476
  557TMC3    C3 8314   4.105   2.256  10.900  0.4452  0.4205 -0.6374
  557TMC3    C4 8315   4.013   2.425  11.097  0.1315  0.2588  0.5206
  557TMC3    C5 8316   3.995   2.288  11.104  0.1708  0.1197 -0.0125
  557TMC3    C6 8317   4.027   2.208  10.999  0.0956 -0.3491  0.0374
  557TMC3     C 8318   4.113   2.612  10.968  0.1080  0.4055 -0.2035
  557TMC3     O 8319   4.215   2.647  10.906  0.1980  0.4734 -0.3419
  557TMC3     H 8320   4.179   2.442  10.813  0.0369  0.9610  0.1940
  557TMC3    H1 8321   3.978   2.488  11.178 -0.8872 -2.6581  2.3510
  557TMC3    H2 8322   3.983   2.111  10.985 -2.0814  0.7791 -0.9546
  557TMC3    C7 8323   3.867   2.259  11.162  0.2883  0.9807 -0.9133
  557TMC3    C8 8324   4.144   2.179  10.773 -0.5798 -0.3979 -0.8931
  557TMC3    O1 8325   3.766   2.311  11.117 -0.2465 -0.2031 -0.0850
  557TMC3    O2 8326   4.194   2.245  10.681 -0.0011  1.1220 -0.1647
  558TMC3    C1 8327   1.069   1.123  10.169  0.3266 -0.0831  0.0763
  558TMC3    C2 8328   0.952   1.109  10.239 -0.1049  0.5748  0.5587
  558TMC3    C3 8329   0.840   1.165  10.187  0.1397 -0.1008  0.1196
  558TMC3    C4 8330   1.082   1.187  10.049 -0.4573 -0.1107 -0.1181
  558TMC3    C5 8331   0.959   1.246  10.000 -0.6396 -0.1072 -1.0117
  558TMC3    C6 8332   0.838   1.234  10.067  1.0857 -0.1638 -0.3504
  558TMC3     C 8333   1.191   1.082  10.234 -0.1882  0.2035  0.2222
  558TMC3     O 8334   1.281   1.042  10.161 -0.1676 -0.1413  0.1758
  558TMC3     H 8335   0.938   1.035  10.317 -1.2970  0.7605  0.5103
  558TMC3    H1 8336   1.179   1.201  10.003 -0.6841 -0.7210 -0.7951
  558TMC3    H2 8337   0.741   1.269  10.035  2.8095  3.8103 -1.3081
  558TMC3    C7 8338   0.971   1.306   9.869  0.3312  0.2766  0.6335
  558TMC3    C8 8339   0.720   1.162  10.261  0.5381 -0.5947 -0.8400
  558TMC3    O1 8340   1.080   1.330   9.823  0.2178  0.3275 -0.0709
  558TMC3    O2 8341   0.615   1.163  10.197  0.2050 -0.4822 -0.0626
  559MPD2     C 8342   1.359   1.943  10.551  0.8627 -0.1297 -0.2781
  559MPD2    C1 8343   1.294   1.817  10.543  0.3464  0.1020 -0.2595
  559MPD2    C2 8344   1.361   1.705  10.587  0.0532  0.5780  0.0753
  559MPD2    C3 8345   1.488   1.721  10.651 -0.2736 -0.5681  0.6813
  559MPD2    C4 8346   1.555   1.837  10.648  0.0607  0.5926 -0.0731
  559MPD2    C5 8347   1.484   1.947  10.604  0.0171  0.0267  0.3534
  559MPD2     H 8348   1.317   1.607  10.592 -0.6623  0.8355 -1.0966
  559MPD2    H1 8349   1.653   1.858  10.688  0.9409  0.4958 -2.1592
  559MPD2    H2 8350   1.326   2.035  10.504  0.5198  0.3744  0.9565
  559MPD2    H3 8351   1.540   2.039  10.612 -0.9937  0.7914 -1.3379
  559MPD2     N 8352   1.566   1.606  10.677  0.2943 -0.8039 -0.0476
  559MPD2    H5 8353   1.511   1.522  10.690  0.2864 -0.5806  1.3619
  559MPD2    N1 8354   1.169   1.814  10.480 -0.3797  0.0689 -0.4456
  559MPD2    H7 8355   1.134   1.907  10.458  1.1332  0.8945  0.6598
  560TMC3    C1 8356   1.735   1.472  10.778 -0.1611  0.0036  0.2847
  560TMC3    C2 8357   1.646   1.373  10.785 -0.2044 -0.1085 -0.1729
  560TMC3    C3 8358   1.687   1.258  10.848  0.0737  0.4413  0.2025
  560TMC3    C4 8359   1.856   1.463  10.836 -0.2047  0.2620  0.1624
  560TMC3    C5 8360   1.898   1.344  10.891 -1.3591  0.2890 -0.3472
  560TMC3    C6 8361   1.811   1.236  10.900  0.3750 -0.0747  0.5745
  560TMC3     C 8362   1.698   1.601  10.718 -0.0554  0.0341 -0.2199
  560TMC3     O 8363   1.785   1.688  10.712 -0.3787  0.0196  0.3399
  560TMC3     H 8364   1.544   1.378  10.746 -0.3645  1.9549  0.5247
  560TMC3    H1 8365   1.916   1.553  10.839 -1.6224  1.3262 -2.9433
  560TMC3    H2 8366   1.823   1.152  10.969  1.1973 -1.2210 -0.9705
  560TMC3    C7 8367   2.004   1.342  10.988  0.4570 -0.1932 -0.0730
  560TMC3    C8 8368   1.577   1.157  10.863 -0.3415 -0.1219 -0.2176
  560TMC3    O1 8369   2.023   1.252  11.066 -0.3810  0.0615  0.8820
  560TMC3    O2 8370   1.463   1.184  10.829  0.2243 -0.1108 -0.0549
  561TMC3    C1 8371   4.033   0.805  11.034 -0.3961  0.4719 -0.0681
  561TMC3    C2 8372   4.030   0.712  11.144 -0.1808 -0.4073  0.1234
  561TMC3    C3 8373   4.025   0.757  11.273 -0.4214 -0.8560  0.3257
  561TMC3    C4 8374   4.037   0.938  11.062  0.6813  0.0388 -0.5431
  561TMC3    C5 8375   4.030   0.972  11.197 -0.2681 -0.5876  0.5362
  561TMC3    C6 8376   4.028   0.889  11.309  0.4825 -0.5273  0.4065
  561TMC3     C 8377   4.001   0.744  10.903 -0.1269  0.5033 -0.6128
  561TMC3     O 8378   3.985   0.622  10.898 -0.2421 -0.1303 -0.3046
  561TMC3     H 8379   4.014   0.609  11.116  1.3530  0.3327 -3.5350
  561TMC3    H1 8380   4.063   1.002  10.979 -0.0457  1.0839  0.0287
  561TMC3    H2 8381   4.044   0.933  11.407  1.7968  1.3709 -0.6539
  561TMC3    C7 8382   4.037   1.104  11.232 -0.7629  0.0014 -0.0757
  561TMC3    C8 8383   3.973   0.662  11.373 -0.7557 -0.4465 -0.8437
  561TMC3    O1 8384   4.003   1.135  11.346 -0.1406 -0.0696  0.0940
  561TMC3    O2 8385   3.968   0.545  11.340 -0.1888 -0.0577  0.0267
  562TMC3    C1 8386   0.735   1.695  16.967  0.5343  0.0688 -0.0833
  562TMC3    C2 8387   0.631   1.777  16.958 -0.2433 -0.0673  0.4082
  562TMC3    C3 8388   0.546   1.757  16.863  0.1401 -0.2913 -0.6478
  562TMC3    C4 8389   0.758   1.600  16.870  0.0777  0.5917  0.3507
  562TMC3    C5 8390   0.661   1.570  16.774  0.8094  0.0279 -0.6683
  562TMC3    C6 8391   0.555   1.661  16.761  0.3823  0.0235  0.4746
  562TMC3     C 8392   0.835   1.732  17.065 -0.0902  0.4783 -0.2361
  562TMC3     O 8393   0.944   1.681  17.047  0.2005 -0.1718  0.6715
  562TMC3     H 8394   0.635   1.872  17.009 -1.3115  0.3413 -0.2683
  562TMC3    H1 8395   0.841   1.531  16.881  0.0554  0.5675  0.3650
  562TMC3    H2 8396   0.485   1.658  16.678 -0.6814 -1.2951  1.4105
  562TMC3    C7 8397   0.701   1.494  16.659  0.3935  0.1828  0.0243
  562TMC3    C8 8398   0.424   1.834  16.882  0.8262 -0.2873  0.5629
  562TMC3    O1 8399   0.672   1.546  16.550 -0.4346  0.3277  0.5653
  562TMC3    O2 8400   0.401   1.882  16.993  0.4642 -0.9648  0.0674
  563MPD2     C 8401   3.283   3.069  15.718  0.8928 -1.1958 -0.2004
  563MPD2    C1 8402   3.237   3.109  15.834  0.3249  0.2386 -0.1851
  563MPD2    C2 8403   3.331   3.101  15.933  0.0367 -0.1148 -0.3206
  563MPD2    C3 8404   3.458   3.061  15.916  0.0824  0.2684  0.0856
  563MPD2    C4 8405   3.510   3.028  15.793 -0.2088 -0.5952  0.6335
  563MPD2    C5 8406   3.417   3.037  15.695  0.5591 -0.6243 -0.0325
  563MPD2     H 8407   3.303   3.127  16.035 -2.2695  1.0846 -1.2582
  563MPD2    H1 8408   3.615   3.010  15.774 -0.7264 -1.7396 -1.1397
  563MPD2    H2 8409   3.212   3.066  15.636  1.8889 -0.4603 -1.0928
  563MPD2    H3 8410   3.451   3.010  15.595  0.4563  0.0542 -0.2551
  563MPD2     N 8411   3.538   3.054  16.032 -0.0101  0.4589 -0.1314
  563MPD2    H5 8412   3.487   3.077  16.117  0.7928  1.6086  0.0357
  563MPD2    N1 8413   3.106   3.146  15.850 -0.2101 -0.4013 -0.3464
  563MPD2    H7 8414   3.041   3.104  15.784 -0.3132  1.5886 -1.5244
  564TMC3    C1 8415   2.927   3.193  15.980 -0.3287  0.0998  0.3750
  564TMC3    C2 8416   2.853   3.114  15.892 -0.2130  0.0666 -0.5215
  564TMC3    C3 8417   2.761   3.037  15.952 -0.7754  0.2296 -0.4705
  564TMC3    C4 8418   2.913   3.181  16.116  1.2103 -0.1322  0.4852
  564TMC3    C5 8419   2.829   3.085  16.167  0.1015 -0.2662 -0.2205
  564TMC3    C6 8420   2.752   3.010  16.085  0.6353  0.2569  0.4348
  564TMC3     C 8421   3.057   3.218  15.951 -0.3054  0.6699 -0.0137
  564TMC3     O 8422   3.117   3.300  16.022  0.0659 -0.8840  0.3843
  564TMC3     H 8423   2.867   3.133  15.786  2.7867  1.1150  0.0748
  564TMC3    H1 8424   2.973   3.239  16.186  2.1765 -2.3152  1.4713
  564TMC3    H2 8425   2.674   2.946  16.126  0.2809  0.4737  0.0979
  564TMC3    C7 8426   2.868   3.030  16.294 -0.4772 -0.2790 -0.9219
  564TMC3    C8 8427   2.656   2.989  15.858 -1.0593 -0.1990  0.0879
  564TMC3    O1 8428   2.982   3.055  16.331 -0.1844  0.3347 -0.2471
  564TMC3    O2 8429   2.632   3.050  15.754  0.1876 -0.5368  0.3477
  565TMC3    C1 8430   2.957   3.629  10.079 -0.3760  0.5024 -0.0150
  565TMC3    C2 8431   2.998   3.687  10.194  0.8653  1.1010  0.6364
  565TMC3    C3 8432   3.048   3.596  10.282 -0.2835 -0.4458  0.3309
  565TMC3    C4 8433   2.947   3.491  10.060 -0.0680 -0.2875 -0.2607
  565TMC3    C5 8434   2.992   3.411  10.157  1.0342  0.9482 -0.0846
  565TMC3    C6 8435   3.038   3.459  10.275 -0.5890  0.0445  0.0478
  565TMC3     C 8436   2.914   3.715   9.970 -0.2722  0.1673  0.5267
  565TMC3     O 8437   2.828   3.667   9.891 -0.2477 -0.3196  0.5303
  565TMC3     H 8438   3.004   3.794  10.206  1.3341  1.1694 -0.2272
  565TMC3    H1 8439   2.896   3.457   9.970 -0.8667 -0.1028  0.1207
  565TMC3    H2 8440   3.098   3.401  10.344  1.0059  1.9040  0.2229
  565TMC3    C7 8441   2.945   3.272  10.146 -0.1415 -0.0070 -0.9230
  565TMC3    C8 8442   3.092   3.644  10.415 -0.1063 -0.0756  0.2134
  565TMC3    O1 8443   2.936   3.224  10.038  0.7400  0.2531  0.0935
  565TMC3    O2 8444   3.068   3.563  10.507  0.3588  0.3798 -0.2051
  566MPD2     C 8445   0.527   1.351  14.415  0.0704 -1.1182 -0.0476
  566MPD2    C1 8446   0.624   1.338  14.320 -0.4697 -0.5063 -0.2595
  566MPD2    C2 8447   0.598   1.269  14.206  0.0467  0.0704 -0.2487
  566MPD2    C3 8448   0.473   1.233  14.171 -0.2080 -0.1694 -0.1411
  566MPD2    C4 8449   0.376   1.240  14.261  1.0564 -0.2332 -0.2696
  566MPD2    C5 8450   0.405   1.300  14.381  0.4059 -0.1653  0.4591
  566MPD2     H 8451   0.671   1.267  14.126 -0.7896  1.0477 -1.0431
  566MPD2    H1 8452   0.277   1.198  14.244  1.5567 -2.7925  3.0619
  566MPD2    H2 8453   0.535   1.400  14.511  0.0668 -1.4952  0.1445
  566MPD2    H3 8454   0.322   1.314  14.449  0.5592  1.2605  0.3427
  566MPD2     N 8455   0.455   1.196  14.033 -0.0718 -0.2777 -0.2327
  566MPD2    H5 8456   0.535   1.191  13.971  0.6645 -1.1242  0.7771
  566MPD2    N1 8457   0.747   1.397  14.357  0.4391  0.2089  0.4190
  566MPD2    H7 8458   0.756   1.451  14.443  0.1156  0.0097  0.5788
  567TMC3    C1 8459   0.965   1.500  14.328 -0.3018  0.0772  0.0110
  567TMC3    C2 8460   1.042   1.550  14.229  0.3127 -0.2328 -0.0709
  567TMC3    C3 8461   1.103   1.667  14.247  0.4215  0.4021  0.3712
  567TMC3    C4 8462   0.947   1.572  14.441 -0.1981 -0.6869 -0.0133
  567TMC3    C5 8463   1.015   1.691  14.461  0.1464  1.0287  0.1677
  567TMC3    C6 8464   1.093   1.738  14.363 -0.7920 -0.1394  0.6608
  567TMC3     C 8465   0.856   1.417  14.275 -0.1443 -0.5995  0.0831
  567TMC3     O 8466   0.851   1.409  14.152 -0.2328  0.1884 -0.2539
  567TMC3     H 8467   1.049   1.496  14.135 -0.9021 -1.5658  0.5995
  567TMC3    H1 8468   0.903   1.525  14.528  1.2711 -0.5036  0.8233
  567TMC3    H2 8469   1.149   1.830  14.375 -0.4655 -0.6637  3.2938
  567TMC3    C7 8470   1.017   1.750  14.595  0.3369 -0.4903  0.8446
  567TMC3    C8 8471   1.111   1.730  14.118 -0.1212 -0.3317 -0.4432
  567TMC3    O1 8472   1.120   1.806  14.631  0.0149  0.7643 -0.4452
  567TMC3    O2 8473   1.023   1.706  14.034 -0.0823  0.2119 -0.4581
  568MPD2     C 8474   2.215   1.813  16.517  0.2610 -0.8478 -1.0208
  568MPD2    C1 8475   2.296   1.908  16.571 -0.5733  0.2871 -0.4723
  568MPD2    C2 8476   2.263   2.045  16.566  0.1962  0.0300  0.5077
  568MPD2    C3 8477   2.147   2.084  16.498  0.7204 -1.1666 -0.3079
  568MPD2    C4 8478   2.073   1.987  16.436  0.2717  0.4030 -0.1349
  568MPD2    C5 8479   2.109   1.855  16.444 -0.0547 -0.7055 -0.2963
  568MPD2     H 8480   2.331   2.120  16.605 -1.0814  0.1459  2.5106
  568MPD2    H1 8481   1.986   2.026  16.384  0.4755 -0.8782 -1.4417
  568MPD2    H2 8482   2.243   1.709  16.531 -2.2015 -1.2453  0.9462
  568MPD2    H3 8483   2.037   1.783  16.406 -0.1015  0.5335 -2.5859
  568MPD2     N 8484   2.127   2.221  16.492  0.3302 -0.2791  0.2723
  568MPD2    H5 8485   2.197   2.276  16.540  1.6488 -0.8900 -0.9558
  568MPD2    N1 8486   2.415   1.858  16.633  0.2122 -0.3705  0.1014
  568MPD2    H7 8487   2.433   1.758  16.631  0.2174 -0.3088 -2.3207
  569TMC3    C1 8488   2.079   2.432  16.431  0.1226 -0.9536  0.6608
  569TMC3    C2 8489   2.131   2.457  16.557 -0.2941 -0.0571  0.3609
  569TMC3    C3 8490   2.223   2.556  16.569 -0.6911 -0.5100 -0.4331
  569TMC3    C4 8491   2.129   2.492  16.319  1.1440 -0.2556  0.5024
  569TMC3    C5 8492   2.223   2.588  16.336 -0.6554  0.4254  0.7598
  569TMC3    C6 8493   2.272   2.617  16.462 -0.3157  0.2308 -0.3315
  569TMC3     C 8494   2.045   2.294  16.407  0.1792  0.3794 -0.3462
  569TMC3     O 8495   1.978   2.277  16.304 -0.6951  0.3008 -0.3536
  569TMC3     H 8496   2.104   2.401  16.646 -1.3814 -3.0378 -1.8611
  569TMC3    H1 8497   2.098   2.462  16.219 -0.1127  0.4161  0.6936
  569TMC3    H2 8498   2.350   2.690  16.477 -1.0518  0.8462  0.4326
  569TMC3    C7 8499   2.304   2.617  16.219 -0.4590  0.3929 -0.2084
  569TMC3    C8 8500   2.314   2.540  16.681  0.3056 -0.2696  0.2074
  569TMC3    O1 8501   2.412   2.649  16.253  0.5347 -0.2943 -0.2089
  569TMC3    O2 8502   2.310   2.426  16.722 -0.0859  0.3933  0.1984
  570TMC3    C1 8503   2.012   0.785  16.210 -0.5235 -0.2189 -0.5101
  570TMC3    C2 8504   2.049   0.880  16.111 -0.0943  0.3619 -0.7385
  570TMC3    C3 8505   2.116   0.991  16.156 -0.5892  0.3511 -0.2581
  570TMC3    C4 8506   2.047   0.795  16.342  0.3159  1.2847  0.2046
  570TMC3    C5 8507   2.125   0.902  16.375  0.8035  0.1812 -0.1454
  570TMC3    C6 8508   2.157   1.000  16.281 -0.5243  0.2112 -0.3182
  570TMC3     C 8509   1.937   0.677  16.152  0.8826  0.5121 -0.5037
  570TMC3     O 8510   1.876   0.706  16.051  0.1832  0.2882 -0.0611
  570TMC3     H 8511   2.028   0.873  16.005  0.1476 -1.8831 -0.6444
  570TMC3    H1 8512   2.029   0.713  16.412 -0.2255  2.6283  1.6288
  570TMC3    H2 8513   2.221   1.083  16.310  0.6182 -0.9974  0.6081
  570TMC3    C7 8514   2.169   0.902  16.513  0.2430 -0.8929  0.0153
  570TMC3    C8 8515   2.199   1.054  16.047  0.1804  0.0098  0.7513
  570TMC3    O1 8516   2.146   0.800  16.577 -0.4681  0.4440 -0.0865
  570TMC3    O2 8517   2.309   1.089  16.082  0.4331  0.5776 -0.0934
  571MPD2     C 8518   4.017   2.354   1.077 -0.6336 -0.4265 -0.6037
  571MPD2    C1 8519   4.062   2.321   0.945  0.5290 -0.8851 -0.5561
  571MPD2    C2 8520   4.181   2.393   0.900 -0.6678 -0.5870  0.2202
  571MPD2    C3 8521   4.234   2.496   0.966 -0.0046  0.2579  1.0589
  571MPD2    C4 8522   4.185   2.525   1.095 -0.6476  0.1558  0.0745
  571MPD2    C5 8523   4.082   2.453   1.150  0.6130  0.0410  0.0250
  571MPD2     H 8524   4.223   2.368   0.803 -4.9358 -1.7423 -1.3525
  571MPD2    H1 8525   4.241   2.593   1.158 -1.1067 -0.6906  1.4018
  571MPD2    H2 8526   3.940   2.296   1.126  2.0340 -2.4999  1.1384
  571MPD2    H3 8527   4.057   2.477   1.253 -0.4065  1.2443 -0.4948
  571MPD2     N 8528   4.335   2.584   0.910 -0.3645 -0.7388 -0.3429
  571MPD2    H5 8529   4.358   2.665   0.966  0.1171 -0.9554 -0.2266
  571MPD2    N1 8530   3.988   2.231   0.864 -0.2178 -0.7468  0.3595
  571MPD2    H7 8531   3.907   2.188   0.907 -0.4527 -0.6064  0.0639
  572TMC3    C1 8532   4.521   2.644   0.771  0.6441  0.4735 -0.0063
  572TMC3    C2 8533   4.590   2.689   0.877  0.1921  0.8607  0.3113
  572TMC3    C3 8534   4.718   2.726   0.852 -0.2319  0.0369 -0.7868
  572TMC3    C4 8535   4.554   2.666   0.645 -0.2223 -0.5206  0.1910
  572TMC3    C5 8536   4.681   2.705   0.626  0.5648 -0.3901  0.1725
  572TMC3    C6 8537   0.032   2.741   0.726  0.1795 -0.5981  0.3672
  572TMC3     C 8538   4.405   2.561   0.791 -0.4351 -0.2749 -0.5795
  572TMC3     O 8539   4.374   2.489   0.696 -0.8238 -0.3647 -0.2193
  572TMC3     H 8540   4.568   2.658   0.978 -0.6386 -0.0108 -0.1434
  572TMC3    H1 8541   4.492   2.644   0.559 -3.7469  1.6144  2.1505
  572TMC3    H2 8542   0.131   2.780   0.704 -0.1431 -0.2031 -0.3716
  572TMC3    C7 8543   4.715   2.762   0.495 -0.8803  0.5025  0.5121
  572TMC3    C8 8544   0.045   2.795   0.962  0.3392  0.5973 -0.6042
  572TMC3    O1 8545   4.628   2.832   0.442 -0.3939  0.3211 -0.0187
  572TMC3    O2 8546   0.104   2.898   0.932  0.2784  0.2889 -0.0824
  573MPD2     C 8547   0.627   3.109   0.485 -0.0004  0.5824 -0.4803
  573MPD2    C1 8548   0.752   3.158   0.500 -0.7497 -0.8092  0.4883
  573MPD2    C2 8549   0.824   3.187   0.381  0.4850 -0.7648  0.8591
  573MPD2    C3 8550   0.762   3.170   0.253 -0.1583 -0.3651  0.1164
  573MPD2    C4 8551   0.638   3.110   0.242 -0.0468  0.2471  0.1582
  573MPD2    C5 8552   0.578   3.084   0.362  0.2357  0.4678  0.3739
  573MPD2     H 8553   0.923   3.230   0.387  0.2672 -0.3367  1.4292
  573MPD2    H1 8554   0.578   3.102   0.152 -0.9905  5.0511  0.3593
  573MPD2    H2 8555   0.572   3.099   0.578 -1.1394  1.4072 -1.0637
  573MPD2    H3 8556   0.476   3.048   0.357  1.3454 -2.7465  0.8126
  573MPD2     N 8557   0.823   3.219   0.136  0.2798  0.8126  0.3878
  573MPD2    H5 8558   0.765   3.220   0.053  0.7370 -2.5635  0.0021
  573MPD2    N1 8559   0.787   3.205   0.631 -0.2872 -0.2991 -0.2279
  573MPD2    H7 8560   0.719   3.205   0.706 -0.4962 -0.7424 -0.4135
  574TMC3    C1 8561   0.994   3.295   0.010 -0.2248 -0.0225 -0.4137
  574TMC3    C2 8562   0.941   3.418  17.738 -0.4254 -0.4233  0.0422
  574TMC3    C3 8563   1.024   3.520  17.705  0.1803 -0.4162  0.0939
  574TMC3    C4 8564   1.124   3.268  17.709 -0.3155 -0.4576  0.4874
  574TMC3    C5 8565   1.204   3.374  17.682 -0.2286  0.1529 -0.4428
  574TMC3    C6 8566   1.155   3.501  17.669  0.0571 -0.3965 -0.5550
  574TMC3     C 8567   0.954   3.220   0.127  0.5072  0.1386 -0.4374
  574TMC3     O 8568   1.049   3.171   0.189  0.5147 -0.0205  0.0078
  574TMC3     H 8569   0.847   3.443   0.047 -0.1671 -0.4336  0.5420
  574TMC3    H1 8570   1.161   3.169  17.729 -0.3330 -0.1139  2.2929
  574TMC3    H2 8571   1.210   3.585  17.628 -0.4664  0.6301  0.8617
  574TMC3    C7 8572   1.351   3.351  17.664  0.2034  0.2365 -0.1044
  574TMC3    C8 8573   0.985   3.642   0.021 -0.1408  0.7293  0.3265
  574TMC3    O1 8574   1.380   3.239  17.626 -0.1524 -0.2456  0.1583
  574TMC3    O2 8575   0.944   3.637   0.135  0.2291 -0.3880  0.2007
  575TMC3    C1 8576   3.221   3.711  11.273  0.5224 -0.5275  0.4083
  575TMC3    C2 8577   3.201   3.587  11.326  0.4542 -0.5152  0.0719
  575TMC3    C3 8578   3.207   3.486  11.233  0.1308  0.0612  0.0374
  575TMC3    C4 8579   3.263   3.738  11.144  0.8054  0.8488  0.3744
  575TMC3    C5 8580   3.266   3.633  11.061  0.1363  0.3139  0.6234
  575TMC3    C6 8581   3.237   3.506  11.101  0.1703  0.4628  0.0671
  575TMC3     C 8582   3.182   3.830  11.349 -0.1292 -0.4146  0.4614
  575TMC3     O 8583   3.145   3.926  11.281 -0.2843 -0.6066  0.3330
  575TMC3     H 8584   3.166   3.574  11.428  1.1840 -0.6859  0.3016
  575TMC3    H1 8585   3.273   3.841  11.112  1.1814  1.0549  1.1572
  575TMC3    H2 8586   3.242   3.434  11.020  1.3403  0.8730 -0.2204
  575TMC3    C7 8587   3.256   3.660  10.921 -0.3983  0.9987  0.2705
  575TMC3    C8 8588   3.185   3.352  11.285 -0.6313 -0.0084  0.7105
  575TMC3    O1 8589   3.201   3.576  10.854  0.4420 -0.2699 -0.3637
  575TMC3    O2 8590   3.220   3.338  11.405 -0.0674  0.4903  0.3091
  576MPD2     C 8591   3.423   0.964  12.708 -0.1430 -0.2537 -0.3316
  576MPD2    C1 8592   3.399   1.062  12.612  0.1936  0.0197  0.0324
  576MPD2    C2 8593   3.354   1.184  12.645 -0.5547  0.2049 -0.7676
  576MPD2    C3 8594   3.325   1.216  12.774 -0.0051 -0.0270 -0.4435
  576MPD2    C4 8595   3.344   1.121  12.871  0.1766 -0.0175  0.2553
  576MPD2    C5 8596   3.389   0.998  12.835  0.2203 -0.2025 -0.6392
  576MPD2     H 8597   3.333   1.260  12.571 -0.3551  0.4354 -0.5901
  576MPD2    H1 8598   3.322   1.141  12.975  0.1279 -0.2974  0.2992
  576MPD2    H2 8599   3.496   0.885  12.692  1.9733  1.8110 -0.8887
  576MPD2    H3 8600   3.408   0.932  12.919  1.8707  1.4857  0.3019
  576MPD2     N 8601   3.263   1.341  12.801  0.0769  0.2281  0.5060
  576MPD2    H5 8602   3.236   1.405  12.728  1.2275 -0.5569 -0.5994
  576MPD2    N1 8603   3.440   1.054  12.482  0.7325  0.3446  0.2474
  576MPD2    H7 8604   3.436   1.139  12.428  0.4088 -0.8014 -1.5441
  577TMC3    C1 8605   3.526   0.977  12.292  0.2244  0.1662 -0.1435
  577TMC3    C2 8606   3.525   0.862  12.215  0.6554  0.1641 -0.2349
  577TMC3    C3 8607   3.546   0.872  12.079 -0.4971  0.0916 -0.4068
  577TMC3    C4 8608   3.560   1.096  12.248 -0.1661  0.0783  0.7168
  577TMC3    C5 8609   3.565   1.107  12.113 -0.0006  0.0420 -0.9833
  577TMC3    C6 8610   3.556   0.999  12.026  0.1944 -0.0828 -0.7131
  577TMC3     C 8611   3.495   0.944  12.426 -0.1796 -0.0393 -0.0335
  577TMC3     O 8612   3.497   0.828  12.468  0.0259 -0.1946 -0.1165
  577TMC3     H 8613   3.508   0.766  12.262 -0.2409  0.3880 -0.1082
  577TMC3    H1 8614   3.547   1.187  12.307  1.5633  0.4079  0.5732
  577TMC3    H2 8615   3.582   1.013  11.922  1.1023 -0.4440 -0.5293
  577TMC3    C7 8616   3.555   1.240  12.059  1.0057 -0.6621 -0.3508
  577TMC3    C8 8617   3.624   0.768  12.017 -0.7781  0.0357  0.2626
  577TMC3    O1 8618   3.592   1.331  12.132 -0.0156  0.1040  0.0715
  577TMC3    O2 8619   3.596   0.653  12.047  0.3192 -0.0400 -0.2133
  578MPD2     C 8620   1.289   0.958   0.825 -0.4534  0.7225 -0.1962
  578MPD2    C1 8621   1.350   0.843   0.771  0.7144 -0.2368  0.3158
  578MPD2    C2 8622   1.465   0.800   0.820 -0.0185 -0.7031  1.3437
  578MPD2    C3 8623   1.529   0.861   0.927  0.3097  0.4369  0.9529
  578MPD2    C4 8624   1.468   0.973   0.987 -0.5046  0.3939  0.2279
  578MPD2    C5 8625   1.355   1.027   0.928  0.0348 -0.4163  0.0725
  578MPD2     H 8626   1.520   0.720   0.772  0.2965 -0.3166  1.0528
  578MPD2    H1 8627   1.511   1.031   1.068  0.1822 -0.4195  0.4502
  578MPD2    H2 8628   1.197   0.996   0.782 -0.8152 -0.2550 -0.2867
  578MPD2    H3 8629   1.304   1.110   0.974  0.8070 -1.6304  3.1096
  578MPD2     N 8630   1.646   0.788   0.974 -0.0405  0.1085 -0.2090
  578MPD2    H5 8631   1.680   0.719   0.908  0.3251 -1.3151  1.4906
  578MPD2    N1 8632   1.294   0.780   0.659  0.3923 -0.2304 -0.1717
  578MPD2    H7 8633   1.201   0.815   0.636 -0.1742 -2.0848 -0.7047
  579TMC3    C1 8634   1.842   0.749   1.094  0.7418 -0.3627 -0.3272
  579TMC3    C2 8635   1.938   0.817   1.161 -0.0574 -0.3967  0.1030
  579TMC3    C3 8636   2.066   0.762   1.152 -0.2218  0.2505 -0.3885
  579TMC3    C4 8637   1.859   0.630   1.026  0.3805  0.6413 -0.3296
  579TMC3    C5 8638   1.990   0.586   1.016 -0.1331  0.1707  0.4978
  579TMC3    C6 8639   2.093   0.644   1.090 -0.6072 -0.2998 -0.0969
  579TMC3     C 8640   1.726   0.828   1.073 -0.6980  0.1646  0.9096
  579TMC3     O 8641   1.706   0.912   1.161  0.1377 -0.4713 -0.1660
  579TMC3     H 8642   1.916   0.918   1.192 -1.1088 -0.2791 -1.0180
  579TMC3    H1 8643   1.775   0.574   0.987  2.3494 -1.6468 -1.2815
  579TMC3    H2 8644   2.189   0.593   1.087 -0.8469 -0.6996 -0.8873
  579TMC3    C7 8645   2.012   0.456   0.948 -0.2497 -0.3039  0.2035
  579TMC3    C8 8646   2.174   0.851   1.191  0.0402  0.2695 -0.0178
  579TMC3    O1 8647   2.118   0.394   0.968  0.1498 -0.1880  0.0933
  579TMC3    O2 8648   2.142   0.959   1.234  0.7438 -0.7966 -0.2141
  580TMC3    C1 8649   1.308   0.324  12.268 -0.5893 -0.0135  0.1675
  580TMC3    C2 8650   1.414   0.374  12.340  0.2900 -0.2407  0.4520
  580TMC3    C3 8651   1.501   0.281  12.391 -0.2132 -0.6190 -0.2175
  580TMC3    C4 8652   1.289   0.186  12.257 -0.3610 -1.0554 -0.5321
  580TMC3    C5 8653   1.366   0.104  12.334  0.5681 -0.2879  1.0473
  580TMC3    C6 8654   1.478   0.152  12.397  0.2202 -0.1515  0.4305
  580TMC3     C 8655   1.288   0.401  12.151 -0.1338  0.4251  0.5295
  580TMC3     O 8656   1.380   0.468  12.114  0.7393  0.1491 -0.1048
  580TMC3     H 8657   1.449   0.476  12.331 -1.7506  0.3472 -0.9467
  580TMC3    H1 8658   1.213   0.157  12.186 -1.8289  2.9162 -0.6306
  580TMC3    H2 8659   1.550   0.081  12.435  1.1021  1.4129  1.6725
  580TMC3    C7 8660   1.371   4.696  12.317 -0.1269  0.2068 -0.2714
  580TMC3    C8 8661   1.642   0.318  12.392  0.6020  0.6906 -0.0928
  580TMC3    O1 8662   1.415   4.628  12.409 -0.7684 -0.5039  0.0830
  580TMC3    O2 8663   1.678   0.407  12.469 -0.0772  0.3267 -0.6623
  581MPD2     C 8664   3.982   0.179  15.005 -0.7256  0.5477  0.0311
  581MPD2    C1 8665   3.899   0.071  15.021  0.4469  0.1227 -0.5851
  581MPD2    C2 8666   3.771   0.072  14.976 -0.3488 -0.3549  0.1353
  581MPD2    C3 8667   3.714   0.184  14.909 -0.1799  0.2881  0.3222
  581MPD2    C4 8668   3.795   0.301  14.907  0.7392 -0.3821 -0.0428
  581MPD2    C5 8669   3.928   0.295  14.949  0.7203 -0.0121  0.6456
  581MPD2     H 8670   3.714   4.715  14.979  1.3087 -1.3700  0.1279
  581MPD2    H1 8671   3.756   0.395  14.870 -2.2699 -1.3618  0.6762
  581MPD2    H2 8672   4.083   0.174  15.043 -0.9039  1.1745  0.5999
  581MPD2    H3 8673   3.986   0.386  14.948  0.2739  0.2588 -2.1549
  581MPD2     N 8674   3.582   0.193  14.866 -0.6851 -0.1645  0.0789
  581MPD2    H5 8675   3.549   0.271  14.810 -0.0792  0.7544  0.9976
  581MPD2    N1 8676   3.961   4.693  15.087 -0.8472  0.2005 -0.0575
  581MPD2    H7 8677   4.057   4.704  15.118 -0.5900 -2.6121  0.0991
  582TMC3    C1 8678   3.988   4.473  15.168  0.5475  0.5957 -0.5172
  582TMC3    C2 8679   4.016   4.510  15.296  0.3439 -0.7269  0.3985
  582TMC3    C3 8680   4.029   4.417  15.400 -0.4829  0.2941 -0.2326
  582TMC3    C4 8681   3.968   4.348  15.132 -0.4610 -0.3946  0.0308
  582TMC3    C5 8682   3.995   4.249  15.229 -0.4059  0.3791  0.0967
  582TMC3    C6 8683   4.029   4.283  15.356 -0.0689 -0.1534 -0.3507
  582TMC3     C 8684   3.909   4.568  15.094 -0.4207  0.3838 -0.1797
  582TMC3     O 8685   3.812   4.520  15.033  0.0402 -0.3047  0.4631
  582TMC3     H 8686   3.994   4.612  15.328 -1.9053 -0.7433 -1.0930
  582TMC3    H1 8687   3.947   4.321  15.030 -1.0251 -1.5501  0.4591
  582TMC3    H2 8688   4.048   4.203  15.426  1.4360  1.9709  1.7025
  582TMC3    C7 8689   3.914   4.125  15.214 -0.4029 -0.0708  0.3136
  582TMC3    C8 8690   3.948   4.442  15.517 -0.5499 -0.5038  0.7054
  582TMC3    O1 8691   3.938   4.029  15.288  0.3068  0.2374 -0.7087
  582TMC3    O2 8692   3.962   4.551  15.573 -0.3535 -0.6301 -0.1628
  583MPD2     C 8693   3.632   1.342  16.446 -0.0053  0.6232 -0.2566
  583MPD2    C1 8694   3.732   1.432  16.475  0.3888 -0.6598  0.7699
  583MPD2    C2 8695   3.704   1.558  16.524 -0.1030 -0.3176  0.1722
  583MPD2    C3 8696   3.576   1.601  16.556 -0.1595  0.8898 -0.0495
  583MPD2    C4 8697   3.479   1.502  16.543 -0.4957 -0.0904  0.2379
  583MPD2    C5 8698   3.506   1.375  16.491  0.3856 -0.4245  0.4658
  583MPD2     H 8699   3.786   1.629  16.525 -0.2842 -0.0946 -0.3876
  583MPD2    H1 8700   3.375   1.519  16.565 -0.4720 -0.2179  0.4555
  583MPD2    H2 8701   3.657   1.245  16.406 -1.7433 -1.0495  2.7302
  583MPD2    H3 8702   3.425   1.306  16.472 -0.2298  0.6823 -0.9510
  583MPD2     N 8703   3.556   1.734  16.605  0.2302  1.0181 -0.2383
  583MPD2    H5 8704   3.636   1.796  16.609 -0.1673  1.4501  1.0966
  583MPD2    N1 8705   3.863   1.393  16.464  0.4670  0.5263 -0.0572
  583MPD2    H7 8706   3.933   1.464  16.478  0.5876  0.3051  0.4590
  584TMC3    C1 8707   3.463   1.908  16.732  0.5452  0.0911 -0.2361
  584TMC3    C2 8708   3.523   2.007  16.655  0.5581  0.2879  0.6123
  584TMC3    C3 8709   3.502   2.135  16.709 -0.2147 -0.1077  0.2422
  584TMC3    C4 8710   3.381   1.927  16.838 -0.9700  0.5563  0.5628
  584TMC3    C5 8711   3.360   2.053  16.890  0.6208 -0.1840 -0.0796
  584TMC3    C6 8712   3.425   2.152  16.818  0.1723 -1.0332  0.3552
  584TMC3     C 8713   3.449   1.775  16.680 -0.1434 -1.0947 -0.8586
  584TMC3     O 8714   3.341   1.713  16.694  0.4602 -0.7442 -0.3025
  584TMC3     H 8715   3.577   1.973  16.568  0.5928 -0.3152  0.8690
  584TMC3    H1 8716   3.348   1.844  16.899  0.5485 -0.3227  0.1659
  584TMC3    H2 8717   3.403   2.254  16.847 -1.6219 -1.2466 -0.3113
  584TMC3    C7 8718   3.373   2.074  17.032 -0.0972  0.4721  0.4928
  584TMC3    C8 8719   3.619   2.215  16.695  0.0148  0.4528 -0.1967
  584TMC3    O1 8720   3.440   2.179  17.049 -0.0232  0.6297 -0.2430
  584TMC3    O2 8721   3.694   2.174  16.608 -0.3006 -0.1867 -0.2059
  585MPD2     C 8722   3.201   0.199  17.623  0.0085  0.0659 -0.3571
  585MPD2    C1 8723   3.214   0.278  17.512 -0.4136 -0.0376 -0.0843
  585MPD2    C2 8724   3.201   0.213  17.389 -0.3746 -0.1080 -0.1714
  585MPD2    C3 8725   3.168   0.077  17.375 -0.3552  0.4757  0.0789
  585MPD2    C4 8726   3.164   4.734  17.489 -0.3224  0.0937 -1.1166
  585MPD2    C5 8727   3.182   0.065  17.609  0.0881  0.4240 -1.0576
  585MPD2     H 8728   3.202   0.256  17.289  1.3150 -1.5382 -0.7527
  585MPD2    H1 8729   3.136   4.629  17.489  0.6643 -0.1736  0.5722
  585MPD2    H2 8730   3.221   0.246  17.718 -0.6858  0.0391 -0.2014
  585MPD2    H3 8731   3.182   4.732  17.693 -0.3210  0.5698 -0.9383
  585MPD2     N 8732   3.157   0.009  17.253 -0.4276 -0.6162 -0.8456
  585MPD2    H5 8733   3.103   4.659  17.248 -1.1315 -0.1193 -1.7074
  585MPD2    N1 8734   3.240   0.413  17.533  0.0377 -0.2276  0.2966
  585MPD2    H7 8735   3.235   0.451  17.627  2.0443  1.0013 -0.0993
  586TMC3    C1 8736   3.187   4.688  17.041  0.3413  0.8373  0.2371
  586TMC3    C2 8737   3.296   4.670  16.967 -0.7202 -0.6203  0.2350
  586TMC3    C3 8738   3.298   4.550  16.899 -0.2974 -0.1382 -0.1105
  586TMC3    C4 8739   3.075   4.616  17.037  0.3403 -0.6780 -0.6152
  586TMC3    C5 8740   3.079   4.507  16.952 -0.7346  0.6151 -0.3750
  586TMC3    C6 8741   3.192   4.466  16.887  0.2647  0.6181  0.2496
  586TMC3     C 8742   3.200   0.059  17.139  0.4530 -0.3587  0.1262
  586TMC3     O 8743   3.254   0.158  17.107  0.1769 -0.4385 -0.0111
  586TMC3     H 8744   3.377   0.007  16.969 -0.2596 -1.2193  2.9139
  586TMC3    H1 8745   2.984   4.655  17.082  1.5370 -0.2166  1.4190
  586TMC3    H2 8746   3.187   4.375  16.828 -0.9018  1.1914 -0.5221
  586TMC3    C7 8747   2.958   4.437  16.931 -0.2018 -0.1902 -0.1834
  586TMC3    C8 8748   3.415   4.491  16.836 -0.6665 -0.6286  0.0804
  586TMC3    O1 8749   2.863   4.448  17.005  0.1898  0.2934 -0.2579
  586TMC3    O2 8750   3.409   4.377  16.793 -0.1882 -0.1143  0.3172
  587TMC3    C1 8751   0.291   4.142  15.586  0.3217  0.4683  0.6209
  587TMC3    C2 8752   0.322   4.124  15.720  0.3440  0.5503  0.5506
  587TMC3    C3 8753   0.455   4.089  15.745  0.5875  0.2556 -0.7232
  587TMC3    C4 8754   0.381   4.127  15.483 -0.5155  0.4306 -0.4148
  587TMC3    C5 8755   0.507   4.082  15.511  0.3476 -0.5642  0.2057
  587TMC3    C6 8756   0.545   4.074  15.644 -0.3199  0.8007 -0.1754
  587TMC3     C 8757   0.174   4.209  15.550 -0.0966  0.1999  0.6690
  587TMC3     O 8758   0.184   4.290  15.464  0.0094 -0.3192  0.3276
  587TMC3     H 8759   0.247   4.123  15.798 -0.3822 -0.8893 -0.1617
  587TMC3    H1 8760   0.343   4.150  15.384 -0.5289  0.5916 -0.3711
  587TMC3    H2 8761   0.641   4.032  15.672 -0.6687  0.9362  1.2662
  587TMC3    C7 8762   0.583   3.995  15.418  0.4655 -0.6473  0.5519
  587TMC3    C8 8763   0.491   4.025  15.871 -0.0965 -0.1698  0.8741
  587TMC3    O1 8764   0.677   3.932  15.464 -0.1290  0.3819  0.5172
  587TMC3    O2 8765   0.564   3.924  15.872  0.1159  0.1401  0.0580
  588TMC3    C1 8766   3.146   1.800  10.197  0.4468 -0.0338  0.8251
  588TMC3    C2 8767   3.085   1.709  10.118 -0.6171 -0.3701 -0.1635
  588TMC3    C3 8768   3.109   1.575  10.149 -0.3616 -0.0211 -0.0038
  588TMC3    C4 8769   3.230   1.769  10.302  0.2796  0.7720  0.1204
  588TMC3    C5 8770   3.255   1.636  10.325 -0.1443 -0.2693  1.1002
  588TMC3    C6 8771   3.193   1.534  10.252 -0.2217  0.3599  1.1048
  588TMC3     C 8772   3.135   1.935  10.159 -0.2563 -0.4851  0.4808
  588TMC3     O 8773   3.049   1.973  10.084  0.1947  0.4159  0.3614
  588TMC3     H 8774   3.030   1.736  10.029  1.1613  0.9869 -0.8517
  588TMC3    H1 8775   3.261   1.845  10.372 -0.2373  0.2687  0.9025
  588TMC3    H2 8776   3.220   1.430  10.267 -0.6370  0.0447 -0.3161
  588TMC3    C7 8777   3.361   1.602  10.425  0.0508 -0.0334  0.4029
  588TMC3    C8 8778   3.034   1.481  10.069  0.0886  0.0623 -0.1341
  588TMC3    O1 8779   3.360   1.494  10.485 -0.6356 -0.6202  0.1903
  588TMC3    O2 8780   2.991   1.525   9.964 -0.0307 -0.2416 -0.6785
  589TMC3    C1 8781   1.870   3.668   0.865 -0.1192  0.0734 -0.3425
  589TMC3    C2 8782   1.974   3.732   0.924 -0.1482  0.3241 -0.5204
  589TMC3    C3 8783   2.100   3.696   0.898  0.7034 -0.3943 -0.6213
  589TMC3    C4 8784   1.900   3.551   0.798 -0.7753  0.0251  0.2579
  589TMC3    C5 8785   2.029   3.511   0.787 -0.1900  0.6357 -0.0071
  589TMC3    C6 8786   2.134   3.579   0.835  0.1638  0.5208 -0.7174
  589TMC3     C 8787   1.738   3.730   0.837  0.0847 -0.3425 -0.3324
  589TMC3     O 8788   1.673   3.680   0.747 -0.0318  0.1719 -0.2575
  589TMC3     H 8789   1.957   3.832   0.962  2.3012 -0.1187  1.7593
  589TMC3    H1 8790   1.822   3.501   0.742 -1.1186 -1.9773  2.5388
  589TMC3    H2 8791   2.238   3.550   0.841  0.1227  0.7482  1.0706
  589TMC3    C7 8792   2.054   3.383   0.725 -0.3288  0.0649 -0.5151
  589TMC3    C8 8793   2.192   3.805   0.917 -0.4608 -0.1793 -0.4816
  589TMC3    O1 8794   1.965   3.299   0.711  0.3739  0.4117  0.3966
  589TMC3    O2 8795   2.160   3.890   0.998 -0.3973  0.1551  0.1635
  590MPD2     C 8796   1.239   2.381  16.821  0.4764  0.1565 -0.2754
  590MPD2    C1 8797   1.187   2.499  16.767  0.1312 -0.2922 -0.5091
  590MPD2    C2 8798   1.258   2.564  16.670 -0.3692 -0.3601  0.4485
  590MPD2    C3 8799   1.385   2.522  16.624 -0.1004  0.5713 -0.0343
  590MPD2    C4 8800   1.436   2.401  16.673 -0.1418 -0.6611 -0.1333
  590MPD2    C5 8801   1.361   2.336  16.773 -0.1610 -0.2510  0.4710
  590MPD2     H 8802   1.219   2.659  16.633  0.1846 -0.0660  0.6255
  590MPD2    H1 8803   1.532   2.358  16.648 -0.7218 -1.7806 -0.4613
  590MPD2    H2 8804   1.192   2.339  16.909 -1.7579 -0.2741 -1.6830
  590MPD2    H3 8805   1.415   2.256  16.820 -0.4268 -0.2514  0.7757
  590MPD2     N 8806   1.453   2.600  16.526  0.5251  0.4208  0.5083
  590MPD2    H5 8807   1.414   2.688  16.494 -0.7280 -0.4648 -0.4255
  590MPD2    N1 8808   1.065   2.542  16.821 -0.0811  0.8450  0.5177
  590MPD2    H7 8809   1.019   2.480  16.887 -2.0503  1.0537 -0.6690
  591TMC3    C1 8810   1.612   2.651  16.353  0.3954 -0.0904 -0.1422
  591TMC3    C2 8811   1.714   2.607  16.268  0.3792  0.8576  0.1150
  591TMC3    C3 8812   1.746   2.694  16.167  0.1484  0.3158 -0.2013
  591TMC3    C4 8813   1.561   2.783  16.348  0.1051  0.7678  0.4067
  591TMC3    C5 8814   1.593   2.861  16.239 -0.3741  0.1912  0.2317
  591TMC3    C6 8815   1.682   2.815  16.137  0.7126 -0.0233  0.1187
  591TMC3     C 8816   1.568   2.559  16.460  0.0751 -0.6541  0.1146
  591TMC3     O 8817   1.634   2.456  16.471  0.3288 -0.4705 -0.1660
  591TMC3     H 8818   1.765   2.511  16.272 -0.1249  0.5885  0.0419
  591TMC3    H1 8819   1.492   2.832  16.415  0.2705 -1.3811  2.1621
  591TMC3    H2 8820   1.698   2.876  16.049  1.4296  0.3290  0.4923
  591TMC3    C7 8821   1.526   2.994  16.228 -0.1219  0.0473  0.2824
  591TMC3    C8 8822   1.837   2.636  16.062  0.2350  0.5727 -0.1374
  591TMC3    O1 8823   1.413   3.008  16.276 -0.5842  0.6936 -0.1458
  591TMC3    O2 8824   1.922   2.562  16.105  0.2407  0.0800  0.1615
  592MPD2     C 8825   2.387   4.326  11.636  0.1519  0.5458 -0.0856
  592MPD2    C1 8826   2.311   4.397  11.722 -0.8815  0.0500  0.4788
  592MPD2    C2 8827   2.198   4.335  11.764 -0.3838  0.5441 -0.7740
  592MPD2    C3 8828   2.157   4.209  11.719 -0.0035  0.1364 -0.0485
  592MPD2    C4 8829   2.243   4.138  11.638  0.0518  0.2813  0.3772
  592MPD2    C5 8830   2.359   4.196  11.603  0.0998  0.2864 -0.3085
  592MPD2     H 8831   2.123   4.388  11.823 -0.7149  1.9273 -2.4340
  592MPD2    H1 8832   2.218   4.042  11.594  1.7975  0.3053 -0.6538
  592MPD2    H2 8833   2.481   4.371  11.606 -0.7151  0.7677 -2.4825
  592MPD2    H3 8834   2.433   4.155  11.535 -0.0297  1.2266 -1.0082
  592MPD2     N 8835   2.040   4.162  11.777 -0.2809 -0.0190  0.3688
  592MPD2    H5 8836   1.999   4.216  11.852 -1.3368 -1.5061  0.8569
  592MPD2    N1 8837   2.344   4.525  11.761  0.0710  0.3932 -0.2921
  592MPD2    H7 8838   2.432   4.563  11.727 -0.4445 -0.2559 -2.3144
  593TMC3    C1 8839   2.358   4.730  11.865 -0.6934  0.0185 -0.4143
  593TMC3    C2 8840   2.347   0.051  11.994  0.2914 -0.1274 -0.6181
  593TMC3    C3 8841   2.420   0.168  12.014 -0.3736  0.2044 -0.1016
  593TMC3    C4 8842   2.430   0.040  11.758  0.8042  0.1147  0.2564
  593TMC3    C5 8843   2.501   0.156  11.788 -0.2244  0.1587 -0.0571
  593TMC3    C6 8844   2.497   0.222  11.908 -0.2579 -0.3779 -0.2185
  593TMC3     C 8845   2.286   4.598  11.854  0.0135  0.3526  0.3133
  593TMC3     O 8846   2.176   4.589  11.910 -0.3252 -0.2934 -0.6306
  593TMC3     H 8847   2.297   4.731  12.072  2.8810 -0.8032  0.5436
  593TMC3    H1 8848   2.412   0.011  11.655 -0.0344 -2.5310  1.1490
  593TMC3    H2 8849   2.532   0.325  11.907  0.2655 -0.5378  0.9852
  593TMC3    C7 8850   2.537   0.242  11.675 -0.3613  0.7479 -0.1867
  593TMC3    C8 8851   2.399   0.230  12.142 -0.4596 -0.0721 -0.5189
  593TMC3    O1 8852   2.568   0.358  11.691 -0.1330  0.0452 -0.0549
  593TMC3    O2 8853   2.309   0.180  12.213  0.3388 -0.0955 -0.0966
  594MPD2     C 8854   1.058   2.486  15.078 -0.3711  1.1637  0.3908
  594MPD2    C1 8855   0.947   2.560  15.042 -0.5659  0.0907  0.0858
  594MPD2    C2 8856   0.970   2.681  14.982 -0.1915 -0.9732  0.0647
  594MPD2    C3 8857   1.097   2.732  14.943  0.6034 -0.3170 -0.4487
  594MPD2    C4 8858   1.203   2.648  14.981  0.4592  0.1298  0.7744
  594MPD2    C5 8859   1.184   2.535  15.045  0.0002  0.3969 -0.2027
  594MPD2     H 8860   0.881   2.741  14.967 -0.4437 -1.6362 -1.0532
  594MPD2    H1 8861   1.304   2.681  14.961 -0.4121  0.1507 -3.5960
  594MPD2    H2 8862   1.050   2.388  15.123 -0.7616  0.3615 -1.4215
  594MPD2    H3 8863   1.269   2.469  15.060  0.2200  0.7166 -0.0334
  594MPD2     N 8864   1.106   2.865  14.901  0.2930  0.0521  0.1379
  594MPD2    H5 8865   1.017   2.914  14.898 -0.5521 -1.6536 -3.0002
  594MPD2    N1 8866   0.815   2.510  15.074  0.3345 -0.1004  0.1856
  594MPD2    H7 8867   0.810   2.425  15.128 -0.5041  1.3588  2.3934
  595TMC3    C1 8868   1.334   3.229  14.698 -0.2985  0.4858 -1.1644
  595TMC3    C2 8869   1.305   3.095  14.710  0.0475  0.4101 -0.1972
  595TMC3    C3 8870   1.212   3.054  14.801  0.4710  0.4440 -0.3390
  595TMC3    C4 8871   1.274   3.314  14.785  0.0634  0.2454  0.2593
  595TMC3    C5 8872   1.173   3.271  14.868  0.6549 -0.4367  0.0722
  595TMC3    C6 8873   1.143   3.140  14.886  0.1728 -0.2744 -0.2535
  595TMC3     C 8874   1.461   3.282  14.647  0.2388 -0.2051 -0.1670
  595TMC3     O 8875   1.523   3.376  14.697 -0.2380  0.0914 -0.2100
  595TMC3     H 8876   1.377   3.022  14.673 -0.8690 -0.8485  0.5053
  595TMC3    H1 8877   1.290   3.420  14.776  3.1150 -0.3011 -0.7605
  595TMC3    H2 8878   1.085   3.096  14.966 -1.8802  2.1905 -0.4040
  595TMC3    C7 8879   1.119   3.366  14.959 -0.4629  0.0704 -0.3355
  595TMC3    C8 8880   1.217   2.916  14.841  0.2494 -0.1786 -0.8372
  595TMC3    O1 8881   1.074   3.321  15.065 -0.1639 -0.8157  0.5095
  595TMC3    O2 8882   1.324   2.865  14.820 -0.2984  0.5077 -0.0544
  596MPD2     C 8883   4.284   1.217  16.962 -0.4633 -0.2153 -0.3429
  596MPD2    C1 8884   4.348   1.335  16.951  0.1107  1.0968 -0.3613
  596MPD2    C2 8885   4.477   1.336  16.895  0.0586  0.1264  0.1282
  596MPD2    C3 8886   4.530   1.230  16.829 -0.2319  0.2435 -0.4814
  596MPD2    C4 8887   4.459   1.108  16.837 -0.2095  0.1715 -0.6825
  596MPD2    C5 8888   4.335   1.108  16.891 -0.4220  0.4306 -0.0101
  596MPD2     H 8889   4.527   1.431  16.879 -1.9044  1.2988  0.8077
  596MPD2    H1 8890   4.488   1.024  16.776  1.4284  1.6534 -1.9351
  596MPD2    H2 8891   4.191   1.209  17.018 -0.4961  0.5699 -0.2904
  596MPD2    H3 8892   4.275   1.019  16.877 -1.2985  0.7635  1.6162
  596MPD2     N 8893   4.631   1.239  16.733 -0.2817  0.4605  0.1274
  596MPD2    H5 8894   4.660   1.150  16.696 -1.5981  0.6092 -1.2763
  596MPD2    N1 8895   4.302   1.455  17.019 -0.2553  0.3133 -0.4754
  596MPD2    H7 8896   4.372   1.529  17.024 -0.1490  0.0704  1.7513
  597TMC3    C1 8897   4.169   1.630  17.115  0.1243 -0.2281 -0.4980
  597TMC3    C2 8898   4.269   1.721  17.094  0.0269  0.4159 -0.3406
  597TMC3    C3 8899   4.257   1.850  17.136  0.2415 -0.2975  0.5947
  597TMC3    C4 8900   4.057   1.671  17.176  0.1049 -0.3966 -0.1547
  597TMC3    C5 8901   4.050   1.800  17.206 -0.1155 -0.0154  0.7585
  597TMC3    C6 8902   4.140   1.898  17.182 -0.1831  0.0451 -0.7246
  597TMC3     C 8903   4.185   1.487  17.083  0.2961  0.1674  0.4077
  597TMC3     O 8904   4.086   1.416  17.086  0.0192  0.0422  0.2290
  597TMC3     H 8905   4.361   1.681  17.053  1.6750  2.3293  1.4846
  597TMC3    H1 8906   3.970   1.605  17.175  0.1530 -0.4402 -2.8177
  597TMC3    H2 8907   4.128   2.004  17.203  2.3939 -0.2333  2.1992
  597TMC3    C7 8908   3.935   1.833  17.294  0.4633 -0.1326  0.2899
  597TMC3    C8 8909   4.361   1.941  17.114  0.3318  0.2096 -0.6191
  597TMC3    O1 8910   3.882   1.746  17.361 -0.2149  0.5945  0.0493
  597TMC3    O2 8911   4.332   2.058  17.094 -0.7213  0.1203 -0.7788
  598TMC3    C1 8912   2.893   2.843  15.475  0.3063 -0.4378  0.0469
  598TMC3    C2 8913   2.771   2.796  15.437  0.1175 -0.3061 -0.5428
  598TMC3    C3 8914   2.761   2.774  15.302  0.3444  0.1397  0.2623
  598TMC3    C4 8915   2.991   2.902  15.389  0.1875  0.6644 -0.5442
  598TMC3    C5 8916   2.972   2.871  15.259  0.2682  0.6777 -0.2634
  598TMC3    C6 8917   2.861   2.800  15.211 -0.5717  0.6344 -0.0848
  598TMC3     C 8918   2.928   2.858  15.620 -1.0687  0.0456 -0.1512
  598TMC3     O 8919   2.995   2.955  15.651 -0.0275  0.5950 -0.3094
  598TMC3     H 8920   2.698   2.757  15.507  3.5119  0.2452  3.3270
  598TMC3    H1 8921   3.071   2.966  15.425  0.9110 -2.0817  2.7078
  598TMC3    H2 8922   2.844   2.784  15.105 -1.7337  0.9548  0.0603
  598TMC3    C7 8923   3.087   2.872  15.172 -0.4168  0.5184  0.0397
  598TMC3    C8 8924   2.631   2.736  15.242 -0.1076 -0.6131  0.2300
  598TMC3    O1 8925   3.095   2.778  15.096 -0.2550  0.0775  0.7494
  598TMC3    O2 8926   2.620   2.698  15.127  0.4998 -0.5441 -0.0135
  599MPD2     C 8927   3.056   0.449  15.707  0.3574  0.2681  0.0790
  599MPD2    C1 8928   3.014   0.327  15.659 -0.5314  0.3250  0.1315
  599MPD2    C2 8929   2.883   0.302  15.634  0.1976 -0.3293 -0.0971
  599MPD2    C3 8930   2.786   0.396  15.658 -0.7733 -0.0614  0.1021
  599MPD2    C4 8931   2.832   0.522  15.698 -0.3761  0.8695 -0.2980
  599MPD2    C5 8932   2.965   0.546  15.714  0.2915 -0.1544 -0.2459
  599MPD2     H 8933   2.846   0.203  15.609  0.1710  0.1584 -2.0019
  599MPD2    H1 8934   2.766   0.605  15.721 -0.7108  1.2316 -2.5564
  599MPD2    H2 8935   3.161   0.476  15.706 -0.0404  1.8251 -0.0698
  599MPD2    H3 8936   2.997   0.645  15.744  1.3125 -0.3977 -0.5397
  599MPD2     N 8937   2.646   0.375  15.674 -0.4012  0.6144 -0.3111
  599MPD2    H5 8938   2.595   0.461  15.695 -1.3852 -0.0029 -0.2124
  599MPD2    N1 8939   3.109   0.226  15.655 -0.0288  0.1406 -0.0224
  599MPD2    H7 8940   3.197   0.263  15.688 -0.4898  1.9511 -0.8161
  600TMC3    C1 8941   2.440   0.253  15.708 -0.2821 -0.3986  0.1806
  600TMC3    C2 8942   2.346   0.162  15.669 -0.5017  0.6835  0.3998
  600TMC3    C3 8943   2.219   0.153  15.728  0.0703  0.0274  0.3326
  600TMC3    C4 8944   2.418   0.328  15.818  0.5280 -0.5664 -0.1335
  600TMC3    C5 8945   2.291   0.328  15.875 -0.7835 -0.2531  0.1803
  600TMC3    C6 8946   2.196   0.241  15.832  0.5521 -0.0957  0.5632
  600TMC3     C 8947   2.571   0.257  15.648 -0.1463  0.2379 -0.5252
  600TMC3     O 8948   2.605   0.158  15.583  0.1583 -0.5402 -0.0636
  600TMC3     H 8949   2.359   0.114  15.572  1.6147  1.3986  0.3300
  600TMC3    H1 8950   2.504   0.376  15.863 -0.5745  0.6034  0.7407
  600TMC3    H2 8951   2.101   0.233  15.883  1.7049 -0.1350  2.6737
  600TMC3    C7 8952   2.267   0.400  15.994  0.0432 -0.6198 -0.5869
  600TMC3    C8 8953   2.114   0.122  15.645 -0.4093 -0.3361  0.3228
  600TMC3    O1 8954   2.189   0.356  16.079  0.1720  0.3579 -0.6978
  600TMC3    O2 8955   2.117   0.024  15.573  0.8074 -0.0771 -0.5638
  601MPD2     C 8956   0.355   2.902   0.170  0.3705  0.1556  0.0932
  601MPD2    C1 8957   0.231   2.958   0.181 -0.9072 -0.3825 -0.6727
  601MPD2    C2 8958   0.149   2.908   0.281  0.4528 -0.3532  0.4882
  601MPD2    C3 8959   0.187   2.810   0.364 -0.0180  0.1301  0.6870
  601MPD2    C4 8960   0.313   2.759   0.354  0.3681 -0.2434  0.3622
  601MPD2    C5 8961   0.395   2.811   0.255 -0.0260  0.1782 -0.3497
  601MPD2     H 8962   0.048   2.946   0.289  0.9466  1.3225 -1.3369
  601MPD2    H1 8963   0.361   2.689   0.421  0.5306 -0.7658 -0.3008
  601MPD2    H2 8964   0.430   2.934   0.098  0.3872  0.3699  0.2034
  601MPD2    H3 8965   0.499   2.780   0.256 -0.0235  0.1581 -1.0194
  601MPD2     N 8966   0.110   2.751   0.469  0.5543 -0.4612 -0.0695
  601MPD2    H5 8967   0.159   2.690   0.533 -0.7174 -0.6985  0.6767
  601MPD2    N1 8968   0.184   3.070   0.104 -0.1546  0.1048  0.4890
  601MPD2    H7 8969   0.087   3.094   0.124 -0.8001  0.5493 -3.2699
  602TMC3    C1 8970   0.182   3.224  17.662  0.2210  0.4429  0.1449
  602TMC3    C2 8971   0.254   3.277  17.559  0.3214  0.3016 -0.2671
  602TMC3    C3 8972   0.184   3.354  17.469 -0.4960 -0.2131  0.0611
  602TMC3    C4 8973   0.051   3.243  17.682  0.2376  0.2988 -0.4021
  602TMC3    C5 8974   4.717   3.318  17.580  0.3383 -0.7898 -0.5079
  602TMC3    C6 8975   0.053   3.378  17.477 -0.6843  0.2693  0.2986
  602TMC3     C 8976   0.258   3.134   0.010  0.0731  0.4913 -0.8922
  602TMC3     O 8977   0.380   3.135  17.729  0.1541  0.1941 -0.2470
  602TMC3     H 8978   0.359   3.259  17.543 -0.1485 -1.9036 -0.8537
  602TMC3    H1 8979   4.719   3.181  17.740  0.4825  1.3766  1.0392
  602TMC3    H2 8980   0.005   3.421  17.389 -0.8985 -0.1853  0.1896
  602TMC3    C7 8981   4.574   3.350  17.603  0.6553  0.6501  0.2296
  602TMC3    C8 8982   0.257   3.418  17.357  0.0700  0.6246 -0.2366
  602TMC3    O1 8983   4.504   3.271  17.661  0.2113 -0.4970 -0.3273
  602TMC3    O2 8984   0.360   3.367  17.319 -0.4574 -0.4296 -0.0721
  603TMC3    C1 8985   2.889   3.514  10.907  0.4205  0.7039 -0.2569
  603TMC3    C2 8986   2.859   3.531  11.040  0.0598 -0.7940  0.2768
  603TMC3    C3 8987   2.855   3.654  11.089  0.3147  0.7502  0.3796
  603TMC3    C4 8988   2.910   3.628  10.826 -0.2093 -0.7069  0.0007
  603TMC3    C5 8989   2.910   3.750  10.884 -0.0332 -0.2172 -1.3062
  603TMC3    C6 8990   2.874   3.768  11.015  0.1767  0.0236  0.0122
  603TMC3     C 8991   2.908   3.377  10.874  0.5089  0.4512 -0.1408
  603TMC3     O 8992   2.863   3.284  10.938 -0.3706 -0.1848 -0.2579
  603TMC3     H 8993   2.842   3.437  11.092 -0.0919 -1.2070 -0.5249
  603TMC3    H1 8994   2.949   3.601  10.728 -1.8896  0.5084 -1.0047
  603TMC3    H2 8995   2.894   3.864  11.061 -0.9332  0.0483  0.4416
  603TMC3    C7 8996   2.957   3.869  10.816  0.9571 -0.1731 -0.0515
  603TMC3    C8 8997   2.851   3.666  11.232 -0.3211  0.4977  0.2787
  603TMC3    O1 8998   3.001   3.962  10.882 -0.2950 -0.0719  0.4323
  603TMC3    O2 8999   2.886   3.564  11.287 -0.1037  0.3566  0.4416
  604MPD2     C 9000   3.918   2.810  16.690 -0.5036 -0.3092  0.5597
  604MPD2    C1 9001   3.820   2.737  16.639  0.3398  0.6722  0.5553
  604MPD2    C2 9002   3.832   2.688  16.511  0.2724  0.2516  0.1539
  604MPD2    C3 9003   3.949   2.717  16.433  0.1509  0.4299  0.5776
  604MPD2    C4 9004   4.049   2.794  16.490 -0.1080 -0.4716  0.9569
  604MPD2    C5 9005   4.037   2.835  16.619  0.5061  0.0516  0.0566
  604MPD2     H 9006   3.751   2.635  16.462 -0.7511  0.8573  1.1949
  604MPD2    H1 9007   4.144   2.816  16.444 -0.4816  1.1733  0.9765
  604MPD2    H2 9008   3.914   2.839  16.795  0.8553 -2.5424  1.2312
  604MPD2    H3 9009   4.120   2.880  16.673  0.0179 -0.1194  0.9667
  604MPD2     N 9010   3.947   2.675  16.296  0.2285 -0.1673  0.0437
  604MPD2    H5 9011   3.865   2.620  16.272 -0.3791  0.2915  1.0373
  604MPD2    N1 9012   3.701   2.726  16.716 -0.4545 -0.1979 -0.3659
  604MPD2    H7 9013   3.705   2.786  16.797 -0.7506 -0.5462 -0.0934
  605TMC3    C1 9014   3.480   2.688  16.778  0.6054 -0.4286  0.4732
  605TMC3    C2 9015   3.517   2.743  16.895  0.3794 -0.4245  0.5781
  605TMC3    C3 9016   3.462   2.856  16.938  0.6646 -0.0336  0.3546
  605TMC3    C4 9017   3.361   2.726  16.722 -0.6548 -0.2666  0.0288
  605TMC3    C5 9018   3.303   2.848  16.770  0.9553  0.7008 -0.4495
  605TMC3    C6 9019   3.357   2.924  16.874  0.6526 -0.5754 -0.2703
  605TMC3     C 9020   3.592   2.646  16.695 -0.8612 -0.5727 -0.2476
  605TMC3     O 9021   3.560   2.576  16.599  0.2957 -0.8428 -0.0839
  605TMC3     H 9022   3.604   2.714  16.952 -1.1993 -3.5985  1.3365
  605TMC3    H1 9023   3.335   2.687  16.624  2.0895 -1.2331 -0.3187
  605TMC3    H2 9024   3.305   3.005  16.924 -0.5968 -0.5065 -1.7003
  605TMC3    C7 9025   3.176   2.882  16.713 -0.5974  0.5313 -1.0501
  605TMC3    C8 9026   3.561   2.927  17.019 -0.2715 -0.0665  0.1125
  605TMC3    O1 9027   3.151   3.000  16.695  0.1477  0.0623  0.5344
  605TMC3    O2 9028   3.600   3.035  16.976 -0.0976 -0.3761 -0.1759
  606TMC3    C1 9029   4.311   1.950   0.433 -0.2404 -0.1667 -0.5177
  606TMC3    C2 9030   4.250   1.847   0.500 -0.0660  0.1366 -0.5506
  606TMC3    C3 9031   4.204   1.743   0.428  0.0402  0.1769  0.3450
  606TMC3    C4 9032   4.300   1.964   0.298  0.1719 -0.9043  0.9283
  606TMC3    C5 9033   4.249   1.861   0.219  0.4553 -0.3398  0.6521
  606TMC3    C6 9034   4.200   1.757   0.290 -0.3915 -0.6050 -0.5491
  606TMC3     C 9035   4.389   2.039   0.515  0.5658  0.0254  0.0720
  606TMC3     O 9036   4.349   2.051   0.631  0.7137 -0.4087  0.3112
  606TMC3     H 9037   4.269   1.840   0.606  0.3795  0.7263 -0.5933
  606TMC3    H1 9038   4.313   2.060   0.251  1.2045 -1.5929 -0.1856
  606TMC3    H2 9039   4.150   1.680   0.233 -1.9993 -1.6887  2.3742
  606TMC3    C7 9040   4.329   1.845   0.100 -0.3894  0.8158  0.2126
  606TMC3    C8 9041   4.251   1.611   0.469 -0.0452  0.2653  0.0302
  606TMC3    O1 9042   4.383   1.945   0.051  0.1403  0.6646 -0.3788
  606TMC3    O2 9043   4.293   1.538   0.376 -0.5295 -0.1124 -0.2947
  607MPD2     C 9044   2.274   3.836  11.918  0.3378 -0.4854 -0.2104
  607MPD2    C1 9045   2.244   3.926  12.020  0.0812  0.4070  0.4009
  607MPD2    C2 9046   2.139   3.893  12.107  0.6393 -0.1928  0.2480
  607MPD2    C3 9047   2.065   3.779  12.082 -0.0142  0.1362  0.1297
  607MPD2    C4 9048   2.098   3.695  11.982  0.2834  1.3526 -0.0947
  607MPD2    C5 9049   2.202   3.721  11.899 -0.1764  0.2678  0.4311
  607MPD2     H 9050   2.110   3.963  12.185 -0.4998  1.3945 -1.6035
  607MPD2    H1 9051   2.048   3.600  11.965 -1.5221  1.9420  1.9258
  607MPD2    H2 9052   2.343   3.860  11.837  0.1578 -1.1985 -0.5688
  607MPD2    H3 9053   2.218   3.663  11.809 -0.1232  3.3953 -1.5901
  607MPD2     N 9054   1.969   3.748  12.184  0.1974  0.0859 -0.7413
  607MPD2    H5 9055   1.956   3.821  12.254  0.1221  0.6765 -1.3660
  607MPD2    N1 9056   2.321   4.045  12.052 -0.3975  0.5410 -0.3387
  607MPD2    H7 9057   2.287   4.104  12.127 -1.9659 -1.2039  0.3227
  608TMC3    C1 9058   2.484   4.208  12.073 -0.1804 -0.0395 -0.1533
  608TMC3    C2 9059   2.486   4.189  12.205 -0.5779  0.0389  0.5701
  608TMC3    C3 9060   2.531   4.294  12.278  0.6003 -0.4688 -0.2931
  608TMC3    C4 9061   2.535   4.317  12.013 -0.0163  1.2432 -0.1087
  608TMC3    C5 9062   2.573   4.425  12.092  0.2930  0.2166 -0.2200
  608TMC3    C6 9063   2.572   4.417  12.230 -0.3097  0.2463  0.0659
  608TMC3     C 9064   2.432   4.098  11.988  0.0209  1.2156 -0.2769
  608TMC3     O 9065   2.464   4.066  11.873 -0.1751  0.6437  1.1997
  608TMC3     H 9066   2.486   4.086  12.240  1.6781  0.0280  0.5725
  608TMC3    H1 9067   2.523   4.329  11.906  0.8081  0.7602 -0.2528
  608TMC3    H2 9068   2.598   4.498  12.297  1.9968  0.2500 -0.8251
  608TMC3    C7 9069   2.653   4.534  12.025 -0.2940 -0.5537 -0.4158
  608TMC3    C8 9070   2.490   4.283  12.420 -0.3433  0.5661  0.4053
  608TMC3    O1 9071   2.675   4.508  11.905 -0.2785  0.3079 -0.2296
  608TMC3    O2 9072   2.542   4.351  12.503  0.5866  0.2164  0.0734
  609TMC3    C1 9073   1.179   4.079   9.125  0.1913 -0.6576 -0.4398
  609TMC3    C2 9074   1.178   4.150   9.005 -0.4282  0.2627 -0.2253
  609TMC3    C3 9075   1.262   4.117   8.906 -0.0257 -0.3843  0.3536
  609TMC3    C4 9076   1.254   3.970   9.141  0.0272  0.2615  1.1812
  609TMC3    C5 9077   1.342   3.945   9.040  0.5665 -0.4373  0.0675
  609TMC3    C6 9078   1.346   4.018   8.927  0.0274 -0.1159  0.2107
  609TMC3     C 9079   1.067   4.094   9.214 -0.5416  0.4379 -0.5402
  609TMC3     O 9080   1.052   4.004   9.296  0.5729  0.0654 -0.4310
  609TMC3     H 9081   1.130   4.244   8.982  1.4230  1.5172  1.0303
  609TMC3    H1 9082   1.255   3.919   9.236  0.5638  1.0959  1.6166
  609TMC3    H2 9083   1.434   4.004   8.865  1.0988  0.3119  1.6438
  609TMC3    C7 9084   1.420   3.823   9.037  0.9161  0.0220 -0.0981
  609TMC3    C8 9085   1.288   4.217   8.804  0.4799  0.4065  0.1718
  609TMC3    O1 9086   1.447   3.780   9.150 -0.4757 -0.2098 -0.1611
  609TMC3    O2 9087   1.243   4.331   8.813  0.2195  0.6404  0.2211
  610TMC3    C1 9088   2.703   4.122  12.839  0.4884 -0.0848  0.4129
  610TMC3    C2 9089   2.705   4.109  12.702 -0.0828 -1.3378  0.0145
  610TMC3    C3 9090   2.753   3.991  12.657 -0.1446  0.0118  0.1174
  610TMC3    C4 9091   2.742   4.020  12.925  0.5240 -0.1711  0.3080
  610TMC3    C5 9092   2.773   3.894  12.869 -0.4491  0.1565 -0.3222
  610TMC3    C6 9093   2.768   3.881  12.734  0.0845 -0.4511  0.0433
  610TMC3     C 9094   2.626   4.234  12.899 -0.3652  0.0530 -0.2565
  610TMC3     O 9095   2.618   4.339  12.839  0.0481  0.0793  0.0367
  610TMC3     H 9096   2.664   4.179  12.630  3.5012  1.1427  0.3842
  610TMC3    H1 9097   2.753   4.029  13.032 -0.8221  0.0791  0.4284
  610TMC3    H2 9098   2.804   3.786  12.698  0.0466 -1.3041  2.2186
  610TMC3    C7 9099   2.860   3.807  12.942 -1.4904 -0.3106 -0.7991
  610TMC3    C8 9100   2.749   3.970  12.517 -0.3403  0.0199 -0.2045
  610TMC3    O1 9101   2.967   3.772  12.891  0.1583 -0.1362 -0.1063
  610TMC3    O2 9102   2.715   3.855  12.483  0.4503 -0.0839  0.8090
  611MPD2     C 9103   2.235   3.667  10.451 -0.2945 -0.0879 -0.2516
  611MPD2    C1 9104   2.197   3.800  10.435 -0.2125  0.7031 -0.2168
  611MPD2    C2 9105   2.224   3.870  10.319  0.2294  0.3152  0.7638
  611MPD2    C3 9106   2.311   3.813  10.227 -0.0088 -0.1239 -0.7892
  611MPD2    C4 9107   2.351   3.678  10.246  0.3068  0.6849 -0.3031
  611MPD2    C5 9108   2.320   3.611  10.365 -0.4668 -0.6068  0.7658
  611MPD2     H 9109   2.184   3.970  10.311  0.3658  0.2508 -0.7260
  611MPD2    H1 9110   2.418   3.626  10.178 -2.2251  0.4248 -2.5862
  611MPD2    H2 9111   2.210   3.610  10.540 -2.5874  0.3832 -0.6204
  611MPD2    H3 9112   2.343   3.506  10.375  0.6029 -0.1693  2.8823
  611MPD2     N 9113   2.378   3.879  10.122 -0.1881  0.7353 -0.3596
  611MPD2    H5 9114   2.454   3.825  10.081 -0.7016 -1.2146  1.2682
  611MPD2    N1 9115   2.113   3.857  10.537  0.4252 -0.6008 -0.6131
  611MPD2    H7 9116   2.075   3.800  10.612  0.1996 -0.0668 -0.3208
  612TMC3    C1 9117   2.487   4.056  10.010  0.5330 -0.1035  0.1406
  612TMC3    C2 9118   2.608   4.040  10.066  0.2827  0.8128 -0.5551
  612TMC3    C3 9119   2.696   4.138  10.059  0.0336  0.2856  0.1404
  612TMC3    C4 9120   2.465   4.158   9.925 -0.4448  0.1563 -0.0495
  612TMC3    C5 9121   2.565   4.244   9.905  0.3668 -0.2751  0.6849
  612TMC3    C6 9122   2.679   4.245   9.978 -0.1297  0.1830 -0.0361
  612TMC3     C 9123   2.376   4.012  10.095 -0.6942  0.1552  0.3531
  612TMC3     O 9124   2.310   4.107  10.137  0.0726  1.1338  0.2860
  612TMC3     H 9125   2.606   3.958  10.137 -0.1646  1.2769 -0.0309
  612TMC3    H1 9126   2.367   4.169   9.881 -0.9481  0.6043  1.1776
  612TMC3    H2 9127   2.760   4.313   9.953  0.4807 -0.2642  0.7350
  612TMC3    C7 9128   2.555   4.327   9.783  0.3292  0.5496 -0.6058
  612TMC3    C8 9129   2.806   4.149  10.158  0.0705 -0.1455 -0.8897
  612TMC3    O1 9130   2.480   4.287   9.696  0.3294 -0.0151  0.4880
  612TMC3    O2 9131   2.884   4.242  10.134 -0.1723 -0.3772  0.0465
  613MPD2     C 9132   1.001   1.365  17.120  0.2338 -0.2027  0.7098
  613MPD2    C1 9133   1.081   1.364  17.009 -0.6695 -1.1356  0.1710
  613MPD2    C2 9134   1.134   1.247  16.965  0.7533  0.5046  0.4588
  613MPD2    C3 9135   1.102   1.124  17.023  1.1966  0.8467 -0.5322
  613MPD2    C4 9136   1.017   1.131  17.131  0.1004 -0.8616  0.2416
  613MPD2    C5 9137   0.973   1.246  17.182 -1.0782  0.2426 -0.0886
  613MPD2     H 9138   1.186   1.246  16.870 -0.7610 -1.5580 -0.3632
  613MPD2    H1 9139   0.996   1.050  17.199  0.3467 -0.1818  1.1256
  613MPD2    H2 9140   0.966   1.457  17.165 -0.3260  0.1644 -0.4735
  613MPD2    H3 9141   0.900   1.248  17.262  0.9633 -0.2754  1.7902
  613MPD2     N 9142   1.138   0.999  16.961  0.5707  0.0855  0.0598
  613MPD2    H5 9143   1.110   0.909  16.998 -0.1417  0.6019  0.7704
  613MPD2    N1 9144   1.115   1.486  16.939  0.2476 -0.1205 -0.1657
  613MPD2    H7 9145   1.063   1.566  16.975  1.5845  0.4903  0.4159
  614TMC3    C1 9146   1.238   1.632  16.808 -0.1759  0.4318  0.2449
  614TMC3    C2 9147   1.340   1.637  16.714 -0.7046  0.1525 -0.2615
  614TMC3    C3 9148   1.317   1.687  16.589 -0.6682  0.0116  0.2096
  614TMC3    C4 9149   1.114   1.679  16.771  0.3891  0.4240  0.2903
  614TMC3    C5 9150   1.094   1.738  16.650  0.6330 -0.4192  0.5848
  614TMC3    C6 9151   1.200   1.733  16.557 -0.1427  0.0661 -0.6527
  614TMC3     C 9152   1.228   1.502  16.868 -0.0105  0.2181  0.3464
  614TMC3     O 9153   1.326   1.425  16.847 -0.5908 -0.1481 -0.0706
  614TMC3     H 9154   1.437   1.601  16.745 -0.0228  2.2223 -0.0171
  614TMC3    H1 9155   1.035   1.704  16.840 -0.9702  2.6206 -2.0956
  614TMC3    H2 9156   1.189   1.792  16.467 -0.5466 -0.5248 -0.9908
  614TMC3    C7 9157   0.977   1.812  16.624 -0.2257  0.3991 -0.5322
  614TMC3    C8 9158   1.367   1.602  16.480 -0.5343 -0.1676 -0.1859
  614TMC3    O1 9159   0.905   1.838  16.716  0.0299  0.1586  0.7992
  614TMC3    O2 9160   1.382   1.639  16.363 -0.3590 -0.0090 -0.3745
  615MPD2     C 9161   0.161   3.065  16.739 -0.0153  0.3674  0.4752
  615MPD2    C1 9162   0.285   3.130  16.717 -0.6171  0.4748 -0.1368
  615MPD2    C2 9163   0.286   3.248  16.647 -0.8580  0.2163 -0.1884
  615MPD2    C3 9164   0.171   3.298  16.583 -0.5219 -0.5892 -0.9512
  615MPD2    C4 9165   0.052   3.232  16.609  0.3838 -0.3374 -0.1586
  615MPD2    C5 9166   0.045   3.124  16.689  0.1939 -0.3737 -0.0724
  615MPD2     H 9167   0.386   3.288  16.634 -0.1452 -1.2032  0.8338
  615MPD2    H1 9168   4.693   3.268  16.570  1.5661  1.2610 -1.5814
  615MPD2    H2 9169   0.148   2.988  16.815  1.0345  2.2492  2.5523
  615MPD2    H3 9170   4.684   3.079  16.710 -0.1903  0.8035  0.6667
  615MPD2     N 9171   0.172   3.415  16.499  0.0303  0.2212  0.3487
  615MPD2    H5 9172   0.086   3.458  16.466  0.0953  1.9494  2.4802
  615MPD2    N1 9173   0.404   3.086  16.773  0.5259  0.3414 -0.1849
  615MPD2    H7 9174   0.485   3.143  16.754 -0.7195  2.2187  0.0785
  616TMC3    C1 9175   0.543   2.996  16.944 -1.0996 -0.1529 -0.3325
  616TMC3    C2 9176   0.575   2.899  17.029 -0.2493  0.4895  0.6169
  616TMC3    C3 9177   0.652   2.935  17.135 -0.0030 -0.0189  0.7688
  616TMC3    C4 9178   0.601   3.120  16.946  0.0656  0.8659  0.5947
  616TMC3    C5 9179   0.686   3.152  17.045  0.4670 -0.2591 -0.7500
  616TMC3    C6 9180   0.710   3.058  17.144 -0.2377  0.2807  0.6242
  616TMC3     C 9181   0.427   2.981  16.862 -0.8670 -0.0613 -0.6455
  616TMC3     O 9182   0.353   2.899  16.913 -0.2418  0.0319 -0.3489
  616TMC3     H 9183   0.515   2.810  17.041 -1.2597  0.9080 -1.3741
  616TMC3    H1 9184   0.583   3.193  16.867  0.4234  0.8914  0.5364
  616TMC3    H2 9185   0.763   3.073  17.237 -2.2952 -1.0365  1.9902
  616TMC3    C7 9186   0.674   3.297  17.074 -0.1429 -0.1023 -0.4562
  616TMC3    C8 9187   0.696   2.839  17.223 -0.7214 -0.5854 -0.1979
  616TMC3    O1 9188   0.642   3.375  16.984 -0.0885 -0.1960  0.2241
  616TMC3    O2 9189   0.618   2.769  17.289  0.1089 -0.1578 -0.4297
  617MPD2     C 9190   3.548   0.746  13.432  1.0689 -0.0165 -0.2914
  617MPD2    C1 9191   3.552   0.821  13.547  0.5416  0.3169 -0.7523
  617MPD2    C2 9192   3.467   0.796  13.651  0.3631 -0.4475  0.6518
  617MPD2    C3 9193   3.380   0.682  13.638  0.0540  0.1173  0.2242
  617MPD2    C4 9194   3.389   0.603  13.526  0.1690 -0.5419 -1.0810
  617MPD2    C5 9195   3.461   0.640  13.420  0.5311  0.6726  0.8911
  617MPD2     H 9196   3.465   0.856  13.741 -0.1375 -1.2439  1.1709
  617MPD2    H1 9197   3.309   0.531  13.514 -0.2903 -0.0155 -1.1791
  617MPD2    H2 9198   3.618   0.767  13.351 -1.6862 -0.2119 -2.6981
  617MPD2    H3 9199   3.458   0.578  13.332  0.0723 -0.7220  1.8792
  617MPD2     N 9200   3.265   0.663  13.718 -0.6210  0.3937  0.1263
  617MPD2    H5 9201   3.199   0.596  13.679 -0.5977 -0.4955  1.6024
  617MPD2    N1 9202   3.661   0.909  13.554 -0.1330  0.3966 -0.7772
  617MPD2    H7 9203   3.706   0.928  13.465 -0.1237  1.2572 -0.5888
  618TMC3    C1 9204   3.820   1.063  13.625 -0.2059 -0.0941 -0.2366
  618TMC3    C2 9205   3.929   1.038  13.702  0.0829 -0.4951 -0.4602
  618TMC3    C3 9206   4.050   1.019  13.644 -0.4790  0.0479 -0.2169
  618TMC3    C4 9207   3.834   1.083  13.495 -0.0047  0.1750 -0.4403
  618TMC3    C5 9208   3.963   1.077  13.437 -0.8853 -0.5669  0.1457
  618TMC3    C6 9209   4.071   1.041  13.510 -0.1725 -0.1593 -0.5483
  618TMC3     C 9210   3.703   0.986  13.660  0.1018  0.2537 -0.7305
  618TMC3     O 9211   3.691   0.972  13.784 -0.5171 -0.0361  0.2299
  618TMC3     H 9212   3.910   1.040  13.809  2.3903  0.1965 -0.0564
  618TMC3    H1 9213   3.757   1.118  13.428 -0.0408  2.2531  0.6891
  618TMC3    H2 9214   4.166   1.019  13.463  1.5354 -1.4751  3.5114
  618TMC3    C7 9215   3.951   1.019  13.312  0.9424 -0.5222  0.3399
  618TMC3    C8 9216   4.162   0.996  13.736  0.2986 -0.1146  0.1135
  618TMC3    O1 9217   3.859   0.945  13.295 -0.0276 -0.0381 -0.7502
  618TMC3    O2 9218   4.131   1.022  13.853  0.1093  0.1095 -0.2500
  619MPD2     C 9219   0.331   2.195  13.405 -0.3142 -0.3188  0.1217
  619MPD2    C1 9220   0.297   2.257  13.520  0.4754  0.1984  0.0574
  619MPD2    C2 9221   0.195   2.198  13.593 -0.6744 -0.0534 -0.5665
  619MPD2    C3 9222   0.139   2.073  13.551 -0.1381 -0.0439  0.0304
  619MPD2    C4 9223   0.184   2.010  13.443  0.3769 -0.1637  0.0167
  619MPD2    C5 9224   0.281   2.074  13.365  0.7328  0.4136  0.1828
  619MPD2     H 9225   0.159   2.248  13.682  1.3796  1.7705 -0.7634
  619MPD2    H1 9226   0.140   1.915  13.415 -2.5315  0.0203  3.9627
  619MPD2    H2 9227   0.404   2.235  13.336  0.1199 -0.2323  0.6295
  619MPD2    H3 9228   0.302   2.034  13.267  1.1429 -0.2123  0.5238
  619MPD2     N 9229   0.030   2.016  13.621  0.4097 -0.7022 -0.3278
  619MPD2    H5 9230   0.015   1.917  13.606  0.2699 -0.5614 -1.1163
  619MPD2    N1 9231   0.369   2.369  13.557  0.3931 -0.7876 -0.6578
  619MPD2    H7 9232   0.443   2.400  13.496  0.4841  1.4010  0.5598
  620TMC3    C1 9233   0.482   2.521  13.713 -0.0633 -0.2701 -0.2542
  620TMC3    C2 9234   0.516   2.601  13.609 -0.0727  0.4190  0.6043
  620TMC3    C3 9235   0.507   2.735  13.631 -0.1664 -0.3641  1.2546
  620TMC3    C4 9236   0.462   2.570  13.842 -0.1890  0.4297 -0.0890
  620TMC3    C5 9237   0.460   2.702  13.861 -0.2336  0.0372  0.5498
  620TMC3    C6 9238   0.481   2.785  13.758 -0.1554 -0.2246 -0.2030
  620TMC3     C 9239   0.371   2.425  13.686 -0.1621 -0.6739  0.1053
  620TMC3     O 9240   0.314   2.398  13.789  0.8187 -0.0973 -0.2851
  620TMC3     H 9241   0.522   2.568  13.506 -2.3165  1.7288  0.0528
  620TMC3    H1 9242   0.456   2.504  13.928  1.0090 -0.4785 -0.7047
  620TMC3    H2 9243   0.492   2.892  13.773 -1.7112 -0.1307  0.3063
  620TMC3    C7 9244   0.367   2.771  13.945  0.1263  0.2779 -1.0339
  620TMC3    C8 9245   0.421   2.797  13.535 -0.3524 -0.5350 -0.1453
  620TMC3    O1 9246   0.307   2.871  13.905 -0.2459 -0.1668 -0.3374
  620TMC3    O2 9247   0.446   2.773  13.420 -0.1792 -0.4827 -0.5057
  621MPD2     C 9248   0.779   3.183   9.042  0.6272  0.8567 -0.2890
  621MPD2    C1 9249   0.828   3.133   9.152 -0.0995  0.3314  0.7420
  621MPD2    C2 9250   0.886   3.225   9.235 -0.2395 -0.7216 -0.1135
  621MPD2    C3 9251   0.916   3.358   9.197 -0.2040  0.4633 -0.0558
  621MPD2    C4 9252   0.881   3.405   9.073  0.0105  0.5793 -0.0647
  621MPD2    C5 9253   0.802   3.316   9.007  0.8222  0.3609 -0.3877
  621MPD2     H 9254   0.909   3.184   9.333 -0.2302  0.5278  0.4030
  621MPD2    H1 9255   0.901   3.503   9.030 -1.0059  1.4864  1.5146
  621MPD2    H2 9256   0.730   3.126   8.964 -0.2757  0.5481  0.5042
  621MPD2    H3 9257   0.769   3.342   8.907 -0.9199 -2.1558 -0.4701
  621MPD2     N 9258   0.991   3.431   9.298  1.2413 -0.2296 -0.3858
  621MPD2    H5 9259   1.004   3.386   9.389 -0.4283 -1.8679 -0.9321
  621MPD2    N1 9260   0.794   3.010   9.205  1.2282 -0.5377  0.5913
  621MPD2    H7 9261   0.829   2.997   9.300  1.0245 -0.6685  0.6507
  622TMC3    C1 9262   0.629   2.874   9.278  0.5939 -0.2115 -0.3701
  622TMC3    C2 9263   0.629   2.933   9.402 -0.8465  0.4187 -0.8158
  622TMC3    C3 9264   0.557   2.880   9.508 -0.5251 -0.2146  0.3891
  622TMC3    C4 9265   0.560   2.755   9.259 -0.4460  0.7662 -0.2049
  622TMC3    C5 9266   0.510   2.691   9.370 -0.7422  0.4596 -0.2981
  622TMC3    C6 9267   0.507   2.756   9.495  0.1382 -0.7214 -0.3898
  622TMC3     C 9268   0.684   2.939   9.165  0.6487  0.0446  0.3191
  622TMC3     O 9269   0.623   2.946   9.058 -0.6838 -0.1465 -0.1701
  622TMC3     H 9270   0.678   3.029   9.412 -0.5280 -0.0349  1.9421
  622TMC3    H1 9271   0.553   2.719   9.157  1.7953  1.2674 -0.5267
  622TMC3    H2 9272   0.447   2.706   9.570  3.4240 -1.0962  1.9728
  622TMC3    C7 9273   0.435   2.572   9.344 -0.3286 -0.1609 -1.1296
  622TMC3    C8 9274   0.550   2.968   9.630  0.5668 -0.2929 -0.5611
  622TMC3    O1 9275   0.386   2.550   9.234 -0.2286  0.1096  0.1903
  622TMC3    O2 9276   0.644   3.043   9.643 -0.6187  0.2191  0.0794
  623MPD2     C 9277   4.250   3.279  16.430 -0.5503  0.0368  0.1949
  623MPD2    C1 9278   4.164   3.210  16.509  0.2549  0.9505  0.2106
  623MPD2    C2 9279   4.159   3.227  16.640 -0.4480  0.3635 -0.1020
  623MPD2    C3 9280   4.244   3.313  16.702  0.0286  0.3165 -0.0769
  623MPD2    C4 9281   4.333   3.392  16.633 -0.2581 -0.3475  0.1583
  623MPD2    C5 9282   4.327   3.375  16.495 -0.9732 -0.8322 -0.2146
  623MPD2     H 9283   4.080   3.178  16.696  0.1220  2.5095  2.5617
  623MPD2    H1 9284   4.411   3.457  16.670 -1.6673  1.0253  0.6917
  623MPD2    H2 9285   4.257   3.265  16.322  0.2890  0.3283  0.2108
  623MPD2    H3 9286   4.386   3.441  16.433 -1.1295  0.9626  1.5639
  623MPD2     N 9287   4.243   3.310  16.843 -0.0013  0.6392  0.8493
  623MPD2    H5 9288   4.163   3.275  16.895 -1.0770  0.8851 -0.6234
  623MPD2    N1 9289   4.061   3.124  16.459  0.2794  0.2493 -0.2947
  623MPD2    H7 9290   3.996   3.095  16.531  1.9115  0.0304  1.0856
  624TMC3    C1 9291   4.379   3.220  17.213 -0.2173 -0.2753 -0.4340
  624TMC3    C2 9292   4.254   3.182  17.253 -0.2401  0.5772  0.4703
  624TMC3    C3 9293   4.145   3.244  17.199 -0.8496  0.2045 -0.1830
  624TMC3    C4 9294   4.394   3.329  17.132 -0.3501 -0.6650  0.5930
  624TMC3    C5 9295   4.286   3.380  17.064 -0.2524  0.0757 -0.1237
  624TMC3    C6 9296   4.159   3.332  17.097  0.2541 -0.3640  0.2360
  624TMC3     C 9297   4.487   3.150  17.272  0.3916  0.3063  0.6636
  624TMC3     O 9298   4.480   3.095  17.382  0.2273  0.3476 -0.0872
  624TMC3     H 9299   4.247   3.101  17.326  0.4206 -0.2125 -0.3354
  624TMC3    H1 9300   4.492   3.368  17.106 -0.1069 -0.4354  1.8508
  624TMC3    H2 9301   4.069   3.380  17.059  0.7887  0.7687  0.4266
  624TMC3    C7 9302   4.307   3.405  16.928  0.2164 -0.2476  0.4083
  624TMC3    C8 9303   4.024   3.163  17.190 -0.0654 -0.5480  0.6094
  624TMC3    O1 9304   4.388   3.490  16.902  0.3289 -0.1578  0.5857
  624TMC3    O2 9305   3.978   3.162  17.079  0.3770 -0.3023  0.0769
  625MPD2     C 9306   0.060   4.008   0.362  0.9060  0.6354  0.1720
  625MPD2    C1 9307   4.734   4.075   0.465 -0.8607  0.0471 -0.2142
  625MPD2    C2 9308   0.064   4.092   0.585 -0.4734 -0.1946  0.2174
  625MPD2    C3 9309   0.190   4.037   0.608 -0.0993 -0.2742 -0.9967
  625MPD2    C4 9310   0.251   3.977   0.503  0.5104 -0.4428 -0.1857
  625MPD2    C5 9311   0.187   3.971   0.382  0.7374  0.0125 -0.7639
  625MPD2     H 9312   0.021   4.149   0.667 -2.4111  1.1142 -1.7105
  625MPD2    H1 9313   0.353   3.940   0.512  0.9967  0.8445 -0.4882
  625MPD2    H2 9314   0.006   3.984   0.271 -1.9180 -0.8008  2.2156
  625MPD2    H3 9315   0.239   3.921   0.301 -1.0810 -2.1366 -0.6022
  625MPD2     N 9316   0.255   4.072   0.727 -0.3375 -0.3795 -0.1670
  625MPD2    H5 9317   0.201   4.133   0.787  1.3720  1.4251 -0.4860
  625MPD2    N1 9318   4.601   4.119   0.446  0.3321 -0.3594 -0.0588
  625MPD2    H7 9319   4.554   4.150   0.531  1.0242 -0.7073  0.4450
  626TMC3    C1 9320   4.402   4.188   0.335  0.3911  0.1239 -1.1039
  626TMC3    C2 9321   4.347   4.271   0.246 -0.5381 -0.0269 -0.2332
  626TMC3    C3 9322   4.221   4.324   0.251 -0.4827 -0.0320 -0.4036
  626TMC3    C4 9323   4.324   4.162   0.449  0.0594 -0.0950 -0.1407
  626TMC3    C5 9324   4.197   4.214   0.458 -0.7657  0.0183 -0.1755
  626TMC3    C6 9325   4.142   4.283   0.355  0.4155 -0.7935  0.4224
  626TMC3     C 9326   4.545   4.149   0.325 -0.5324  0.3224  0.4836
  626TMC3     O 9327   4.603   4.172   0.224 -0.0430 -0.4762 -0.3969
  626TMC3     H 9328   4.417   4.303   0.169 -2.4632 -1.2238 -2.4887
  626TMC3    H1 9329   4.358   4.092   0.524  2.6858  1.5311  0.1665
  626TMC3    H2 9330   4.039   4.317   0.362 -0.0038 -1.7388 -1.2038
  626TMC3    C7 9331   4.129   4.204   0.588 -0.0109 -0.3226  0.1197
  626TMC3    C8 9332   4.173   4.412   0.142 -0.0086 -0.3247 -0.3533
  626TMC3    O1 9333   4.142   4.107   0.664  0.1879 -0.1615  0.2367
  626TMC3    O2 9334   4.221   4.400   0.030  0.5959  0.0644  0.1781
  627MPD2     C 9335   3.160   4.513  14.348 -0.5573 -1.4100  0.6144
  627MPD2    C1 9336   3.068   4.539  14.443  0.0854  0.4025 -0.0621
  627MPD2    C2 9337   2.963   4.454  14.461  0.2727 -0.6806  0.0533
  627MPD2    C3 9338   2.954   4.342  14.381 -0.3933  0.4324 -1.1901
  627MPD2    C4 9339   3.052   4.316  14.284 -0.0650  0.0151 -0.2342
  627MPD2    C5 9340   3.149   4.402  14.266  0.0775  0.3129  0.0643
  627MPD2     H 9341   2.891   4.476  14.539  0.6081 -2.0671  0.7596
  627MPD2    H1 9342   3.034   4.236  14.213 -2.7617 -1.0385  1.6257
  627MPD2    H2 9343   3.249   4.575  14.339 -0.4046 -1.5707  1.0293
  627MPD2    H3 9344   3.230   4.373  14.200 -1.0187 -1.2457 -0.5747
  627MPD2     N 9345   2.833   4.269  14.388 -0.2063  0.0065 -0.0188
  627MPD2    H5 9346   2.768   4.312  14.453 -0.5729 -0.9695  0.2555
  627MPD2    N1 9347   3.075   4.650  14.527  0.8477  0.0463 -0.1662
  627MPD2    H7 9348   2.990   4.682  14.573  1.0962  0.2346  0.1647
  628TMC3    C1 9349   3.196   0.063  14.673  0.2794 -0.5158 -0.2040
  628TMC3    C2 9350   3.313   0.032  14.739 -0.3918 -0.4038 -0.3776
  628TMC3    C3 9351   3.362   0.125  14.824  0.6195 -0.0473  0.3732
  628TMC3    C4 9352   3.144   0.194  14.676 -0.0119 -0.1896  0.0492
  628TMC3    C5 9353   3.196   0.284  14.763 -0.5406  0.3311 -0.4523
  628TMC3    C6 9354   3.294   0.247  14.852 -0.8292  0.2883 -0.0519
  628TMC3     C 9355   3.192   4.730  14.547 -0.0999 -0.0978  0.0703
  628TMC3     O 9356   3.301   4.728  14.489  0.1549 -0.4476 -0.0912
  628TMC3     H 9357   3.360   4.670  14.737 -1.9212 -1.1309 -1.5704
  628TMC3    H1 9358   3.056   0.227  14.622 -0.1280 -2.2412 -1.0270
  628TMC3    H2 9359   3.346   0.322  14.911 -1.7404  0.5125  0.4604
  628TMC3    C7 9360   3.186   0.432  14.743 -0.0389 -0.0315  0.2376
  628TMC3    C8 9361   3.490   0.093  14.882  0.2092 -0.7312  0.0804
  628TMC3    O1 9362   3.240   0.502  14.822 -0.2299  0.1342  0.3267
  628TMC3    O2 9363   3.499   4.728  14.952  0.0940 -0.2047 -0.1510
  629MPD2     C 9364   1.076   2.565  17.420 -0.1970  0.3703  0.7941
  629MPD2    C1 9365   1.123   2.626  17.303 -0.5361 -0.5426  0.6380
  629MPD2    C2 9366   1.040   2.713  17.236  0.9289  0.2930 -0.3437
  629MPD2    C3 9367   0.909   2.732  17.278  0.2533 -0.8932  0.4330
  629MPD2    C4 9368   0.867   2.675  17.398 -0.6580 -0.6435  0.0363
  629MPD2    C5 9369   0.947   2.586  17.460 -0.3848  0.1501 -0.4860
  629MPD2     H 9370   1.069   2.763  17.144 -1.5802 -1.0691 -1.8922
  629MPD2    H1 9371   0.762   2.670  17.427 -0.3212 -0.8688  1.2403
  629MPD2    H2 9372   1.141   2.509  17.487  0.3888  1.6575  1.2996
  629MPD2    H3 9373   0.905   2.533  17.545  1.1757  1.9016  1.3795
  629MPD2     N 9374   0.827   2.817  17.196  0.1945  0.3875  0.0265
  629MPD2    H5 9375   0.865   2.872  17.119 -1.1490  1.8914  0.4585
  629MPD2    N1 9376   1.254   2.591  17.258 -0.0985  1.0439 -0.4333
  629MPD2    H7 9377   1.301   2.525  17.319 -0.2879  1.0063 -0.3290
  630TMC3    C1 9378   1.432   2.564  17.122 -0.8813 -0.3166 -0.3547
  630TMC3    C2 9379   1.467   2.572  16.990  0.1631  0.1053  0.3513
  630TMC3    C3 9380   1.589   2.617  16.957  0.1613 -0.1258 -0.0443
  630TMC3    C4 9381   1.518   2.572  17.222 -0.0302 -0.2544 -0.1628
  630TMC3    C5 9382   1.644   2.616  17.178  0.2588  0.6282  0.0331
  630TMC3    C6 9383   1.677   2.649  17.050  0.0435 -0.6996  0.5530
  630TMC3     C 9384   1.306   2.627  17.134  0.5515 -0.6521  0.3652
  630TMC3     O 9385   1.253   2.668  17.029 -0.5289 -0.4169 -0.2276
  630TMC3     H 9386   1.400   2.546  16.909  1.1259 -2.3079  0.3204
  630TMC3    H1 9387   1.493   2.558  17.326  0.7523  0.8737  0.1784
  630TMC3    H2 9388   1.782   2.669  17.030 -0.2313  1.2566  1.0948
  630TMC3    C7 9389   1.747   2.604  17.285  0.4299  0.2405 -0.2275
  630TMC3    C8 9390   1.584   2.717  16.849  0.2912 -0.8573 -0.8644
  630TMC3    O1 9391   1.751   2.500  17.348 -0.4888 -0.3824 -0.4525
  630TMC3    O2 9392   1.689   2.751  16.799 -0.0323  0.0566 -0.2188
  631MPD2     C 9393   0.423   3.724  15.484 -0.2838  0.5187 -0.4053
  631MPD2    C1 9394   0.299   3.771  15.517  0.8491 -0.4538  0.3021
  631MPD2    C2 9395   0.253   3.750  15.649 -0.2866 -0.1942 -0.4121
  631MPD2    C3 9396   0.338   3.705  15.750 -0.5419 -0.5957  0.7998
  631MPD2    C4 9397   0.467   3.667  15.707 -0.9675  0.6928  0.2322
  631MPD2    C5 9398   0.506   3.674  15.576  0.7555 -0.4862 -0.1322
  631MPD2     H 9399   0.157   3.785  15.685  0.8343 -0.1617  2.5497
  631MPD2    H1 9400   0.545   3.637  15.775 -0.3110  1.0349 -0.3724
  631MPD2    H2 9401   0.455   3.725  15.381 -0.3062  2.4947 -0.3903
  631MPD2    H3 9402   0.608   3.644  15.554  1.3252  1.8140 -0.6540
  631MPD2     N 9403   0.294   3.697  15.887  0.0406  0.6681 -0.5911
  631MPD2    H5 9404   0.203   3.736  15.909 -0.9095 -0.4668 -2.5593
  631MPD2    N1 9405   0.230   3.835  15.417 -0.6185 -0.1438 -0.1424
  631MPD2    H7 9406   0.277   3.821  15.329  3.7374 -2.5455  2.5447
  632TMC3    C1 9407   0.046   3.949  15.313  0.2759 -0.1423  0.1171
  632TMC3    C2 9408   4.661   4.008  15.326 -0.1612 -0.4330  0.3393
  632TMC3    C3 9409   4.608   4.060  15.212  0.3739 -0.1330 -0.5092
  632TMC3    C4 9410   0.118   3.953  15.199 -0.2161 -0.1025 -0.3070
  632TMC3    C5 9411   0.071   4.030  15.097 -0.1517 -0.0747  1.1511
  632TMC3    C6 9412   4.676   4.072  15.098 -0.0319 -0.2455  0.0695
  632TMC3     C 9413   0.103   3.886  15.429  0.1606 -0.0154  0.4287
  632TMC3     O 9414   0.032   3.877  15.529  0.6601  0.1772  0.1960
  632TMC3     H 9415   4.596   3.997  15.412  1.0343 -1.3769  1.1138
  632TMC3    H1 9416   0.216   3.909  15.190 -0.8996 -1.8720  0.9458
  632TMC3    H2 9417   4.629   4.108  15.007  1.6933  1.7589 -0.0392
  632TMC3    C7 9418   0.131   4.005  14.967 -0.7002  0.0397 -0.4908
  632TMC3    C8 9419   4.471   4.037  15.211  0.3221  0.7578  0.7686
  632TMC3    O1 9420   0.197   3.901  14.956 -0.4092  0.0040 -0.2083
  632TMC3    O2 9421   4.419   3.949  15.282  0.4484 -0.2571  0.6433
  633MPD2     C 9422   3.798   1.264  17.533 -0.8606 -0.7420  0.5844
  633MPD2    C1 9423   3.864   1.192  17.438  0.3806 -0.6227  0.4209
  633MPD2    C2 9424   3.965   1.102  17.474  0.1984  0.3243 -1.2097
  633MPD2    C3 9425   4.011   1.098  17.603 -0.1811 -0.2050  0.5801
  633MPD2    C4 9426   3.940   1.172  17.700 -0.9893  0.4445  0.0284
  633MPD2    C5 9427   3.837   1.251  17.662 -0.1704 -0.2597 -0.2055
  633MPD2     H 9428   4.019   1.037  17.405 -0.3794 -0.4703 -0.9123
  633MPD2    H1 9429   3.978   1.172   0.062 -0.8288  2.3947 -0.0259
  633MPD2    H2 9430   3.722   1.340  17.516  1.5961  1.7317  0.4951
  633MPD2    H3 9431   3.780   1.312  17.732  0.1086 -0.6647  0.3716
  633MPD2     N 9432   4.114   1.017  17.655  0.4655 -0.0904  0.1366
  633MPD2    H5 9433   4.137   1.045   0.010  1.3067 -1.5771  0.3658
  633MPD2    N1 9434   3.829   1.193  17.302  0.0885 -0.7247 -0.0343
  633MPD2    H7 9435   3.872   1.116  17.252 -1.2988 -0.9238 -0.9074
  634TMC3    C1 9436   3.744   1.257  17.096  0.1646  0.5948 -0.0854
  634TMC3    C2 9437   3.837   1.183  17.037  0.3149 -0.0683 -0.1375
  634TMC3    C3 9438   3.840   1.175  16.900  0.7402 -0.2874 -0.0329
  634TMC3    C4 9439   3.657   1.333  17.025  0.2355  0.1041  0.2815
  634TMC3    C5 9440   3.678   1.348  16.892 -0.0294  0.0314 -0.6020
  634TMC3    C6 9441   3.762   1.263  16.824 -0.2016 -0.0859 -0.2506
  634TMC3     C 9442   3.745   1.276  17.238  0.3444 -0.9286  0.3658
  634TMC3     O 9443   3.690   1.381  17.273 -0.2765  0.3547  0.3497
  634TMC3     H 9444   3.907   1.124  17.094  1.0696  0.2187 -0.7720
  634TMC3    H1 9445   3.582   1.392  17.075  1.3948  2.1142 -0.3571
  634TMC3    H2 9446   3.765   1.276  16.717 -2.8903  0.5721 -0.2446
  634TMC3    C7 9447   3.705   1.489  16.862 -0.5481  0.6002  0.0534
  634TMC3    C8 9448   3.928   1.073  16.840 -0.4874 -0.9787  0.1468
  634TMC3    O1 9449   3.796   1.502  16.781 -0.2748 -0.0285 -0.8502
  634TMC3    O2 9450   4.023   1.036  16.905  0.1659  0.1244  0.4633
  635TMC3    C1 9451   3.942   2.087   0.686 -0.2512  0.4057  0.3869
  635TMC3    C2 9452   3.963   2.051   0.552 -0.1346 -0.1195 -0.3607
  635TMC3    C3 9453   3.880   1.959   0.494 -0.1417  0.1146  0.5572
  635TMC3    C4 9454   3.846   2.025   0.763 -0.0782 -0.1708  0.6947
  635TMC3    C5 9455   3.771   1.933   0.696  0.2101 -0.1969  0.5747
  635TMC3    C6 9456   3.780   1.898   0.562 -0.1062  0.3768  0.1716
  635TMC3     C 9457   4.015   2.199   0.737  0.0653  1.0345 -0.0612
  635TMC3     O 9458   4.098   2.244   0.657  0.3131 -0.6197 -0.1715
  635TMC3     H 9459   4.047   2.099   0.503 -0.5599  0.4433 -0.5480
  635TMC3    H1 9460   3.838   2.043   0.870 -0.2498  1.8786  0.3258
  635TMC3    H2 9461   3.707   1.840   0.507  1.1768 -1.4377  0.3711
  635TMC3    C7 9462   3.678   1.861   0.784 -0.5073  0.2744  0.4838
  635TMC3    C8 9463   3.900   1.932   0.353  0.3553 -0.4806  0.1665
  635TMC3    O1 9464   3.660   1.911   0.891  0.1273  0.5015  0.3632
  635TMC3    O2 9465   3.952   2.021   0.287 -0.1154  0.1958 -0.0914
  636MPD2     C 9466   0.900   1.365  16.486 -0.4994  0.1824  0.3467
  636MPD2    C1 9467   0.869   1.323  16.611 -0.2954  0.1033 -0.2750
  636MPD2    C2 9468   0.924   1.196  16.652  0.4633 -0.1445 -0.0001
  636MPD2    C3 9469   0.986   1.116  16.561  0.6602 -0.1944 -0.0761
  636MPD2    C4 9470   1.026   1.166  16.440 -0.1963  0.3896  0.2013
  636MPD2    C5 9471   0.988   1.297  16.402  0.0660  0.0278  0.8101
  636MPD2     H 9472   0.909   1.143  16.745  3.5229  1.8859  1.6281
  636MPD2    H1 9473   1.086   1.107  16.372 -0.7113 -1.8397  1.6697
  636MPD2    H2 9474   0.873   1.462  16.448 -2.1971  0.2487  1.7375
  636MPD2    H3 9475   1.008   1.352  16.310 -2.7734  0.1999  0.2708
  636MPD2     N 9476   1.024   0.992  16.616 -0.8038 -0.0613  0.1172
  636MPD2    H5 9477   1.014   0.971  16.715  0.2814  1.3882  0.5332
  636MPD2    N1 9478   0.783   1.392  16.699  0.4570  0.2592  0.5057
  636MPD2    H7 9479   0.769   1.361  16.794  0.0940  0.4155  0.5052
  637TMC3    C1 9480   1.117   0.781  16.630 -0.0898 -0.0949 -0.0284
  637TMC3    C2 9481   1.128   0.818  16.760  0.2063 -0.0829  0.3050
  637TMC3    C3 9482   1.249   0.861  16.808  0.1017 -0.2959 -0.8002
  637TMC3    C4 9483   1.229   0.728  16.573  0.9615  0.5917  0.3031
  637TMC3    C5 9484   1.351   0.781  16.615 -0.3256 -0.5547  0.2327
  637TMC3    C6 9485   1.356   0.853  16.728 -0.6434 -0.0321  0.8162
  637TMC3     C 9486   1.060   0.884  16.543 -0.0973  0.1817  0.1690
  637TMC3     O 9487   1.065   0.869  16.421  0.4732 -0.0267  0.5753
  637TMC3     H 9488   1.038   0.826  16.820  0.9416 -0.9180  1.5213
  637TMC3    H1 9489   1.225   0.688  16.473 -0.2712  0.0378  0.5810
  637TMC3    H2 9490   1.447   0.902  16.758 -0.8563 -0.8175  2.7114
  637TMC3    C7 9491   1.401   0.865  16.507 -0.5257 -0.3478  0.7162
  637TMC3    C8 9492   1.241   0.985  16.871 -0.7106 -0.7545  0.5650
  637TMC3    O1 9493   1.391   0.824  16.394 -0.5273  0.1557 -0.1937
  637TMC3    O2 9494   1.318   1.065  16.825  0.3895  0.0314 -0.5608
  638MPD2     C 9495   0.702   0.639  14.991  0.1717  0.4412  0.3559
  638MPD2    C1 9496   0.642   0.549  14.905  0.1636 -0.0113 -0.5628
  638MPD2    C2 9497   0.556   0.455  14.957 -0.6729 -0.5596  0.1397
  638MPD2    C3 9498   0.530   0.463  15.098 -0.4320 -0.4432  0.0083
  638MPD2    C4 9499   0.586   0.562  15.178  0.4858 -0.4232  0.0396
  638MPD2    C5 9500   0.672   0.651  15.120 -0.4896 -0.1717 -0.3962
  638MPD2     H 9501   0.502   0.395  14.885  0.5286 -0.4141 -0.8810
  638MPD2    H1 9502   0.574   0.569  15.285  1.2724  1.9670 -0.0081
  638MPD2    H2 9503   0.779   0.709  14.958  1.2923 -0.7648  0.3874
  638MPD2    H3 9504   0.716   0.719  15.192  0.3617 -0.3877 -0.7094
  638MPD2     N 9505   0.433   0.374  15.158  0.4030  0.3797 -0.6577
  638MPD2    H5 9506   0.377   0.403  15.238  0.7978  2.8703 -1.2664
  638MPD2    N1 9507   0.680   0.563  14.772 -0.0160  0.1553  0.8889
  638MPD2    H7 9508   0.747   0.636  14.753  0.6746 -0.7730 -0.1915
  639TMC3    C1 9509   0.510   0.180  15.033 -0.2595  0.0183 -0.2447
  639TMC3    C2 9510   0.505   0.137  14.899  0.3452  0.4813 -0.6211
  639TMC3    C3 9511   0.591   0.040  14.857  0.0358  1.0548 -0.9154
  639TMC3    C4 9512   0.601   0.133  15.115 -0.1666  0.5594 -0.4494
  639TMC3    C5 9513   0.691   0.039  15.068 -0.0150  0.2540  0.1007
  639TMC3    C6 9514   0.691   4.725  14.937 -0.5965  0.1462 -0.0705
  639TMC3     C 9515   0.399   0.254  15.100  0.1730  0.3161  0.3438
  639TMC3     O 9516   0.294   0.194  15.117  0.9149 -0.1448 -0.3819
  639TMC3     H 9517   0.415   0.162  14.844 -1.2613 -2.2893  0.7283
  639TMC3    H1 9518   0.602   0.166  15.218 -1.6177  1.3127 -0.6888
  639TMC3    H2 9519   0.758   4.641  14.923 -0.5543  0.3215 -0.9100
  639TMC3    C7 9520   0.793   4.725  15.147  0.2857 -0.8667  0.5077
  639TMC3    C8 9521   0.577   4.717  14.725  0.0293 -0.3243 -0.1065
  639TMC3    O1 9522   0.757   4.696  15.257 -0.1594  0.0308 -0.2237
  639TMC3    O2 9523   0.647   4.619  14.707  0.0308  0.2971 -0.5265
  640MPD2     C 9524   1.472   4.151  10.361  0.1751 -0.4507  0.4646
  640MPD2    C1 9525   1.507   4.231  10.253  0.1118 -0.2343 -0.6894
  640MPD2    C2 9526   1.538   4.368  10.271  0.0792  0.6342  0.9756
  640MPD2    C3 9527   1.517   4.432  10.388 -0.7762 -0.0853  0.1102
  640MPD2    C4 9528   1.461   4.363  10.492  0.0691 -0.1153  0.4844
  640MPD2    C5 9529   1.451   4.228  10.469 -0.8333  0.0686 -0.3901
  640MPD2     H 9530   1.587   4.420  10.190  0.1344 -1.9152 -0.6178
  640MPD2    H1 9531   1.424   4.403  10.586  1.4951  1.0592  0.5378
  640MPD2    H2 9532   1.466   4.043  10.362 -0.6729 -0.4326 -1.7572
  640MPD2    H3 9533   1.418   4.166  10.552  3.2405 -1.0057  0.4255
  640MPD2     N 9534   1.542   4.567  10.414  0.0745  0.0988  0.4049
  640MPD2    H5 9535   1.528   4.598  10.510 -2.3507  3.2620 -0.9625
  640MPD2    N1 9536   1.528   4.156  10.125  0.1473 -0.1700  0.1190
  640MPD2    H7 9537   1.509   4.056  10.131 -1.3045  0.0959  0.0118
  641TMC3    C1 9538   1.529   4.122   9.896 -0.3426  0.1975  0.3524
  641TMC3    C2 9539   1.563   3.989   9.901 -0.8232 -0.0930  0.9253
  641TMC3    C3 9540   1.532   3.919   9.790 -0.6728  0.1610 -0.7702
  641TMC3    C4 9541   1.462   4.177   9.790  0.3239 -0.1189  0.1222
  641TMC3    C5 9542   1.425   4.101   9.686 -0.0147  0.5010 -0.0718
  641TMC3    C6 9543   1.458   3.970   9.685  0.2402 -0.0529  0.2866
  641TMC3     C 9544   1.540   4.217  10.006 -0.1266  0.6998  0.0661
  641TMC3     O 9545   1.535   4.341   9.980 -0.0345 -0.7139  0.0032
  641TMC3     H 9546   1.600   3.933   9.985 -0.6373  0.9245  1.5192
  641TMC3    H1 9547   1.431   4.281   9.796  0.5653 -0.0855  0.8431
  641TMC3    H2 9548   1.449   3.913   9.594 -0.1891  1.5934 -0.6991
  641TMC3    C7 9549   1.355   4.154   9.569 -0.8552 -0.4403 -0.0849
  641TMC3    C8 9550   1.616   3.796   9.775  0.7613  0.1724 -0.2944
  641TMC3    O1 9551   1.369   4.085   9.466 -0.3425 -0.1599 -0.6047
  641TMC3    O2 9552   1.567   3.708   9.709 -1.1706  0.1860  0.2589
  642TMC3    C1 9553   2.217   0.117  12.593 -0.3697  0.4684  1.1369
  642TMC3    C2 9554   2.347   0.146  12.557 -0.3132  0.0169  0.3839
  642TMC3    C3 9555   2.414   0.061  12.469  0.2273 -0.9135  0.2236
  642TMC3    C4 9556   2.153   0.010  12.557  0.2906  0.5674 -0.4369
  642TMC3    C5 9557   2.229   4.654  12.482  0.3149  0.1451  0.6453
  642TMC3    C6 9558   2.355   4.680  12.428 -0.0667 -0.5435  0.2507
  642TMC3     C 9559   2.146   0.217  12.671  0.1754 -0.3606 -0.5235
  642TMC3     O 9560   2.215   0.302  12.722 -0.6150 -0.1329  0.4334
  642TMC3     H 9561   2.385   0.245  12.581  0.3361 -0.1136 -0.1008
  642TMC3    H1 9562   2.053   4.723  12.593  0.4082  2.1933  0.8650
  642TMC3    H2 9563   2.403   4.604  12.367  1.8893 -1.4547  2.9317
  642TMC3    C7 9564   2.166   4.532  12.436  0.1929  0.1867 -0.4264
  642TMC3    C8 9565   2.557   0.059  12.464 -0.0326  0.6989 -0.2457
  642TMC3    O1 9566   2.201   4.486  12.329 -0.4635 -0.3655 -0.0109
  642TMC3    O2 9567   2.612   0.000  12.372  0.6520 -0.2789  0.4138
  643TMC3    C1 9568   1.117   4.051  17.407  0.2675  0.4449  0.7137
  643TMC3    C2 9569   1.032   4.126  17.333 -0.3821  0.0849 -0.1221
  643TMC3    C3 9570   0.952   4.065  17.242  0.0792  0.1410 -0.3173
  643TMC3    C4 9571   1.132   3.918  17.388  0.3274 -0.2661 -0.4074
  643TMC3    C5 9572   1.048   3.859  17.295 -0.0611 -0.0091  0.0295
  643TMC3    C6 9573   0.941   3.930  17.240  0.2311  0.4387 -0.7480
  643TMC3     C 9574   1.174   4.127  17.514 -0.8207  0.5279  0.4309
  643TMC3     O 9575   1.184   4.246  17.493  0.2042  0.4340  0.1453
  643TMC3     H 9576   1.016   4.232  17.351  1.6833  0.3533  0.0810
  643TMC3    H1 9577   1.208   3.863  17.442  1.1901  0.4772 -0.8576
  643TMC3    H2 9578   0.873   3.879  17.173  0.1429 -0.5174  0.0711
  643TMC3    C7 9579   1.033   3.717  17.298 -0.7779  0.3431  0.0824
  643TMC3    C8 9580   0.889   4.136  17.135  0.4127 -0.2392  0.4197
  643TMC3    O1 9581   1.053   3.661  17.405 -0.1071  0.5695 -0.2424
  643TMC3    O2 9582   0.781   4.096  17.103 -0.3077 -0.5171  0.5028
  644MPD2     C 9583   1.685   0.141   9.791  0.2913 -0.1449 -0.2199
  644MPD2    C1 9584   1.648   0.124   9.661  0.2871  0.6191  0.7406
  644MPD2    C2 9585   1.649   0.235   9.578  0.7657  0.0271 -0.0624
  644MPD2    C3 9586   1.681   0.357   9.626  0.5575  0.1942 -0.4443
  644MPD2    C4 9587   1.707   0.372   9.759 -0.6033  0.0466 -0.0640
  644MPD2    C5 9588   1.703   0.266   9.843  0.0248  0.6991  0.0460
  644MPD2     H 9589   1.636   0.223   9.471 -1.1341  0.1623  0.1496
  644MPD2    H1 9590   1.737   0.467   9.803  0.8162 -0.2088 -0.4648
  644MPD2    H2 9591   1.696   0.057   9.859  0.8906  0.5339  0.5326
  644MPD2    H3 9592   1.734   0.275   9.946 -1.6198  1.3403  0.4863
  644MPD2     N 9593   1.701   0.461   9.532  0.7722  0.9919 -0.7102
  644MPD2    H5 9594   1.676   0.430   9.438  0.3810 -1.7518  0.3028
  644MPD2    N1 9595   1.627   4.729   9.622 -0.4026 -0.6520  0.0556
  644MPD2    H7 9596   1.640   4.659   9.694 -0.1214 -0.3440  0.3003
  645TMC3    C1 9597   1.751   0.664   9.443 -0.3867 -0.4569 -0.3129
  645TMC3    C2 9598   1.688   0.625   9.326 -0.4812 -0.1726 -0.2383
  645TMC3    C3 9599   1.703   0.709   9.217 -0.0283  0.0361 -0.6161
  645TMC3    C4 9600   1.832   0.774   9.448 -0.8292 -0.5151  0.2096
  645TMC3    C5 9601   1.860   0.845   9.334  0.3443  0.6860 -0.1203
  645TMC3    C6 9602   1.789   0.813   9.218  0.2439  0.2946 -0.6991
  645TMC3     C 9603   1.736   0.589   9.561 -0.1519 -0.0457 -0.8394
  645TMC3     O 9604   1.775   0.633   9.668 -0.1297  0.0003 -0.0245
  645TMC3     H 9605   1.607   0.553   9.336  0.3471 -1.1551 -0.5747
  645TMC3    H1 9606   1.896   0.789   9.534 -3.3330 -0.8651  2.1195
  645TMC3    H2 9607   1.790   0.876   9.130  1.0148  0.2727 -0.7060
  645TMC3    C7 9608   1.952   0.958   9.340  0.6220  0.8858 -0.1449
  645TMC3    C8 9609   1.631   0.684   9.097  0.1661  0.1229  0.3652
  645TMC3    O1 9610   2.008   0.969   9.454  0.0745  0.7209  0.3306
  645TMC3    O2 9611   1.636   0.772   9.014  0.3717 -0.3479 -0.5391
  646MPD2     C 9612   0.781   3.705  14.561  0.2376 -0.1944  0.3767
  646MPD2    C1 9613   0.642   3.683  14.570  0.1090  0.1715  0.5511
  646MPD2    C2 9614   0.565   3.783  14.509  0.4569  1.5194  0.2930
  646MPD2    C3 9615   0.622   3.885  14.439 -1.0394  0.1627 -0.1123
  646MPD2    C4 9616   0.761   3.901  14.434  0.0495  0.0471 -0.7352
  646MPD2    C5 9617   0.834   3.810  14.494  0.4432 -0.0238 -0.8006
  646MPD2     H 9618   0.456   3.775  14.507  0.6718 -1.3561 -0.8905
  646MPD2    H1 9619   0.814   3.976  14.378 -1.2404 -0.9035 -3.2531
  646MPD2    H2 9620   0.848   3.642  14.619  1.0906  0.5786  0.2338
  646MPD2    H3 9621   0.941   3.815  14.504  0.4849 -2.7711  0.1932
  646MPD2     N 9622   0.539   3.978  14.363  0.2488  0.8662 -0.4216
  646MPD2    H5 9623   0.437   3.971  14.362  0.1903  2.0521 -2.9204
  646MPD2    N1 9624   0.588   3.574  14.647  0.0851 -0.2087  0.0008
  646MPD2    H7 9625   0.654   3.513  14.694 -1.3673 -1.1084  0.9155
  647TMC3    C1 9626   0.433   3.468  14.800  0.0173  0.2619 -0.1972
  647TMC3    C2 9627   0.329   3.502  14.885  0.7550 -0.3383 -0.0073
  647TMC3    C3 9628   0.331   3.449  15.008  0.5650  0.1297 -0.4595
  647TMC3    C4 9629   0.527   3.379  14.829  0.3107 -0.1624 -0.3354
  647TMC3    C5 9630   0.517   3.322  14.954  0.4031  0.4653 -0.2388
  647TMC3    C6 9631   0.424   3.359  15.047 -0.2587  0.1206  0.0315
  647TMC3     C 9632   0.452   3.558  14.685  0.6659 -0.5071 -0.1726
  647TMC3     O 9633   0.364   3.643  14.670  0.2420 -0.8965 -0.1230
  647TMC3     H 9634   0.251   3.572  14.860 -0.7012 -2.1003 -0.4114
  647TMC3    H1 9635   0.602   3.343  14.759  0.0883  0.9521 -1.1434
  647TMC3    H2 9636   0.418   3.306  15.142  1.4304  0.2541  0.2162
  647TMC3    C7 9637   0.615   3.223  14.990 -0.0600 -0.3084 -0.2047
  647TMC3    C8 9638   0.217   3.483  15.093  0.2318  0.3607 -0.0064
  647TMC3    O1 9639   0.724   3.225  14.935  0.0037  0.4262 -0.1210
  647TMC3    O2 9640   0.111   3.510  15.039 -0.5323  0.3327  0.0686
  648TMC3    C1 9641   4.716   1.325  16.525 -0.3174 -0.7657 -0.6807
  648TMC3    C2 9642   0.024   1.197  16.490 -0.0881  0.4105  0.0631
  648TMC3    C3 9643   0.045   1.184  16.357 -0.2598  0.1106 -0.1718
  648TMC3    C4 9644   4.691   1.429  16.437 -0.3324 -0.0825 -0.2904
  648TMC3    C5 9645   4.699   1.397  16.306  0.1718  0.0976 -0.4184
  648TMC3    C6 9646   0.008   1.275  16.264  0.5645 -0.2009 -0.8653
  648TMC3     C 9647   4.673   1.353  16.664  0.6651 -0.2595  0.9629
  648TMC3     O 9648   4.674   1.467  16.699 -0.9894  0.2484 -0.0644
  648TMC3     H 9649   0.051   1.124  16.564  2.4885  0.5492 -0.7294
  648TMC3    H1 9650   4.657   1.527  16.469  1.2327  0.2212  0.4544
  648TMC3    H2 9651   0.018   1.247  16.159  0.0331 -1.5587 -0.5655
  648TMC3    C7 9652   4.644   1.478  16.199 -0.0888 -0.7450 -0.2976
  648TMC3    C8 9653   0.108   1.059  16.309  0.2811 -0.2320 -0.9038
  648TMC3    O1 9654   4.671   1.460  16.086  0.2029  0.1296  0.1007
  648TMC3    O2 9655   0.088   0.967  16.390  0.1950  0.8132  0.3278
  649TMC3    C1 9656   3.947   2.432  13.218  0.1978 -0.1870 -1.1138
  649TMC3    C2 9657   4.033   2.346  13.156 -0.4676  0.7157 -0.2914
  649TMC3    C3 9658   4.153   2.308  13.216 -0.5768  0.1352  0.3769
  649TMC3    C4 9659   3.975   2.464  13.357 -0.6384  0.0176  0.7515
  649TMC3    C5 9660   4.077   2.403  13.421 -0.6589  0.3162 -0.8150
  649TMC3    C6 9661   4.171   2.333  13.346 -0.3438  0.4823  0.1279
  649TMC3     C 9662   3.825   2.472  13.162  0.0412  0.1930  0.4145
  649TMC3     O 9663   3.789   2.586  13.177 -0.5414  0.1081 -0.3806
  649TMC3     H 9664   4.017   2.325  13.050 -1.5924 -0.7522  0.1660
  649TMC3    H1 9665   3.915   2.530  13.419  1.5108  2.4158  0.2685
  649TMC3    H2 9666   4.263   2.293  13.389  1.0629 -0.3142 -3.6543
  649TMC3    C7 9667   4.018   2.331  13.525 -0.8156 -0.4113  0.2629
  649TMC3    C8 9668   4.203   2.181  13.171  0.0127  0.7554 -1.0317
  649TMC3    O1 9669   3.909   2.359  13.569 -0.6150 -0.2234  0.3147
  649TMC3    O2 9670   4.179   2.087  13.248 -0.6581 -0.0770 -0.1746
  650TMC3    C1 9671   1.454   3.951  12.551  0.6266 -0.2105  0.2771
  650TMC3    C2 9672   1.372   4.037  12.625  0.8640  0.4381 -0.0159
  650TMC3    C3 9673   1.269   4.094  12.568  0.3077  0.0087  0.0828
  650TMC3    C4 9674   1.436   3.925  12.421 -0.1404 -0.0055  0.2079
  650TMC3    C5 9675   1.336   3.989  12.366 -0.4810 -1.3973 -0.0371
  650TMC3    C6 9676   1.250   4.076  12.429 -0.2335 -0.3213  0.1086
  650TMC3     C 9677   1.543   3.871  12.637  0.2535 -0.1386  0.2251
  650TMC3     O 9678   1.581   3.926  12.739 -0.0669  0.4125 -0.0853
  650TMC3     H 9679   1.383   4.052  12.731  2.3083 -4.9392  0.5736
  650TMC3    H1 9680   1.514   3.875  12.364 -0.2874 -0.6249  0.5445
  650TMC3    H2 9681   1.181   4.134  12.371 -2.0878 -2.6566 -0.0070
  650TMC3    C7 9682   1.368   4.052  12.240 -0.0839 -0.0048 -0.1320
  650TMC3    C8 9683   1.246   4.232  12.619 -0.5498  0.1836  0.6222
  650TMC3    O1 9684   1.367   3.981  12.139 -0.2514 -0.3427  0.2964
  650TMC3    O2 9685   1.339   4.310  12.626  0.8032  0.2125 -0.1362
  651MPD2     C 9686   0.168   1.365  10.366  0.2172 -0.1174  0.4627
  651MPD2    C1 9687   0.160   1.494  10.421 -0.0196 -0.2275  0.1600
  651MPD2    C2 9688   0.276   1.578  10.426 -0.4931 -1.2286 -0.1088
  651MPD2    C3 9689   0.398   1.531  10.389  0.7439 -0.0606  0.7142
  651MPD2    C4 9690   0.403   1.397  10.347 -0.2126  0.6460  0.1797
  651MPD2    C5 9691   0.294   1.319  10.338  0.1565  0.2218  0.5000
  651MPD2     H 9692   0.271   1.677  10.470  2.4238 -0.8417 -0.6286
  651MPD2    H1 9693   0.499   1.359  10.314  0.2998  1.3906  0.8250
  651MPD2    H2 9694   0.088   1.292  10.373  1.3266 -1.3204  0.5828
  651MPD2    H3 9695   0.310   1.215  10.311  2.5438  0.1904  2.0452
  651MPD2     N 9696   0.515   1.611  10.407  0.4765 -0.6521 -0.5525
  651MPD2    H5 9697   0.498   1.710  10.394 -0.1489 -0.6249  0.4792
  651MPD2    N1 9698   0.042   1.564  10.461 -0.1473 -0.1576  0.3844
  651MPD2    H7 9699   0.063   1.647  10.517 -0.1119 -1.6491  2.5690
  652TMC3    C1 9700   0.965   1.718  10.411 -0.9059 -0.0282  0.2538
  652TMC3    C2 9701   0.866   1.636  10.446 -0.4899  0.1685 -0.2864
  652TMC3    C3 9702   0.742   1.661  10.390 -0.2893  0.1017 -0.7581
  652TMC3    C4 9703   0.942   1.821  10.323  0.0607  0.1388  1.1049
  652TMC3    C5 9704   0.821   1.844  10.267 -0.4030 -0.1220  0.3345
  652TMC3    C6 9705   0.718   1.766  10.305 -0.2130 -0.4691  0.1479
  652TMC3     C 9706   1.092   1.707  10.477 -0.8090  0.6312 -0.4080
  652TMC3     O 9707   1.100   1.607  10.545 -0.3421 -0.7925 -0.0318
  652TMC3     H 9708   0.881   1.558  10.520  2.8546  0.3145 -0.7930
  652TMC3    H1 9709   1.025   1.874  10.279 -0.1925 -0.3348  0.0629
  652TMC3    H2 9710   0.624   1.774  10.251 -0.1423  1.1124  0.2851
  652TMC3    C7 9711   0.783   1.953  10.184 -0.1375  0.0515  0.3524
  652TMC3    C8 9712   0.641   1.563  10.416  0.2126 -0.0587 -0.9595
  652TMC3    O1 9713   0.677   1.942  10.121  0.5710 -0.1462 -0.1543
  652TMC3    O2 9714   0.678   1.451  10.461 -0.3350 -0.4099 -0.1324
  653MPD2     C 9715   3.396   1.365   0.179 -0.0267 -0.7722 -0.5050
  653MPD2    C1 9716   3.405   1.464   0.079 -0.1399  0.2283  0.3250
  653MPD2    C2 9717   3.438   1.414  17.690  0.6053  0.0914 -0.5130
  653MPD2    C3 9718   3.455   1.277  17.659  0.5444  0.2479 -0.0648
  653MPD2    C4 9719   3.450   1.185   0.024  0.4179 -0.8164  0.0468
  653MPD2    C5 9720   3.422   1.234   0.151  0.2012 -0.2125 -0.4910
  653MPD2     H 9721   3.436   1.484  17.607  2.7223 -0.9609 -1.4515
  653MPD2    H1 9722   3.458   1.079   0.003 -0.3919 -0.6937 -0.8673
  653MPD2    H2 9723   3.381   1.387   0.285 -2.8056 -0.0316 -1.0410
  653MPD2    H3 9724   3.425   1.162   0.232 -0.6887  0.5995  0.2535
  653MPD2     N 9725   3.466   1.236  17.525  0.2879  0.8573 -0.1806
  653MPD2    H5 9726   3.456   1.319  17.468 -0.0702  1.2746  0.4839
  653MPD2    N1 9727   3.393   1.601   0.096  0.5874 -0.2844  0.2561
  653MPD2    H7 9728   3.414   1.657   0.013 -2.9174  0.2796 -0.2494
  654TMC3    C1 9729   3.487   1.100  17.326  0.1834 -0.2570 -0.1344
  654TMC3    C2 9730   3.397   1.173  17.263  0.3184  0.0377 -0.1688
  654TMC3    C3 9731   3.358   1.143  17.135 -0.6170 -0.1177  0.4083
  654TMC3    C4 9732   3.543   0.986  17.270  0.4018  0.6584 -0.3091
  654TMC3    C5 9733   3.513   0.966  17.135 -0.4194 -0.2200 -0.6119
  654TMC3    C6 9734   3.420   1.046  17.063 -0.4084 -0.4855 -0.3072
  654TMC3     C 9735   3.495   1.112  17.475  0.2422  0.6245  0.9792
  654TMC3     O 9736   3.533   1.021  17.549  0.0002  0.0522 -0.8265
  654TMC3     H 9737   3.354   1.255  17.320  0.2135  0.8159 -1.3652
  654TMC3    H1 9738   3.599   0.922  17.337  1.2575  2.4223  0.6583
  654TMC3    H2 9739   3.397   1.025  16.959 -1.1742 -1.8670  0.1326
  654TMC3    C7 9740   3.607   0.905  17.046  0.1669 -0.5026 -0.5553
  654TMC3    C8 9741   3.257   1.219  17.071 -0.2292 -0.2567  0.1188
  654TMC3    O1 9742   3.597   0.933  16.930  0.1443 -0.0235 -0.2622
  654TMC3    O2 9743   3.251   1.341  17.094  0.1778  0.3043  0.3000
  655MPD2     C 9744   0.409   1.720  15.884 -0.0361 -0.0032 -0.4679
  655MPD2    C1 9745   0.301   1.795  15.837  1.0602 -0.0591 -0.0547
  655MPD2    C2 9746   0.271   1.801  15.700 -0.2368  0.6373 -0.2156
  655MPD2    C3 9747   0.354   1.737  15.611  0.1546  0.0126  0.4835
  655MPD2    C4 9748   0.463   1.663  15.656 -0.4462 -0.7418 -0.4410
  655MPD2    C5 9749   0.488   1.659  15.791  0.2888  0.3254  0.3657
  655MPD2     H 9750   0.193   1.869  15.668 -1.4289 -0.8080 -0.3517
  655MPD2    H1 9751   0.535   1.606  15.598 -0.2644  0.7774 -1.6815
  655MPD2    H2 9752   0.445   1.712  15.986  0.7187 -1.4297 -0.8376
  655MPD2    H3 9753   0.584   1.620  15.825 -0.3188 -0.1819  1.5153
  655MPD2     N 9754   0.338   1.755  15.469  0.3630  0.0878 -0.4846
  655MPD2    H5 9755   0.406   1.710  15.408  0.7588 -1.8794  1.4049
  655MPD2    N1 9756   0.220   1.866  15.926 -0.2146 -0.2113 -0.0235
  655MPD2    H7 9757   0.151   1.925  15.881 -0.7149 -0.9702 -0.2536
  656TMC3    C1 9758   0.116   1.935  16.133 -0.1569  0.4593 -0.2309
  656TMC3    C2 9759   0.080   1.898  16.259  0.2580 -0.0955  0.9053
  656TMC3    C3 9760   4.697   1.946  16.300 -0.0115  0.2702  0.4780
  656TMC3    C4 9761   0.067   2.048  16.068 -0.0679 -0.1506  0.1450
  656TMC3    C5 9762   4.693   2.103  16.120  0.4718  0.8425  0.5593
  656TMC3    C6 9763   4.632   2.055  16.235  0.1344 -0.2195 -0.2976
  656TMC3     C 9764   0.200   1.836  16.060  0.1378  1.4138 -0.2972
  656TMC3     O 9765   0.241   1.746  16.133  0.1736 -0.2280  0.0193
  656TMC3     H 9766   0.106   1.803  16.305  0.7795  0.0565  0.9271
  656TMC3    H1 9767   0.113   2.085  15.977  1.5907 -0.7055  0.7513
  656TMC3    H2 9768   4.529   2.080  16.259 -0.0336 -0.3750 -0.8422
  656TMC3    C7 9769   4.611   2.209  16.050 -0.6380 -0.8397 -0.1048
  656TMC3    C8 9770   4.632   1.881  16.410 -0.6320  0.1391 -0.0850
  656TMC3    O1 9771   4.535   2.269  16.130  0.0452 -0.0849  0.2145
  656TMC3    O2 9772   4.677   1.770  16.447  0.0733  0.3727  0.6264
  657TMC3    C1 9773   4.009   0.488  15.763 -0.7349 -0.0853  0.5322
  657TMC3    C2 9774   4.062   0.606  15.712 -0.3920 -0.2846 -0.3594
  657TMC3    C3 9775   3.989   0.677  15.621 -1.0037  0.1441  0.1217
  657TMC3    C4 9776   3.877   0.457  15.725 -0.0193 -0.1693 -0.0080
  657TMC3    C5 9777   3.809   0.524  15.625  0.2139  0.7873  0.3005
  657TMC3    C6 9778   3.868   0.638  15.573 -0.2181  0.5186  0.2428
  657TMC3     C 9779   4.081   0.387  15.842 -0.0191  0.2600 -0.1596
  657TMC3     O 9780   4.006   0.307  15.901  0.6573 -0.9197 -0.0840
  657TMC3     H 9781   4.161   0.637  15.741 -0.3511 -1.5397  0.8389
  657TMC3    H1 9782   3.841   0.363  15.766  0.4338 -0.6368 -0.6778
  657TMC3    H2 9783   3.827   0.700  15.494 -0.3900 -1.5850 -1.3200
  657TMC3    C7 9784   3.680   0.474  15.577 -0.1737 -0.1395  0.0358
  657TMC3    C8 9785   4.036   0.799  15.564 -0.1485  0.6997  0.6969
  657TMC3    O1 9786   3.627   0.381  15.630 -0.4065 -0.4287  0.1498
  657TMC3    O2 9787   3.952   0.882  15.536  0.6480  0.2300 -0.4130
  658MPD2     C 9788   0.847   1.771  15.091 -0.2354 -0.6970  0.2791
  658MPD2    C1 9789   0.740   1.767  14.999  0.5304  0.4063  0.2086
  658MPD2    C2 9790   0.762   1.742  14.868 -0.0983 -0.6665 -0.4667
  658MPD2    C3 9791   0.893   1.741  14.817 -0.1966 -0.4064 -0.0573
  658MPD2    C4 9792   0.998   1.762  14.902  0.1139 -0.7033  0.5535
  658MPD2    C5 9793   0.978   1.776  15.039  0.3590 -0.0498 -0.3687
  658MPD2     H 9794   0.676   1.719  14.807 -0.9981  4.5763 -1.2187
  658MPD2    H1 9795   1.098   1.750  14.863  0.1112  0.3343  0.2118
  658MPD2    H2 9796   0.825   1.795  15.194  0.9604 -0.2208  0.4170
  658MPD2    H3 9797   1.064   1.782  15.105  1.6876 -1.8493 -1.9250
  658MPD2     N 9798   0.911   1.708  14.681  0.3660 -0.3931  0.0980
  658MPD2    H5 9799   0.828   1.678  14.631 -0.9068  2.5534  0.4582
  658MPD2    N1 9800   0.609   1.773  15.059  0.4472 -0.0668 -0.2373
  658MPD2    H7 9801   0.615   1.765  15.160  2.6186  0.9946 -0.2699
  659TMC3    C1 9802   0.374   1.783  15.074 -0.2030  0.2796  0.0496
  659TMC3    C2 9803   0.374   1.801  15.209  0.2770 -0.6895  0.5411
  659TMC3    C3 9804   0.251   1.806  15.269  0.0053 -0.7898 -0.4432
  659TMC3    C4 9805   0.259   1.759  15.000 -0.2901 -0.1443 -0.1320
  659TMC3    C5 9806   0.141   1.749  15.068  0.3004 -0.4028  0.0712
  659TMC3    C6 9807   0.130   1.780  15.204  0.7816 -0.4429 -0.2220
  659TMC3     C 9808   0.494   1.788  14.995 -0.5940 -0.1262  0.7304
  659TMC3     O 9809   0.471   1.798  14.876 -0.5618  0.2847 -0.3581
  659TMC3     H 9810   0.464   1.824  15.263  0.2491 -0.3823  0.4589
  659TMC3    H1 9811   0.269   1.733  14.895  0.2890 -1.5707  0.2745
  659TMC3    H2 9812   0.040   1.775  15.264 -0.0847  1.9063 -1.3183
  659TMC3    C7 9813   0.059   1.638  15.018  0.3106  0.1598 -0.5599
  659TMC3    C8 9814   0.237   1.815  15.411  1.1044 -0.4411 -0.3908
  659TMC3    O1 9815   0.092   1.567  14.927  0.8978 -0.2432  0.6007
  659TMC3    O2 9816   0.133   1.857  15.461  0.3872 -0.0914  0.2896
  660MPD2     C 9817   3.458   0.536  12.643 -1.3619 -0.1787  0.1814
  660MPD2    C1 9818   3.331   0.571  12.673 -0.1579 -0.3656 -0.0717
  660MPD2    C2 9819   3.257   0.476  12.745 -1.3171  0.2009 -0.4746
  660MPD2    C3 9820   3.306   0.348  12.777  0.3895  0.0771 -0.0792
  660MPD2    C4 9821   3.431   0.317  12.735 -0.1104  0.4047  0.2971
  660MPD2    C5 9822   3.504   0.413  12.669  0.8590 -0.4747 -0.2218
  660MPD2     H 9823   3.154   0.505  12.764 -1.3566  1.5730 -2.7426
  660MPD2    H1 9824   3.467   0.215  12.737 -0.6301  0.2298  0.8158
  660MPD2    H2 9825   3.527   0.605  12.597  1.8908 -2.5197  1.5266
  660MPD2    H3 9826   3.602   0.382  12.633  1.5318  1.1546  0.2108
  660MPD2     N 9827   3.233   0.253  12.849  0.3258  0.2173 -0.2609
  660MPD2    H5 9828   3.271   0.160  12.863  3.8816  1.5317 -1.0613
  660MPD2    N1 9829   3.280   0.697  12.632  0.0647 -0.0958 -0.1122
  660MPD2    H7 9830   3.332   0.757  12.568  0.5893  0.8801  1.2389
  661TMC3    C1 9831   3.085   0.819  12.572 -0.7479  0.1632  0.1275
  661TMC3    C2 9832   3.142   0.835  12.449 -0.1000 -0.1891 -0.4721
  661TMC3    C3 9833   3.056   0.851  12.344  0.4293 -0.4319 -0.5383
  661TMC3    C4 9834   2.949   0.821  12.590  0.2568 -0.6957  0.0783
  661TMC3    C5 9835   2.867   0.831  12.478  0.6554  0.2228  0.5804
  661TMC3    C6 9836   2.921   0.853  12.358  0.1716  0.0350  0.3419
  661TMC3     C 9837   3.146   0.735  12.663  0.0842  0.0795  0.0597
  661TMC3     O 9838   3.092   0.725  12.774 -0.1847  0.0536  0.3986
  661TMC3     H 9839   3.248   0.836  12.428  0.1115 -1.6795  0.5542
  661TMC3    H1 9840   2.905   0.793  12.686 -1.0346 -2.3867 -1.0082
  661TMC3    H2 9841   2.858   0.858  12.270  1.0302  0.5979 -0.2421
  661TMC3    C7 9842   2.735   0.781  12.495  0.4136 -0.3505  0.0212
  661TMC3    C8 9843   3.113   0.891  12.214  0.1705 -0.4942 -0.2259
  661TMC3    O1 9844   2.686   0.780  12.606  0.6188  0.1669  0.0405
  661TMC3    O2 9845   3.208   0.831  12.160 -0.1178  0.6625 -0.4596
  662MPD2     C 9846   3.871   4.510  16.619  0.7137  0.6293 -0.5194
  662MPD2    C1 9847   3.795   4.405  16.658  0.1703 -0.1909  0.6726
  662MPD2    C2 9848   3.679   4.417  16.723 -0.1260 -0.4747 -0.0918
  662MPD2    C3 9849   3.638   4.550  16.748  0.2142  0.7574 -0.1528
  662MPD2    C4 9850   3.720   4.657  16.713  0.4089  1.0273 -0.1532
  662MPD2    C5 9851   3.835   4.638  16.648  0.5147 -0.0019  0.1663
  662MPD2     H 9852   3.629   4.327  16.758  2.1869 -1.8698 -0.3571
  662MPD2    H1 9853   3.689   0.023  16.734 -0.8741  0.4586  0.6690
  662MPD2    H2 9854   3.964   4.500  16.563  0.1910  0.4459 -1.3498
  662MPD2    H3 9855   3.894   4.724  16.620 -2.3576  2.0350  0.3579
  662MPD2     N 9856   3.516   4.578  16.815 -0.4322  0.5514  0.2540
  662MPD2    H5 9857   3.502   4.674  16.844 -1.9847  0.3798  0.1064
  662MPD2    N1 9858   3.829   4.271  16.635  0.1685  0.2254 -0.0353
  662MPD2    H7 9859   3.757   4.206  16.665  0.1947 -0.2260 -0.9469
  663TMC3    C1 9860   3.987   4.087  16.631 -0.2870  0.6066  1.1736
  663TMC3    C2 9861   4.084   4.084  16.721 -0.1689  0.6921 -0.3449
  663TMC3    C3 9862   4.060   4.043  16.847 -0.0087  0.2124 -0.1364
  663TMC3    C4 9863   3.867   4.028  16.655  0.1053  1.0820  0.9818
  663TMC3    C5 9864   3.837   3.970  16.779 -0.2330 -0.1228  0.0625
  663TMC3    C6 9865   3.937   3.978  16.879 -0.0782 -0.0628  0.0126
  663TMC3     C 9866   3.958   4.234  16.617 -0.5698 -0.6357 -0.2730
  663TMC3     O 9867   4.058   4.309  16.624 -0.5842 -0.2375 -0.2106
  663TMC3     H 9868   4.179   4.136  16.709  0.5702 -0.5824 -0.0241
  663TMC3    H1 9869   3.793   4.037  16.576 -0.6343 -2.7467  1.2637
  663TMC3    H2 9870   3.901   3.984  16.981  1.8143  1.2945  0.6087
  663TMC3    C7 9871   3.699   4.000  16.813  0.6857 -0.6240  0.1595
  663TMC3    C8 9872   4.074   4.150  16.949  0.6435 -0.0762 -0.5644
  663TMC3    O1 9873   3.642   4.077  16.744 -0.7223  0.5867 -0.2891
  663TMC3    O2 9874   4.053   4.114  17.066 -0.1452  0.5885 -0.0913
  664MPD2     C 9875   0.819   3.009  17.543  0.9956  0.3870  0.4334
  664MPD2    C1 9876   0.955   2.985  17.556 -0.8280 -0.2009  0.2133
  664MPD2    C2 9877   0.999   2.893  17.650 -0.6243 -0.4874 -0.1301
  664MPD2    C3 9878   0.909   2.825  17.732 -0.2287 -0.6449  0.5000
  664MPD2    C4 9879   0.776   2.854  17.724  0.7284 -0.1837 -0.1899
  664MPD2    C5 9880   0.729   2.950  17.631 -0.1400 -0.0329  0.4011
  664MPD2     H 9881   1.102   2.857  17.657 -0.3891  0.5545  1.7580
  664MPD2    H1 9882   0.707   2.812   0.056  0.9428 -2.4256 -1.2829
  664MPD2    H2 9883   0.783   3.073  17.463 -1.1141  0.1303  1.1920
  664MPD2    H3 9884   0.623   2.972  17.629 -0.1044  0.1430  0.4655
  664MPD2     N 9885   0.971   2.734   0.081  0.4020  0.1684  0.1241
  664MPD2    H5 9886   1.071   2.738   0.094  0.2825  0.3275  0.9973
  664MPD2    N1 9887   1.053   3.048  17.473  0.8712 -0.4584  0.0661
  664MPD2    H7 9888   1.151   3.025  17.485  1.2881  1.1229 -0.2736
  665TMC3    C1 9889   1.009   2.567   0.245  0.3798  0.0341  0.3803
  665TMC3    C2 9890   0.950   2.498   0.350  0.3309  0.4070 -0.1758
  665TMC3    C3 9891   1.021   2.496   0.469 -0.2108  0.7040 -0.2910
  665TMC3    C4 9892   1.131   2.620   0.253  0.7879  0.1447 -0.3180
  665TMC3    C5 9893   1.195   2.619   0.373 -0.6765 -1.4257  0.4721
  665TMC3    C6 9894   1.137   2.560   0.484 -0.1665  0.1390  0.0925
  665TMC3     C 9895   0.912   2.636   0.158  0.2618  0.2678 -0.6952
  665TMC3     O 9896   0.792   2.603   0.171 -0.8368 -0.1677 -0.0625
  665TMC3     H 9897   0.844   2.479   0.346  0.4745 -0.1335 -1.5252
  665TMC3    H1 9898   1.190   2.660   0.171  0.0512  0.1968 -0.8171
  665TMC3    H2 9899   1.189   2.559   0.580  1.5947  0.5859 -0.8624
  665TMC3    C7 9900   1.322   2.680   0.389  0.1078 -0.4645  0.0578
  665TMC3    C8 9901   0.943   2.475   0.585 -0.3480  0.1007 -0.0532
  665TMC3    O1 9902   1.391   2.686   0.288  0.2869 -0.0940  0.2455
  665TMC3    O2 9903   0.988   2.518   0.692 -0.4141  0.4817  0.4347
  666TMC3    C1 9904   1.111   3.598   9.413  0.2046 -1.0100 -0.6774
  666TMC3    C2 9905   1.172   3.492   9.482  0.6415 -0.7260 -0.3277
  666TMC3    C3 9906   1.252   3.542   9.576 -0.7036 -0.4211 -0.3830
  666TMC3    C4 9907   1.122   3.731   9.438  0.2996 -0.0102 -0.6562
  666TMC3    C5 9908   1.190   3.769   9.543 -0.4693 -0.4012  0.3263
  666TMC3    C6 9909   1.261   3.676   9.610  0.1218  0.0067  0.4178
  666TMC3     C 9910   1.030   3.563   9.293 -0.2441 -0.0875 -0.0444
  666TMC3     O 9911   1.015   3.640   9.203 -0.0223  0.1037 -0.1442
  666TMC3     H 9912   1.171   3.387   9.453 -0.0466 -0.8957  0.3192
  666TMC3    H1 9913   1.048   3.797   9.395 -1.0859  1.8470  4.6020
  666TMC3    H2 9914   1.331   3.712   9.684  2.3415 -1.6067 -0.8759
  666TMC3    C7 9915   1.124   3.843   9.645 -0.6579 -0.3938 -1.2857
  666TMC3    C8 9916   1.293   3.437   9.666  0.0029  0.1303 -0.8968
  666TMC3    O1 9917   1.127   3.804   9.759 -0.7601  0.4979  0.4387
  666TMC3    O2 9918   1.259   3.324   9.640  0.5005  0.2561 -0.2979
  667MPD2     C 9919   2.003   3.010  14.635  0.2076 -0.1431 -0.3949
  667MPD2    C1 9920   1.945   2.987  14.753  0.7515 -0.3924 -0.3186
  667MPD2    C2 9921   1.830   2.912  14.758 -0.3076 -0.0607  0.2418
  667MPD2    C3 9922   1.760   2.874  14.639 -0.4895 -0.3093 -0.7417
  667MPD2    C4 9923   1.818   2.906  14.515 -0.1381 -0.8734 -0.4182
  667MPD2    C5 9924   1.940   2.965  14.515 -0.2486 -0.8313  0.1325
  667MPD2     H 9925   1.796   2.887  14.858 -0.3575 -0.4354  0.1314
  667MPD2    H1 9926   1.776   2.893  14.416 -0.9092 -1.1189 -0.0584
  667MPD2    H2 9927   2.095   3.068  14.630 -0.6442  1.1917 -0.7441
  667MPD2    H3 9928   1.987   2.982  14.419 -2.1126 -1.3811 -0.8760
  667MPD2     N 9929   1.656   2.783  14.636  0.1538 -0.3713 -0.1051
  667MPD2    H5 9930   1.620   2.760  14.544 -1.0505  0.0952  0.2539
  667MPD2    N1 9931   2.003   3.023  14.877  0.3748 -0.1233  0.8050
  667MPD2    H7 9932   1.961   3.005  14.967 -3.7236  0.6532 -0.9618
  668TMC3    C1 9933   2.155   3.099  15.037  0.0927  0.0093  0.4814
  668TMC3    C2 9934   2.284   3.095  15.082 -1.4432 -0.3546 -0.2153
  668TMC3    C3 9935   2.303   3.132  15.209  1.1373 -0.6025 -0.4883
  668TMC3    C4 9936   2.047   3.144  15.111  0.6662  0.6155  0.3796
  668TMC3    C5 9937   2.076   3.183  15.237  0.6995  0.8745  0.2282
  668TMC3    C6 9938   2.203   3.183  15.284 -0.1885  0.8201 -0.2159
  668TMC3     C 9939   2.136   3.056  14.898 -0.2352 -0.7380 -0.4342
  668TMC3     O 9940   2.229   3.068  14.824  0.0354 -0.1974 -0.3033
  668TMC3     H 9941   2.358   3.038  15.026  0.0015 -1.0403  2.3950
  668TMC3    H1 9942   1.942   3.143  15.081  0.9155  1.8096 -0.5167
  668TMC3    H2 9943   2.211   3.215  15.387  0.5700 -1.0496  0.3131
  668TMC3    C7 9944   1.972   3.232  15.331 -0.1223  0.6910 -0.2298
  668TMC3    C8 9945   2.427   3.121  15.274 -0.3174 -0.2095 -0.4678
  668TMC3    O1 9946   2.003   3.318  15.407  0.4701  0.2612  0.1239
  668TMC3    O2 9947   2.424   3.143  15.394  0.0664 -0.6398  0.0776
  669TMC3    C1 9948   0.458   2.483  15.277 -0.5628 -0.2249  0.5793
  669TMC3    C2 9949   0.340   2.493  15.207 -0.0075 -0.6752  0.4580
  669TMC3    C3 9950   0.350   2.509  15.071  0.2101  0.7818 -0.0543
  669TMC3    C4 9951   0.579   2.497  15.213 -0.5973 -0.1085 -0.0407
  669TMC3    C5 9952   0.582   2.513  15.078  0.5509  0.4632  0.4254
  669TMC3    C6 9953   0.467   2.521  15.001  1.5841 -0.8706  0.2228
  669TMC3     C 9954   0.445   2.449  15.418  0.2947  0.8920 -0.8817
  669TMC3     O 9955   0.326   2.439  15.453  0.5884 -0.3461 -0.2377
  669TMC3     H 9956   0.241   2.501  15.249  0.2545  2.4610  0.4788
  669TMC3    H1 9957   0.667   2.500  15.276 -0.6348  0.0221  0.0059
  669TMC3    H2 9958   0.471   2.560  14.900 -1.2757  0.2980  0.5537
  669TMC3    C7 9959   0.704   2.565  15.021  0.1124  0.5492 -0.3434
  669TMC3    C8 9960   0.223   2.502  15.001 -0.3500 -0.3245 -0.3112
  669TMC3    O1 9961   0.684   2.639  14.924 -0.0576  0.0890  0.2959
  669TMC3    O2 9962   0.121   2.451  15.053 -0.2993  0.1408  0.0676
  670MPD2     C 9963   3.311   0.243  13.252  0.4404 -0.2435 -0.4774
  670MPD2    C1 9964   3.432   0.228  13.317  0.6736  0.1476  0.6859
  670MPD2    C2 9965   3.440   0.251  13.456 -0.4306  0.1629  0.1275
  670MPD2    C3 9966   3.328   0.286  13.531 -0.3867 -0.4558 -0.1305
  670MPD2    C4 9967   3.206   0.297  13.460  0.1457  0.0355 -0.1317
  670MPD2    C5 9968   3.202   0.270  13.326 -0.0210 -0.2082  0.1341
  670MPD2     H 9969   3.537   0.236  13.504 -0.6625 -0.7583  0.3104
  670MPD2    H1 9970   3.114   0.323  13.510 -0.2851  0.9541 -1.4035
  670MPD2    H2 9971   3.297   0.227  13.146 -0.7758  0.8888 -0.4882
  670MPD2    H3 9972   3.114   0.286  13.265 -0.1142  2.5790  0.9902
  670MPD2     N 9973   3.349   0.295  13.674  0.2466 -0.6916 -0.1568
  670MPD2    H5 9974   3.439   0.273  13.715 -0.1417 -1.8486  0.1035
  670MPD2    N1 9975   3.559   0.222  13.244  0.8556  0.0858 -0.0644
  670MPD2    H7 9976   3.645   0.229  13.297  0.9132 -1.4303  0.0298
  671TMC3    C1 9977   3.291   0.356  13.902  0.5332 -0.2636  0.7279
  671TMC3    C2 9978   3.427   0.342  13.934  1.2052 -0.0994 -0.0710
  671TMC3    C3 9979   3.468   0.304  14.060 -0.5920  0.3842  0.0866
  671TMC3    C4 9980   3.195   0.336  14.002 -0.2284  0.6292 -0.7164
  671TMC3    C5 9981   3.238   0.296  14.130 -0.1774 -0.4808  0.1645
  671TMC3    C6 9982   3.371   0.272  14.158 -0.2589  0.7205 -0.2833
  671TMC3     C 9983   3.251   0.346  13.760  0.2902  0.0615  0.2308
  671TMC3     O 9984   3.135   0.368  13.736 -0.1682  0.1738 -0.0302
  671TMC3     H 9985   3.507   0.345  13.862  0.7059  3.2655 -0.5249
  671TMC3    H1 9986   3.090   0.347  13.975  0.1942 -1.0900 -3.1333
  671TMC3    H2 9987   3.400   0.250  14.260 -0.0987  2.4759  0.0516
  671TMC3    C7 9988   3.149   0.299  14.243  0.0376  1.1156  0.6116
  671TMC3    C8 9989   3.607   0.263  14.068 -0.2517  0.4031 -0.2921
  671TMC3    O1 9990   3.193   0.349  14.343 -0.0893 -0.2915  0.2084
  671TMC3    O2 9991   3.685   0.289  13.976 -0.0093 -0.4580 -0.1601
  672MPD2     C 9992   3.919   1.202   0.334 -0.5139  0.0781 -0.2384
  672MPD2    C1 9993   3.932   1.083   0.410 -0.5076 -0.1494 -0.4715
  672MPD2    C2 9994   3.974   1.084   0.540  0.3203  0.0254 -0.6639
  672MPD2    C3 9995   4.013   1.211   0.586  0.6473  0.1153  0.2155
  672MPD2    C4 9996   4.002   1.321   0.514 -0.0674 -0.8101  0.1080
  672MPD2    C5 9997   3.952   1.317   0.389  0.4125  0.3738  0.4401
  672MPD2     H 9998   3.969   0.993   0.598 -0.9663  0.3137 -0.3141
  672MPD2    H1 9999   4.029   1.423   0.538  0.9911 -0.9710 -0.4008
  672MPD2    H210000   3.867   1.203   0.239 -2.9105 -0.9576  1.0573
  672MPD2    H310001   3.921   1.413   0.350 -2.5953 -2.1890 -3.4435
  672MPD2     N10002   4.069   1.222   0.719 -0.1823  0.1424 -0.2381
  672MPD2    H510003   4.082   1.311   0.766 -1.5047 -0.1608  0.6843
  672MPD2    N110004   3.888   0.956   0.370  0.2592 -0.5533  0.2448
  672MPD2    H710005   3.905   0.882   0.436 -0.9307 -1.5418 -0.5645
  673TMC3    C110006   3.727   0.809   0.271 -0.5886 -0.0437  0.3299
  673TMC3    C210007   3.784   0.690   0.290 -0.8111  0.5004 -0.4327
  673TMC3    C310008   3.707   0.578   0.271 -0.4537 -0.0901  0.0347
  673TMC3    C410009   3.603   0.826   0.224  0.9695 -0.1386  0.0615
  673TMC3    C510010   3.523   0.720   0.211  0.3929  0.4065 -0.4833
  673TMC3    C610011   3.577   0.590   0.223  0.2072  0.1882 -0.0116
  673TMC3     C10012   3.802   0.940   0.262 -0.1249  0.2488 -0.0531
  673TMC3     O10013   3.765   1.018   0.171  0.0050 -0.3532  0.7504
  673TMC3     H10014   3.888   0.686   0.322 -1.4241 -0.7654  1.3973
  673TMC3    H110015   3.559   0.925   0.229 -0.3793 -0.6345 -1.5876
  673TMC3    H210016   3.512   0.503   0.219  1.7102 -0.9576  0.3233
  673TMC3    C710017   3.377   0.724   0.235  1.3721  0.2351  0.4417
  673TMC3    C810018   3.770   0.452   0.266 -0.4929  0.6781  0.3883
  673TMC3    O110019   3.327   0.648   0.320 -0.1702 -0.0251 -0.5106
  673TMC3    O210020   3.716   0.366   0.196 -0.0879  0.8074 -0.2572
  674MPD2     C10021   3.509   0.538  16.772  0.0999 -0.5430  0.2684
  674MPD2    C110022   3.490   0.457  16.881 -0.2299  1.0340  0.7404
  674MPD2    C210023   3.406   0.498  16.978 -0.0450 -0.0679 -0.2498
  674MPD2    C310024   3.326   0.608  16.974  0.1546  0.4082 -0.3298
  674MPD2    C410025   3.356   0.691  16.867  0.8494  0.0416 -0.8743
  674MPD2    C510026   3.442   0.653  16.765  0.4736  0.5208  0.6021
  674MPD2     H10027   3.383   0.437  17.064  1.3187 -0.9153 -0.4773
  674MPD2    H110028   3.333   0.797  16.869  2.3078  0.3464  0.0810
  674MPD2    H210029   3.583   0.508  16.698 -1.0450 -2.1271 -0.2326
  674MPD2    H310030   3.462   0.716  16.679  0.6569 -2.7432 -1.7339
  674MPD2     N10031   3.276   0.655  17.094  0.3472 -0.1439  0.1554
  674MPD2    H510032   3.282   0.596  17.176  2.9558 -0.0230  0.0521
  674MPD2    N110033   3.577   0.342  16.880 -0.3822 -0.4482 -0.3647
  674MPD2    H710034   3.623   0.333  16.790  2.3971  0.2204  0.9927
  675TMC3    C110035   3.546   0.245  17.108 -0.8762 -0.5741  0.5643
  675TMC3    C210036   3.528   0.129  17.186 -0.3170  0.0151  0.1339
  675TMC3    C310037   3.539   0.126  17.323 -0.3028  0.4372  0.2011
  675TMC3    C410038   3.590   0.357  17.181  0.0014  0.5262 -0.4732
  675TMC3    C510039   3.600   0.350  17.321 -0.7242 -0.0179  0.4862
  675TMC3    C610040   3.577   0.235  17.393 -1.1964 -0.0589 -0.0049
  675TMC3     C10041   3.575   0.232  16.962  0.6296 -1.0655  0.3811
  675TMC3     O10042   3.601   0.118  16.926  0.1274  0.0056  0.3646
  675TMC3     H10043   3.516   0.039  17.125  0.7088 -2.0419  2.9605
  675TMC3    H110044   3.615   0.444  17.121  0.1453  1.8369  1.4874
  675TMC3    H210045   3.579   0.236  17.501 -4.4657 -3.4950  0.0868
  675TMC3    C710046   3.642   0.467  17.389  0.5457  0.1297  0.1546
  675TMC3    C810047   3.553   4.733  17.386  0.5237  0.2811  0.2889
  675TMC3    O110048   3.617   0.572  17.331 -0.8111  0.5454  0.9488
  675TMC3    O210049   3.576   4.633  17.314 -0.0534 -0.0866  0.1099
  676MPD2     C10050   1.895   3.700  11.112 -0.0167 -0.7559 -0.2533
  676MPD2    C110051   1.758   3.706  11.083 -0.1743  0.1544 -0.4521
  676MPD2    C210052   1.719   3.663  10.954  0.8881  0.2108  0.5026
  676MPD2    C310053   1.819   3.620  10.865 -0.2812 -0.0789  1.3455
  676MPD2    C410054   1.954   3.605  10.905  0.0351 -0.3162 -0.5765
  676MPD2    C510055   1.991   3.641  11.030 -0.3530  0.7583  0.1199
  676MPD2     H10056   1.616   3.674  10.920  1.8701  2.2607 -1.8244
  676MPD2    H110057   2.039   3.577  10.845  0.7582 -0.7806  0.6634
  676MPD2    H210058   1.934   3.727  11.209 -1.0772  0.9347 -0.2924
  676MPD2    H310059   2.096   3.640  11.058 -0.1138  0.6243 -0.8083
  676MPD2     N10060   1.775   3.598  10.736  0.3810  0.4397  0.7841
  676MPD2    H510061   1.675   3.616  10.727  0.7374  1.3646 -1.1452
  676MPD2    N110062   1.659   3.765  11.170 -0.6872 -0.0483  0.0702
  676MPD2    H710063   1.562   3.759  11.142 -1.0041 -2.9648  1.7186
  677TMC3    C110064   1.581   3.893  11.363  0.0670 -0.4379 -0.2540
  677TMC3    C210065   1.454   3.856  11.337  0.1040  0.1569 -0.2033
  677TMC3    C310066   1.351   3.934  11.380  0.1005 -0.4247 -0.8114
  677TMC3    C410067   1.607   4.015  11.429 -0.4769 -0.5442 -0.7799
  677TMC3    C510068   1.499   4.086  11.478 -0.3076  0.2276 -0.1862
  677TMC3    C610069   1.373   4.046  11.450 -0.1290  0.3745  0.3523
  677TMC3     C10070   1.692   3.841  11.286  0.5236 -0.2494 -0.2798
  677TMC3     O10071   1.796   3.876  11.337  0.0707  0.3150 -0.3727
  677TMC3     H10072   1.422   3.763  11.292  2.5121 -1.5054  1.5058
  677TMC3    H110073   1.705   4.044  11.465 -0.8807 -0.0482 -0.0900
  677TMC3    H210074   1.291   4.097  11.499  0.1727  1.3769 -0.1750
  677TMC3    C710075   1.523   4.182  11.583 -0.4983  0.0270 -0.2172
  677TMC3    C810076   1.214   3.875  11.375  0.5193 -0.2597 -0.2540
  677TMC3    O110077   1.443   4.175  11.674  0.2593 -0.5603 -0.0101
  677TMC3    O210078   1.178   3.862  11.258 -0.2015  0.2592  0.3570
  678MPD2     C10079   2.613   4.054   0.794  0.6263 -0.4241  0.1549
  678MPD2    C110080   2.627   3.928   0.738 -0.4196 -0.2582  0.3541
  678MPD2    C210081   2.524   3.838   0.757 -0.3396  0.3866  1.1160
  678MPD2    C310082   2.412   3.878   0.831 -0.2967  0.4155 -0.9994
  678MPD2    C410083   2.407   4.004   0.890  0.4808 -0.5804  1.1025
  678MPD2    C510084   2.511   4.091   0.883  0.1669 -0.1127 -0.0903
  678MPD2     H10085   2.527   3.740   0.710  0.8943  2.0857 -2.3187
  678MPD2    H110086   2.321   4.037   0.947 -0.1683  0.1439 -0.2892
  678MPD2    H210087   2.705   4.112   0.791  2.3862 -3.0450  2.7471
  678MPD2    H310088   2.511   4.193   0.921 -0.3624  0.6538 -2.1541
  678MPD2     N10089   2.308   3.785   0.847 -0.7863 -1.0685 -0.3662
  678MPD2    H510090   2.311   3.704   0.787  2.4500 -1.4750  0.3580
  678MPD2    N110091   2.730   3.888   0.644  0.2938  0.0129  0.8166
  678MPD2    H710092   2.728   3.793   0.610 -1.1694  0.1275  0.5642
  679TMC3    C110093   3.052   3.658   0.547 -0.6676  0.0693 -0.0823
  679TMC3    C210094   2.942   3.732   0.580 -0.0003  0.3653 -0.0590
  679TMC3    C310095   2.943   3.867   0.551  0.2162 -0.3544  0.2259
  679TMC3    C410096   3.157   3.710   0.480 -0.3682 -0.1730  0.3914
  679TMC3    C510097   3.147   3.842   0.443 -0.2351 -0.4908  0.5104
  679TMC3    C610098   3.046   3.922   0.482 -0.3572  0.3353 -0.5599
  679TMC3     C10099   3.072   3.519   0.590 -0.1635 -0.0658  0.5661
  679TMC3     O10100   3.190   3.496   0.606 -0.0099  0.3083  0.4203
  679TMC3     H10101   2.859   3.693   0.639 -0.4583  1.0666 -0.2466
  679TMC3    H110102   3.229   3.638   0.441  1.3683  1.4521  0.5780
  679TMC3    H210103   3.037   4.026   0.454 -0.2459  0.7209  0.8696
  679TMC3    C710104   3.253   3.895   0.352 -0.1373 -0.2666 -0.1738
  679TMC3    C810105   2.837   3.956   0.597  0.3281  0.1367 -0.8934
  679TMC3    O110106   3.252   4.016   0.334  0.0313  0.6095 -0.5875
  679TMC3    O210107   2.855   4.076   0.601 -0.0477 -0.0465 -0.2841
  680MPD2     C10108   3.230   2.351  13.857 -0.7214 -0.0235  1.2430
  680MPD2    C110109   3.327   2.326  13.950  0.4609 -0.7738  0.3804
  680MPD2    C210110   3.392   2.434  14.014  0.3893  0.0645  0.3506
  680MPD2    C310111   3.361   2.565  13.984 -1.3320  0.4896  0.1056
  680MPD2    C410112   3.269   2.587  13.882  0.5369 -0.3032 -0.0750
  680MPD2    C510113   3.200   2.477  13.829  0.0592 -0.2979  0.2880
  680MPD2     H10114   3.466   2.407  14.089  1.2948  0.3917 -0.4204
  680MPD2    H110115   3.245   2.687  13.848 -0.5434 -0.0587  1.4622
  680MPD2    H210116   3.176   2.274  13.803  0.7355  0.9617 -1.6035
  680MPD2    H310117   3.133   2.487  13.744  2.2571  1.0875 -1.2877
  680MPD2     N10118   3.420   2.676  14.052  0.1935  0.0181 -0.2930
  680MPD2    H510119   3.406   2.772  14.021  0.4366  0.3617  0.6652
  680MPD2    N110120   3.382   2.199  13.965  0.5172 -0.5528  0.9277
  680MPD2    H710121   3.470   2.200  14.015  0.7159 -0.1541  0.5675
  681TMC3    C110122   3.413   1.969  13.923  0.0939  0.0175  0.4843
  681TMC3    C210123   3.361   1.863  13.990  0.2018  0.3529 -0.2832
  681TMC3    C310124   3.445   1.778  14.059  0.2882  0.2697 -0.2262
  681TMC3    C410125   3.545   1.995  13.920  0.0792 -0.3781 -0.3342
  681TMC3    C510126   3.629   1.906  13.987 -1.0110  0.1780  0.4310
  681TMC3    C610127   3.577   1.802  14.054  0.2761  0.0658  0.0335
  681TMC3     C10128   3.328   2.086  13.912 -0.3948 -0.0697 -0.2650
  681TMC3     O10129   3.210   2.065  13.885 -0.0627  0.0727 -0.1701
  681TMC3     H10130   3.256   1.857  14.014  0.2134 -0.7462 -0.5277
  681TMC3    H110131   3.586   2.082  13.869 -1.1868 -0.0966 -0.8572
  681TMC3    H210132   3.645   1.740  14.111  0.6253 -0.5597 -1.0522
  681TMC3    C710133   3.778   1.914  13.975 -0.2859  0.5002  0.7707
  681TMC3    C810134   3.380   1.684  14.151 -0.2203  0.5922  0.2613
  681TMC3    O110135   3.848   1.825  14.021 -0.0254 -0.1511 -0.4557
  681TMC3    O210136   3.264   1.658  14.118  0.2929  0.2188  0.7954
  682MPD2     C10137   0.614   4.283  10.843  0.3716 -0.2063 -0.2321
  682MPD2    C110138   0.576   4.161  10.795 -0.0993  0.2371  0.4644
  682MPD2    C210139   0.531   4.065  10.889  0.0474  0.5365  0.0682
  682MPD2    C310140   0.520   4.092  11.025  0.1163  0.2282  0.4412
  682MPD2    C410141   0.557   4.220  11.063  0.2999 -0.0971 -0.3436
  682MPD2    C510142   0.601   4.315  10.972  0.0900  0.1480  0.2195
  682MPD2     H10143   0.512   3.966  10.849  0.8001  1.3928 -2.4003
  682MPD2    H110144   0.552   4.251  11.167 -2.0185  1.5759 -0.9423
  682MPD2    H210145   0.640   4.365  10.777  2.4291  0.2184  1.1009
  682MPD2    H310146   0.633   4.412  11.008  0.2533  0.4371 -0.7185
  682MPD2     N10147   0.474   4.001  11.124  0.1932  0.5937  0.3108
  682MPD2    H510148   0.474   4.029  11.221  2.0858 -1.5867  0.9464
  682MPD2    N110149   0.588   4.125  10.660 -0.2094 -0.6021  0.3130
  682MPD2    H710150   0.548   4.034  10.639 -1.5292  0.6151 -2.5755
  683TMC3    C110151   0.428   3.729  11.434 -0.0606 -0.8267 -0.9637
  683TMC3    C210152   0.346   3.618  11.417  0.4895  0.3777 -0.0001
  683TMC3    C310153   0.291   3.602  11.294  0.2516 -0.0867 -0.5312
  683TMC3    C410154   0.419   3.834  11.344  0.0599 -0.6049  0.3232
  683TMC3    C510155   0.372   3.806  11.220  0.2766 -0.3320 -0.4156
  683TMC3    C610156   0.301   3.691  11.195 -0.3019  0.0415  0.0743
  683TMC3     C10157   0.466   3.763  11.569  0.1144  0.4530 -0.1054
  683TMC3     O10158   0.496   3.879  11.577  0.2404 -0.8764 -0.9751
  683TMC3     H10159   0.329   3.537  11.487 -0.5063  1.5684  1.1197
  683TMC3    H110160   0.468   3.928  11.369  0.0034 -0.7497  0.9778
  683TMC3    H210161   0.255   3.680  11.097  0.1590 -0.0200 -0.1373
  683TMC3    C710162   0.422   3.877  11.103  0.3257 -0.7784 -0.2802
  683TMC3    C810163   0.234   3.476  11.256  0.9504 -0.1528 -0.0902
  683TMC3    O110164   0.415   3.822  10.993  0.6016 -0.1257  0.9142
  683TMC3    O210165   0.181   3.474  11.147 -0.3929 -0.0031  0.2077
  684MPD2     C10166   3.453   3.209  16.714  0.4905  0.9445 -0.8445
  684MPD2    C110167   3.422   3.189  16.577 -0.3346  0.2580  0.7350
  684MPD2    C210168   3.345   3.288  16.522  0.7934 -0.0352 -0.1933
  684MPD2    C310169   3.316   3.406  16.588  0.2176 -0.1596  0.1197
  684MPD2    C410170   3.342   3.413  16.723  0.1995 -0.3641 -0.4272
  684MPD2    C510171   3.397   3.303  16.791  0.0657  0.2806  0.7197
  684MPD2     H10172   3.333   3.290  16.414 -0.7352 -1.7832 -0.0745
  684MPD2    H110173   3.312   3.498  16.783 -1.8208 -0.4539 -1.3314
  684MPD2    H210174   3.517   3.138  16.765 -0.0462  2.0792  1.4185
  684MPD2    H310175   3.411   3.319  16.897  2.1439  1.3708  0.2783
  684MPD2     N10176   3.289   3.533  16.531  0.7677  0.2615 -0.0537
  684MPD2    H510177   3.312   3.616  16.585 -0.8504  0.5202  0.2394
  684MPD2    N110178   3.488   3.101  16.488 -0.1640 -0.0594  0.1665
  684MPD2    H710179   3.471   3.116  16.389  1.8584  1.6868  0.0948
  685TMC3    C110180   3.674   3.003  16.405 -0.1743  0.4105 -0.4363
  685TMC3    C210181   3.624   3.001  16.276 -0.0938 -0.3239 -0.2853
  685TMC3    C310182   3.713   3.014  16.174 -0.5599 -0.3151  0.7484
  685TMC3    C410183   3.808   3.024  16.423 -0.2463 -0.1875  0.4024
  685TMC3    C510184   3.894   3.034  16.321  0.1740 -0.1652 -0.3363
  685TMC3    C610185   3.844   3.018  16.196 -0.1057 -0.4085  0.5834
  685TMC3     C10186   3.593   3.026  16.521  0.3098 -0.8556 -0.5686
  685TMC3     O10187   3.653   3.024  16.625 -0.1410  0.2085 -0.1359
  685TMC3     H10188   3.521   2.970  16.265  0.5318 -1.7073 -2.2332
  685TMC3    H110189   3.844   3.034  16.525  1.4400 -0.8824 -0.1367
  685TMC3    H210190   3.906   3.036  16.109 -0.3560  0.1452  0.5199
  685TMC3    C710191   4.035   3.084  16.333  0.1950  0.2390  0.8141
  685TMC3    C810192   3.673   3.035  16.037  0.7395  0.3631 -0.3842
  685TMC3    O110193   4.098   3.099  16.228  0.2960 -0.6060 -0.6252
  685TMC3    O210194   3.754   3.050  15.945 -0.0044  0.2671 -0.5567
  686MPD2     C10195   4.407   3.632  16.017  0.4640 -0.0996 -0.2197
  686MPD2    C110196   4.480   3.579  16.122  0.8755  0.8060 -0.2393
  686MPD2    C210197   4.576   3.653  16.189 -0.8581 -0.6063  0.2720
  686MPD2    C310198   4.583   3.790  16.168  0.3134 -0.0697  0.0087
  686MPD2    C410199   4.483   3.850  16.085 -0.8071  0.4518  0.0438
  686MPD2    C510200   4.405   3.766  16.005 -0.4039  0.1767  0.5811
  686MPD2     H10201   4.647   3.601  16.252  0.7224 -0.7795 -1.6368
  686MPD2    H110202   4.491   3.957  16.065  2.4413 -0.2403 -2.2813
  686MPD2    H210203   4.338   3.574  15.958 -1.0773  0.8992  0.6091
  686MPD2    H310204   4.356   3.808  15.918  1.1411 -1.9020 -1.3136
  686MPD2     N10205   4.670   3.879  16.229 -0.4570  0.5411  0.2390
  686MPD2    H510206   4.634   3.973  16.235 -1.0587  0.0055  4.6751
  686MPD2    N110207   4.468   3.435  16.140 -1.0527  0.1023  0.3784
  686MPD2    H710208   4.400   3.394  16.077 -1.7723  0.2322  1.0705
  687TMC3    C110209   0.123   3.734  16.259 -0.1201 -0.4411  0.6060
  687TMC3    C210210   0.195   3.739  16.142 -0.8506 -0.7650  0.0708
  687TMC3    C310211   0.293   3.649  16.120  0.4546 -0.1558 -0.0870
  687TMC3    C410212   0.166   3.652  16.361 -0.6971 -0.1641 -0.0409
  687TMC3    C510213   0.271   3.562  16.340 -0.1021 -0.2074  1.3553
  687TMC3    C610214   0.332   3.555  16.220  0.2743  0.0603 -0.6302
  687TMC3     C10215   0.036   3.840  16.313  0.7038 -0.6486  0.0490
  687TMC3     O10216   0.053   3.878  16.427  0.3579  0.3144 -0.0339
  687TMC3     H10217   0.155   3.802  16.063  2.6283  0.4889 -0.6769
  687TMC3    H110218   0.124   3.655  16.461  1.5730 -2.0571  0.9780
  687TMC3    H210219   0.411   3.483  16.204  1.1189  0.9544 -0.4352
  687TMC3    C710220   0.286   3.453  16.436  0.4169  0.4085 -0.3467
  687TMC3    C810221   0.367   3.646  15.991 -0.0544  0.3089  0.4067
  687TMC3    O110222   0.397   3.393  16.434  0.6228 -0.1284 -0.7151
  687TMC3    O210223   0.465   3.573  15.983  0.5224  0.2490 -0.0759
  688MPD2     C10224   3.687   2.196  17.563 -0.3648 -0.2570 -1.7201
  688MPD2    C110225   3.703   2.059  17.587  0.1436 -1.0134  0.1380
  688MPD2    C210226   3.760   1.982  17.487 -0.2318  0.2621 -0.8786
  688MPD2    C310227   3.805   2.037  17.369  0.5019  0.0444  0.4976
  688MPD2    C410228   3.789   2.172  17.345 -0.9884 -0.1433 -0.2787
  688MPD2    C510229   3.722   2.243  17.440  0.7599 -0.3466 -0.9291
  688MPD2     H10230   3.765   1.874  17.500 -0.3287  0.5060  1.0854
  688MPD2    H110231   3.823   2.214  17.251 -0.1777 -0.1185  0.0264
  688MPD2    H210232   3.626   2.259  17.627  0.5172 -0.1424 -0.9898
  688MPD2    H310233   3.704   2.349  17.429  3.0537  0.0630 -0.8233
  688MPD2     N10234   3.897   1.966  17.277  0.6224  0.1475  0.0019
  688MPD2    H510235   3.935   2.024  17.203 -1.4433 -0.0690 -1.2364
  688MPD2    N110236   3.651   2.001  17.707  0.3292  0.2499 -0.6115
  688MPD2    H710237   3.662   1.903  17.727  0.6155  0.1552 -1.2362
  689TMC3    C110238   3.511   1.988   0.166 -0.2919 -0.5218 -0.6367
  689TMC3    C210239   3.485   2.036   0.291 -0.2065  0.1264 -0.2248
  689TMC3    C310240   3.393   1.973   0.367  0.0120  0.2578 -0.3035
  689TMC3    C410241   3.449   1.873   0.121 -0.0922  0.8422  0.1075
  689TMC3    C510242   3.361   1.810   0.207  0.8345  0.8710 -0.3277
  689TMC3    C610243   3.331   1.858   0.332  0.3141 -0.6676  0.1476
  689TMC3     C10244   3.587   2.074   0.072  0.1658  0.0399 -0.2837
  689TMC3     O10245   3.610   2.189   0.098  0.2306 -0.1702  0.7867
  689TMC3     H10246   3.538   2.126   0.319  0.6476 -0.7422  0.9278
  689TMC3    H110247   3.458   1.833   0.020 -0.1836  2.3884 -0.5184
  689TMC3    H210248   3.276   1.809   0.411 -2.6101  1.6384 -0.4739
  689TMC3    C710249   3.346   1.660   0.209 -0.0406 -0.4629 -0.3735
  689TMC3    C810250   3.391   2.010   0.508 -0.0108  0.3727 -0.0159
  689TMC3    O110251   3.302   1.606   0.308  0.4442 -0.1004 -0.7801
  689TMC3    O210252   3.490   2.059   0.555  0.4016 -0.1677  0.0941
  690MPD2     C10253   1.786   4.005  15.708  0.1770 -0.4700  0.3113
  690MPD2    C110254   1.706   3.992  15.596 -0.0428  0.5521 -0.0952
  690MPD2    C210255   1.754   4.041  15.474  0.1913 -0.1735 -0.7330
  690MPD2    C310256   1.880   4.097  15.464  0.0990  0.2982  0.1578
  690MPD2    C410257   1.952   4.112  15.584  0.3709 -0.0358 -0.4539
  690MPD2    C510258   1.910   4.055  15.700  0.3183 -0.2133 -0.0761
  690MPD2     H10259   1.688   4.034  15.388 -1.0648 -1.3036  0.3227
  690MPD2    H110260   2.050   4.158  15.584  0.7698 -0.8740 -0.0413
  690MPD2    H210261   1.764   3.956  15.802 -0.7513  0.2110  0.4535
  690MPD2    H310262   1.981   4.046  15.783  0.1249 -1.3363 -0.0255
  690MPD2     N10263   1.931   4.145  15.338  0.1435  0.3707  0.0596
  690MPD2    H510264   1.869   4.123  15.260 -1.2103  0.8745  0.9833
  690MPD2    N110265   1.572   3.940  15.598 -0.5074  0.0669 -1.0623
  690MPD2    H710266   1.517   3.937  15.513 -1.3234 -3.9012 -0.3959
  691TMC3    C110267   1.369   3.859  15.687 -0.3419  0.4494 -0.0577
  691TMC3    C210268   1.311   3.936  15.593  0.4175 -0.4119  0.0274
  691TMC3    C310269   1.176   3.918  15.573 -0.1306  0.7774  0.6933
  691TMC3    C410270   1.310   3.771  15.769  0.6387  0.8239 -0.4318
  691TMC3    C510271   1.176   3.763  15.752 -0.2119  0.7859 -0.0508
  691TMC3    C610272   1.108   3.830  15.649  0.0908 -0.0122 -0.5531
  691TMC3     C10273   1.510   3.883  15.711  0.0857  0.2522  0.9093
  691TMC3     O10274   1.553   3.856  15.817 -0.1026  0.3685  0.7348
  691TMC3     H10275   1.369   4.021  15.559 -0.0918  0.0926  0.4168
  691TMC3    H110276   1.366   3.735  15.855 -0.6692  0.4690  0.2567
  691TMC3    H210277   1.003   3.817  15.629  0.8507 -2.9205 -2.6516
  691TMC3    C710278   1.120   3.645  15.810 -1.0365 -1.7920 -0.1555
  691TMC3    C810279   1.119   3.976  15.456  0.3699  0.6867  0.7145
  691TMC3    O110280   1.203   3.573  15.862  0.3708 -0.0761  0.1463
  691TMC3    O210281   1.200   3.992  15.360  0.2526 -0.3888  0.4664
  692TMC3    C110282   3.212   0.021  15.599  0.0148 -1.0091  0.9041
  692TMC3    C210283   3.318   0.071  15.676 -0.6124 -0.6428  0.4164
  692TMC3    C310284   3.402   4.709  15.727 -0.2631  0.2267 -0.3046
  692TMC3    C410285   3.190   4.628  15.568 -0.2760 -0.8201  0.6919
  692TMC3    C510286   3.281   4.538  15.629  0.2159 -0.0093 -0.2772
  692TMC3    C610287   3.381   4.576  15.704  0.4491 -0.0822 -0.1901
  692TMC3     C10288   3.095   0.101  15.595  0.1975  0.2741 -0.6391
  692TMC3     O10289   2.997   0.056  15.538 -0.3196 -0.0144  0.7614
  692TMC3     H10290   3.363   0.167  15.652 -0.5677 -0.7233  0.1732
  692TMC3    H110291   3.113   4.597  15.498  0.2525 -2.5469  0.8820
  692TMC3    H210292   3.470   4.515  15.707 -0.2045 -1.0108  0.1250
  692TMC3    C710293   3.244   4.399  15.615  0.1112 -0.1488 -0.7407
  692TMC3    C810294   3.380   4.708  15.873 -0.4751  0.4034  0.5902
  692TMC3    O110295   3.153   4.367  15.540  0.6771  0.1054 -0.0262
  692TMC3    O210296   3.385   4.596  15.919  0.0581  0.1097 -0.4213
  693MPD2     C10297   2.735   2.753  10.870  0.6859  0.2821  0.0255
  693MPD2    C110298   2.684   2.696  10.989  0.6487 -0.5096 -0.3560
  693MPD2    C210299   2.770   2.635  11.074  0.3382 -0.9861 -0.5037
  693MPD2    C310300   2.894   2.600  11.037 -0.0631 -1.3666 -0.4857
  693MPD2    C410301   2.946   2.642  10.917  0.0355 -0.1217  0.0393
  693MPD2    C510302   2.864   2.718  10.835  1.1728 -0.2128 -0.5921
  693MPD2     H10303   2.719   2.593  11.160  1.8417 -0.1850  0.7779
  693MPD2    H110304   3.048   2.624  10.884  0.1189 -0.4398  0.4682
  693MPD2    H210305   2.668   2.801  10.800  0.3310  1.2878  1.0429
  693MPD2    H310306   2.903   2.750  10.739  1.6233  0.9855 -0.0038
  693MPD2     N10307   2.977   2.521  11.120  0.0178  0.0528 -0.1217
  693MPD2    H510308   3.074   2.517  11.090 -0.1632 -1.8091 -0.4350
  693MPD2    N110309   2.548   2.716  11.009 -0.2509  0.1813 -0.0744
  693MPD2    H710310   2.498   2.768  10.938 -0.5802  0.1050  0.1010
  694TMC3    C110311   2.326   2.700  11.112  0.0605  0.2452  0.4610
  694TMC3    C210312   2.259   2.683  10.994 -0.2008  0.9351  0.8899
  694TMC3    C310313   2.122   2.694  11.006  0.0275  0.3883 -0.0673
  694TMC3    C410314   2.259   2.703  11.231 -0.3185 -0.5608 -0.1950
  694TMC3    C510315   2.122   2.698  11.234  0.0762 -0.5193  0.7545
  694TMC3    C610316   2.047   2.700  11.120  0.1801  0.2684 -0.5965
  694TMC3     C10317   2.468   2.676  11.120 -0.8908 -0.0728  0.2566
  694TMC3     O10318   2.507   2.627  11.229  0.5152 -0.4559  0.2727
  694TMC3     H10319   2.309   2.649  10.904 -0.7300 -1.0629  1.3475
  694TMC3    H110320   2.312   2.722  11.324  2.6485 -1.2049 -1.7717
  694TMC3    H210321   1.939   2.704  11.122  0.2236  1.2846  0.1707
  694TMC3    C710322   2.060   2.663  11.360  0.4260 -0.5944 -0.3518
  694TMC3    C810323   2.046   2.690  10.884 -0.3097  0.3951  0.2077
  694TMC3    O110324   2.113   2.702  11.469  0.7631  0.0524  0.9718
  694TMC3    O210325   1.931   2.652  10.891  0.0178 -0.2201 -0.1380
  695MPD2     C10326   3.918   4.614  13.274 -0.7939  0.5631 -0.1556
  695MPD2    C110327   3.893   4.621  13.407  0.0296 -0.2140  0.2621
  695MPD2    C210328   3.760   4.614  13.453 -0.2240  0.3654  0.0338
  695MPD2    C310329   3.650   4.620  13.367  0.1755 -0.2000 -0.1293
  695MPD2    C410330   3.677   4.637  13.234 -0.0048 -0.3714 -1.2811
  695MPD2    C510331   3.809   4.621  13.190  0.1365 -0.1357  0.6441
  695MPD2     H10332   3.740   4.602  13.559  0.7126  2.6399  0.4693
  695MPD2    H110333   3.605   4.657  13.155 -1.3430  1.2716  0.3451
  695MPD2    H210334   4.020   4.625  13.237  0.4050 -1.3071  2.5770
  695MPD2    H310335   3.820   4.620  13.082  0.1708  0.5052  0.6447
  695MPD2     N10336   3.518   4.607  13.406 -0.0258 -0.7092 -0.4477
  695MPD2    H510337   3.446   4.632  13.340 -2.2311  2.5033  3.1577
  695MPD2    N110338   3.987   4.633  13.507  0.1801 -0.2068  0.0004
  695MPD2    H710339   3.947   4.654  13.597  1.2202 -0.5299  0.5392
  696TMC3    C110340   3.337   4.565  13.560  0.4368  0.8385 -0.2933
  696TMC3    C210341   3.302   4.559  13.692  0.0950  0.6243  0.1879
  696TMC3    C310342   3.174   4.592  13.734 -0.2705 -0.5859 -0.3195
  696TMC3    C410343   3.243   4.610  13.467 -0.0665  0.2629  0.0853
  696TMC3    C510344   3.114   4.633  13.511  0.2137  0.0200 -0.4650
  696TMC3    C610345   3.075   4.626  13.647  0.3572 -0.9443  0.0539
  696TMC3     C10346   3.481   4.563  13.530 -0.1110 -0.6095 -0.2780
  696TMC3     O10347   3.548   4.505  13.614  0.4266 -0.1927 -0.3144
  696TMC3     H10348   3.373   4.555  13.774  0.8294 -1.5485 -0.5705
  696TMC3    H110349   3.262   4.640  13.365  1.7680 -1.9432 -0.2075
  696TMC3    H210350   2.969   4.637  13.666  0.7963  1.8332  0.7942
  696TMC3    C710351   3.031   4.715  13.423  0.3027  0.5476  0.1955
  696TMC3    C810352   3.149   4.644  13.860  0.8195  0.1552  0.5599
  696TMC3    O110353   3.045   4.729  13.304  0.4057  0.0419  0.2280
  696TMC3    O210354   3.235   4.714  13.900  0.4904 -0.0061 -0.6837
  697MPD2     C10355   3.160   1.763  15.562  0.0645  0.0090 -0.2035
  697MPD2    C110356   3.085   1.707  15.457 -0.6399 -0.6638 -0.0580
  697MPD2    C210357   3.104   1.755  15.327  1.2929  0.0989 -0.6856
  697MPD2    C310358   3.199   1.855  15.298 -0.4721 -0.2710  0.1894
  697MPD2    C410359   3.273   1.910  15.407  1.0513  0.7566  0.1212
  697MPD2    C510360   3.255   1.856  15.533 -0.0412  0.1343  0.0533
  697MPD2     H10361   3.029   1.724  15.255  0.8047 -0.7452  0.1942
  697MPD2    H110362   3.342   1.993  15.398 -1.7754  3.1641  0.5810
  697MPD2    H210363   3.154   1.725  15.664  0.4423 -1.9760 -0.9084
  697MPD2    H310364   3.306   1.912  15.611  1.1049 -0.6149 -0.1578
  697MPD2     N10365   3.217   1.901  15.163  0.7294  0.0939  0.5846
  697MPD2    H510366   3.148   1.865  15.099  1.2036  1.3349 -0.6317
  697MPD2    N110367   2.988   1.607  15.478  0.1434  0.1271 -0.0132
  697MPD2    H710368   2.922   1.583  15.404 -0.8629  1.4652  0.4586
  698TMC3    C110369   3.322   1.998  14.972 -0.5357  0.3688  0.8074
  698TMC3    C210370   3.450   2.010  14.923 -0.4492  0.3680 -0.3257
  698TMC3    C310371   3.452   1.990  14.786 -0.5454 -0.5036  0.5665
  698TMC3    C410372   3.205   1.978  14.900  0.5794 -0.2235 -0.5025
  698TMC3    C510373   3.216   1.954  14.763 -1.0020  0.2579  0.0371
  698TMC3    C610374   3.346   1.951  14.709 -0.3659  0.1718 -0.0207
  698TMC3     C10375   3.322   1.974  15.116 -0.2182  0.3172 -0.2925
  698TMC3     O10376   3.418   2.011  15.178 -0.5345  0.4467  0.1817
  698TMC3     H10377   3.533   2.041  14.986  0.0799 -1.2941 -0.1785
  698TMC3    H110378   3.109   1.977  14.949  0.2271  0.0777 -1.1787
  698TMC3    H210379   3.366   1.952  14.602  2.4353  0.7620  0.4903
  698TMC3    C710380   3.109   1.943  14.670 -0.4742  0.7283  0.0083
  698TMC3    C810381   3.581   1.998  14.724 -0.8182  0.1555  0.6053
  698TMC3    O110382   3.127   1.979  14.553 -0.0977 -0.1900  0.0056
  698TMC3    O210383   3.599   1.929  14.628  1.0273  0.2965 -0.1655
  699TMC3    C110384   3.042   0.151  12.946 -0.2591 -0.3893 -0.1382
  699TMC3    C210385   3.103   0.034  12.943  0.5117 -0.3975 -0.0524
  699TMC3    C310386   3.032   4.652  12.928  0.2558  0.7318 -0.6167
  699TMC3    C410387   2.909   0.159  12.923  0.1360 -0.4707 -0.2219
  699TMC3    C510388   2.834   0.050  12.911  0.6510  0.1398 -0.0372
  699TMC3    C610389   2.897   4.658  12.912 -0.0005 -0.1609  0.0094
  699TMC3     C10390   3.109   0.275  12.900  0.5057 -0.7528  0.0142
  699TMC3     O10391   3.061   0.382  12.929  0.4696  0.3046 -0.9010
  699TMC3     H10392   3.206   0.036  12.975  0.8160  0.5036 -1.0934
  699TMC3    H110393   2.857   0.255  12.922 -0.0748 -0.5853 -0.3383
  699TMC3    H210394   2.831   4.572  12.909 -2.4427  1.6654  0.7748
  699TMC3    C710395   2.690   0.079  12.911 -0.5483  0.4496  0.6468
  699TMC3    C810396   3.081   4.540  13.008  0.6189  1.2256 -0.1507
  699TMC3    O110397   2.650   0.182  12.959  0.1968 -0.2969  0.5277
  699TMC3    O210398   3.000   4.452  13.039  0.2304 -0.4456  0.4449
  700TMC3    C110399   2.197   2.451  17.493  0.7628  0.3542  0.2604
  700TMC3    C210400   2.295   2.382  17.424 -0.0094 -0.0819 -0.2982
  700TMC3    C310401   2.427   2.399  17.467 -0.1488 -0.0180  0.0039
  700TMC3    C410402   2.234   2.534  17.594 -0.4855 -0.9042  0.0887
  700TMC3    C510403   2.366   2.542  17.635  0.5220 -0.6639  0.4702
  700TMC3    C610404   2.466   2.473  17.574  0.3460  0.5012  0.8037
  700TMC3     C10405   2.096   2.513  17.411  0.8547 -0.4574  0.7087
  700TMC3     O10406   2.083   2.633  17.434 -0.1937  0.1700 -0.0189
  700TMC3     H10407   2.276   2.315  17.342 -1.6982 -0.8802  0.7556
  700TMC3    H110408   2.161   2.573  17.664  1.1823  0.2040  1.2071
  700TMC3    H210409   2.568   2.506  17.591  1.1093  0.0474 -3.0069
  700TMC3    C710410   2.399   2.678  17.656  1.1301  0.5539 -0.5106
  700TMC3    C810411   2.522   2.336  17.367 -0.8158 -0.1023 -0.3172
  700TMC3    O110412   2.510   2.712  17.700  0.2934 -0.3593 -0.8437
  700TMC3    O210413   2.474   2.313  17.258  0.6518  0.0882  0.1084
  701TMC3    C110414   1.927   1.379  16.076 -0.2849  0.7972 -0.9070
  701TMC3    C210415   1.858   1.345  15.967  0.4634  1.0650 -0.1616
  701TMC3    C310416   1.895   1.396  15.846  0.0088 -0.5574 -0.1342
  701TMC3    C410417   2.037   1.453  16.069  0.6546 -0.1827 -0.4934
  701TMC3    C510418   2.081   1.493  15.942  0.0126 -0.7330  0.3258
  701TMC3    C610419   2.010   1.465  15.824 -0.1549  0.2727  0.2599
  701TMC3     C10420   1.908   1.309  16.207 -0.0221  0.6393  0.1658
  701TMC3     O10421   1.950   1.373  16.303 -0.2720 -0.0668 -0.1198
  701TMC3     H10422   1.783   1.267  15.967  2.0321 -0.4674 -2.2982
  701TMC3    H110423   2.096   1.464  16.159 -0.4099 -0.1479  0.1926
  701TMC3    H210424   2.053   1.482  15.726 -3.1878  2.8588 -0.6257
  701TMC3    C710425   2.177   1.599  15.928  0.3822  0.4411  0.1384
  701TMC3    C810426   1.795   1.396  15.743  0.3069  0.1327  1.0159
  701TMC3    O110427   2.199   1.631  15.811 -0.4234  0.4582  0.4829
  701TMC3    O210428   1.708   1.308  15.737 -0.5148  0.4431  0.6364
  702MPD2     C10429   1.841   4.112  10.211 -0.3929 -0.0653 -0.1755
  702MPD2    C110430   1.797   4.062  10.333  0.7428 -0.6452 -0.3824
  702MPD2    C210431   1.794   4.145  10.449  0.1423  0.0103  0.6288
  702MPD2    C310432   1.830   4.278  10.436  0.5658  0.0177  0.1060
  702MPD2    C410433   1.862   4.331  10.316 -0.4127  0.1123 -0.2500
  702MPD2    C510434   1.880   4.250  10.210 -0.3717  0.3372 -0.0278
  702MPD2     H10435   1.749   4.102  10.538  0.7362 -1.0048  0.4305
  702MPD2    H110436   1.886   4.436  10.311  0.3623 -0.1317 -1.4563
  702MPD2    H210437   1.868   4.052  10.125  1.3549 -1.0265  1.0416
  702MPD2    H310438   1.922   4.286  10.118  1.4668 -0.1587  0.6068
  702MPD2     N10439   1.832   4.361  10.552 -0.5601 -0.1514 -0.2356
  702MPD2    H510440   1.819   4.460  10.537 -0.0588 -0.4119 -2.3824
  702MPD2    N110441   1.781   3.924  10.360  0.3791 -0.4997  0.4864
  702MPD2    H710442   1.776   3.893  10.456 -0.2707  0.3849  0.7312
  703TMC3    C110443   1.874   4.203  10.733  0.9800 -0.1545  0.6145
  703TMC3    C210444   1.785   4.121  10.787  0.6536  0.2386 -0.1138
  703TMC3    C310445   1.809   3.989  10.778  0.0780  0.3272  0.2074
  703TMC3    C410446   1.991   4.170  10.677  0.2750  0.3534  1.0271
  703TMC3    C510447   2.022   4.037  10.675 -0.7434  0.2487  0.0310
  703TMC3    C610448   1.931   3.946  10.723 -0.2301 -0.0958  0.1596
  703TMC3     C10449   1.806   4.322  10.684 -0.8856  0.2296  0.1660
  703TMC3     O10450   1.766   4.384  10.781 -0.0727  0.3618  0.1379
  703TMC3     H10451   1.709   4.167  10.849 -0.4091  1.1337 -2.0890
  703TMC3    H110452   2.045   4.248  10.625 -0.5479  0.9934  1.1342
  703TMC3    H210453   1.947   3.838  10.727 -1.3290 -0.1845  2.1934
  703TMC3    C710454   2.113   3.992  10.568  0.0837 -0.1196  0.9292
  703TMC3    C810455   1.692   3.927  10.714 -0.8993  0.5461  0.0003
  703TMC3    O110456   2.169   4.081  10.506  0.4737  0.1814  0.0974
  703TMC3    O210457   1.720   3.869  10.610 -0.2891 -0.1967 -0.1080
  704TMC3    C110458   4.120   1.426  12.627  0.2445  1.1219  0.3384
  704TMC3    C210459   4.227   1.435  12.539 -0.4074  0.0055  0.9952
  704TMC3    C310460   4.324   1.351  12.576  0.4191  0.1611  0.0413
  704TMC3    C410461   4.095   1.322  12.720 -0.3696 -0.3412  0.3443
  704TMC3    C510462   4.198   1.230  12.729 -0.1737 -0.5728 -1.4558
  704TMC3    C610463   4.318   1.249  12.669 -0.5962 -0.7985  0.0160
  704TMC3     C10464   4.027   1.532  12.638  0.1557  0.5217 -0.6293
  704TMC3     O10465   3.940   1.522  12.725 -0.1204  0.2425 -0.3936
  704TMC3     H10466   4.225   1.504  12.455  0.3813 -0.1569  0.8441
  704TMC3    H110467   3.991   1.306  12.747 -1.1143  1.1479 -1.5288
  704TMC3    H210468   4.397   1.175  12.681  1.4233  1.1802 -0.9405
  704TMC3    C710469   4.161   1.089  12.716  0.0205  0.1060  0.6283
  704TMC3    C810470   4.438   1.351  12.484  0.5300  0.3233 -0.6065
  704TMC3    O110471   4.244   1.016  12.657 -0.5706  0.0333  0.5029
  704TMC3    O210472   4.417   1.397  12.370 -0.0294 -0.2245 -0.4166
  705MPD2     C10473   3.315   0.234  16.690 -0.5623  0.1337 -0.0257
  705MPD2    C110474   3.312   0.106  16.632 -0.5932  0.3852  0.7732
  705MPD2    C210475   3.192   0.044  16.647 -0.0199  0.5086 -0.1621
  705MPD2    C310476   3.090   0.099  16.721  0.0112 -0.0825 -0.0161
  705MPD2    C410477   3.102   0.219  16.780  0.5491 -0.4189 -0.3500
  705MPD2    C510478   3.225   0.289  16.777 -0.0837 -0.1478  0.1610
  705MPD2     H10479   3.174   4.683  16.601 -1.6976  1.1768 -0.9056
  705MPD2    H110480   3.016   0.265  16.827  1.1398  1.5530 -1.1744
  705MPD2    H210481   3.402   0.295  16.667 -0.5085 -0.0866 -0.4189
  705MPD2    H310482   3.240   0.391  16.812  2.9251  0.7714 -3.8387
  705MPD2     N10483   2.955   0.048  16.725 -0.5596 -0.4960  0.2640
  705MPD2    H510484   2.897   0.091  16.796 -2.2948 -0.9536 -0.8582
  705MPD2    N110485   3.434   0.074  16.567  0.5095 -0.4591 -0.2505
  705MPD2    H710486   3.516   0.131  16.586  2.5319 -2.8143 -1.8614
  706TMC3    C110487   3.616   4.607  16.174  0.6700 -0.1771  0.8055
  706TMC3    C210488   3.631   4.725  16.114  0.4338  0.8904 -0.4327
  706TMC3    C310489   3.609   0.103  16.194 -0.2277  0.5546  0.7418
  706TMC3    C410490   3.578   4.599  16.303  0.1603 -0.4323  1.2241
  706TMC3    C510491   3.561   4.709  16.387  0.1603 -0.0338 -0.2332
  706TMC3    C610492   3.586   0.096  16.329 -0.6391  0.0943 -0.3296
  706TMC3     C10493   3.610   4.490  16.089 -0.0261  0.3625  0.2229
  706TMC3     O10494   3.555   4.392  16.146  0.1941 -0.2715 -0.8002
  706TMC3     H10495   3.647   0.009  16.008 -2.3953  0.8954 -0.8831
  706TMC3    H110496   3.557   4.501  16.345 -2.0747 -0.4825 -0.0193
  706TMC3    H210497   3.582   0.193  16.379  0.5658 -0.1823  0.3007
  706TMC3    C710498   3.445   4.698  16.481  0.4399  0.6672 -0.4003
  706TMC3    C810499   3.622   0.225  16.125  0.2416  0.3688  0.4957
  706TMC3    O110500   3.386   4.592  16.483  0.2525  0.5009  0.4713
  706TMC3    O210501   3.573   0.234  16.014 -0.0423 -0.4555 -0.0875
  707TMC3    C110502   0.691   3.558   0.342  0.4556  0.0479 -0.1280
  707TMC3    C210503   0.597   3.459   0.353  0.1851  0.6665  0.6167
  707TMC3    C310504   0.486   3.475   0.273  0.5038  0.4617  0.3715
  707TMC3    C410505   0.679   3.662   0.263 -0.3133  0.3658  0.3896
  707TMC3    C510506   0.570   3.659   0.176  0.1500 -0.2386  0.3004
  707TMC3    C610507   0.467   3.571   0.185 -0.2603  0.3226  0.0037
  707TMC3     C10508   0.773   3.581   0.460  0.0366 -0.0812  0.5358
  707TMC3     O10509   0.734   3.532   0.568 -0.5999  0.4011  0.3708
  707TMC3     H10510   0.631   3.377   0.415 -0.0217  0.6279  0.6793
  707TMC3    H110511   0.754   3.737   0.241 -0.3204 -0.3950 -2.1277
  707TMC3    H210512   0.379   3.571   0.122 -0.6688 -0.0120  0.5650
  707TMC3    C710513   0.552   3.781   0.105  0.7447  0.2606  0.2187
  707TMC3    C810514   0.375   3.388   0.303  0.0132  0.1972 -0.4327
  707TMC3    O110515   0.606   3.884   0.141  0.4836  0.3134 -0.1182
  707TMC3    O210516   0.286   3.377   0.225 -0.3444  0.7851  0.2416
  708MPD2     C10517   1.883   2.701  13.470 -0.3357  0.0862 -0.1837
  708MPD2    C110518   1.867   2.783  13.576 -0.3653 -0.4320 -0.4816
  708MPD2    C210519   1.891   2.731  13.699  0.2148  1.5616  0.5873
  708MPD2    C310520   1.912   2.592  13.712 -0.1799 -0.2370 -0.2864
  708MPD2    C410521   1.904   2.511  13.604  0.0816  0.5141  0.6463
  708MPD2    C510522   1.898   2.564  13.481 -0.4287  0.6646 -0.5491
  708MPD2     H10523   1.907   2.800  13.781 -1.5467  1.5078  0.9918
  708MPD2    H110524   1.931   2.406  13.596  0.1638  0.5958 -0.0919
  708MPD2    H210525   1.902   2.727  13.367 -0.4040 -0.5900 -0.3685
  708MPD2    H310526   1.925   2.513  13.389  0.2516 -0.8495  0.4951
  708MPD2     N10527   1.947   2.538  13.833 -0.7855 -0.0235 -0.4200
  708MPD2    H510528   1.960   2.437  13.834 -0.1918  0.0253 -2.6012
  708MPD2    N110529   1.841   2.922  13.545 -0.2557 -0.1442 -0.1694
  708MPD2    H710530   1.825   2.943  13.447  1.1611  0.0334 -0.3614
  709TMC3    C110531   1.782   3.147  13.591  0.2932 -0.0126  0.4358
  709TMC3    C210532   1.717   3.142  13.477 -0.4789  0.6237  0.3160
  709TMC3    C310533   1.578   3.149  13.469 -0.1329  0.4296  0.2732
  709TMC3    C410534   1.718   3.201  13.704  0.4827 -0.5554 -0.7696
  709TMC3    C510535   1.583   3.216  13.700  1.1432  0.4138 -0.2946
  709TMC3    C610536   1.509   3.190  13.587  0.2329 -0.2159 -0.1738
  709TMC3     C10537   1.839   3.021  13.638  0.0106  0.9179 -0.3087
  709TMC3     O10538   1.875   3.025  13.752 -0.6103  0.4397  0.1761
  709TMC3     H10539   1.764   3.111  13.384  2.4887 -0.6555  2.2272
  709TMC3    H110540   1.780   3.233  13.787 -1.2522 -2.3306  1.2241
  709TMC3    H210541   1.401   3.188  13.579  0.0027  1.6985  2.4936
  709TMC3    C710542   1.518   3.147  13.812  0.3837  0.3695 -0.1513
  709TMC3    C810543   1.505   3.068  13.380  0.3255 -0.0272 -0.2107
  709TMC3    O110544   1.400   3.162  13.825  0.2334 -0.5723 -0.2151
  709TMC3    O210545   1.394   3.034  13.416  0.4977 -0.1246  0.4742
  710TMC3    C110546   3.343   4.279  17.359 -0.4001  0.0830  0.4030
  710TMC3    C210547   3.461   4.344  17.337 -0.6224  0.2536  0.2781
  710TMC3    C310548   3.577   4.275  17.373 -0.0838 -0.0699 -0.4598
  710TMC3    C410549   3.326   4.158  17.425  0.3550 -0.1461 -0.0899
  710TMC3    C510550   3.442   4.100  17.468 -0.0581 -0.3742  0.0389
  710TMC3    C610551   3.564   4.150  17.435  0.6575  0.3455 -0.8701
  710TMC3     C10552   3.219   4.342  17.325  0.6362  0.5545  0.3536
  710TMC3     O10553   3.199   4.397  17.218 -0.3904 -0.1051  0.1124
  710TMC3     H10554   3.453   4.436  17.280 -1.3122  0.7757  1.2188
  710TMC3    H110555   3.230   4.110  17.437  1.8677 -3.1636  0.1212
  710TMC3    H210556   3.656   4.106  17.473  0.8556  0.1627 -1.5573
  710TMC3    C710557   3.423   4.023  17.587 -0.9235 -0.2911  0.6186
  710TMC3    C810558   3.693   4.280  17.283 -0.3910  0.2461 -0.1103
  710TMC3    O110559   3.307   4.008  17.628 -0.1521 -0.2196 -0.1484
  710TMC3    O210560   3.762   4.176  17.282  0.6211  0.4930  0.6233
  711TMC3    C110561   2.516   0.637  14.918  0.1613  0.5265 -0.0780
  711TMC3    C210562   2.529   0.709  15.031  0.2725  0.5728  0.5165
  711TMC3    C310563   2.649   0.697  15.095 -0.7598  1.1622  0.1609
  711TMC3    C410564   2.610   0.556  14.871  0.3017 -0.3035 -0.1610
  711TMC3    C510565   2.728   0.551  14.934 -0.0374  0.2973  0.5107
  711TMC3    C610566   2.750   0.620  15.049 -0.2481  0.0085 -0.1483
  711TMC3     C10567   2.385   0.620  14.858 -0.6930  0.5826  1.2035
  711TMC3     O10568   2.353   0.515  14.813 -0.0737  0.5307  0.5190
  711TMC3     H10569   2.442   0.754  15.078  1.2863  1.6560  1.3805
  711TMC3    H110570   2.598   0.511  14.773 -1.1828  1.6895 -0.8885
  711TMC3    H210571   2.849   0.612  15.094 -0.2185 -1.3451 -0.4445
  711TMC3    C710572   2.825   0.454  14.900 -0.1368  0.1056 -0.4701
  711TMC3    C810573   2.655   0.737  15.237 -0.1027  0.0136  0.7507
  711TMC3    O110574   2.932   0.458  14.958 -0.6319 -0.4069  0.0058
  711TMC3    O210575   2.539   0.739  15.287 -0.0388 -0.0934 -0.3501
  712MPD2     C10576   4.387   1.307  13.760 -0.1770 -0.0697  0.0112
  712MPD2    C110577   4.336   1.407  13.843  1.0057 -0.2295 -0.0004
  712MPD2    C210578   4.419   1.509  13.895 -0.2934 -0.5114  0.7407
  712MPD2    C310579   4.552   1.517  13.864 -0.5359 -0.7900 -0.2830
  712MPD2    C410580   4.605   1.404  13.795  0.2180  0.4115  0.1717
  712MPD2    C510581   4.523   1.312  13.738  0.2453  0.1811  0.2149
  712MPD2     H10582   4.373   1.588  13.953 -0.6815 -0.2083  0.0154
  712MPD2    H110583   4.710   1.392  13.773 -0.0137 -0.2059 -0.6336
  712MPD2    H210584   4.332   1.225  13.716 -0.0929 -1.4774  2.5355
  712MPD2    H310585   4.568   1.233  13.679 -0.0321  2.1071 -2.5548
  712MPD2     N10586   4.630   1.629  13.896  0.4367  0.3237  0.1116
  712MPD2    H510587   4.713   1.642  13.839 -0.0372  1.0204 -0.4179
  712MPD2    N110588   4.203   1.410  13.882  0.0377 -0.4756  0.2325
  712MPD2    H710589   4.173   1.472  13.957  2.0794 -1.4088  1.7946
  713TMC3    C110590   4.632   1.853  13.964  0.9459 -0.1992 -0.3112
  713TMC3    C210591   4.649   1.888  13.828 -0.1389 -0.1935 -0.3741
  713TMC3    C310592   4.597   2.010  13.787  0.2630 -0.5106  1.1078
  713TMC3    C410593   4.577   1.943  14.057 -0.1817  0.3182 -0.3644
  713TMC3    C510594   4.513   2.054  14.007 -0.5725 -0.2156  0.0096
  713TMC3    C610595   4.521   2.088  13.875 -0.0014 -0.0355 -0.2163
  713TMC3     C10596   4.602   1.717  13.997  0.5893 -0.4812 -0.1465
  713TMC3     O10597   4.537   1.696  14.101 -0.3554  0.1679 -0.5434
  713TMC3     H10598   4.687   1.817  13.756 -2.1889 -1.8344  0.1700
  713TMC3    H110599   4.556   1.915  14.160  0.7522 -0.3771 -0.3669
  713TMC3    H210600   4.472   2.177  13.836  0.1276 -0.6837 -1.8752
  713TMC3    C710601   4.438   2.127  14.108 -0.2829 -0.0094 -0.0736
  713TMC3    C810602   4.684   2.088  13.697 -0.4571 -0.3613 -0.0067
  713TMC3    O110603   4.467   2.133  14.226  0.6161  0.1802  0.6372
  713TMC3    O210604   4.669   2.205  13.703  0.5743  0.3207  0.2049
  714MPD2     C10605   1.242   0.458   0.859 -0.3728 -0.1462  0.3331
  714MPD2    C110606   1.227   0.321   0.901  0.2487 -0.6506  0.4538
  714MPD2    C210607   1.104   0.268   0.922  0.5347 -0.3251  0.2026
  714MPD2    C310608   0.994   0.350   0.908 -0.2013 -0.2447 -0.9931
  714MPD2    C410609   1.008   0.487   0.871  0.3553 -0.1225 -0.1840
  714MPD2    C510610   1.134   0.545   0.857 -0.5091 -0.1612 -0.5210
  714MPD2     H10611   1.094   0.167   0.961  0.7199 -0.4615 -0.1089
  714MPD2    H110612   0.920   0.544   0.846  0.1150  0.5660  2.2394
  714MPD2    H210613   1.344   0.493   0.847 -0.1263 -0.9569  0.0508
  714MPD2    H310614   1.141   0.650   0.831 -0.8396 -0.2983 -1.1465
  714MPD2     N10615   0.870   0.294   0.942 -0.6661  0.2748  0.2318
  714MPD2    H510616   0.869   0.193   0.955 -0.4368 -0.1356 -2.8136
  714MPD2    N110617   1.347   0.253   0.924  0.8067  0.4273  0.1344
  714MPD2    H710618   1.427   0.313   0.906  0.1307  0.6232 -2.1468
  715TMC3    C110619   1.489   0.079   0.983 -0.4481 -1.5494  0.0751
  715TMC3    C210620   1.528   4.694   0.929 -0.2783 -0.0614 -0.3794
  715TMC3    C310621   1.650   4.634   0.961  0.3434  0.7595  0.3594
  715TMC3    C410622   1.576   0.153   1.056 -0.3197 -1.0538  0.1127
  715TMC3    C510623   1.698   0.099   1.079 -0.6987 -0.4271 -0.1318
  715TMC3    C610624   1.742   4.711   1.028 -0.0654  0.0553 -0.4439
  715TMC3     C10625   1.356   0.121   0.975  0.5141  0.1225  0.3211
  715TMC3     O10626   1.275   0.031   0.952  0.4764  0.0780  0.3588
  715TMC3     H10627   1.460   4.627   0.877  0.1357 -0.5995 -0.2273
  715TMC3    H110628   1.541   0.251   1.086 -1.7127 -1.2231 -0.9683
  715TMC3    H210629   1.838   4.671   1.058 -1.1539 -0.6813  2.0257
  715TMC3    C710630   1.803   0.180   1.142 -0.4766  0.6049 -0.0656
  715TMC3    C810631   1.694   4.514   0.883 -0.9906  0.0672  0.3173
  715TMC3    O110632   1.913   0.120   1.149  0.1370 -0.0837  0.2619
  715TMC3    O210633   1.626   4.493   0.778  0.2201  0.2148  0.5918
  716MPD2     C10634   1.927   3.672   9.931  0.6090  0.4118  0.0967
  716MPD2    C110635   1.831   3.699   9.836  0.5285  0.3843 -0.3256
  716MPD2    C210636   1.832   3.620   9.723  0.4499 -0.0215  0.0995
  716MPD2    C310637   1.920   3.516   9.700  0.0654  0.3166  0.2191
  716MPD2    C410638   2.015   3.501   9.797  0.2864  0.2465 -0.3511
  716MPD2    C510639   2.025   3.583   9.905  0.1400 -0.4718 -0.5043
  716MPD2     H10640   1.757   3.638   9.647 -0.4828  2.5600  1.6345
  716MPD2    H110641   2.089   3.423   9.782  0.8886  0.2479  2.4688
  716MPD2    H210642   1.925   3.737  10.018  1.6907  0.8749 -0.2269
  716MPD2    H310643   2.108   3.574   9.974 -1.1006 -0.9961  0.9033
  716MPD2     N10644   1.918   3.437   9.581  0.3612 -0.3407  0.3861
  716MPD2    H510645   1.847   3.472   9.516 -1.3156 -0.9720  1.8693
  716MPD2    N110646   1.728   3.796   9.853 -0.7265 -0.4869  0.2769
  716MPD2    H710647   1.735   3.856   9.934  2.2783 -0.3148 -0.1090
  717TMC3    C110648   1.980   3.281   9.408  0.1216 -0.4384 -1.0751
  717TMC3    C210649   1.913   3.370   9.319 -0.5184  0.0589 -0.0140
  717TMC3    C310650   1.852   3.321   9.206  0.7999  0.5148  0.1113
  717TMC3    C410651   1.978   3.146   9.391 -0.0973 -0.6498 -0.3433
  717TMC3    C510652   1.920   3.102   9.274  0.4373 -0.2813 -0.3927
  717TMC3    C610653   1.856   3.184   9.181  0.2290 -0.1504  0.2869
  717TMC3     C10654   1.986   3.322   9.552 -0.7643 -0.2630 -0.3894
  717TMC3     O10655   2.049   3.249   9.624 -0.3559 -0.1711 -0.0910
  717TMC3     H10656   1.920   3.478   9.327  1.6245 -0.0696 -0.1861
  717TMC3    H110657   2.028   3.078   9.460  0.0693  1.5088  1.6618
  717TMC3    H210658   1.795   3.146   9.100  2.4136  1.5755 -2.1601
  717TMC3    C710659   1.922   2.961   9.241  0.4746 -0.3208  0.4129
  717TMC3    C810660   1.777   3.418   9.131  0.3271  0.0571 -0.0116
  717TMC3    O110661   1.854   2.924   9.143  0.5978 -0.0563  0.1772
  717TMC3    O210662   1.787   3.536   9.162 -0.0239 -0.1767  0.4927
  718MPD2     C10663   1.220   1.600  13.227  0.2032  0.5489 -0.0550
  718MPD2    C110664   1.213   1.516  13.121 -0.5545 -0.2109  0.2580
  718MPD2    C210665   1.106   1.435  13.097 -1.1655  0.1172 -0.1186
  718MPD2    C310666   1.003   1.429  13.192 -0.1774  0.1775  0.6063
  718MPD2    C410667   1.020   1.495  13.312  0.6373 -0.1886  0.2162
  718MPD2    C510668   1.124   1.586  13.322 -0.0365 -0.2007  0.2777
  718MPD2     H10669   1.093   1.394  12.998  0.5492  1.7567 -1.0191
  718MPD2    H110670   0.943   1.477  13.387  1.4832 -0.0925  1.1127
  718MPD2    H210671   1.299   1.675  13.228  0.4536  0.2709  1.0842
  718MPD2    H310672   1.137   1.638  13.417 -1.4128 -1.2792  1.0678
  718MPD2     N10673   0.888   1.360  13.146  0.3049 -0.2302 -0.3254
  718MPD2    H510674   0.892   1.303  13.063  1.2172 -1.4575  0.5576
  718MPD2    N110675   1.305   1.519  13.016 -0.0225  0.1716  0.0301
  718MPD2    H710676   1.293   1.456  12.938 -0.6986 -1.1182  1.1820
  719TMC3    C110677   1.428   1.609  12.847  0.6521 -0.0370 -0.6857
  719TMC3    C210678   1.413   1.494  12.778  0.3102 -0.3384  0.1276
  719TMC3    C310679   1.393   1.497  12.638 -0.3395  0.8669 -0.4355
  719TMC3    C410680   1.394   1.732  12.793 -0.0936  0.8337 -0.6857
  719TMC3    C510681   1.368   1.735  12.658  0.4572 -0.4614 -0.4995
  719TMC3    C610682   1.376   1.624  12.580 -0.5170 -0.0840  0.3241
  719TMC3     C10683   1.410   1.606  12.990  0.6672 -0.0914  0.0035
  719TMC3     O10684   1.445   1.700  13.062  0.2463 -0.1573  0.1246
  719TMC3     H10685   1.434   1.398  12.825 -1.3099 -0.7944 -0.0648
  719TMC3    H110686   1.380   1.820  12.855 -1.5528  0.3710 -0.3546
  719TMC3    H210687   1.351   1.639  12.476 -0.9572 -0.2681  0.4046
  719TMC3    C710688   1.342   1.849  12.581 -0.5701 -0.5738  0.0625
  719TMC3    C810689   1.281   1.410  12.614 -0.3873 -0.3453  0.7223
  719TMC3    O110690   1.389   1.857  12.467 -0.1206  0.5314  0.1814
  719TMC3    O210691   1.243   1.354  12.717 -0.1323 -0.2676  0.0199
  720MPD2     C10692   4.286   3.432  14.391  0.2340  0.1882 -1.0950
  720MPD2    C110693   4.357   3.434  14.265 -0.4320 -0.4972  1.0360
  720MPD2    C210694   4.489   3.386  14.262  0.1791 -0.5908 -0.0398
  720MPD2    C310695   4.558   3.357  14.382  0.0884 -0.7492  0.0211
  720MPD2    C410696   4.484   3.352  14.499 -0.7491  0.1237  0.2924
  720MPD2    C510697   4.349   3.389  14.500 -0.4420  0.4475  0.7333
  720MPD2     H10698   4.547   3.385  14.171 -1.9442 -0.5010 -1.3921
  720MPD2    H110699   4.535   3.343  14.594 -0.5957  2.0324  0.3812
  720MPD2    H210700   4.181   3.455  14.405  0.4359  0.8146 -0.5613
  720MPD2    H310701   4.290   3.393  14.591 -1.2853 -0.3522  0.2159
  720MPD2     N10702   4.693   3.332  14.371  0.0038 -0.2044  0.1024
  720MPD2    H510703   4.726   3.349  14.277  0.1413 -0.1422  0.1617
  720MPD2    N110704   4.297   3.480  14.144  0.3648 -0.0917 -0.1559
  720MPD2    H710705   4.331   3.446  14.055 -3.0559 -1.0096 -1.1217
  721TMC3    C110706   0.167   3.399  14.445  0.0150 -0.2548 -0.3197
  721TMC3    C210707   0.124   3.522  14.416 -0.5383 -0.0604 -0.2519
  721TMC3    C310708   0.218   3.598  14.351  0.1189  0.0457  0.1159
  721TMC3    C410709   0.292   3.342  14.417 -0.3730  0.0841 -0.0701
  721TMC3    C510710   0.376   3.416  14.336 -0.6090  0.0020 -0.6819
  721TMC3    C610711   0.340   3.548  14.309 -0.2556 -0.0577 -0.1112
  721TMC3     C10712   0.048   3.323  14.476 -0.5448 -0.2013  0.4853
  721TMC3     O10713   0.028   3.281  14.589 -0.2380  0.8664  0.0267
  721TMC3     H10714   0.020   3.549  14.433  0.6670  3.7486  1.1095
  721TMC3    H110715   0.301   3.239  14.449  0.6107  0.0641 -0.4112
  721TMC3    H210716   0.386   3.618  14.240  0.9668 -0.9078 -0.1455
  721TMC3    C710717   0.514   3.389  14.315  0.2540  0.6555  0.9056
  721TMC3    C810718   0.196   3.735  14.370  1.0098 -0.1544  0.3480
  721TMC3    O110719   0.581   3.458  14.238 -0.5606 -0.2554 -0.7325
  721TMC3    O210720   0.263   3.806  14.301  0.5092 -0.2082  0.3207
  722MPD2     C10721   3.478   2.129  13.575  0.5429  0.3365 -0.7825
  722MPD2    C110722   3.418   2.255  13.584 -0.1447  0.2301 -0.6643
  722MPD2    C210723   3.292   2.281  13.532 -0.0708 -0.1063  0.1437
  722MPD2    C310724   3.237   2.194  13.446 -1.1104  0.0153  0.4518
  722MPD2    C410725   3.310   2.080  13.413  0.2627  0.5534 -0.3559
  722MPD2    C510726   3.429   2.045  13.477  0.4113  0.0097 -0.0540
  722MPD2     H10727   3.252   2.379  13.555  1.2531  1.3397 -3.8065
  722MPD2    H110728   3.276   2.010  13.338  0.2691 -0.2154  0.3627
  722MPD2    H210729   3.580   2.107  13.608 -0.9463 -3.2670  1.4337
  722MPD2    H310730   3.488   1.957  13.458  1.2520  0.0199  2.4652
  722MPD2     N10731   3.121   2.212  13.380 -0.4973 -0.0660  0.4806
  722MPD2    H510732   3.100   2.147  13.305  2.1806 -0.4050  0.0108
  722MPD2    N110733   3.477   2.361  13.651  0.2155 -0.0620  0.3429
  722MPD2    H710734   3.423   2.446  13.644  0.4842  0.0438 -0.3823
  723TMC3    C110735   2.927   2.328  13.302 -0.4886 -0.6706 -0.2604
  723TMC3    C210736   2.942   2.258  13.180 -0.0092  0.0438  0.1760
  723TMC3    C310737   2.829   2.227  13.110  0.4264 -0.5889 -0.1335
  723TMC3    C410738   2.810   2.377  13.343  0.2712 -0.0749  0.9516
  723TMC3    C510739   2.703   2.353  13.266 -0.6652 -0.5241 -0.5627
  723TMC3    C610740   2.707   2.273  13.156 -0.1277 -0.1194 -0.2071
  723TMC3     C10741   3.030   2.314  13.405 -0.1455 -0.2048 -0.4185
  723TMC3     O10742   3.012   2.370  13.513  0.3432  0.5897  0.1547
  723TMC3     H10743   3.034   2.215  13.143  0.3599  0.1379  0.9893
  723TMC3    H110744   2.791   2.411  13.444  0.3801  0.8407  0.6616
  723TMC3    H210745   2.618   2.247  13.101  0.2000 -1.8923  0.1096
  723TMC3    C710746   2.577   2.426  13.289  0.9461  0.4890 -0.7054
  723TMC3    C810747   2.840   2.199  12.965  0.2500  0.2205 -0.7231
  723TMC3    O110748   2.480   2.383  13.234 -0.0753 -0.3317 -1.1958
  723TMC3    O210749   2.942   2.232  12.903 -0.5219  0.1412 -0.1888
  724TMC3    C110750   2.456   0.731   9.729  0.0284  0.0791  0.1018
  724TMC3    C210751   2.484   0.858   9.689 -0.3306  0.0210  0.3110
  724TMC3    C310752   2.393   0.924   9.616  0.3083  0.3439 -0.4139
  724TMC3    C410753   2.356   0.661   9.672 -0.0088 -0.5812 -0.1277
  724TMC3    C510754   2.288   0.718   9.570  0.1290  0.3127 -0.0234
  724TMC3    C610755   2.304   0.854   9.539  0.0866 -0.2897 -0.5181
  724TMC3     C10756   2.502   0.702   9.864 -0.0167  0.3323 -0.1217
  724TMC3     O10757   2.608   0.741   9.907  0.3318 -0.0052  0.1138
  724TMC3     H10758   2.554   0.910   9.753 -0.2872  1.0439 -0.5589
  724TMC3    H110759   2.339   0.558   9.702 -0.8142 -1.1292 -2.4646
  724TMC3    H210760   2.234   0.915   9.483 -0.1672  0.3885  0.5435
  724TMC3    C710761   2.195   0.635   9.493  0.5916  0.2866 -0.1064
  724TMC3    C810762   2.414   1.061   9.575 -0.4047  0.7179  0.3680
  724TMC3    O110763   2.144   0.539   9.545 -0.0046 -0.0261 -0.1645
  724TMC3    O210764   2.313   1.120   9.548  0.3471  0.0876 -0.3885
  725TMC3    C110765   0.032   3.803  13.061 -0.7106 -0.1406  0.4805
  725TMC3    C210766   4.646   3.797  13.005  0.3718  0.3051  0.3319
  725TMC3    C310767   4.593   3.690  12.941 -0.1631  0.0246  0.0070
  725TMC3    C410768   0.119   3.705  13.028 -0.4525 -0.3351 -0.9069
  725TMC3    C510769   0.081   3.598  12.946 -0.1072 -0.5696 -0.6954
  725TMC3    C610770   4.687   3.590  12.906  0.2034  0.4131 -0.6700
  725TMC3     C10771   0.046   3.901  13.161  0.6704 -0.3374  0.1704
  725TMC3     O10772   4.730   4.002  13.127  0.3970  0.5266  0.2436
  725TMC3     H10773   4.569   3.870  13.027  0.1478  0.5710 -1.3214
  725TMC3    H110774   0.221   3.710  13.062 -0.4555 -0.8231 -0.8294
  725TMC3    H210775   4.650   3.500  12.859  0.9650  0.0509 -0.5750
  725TMC3    C710776   0.181   3.500  12.909 -0.1424  0.4708 -0.2527
  725TMC3    C810777   4.489   3.694  12.841  0.3458  0.5209 -0.2817
  725TMC3    O110778   0.158   3.429  12.811  0.4349  0.5815 -0.2356
  725TMC3    O210779   4.440   3.587  12.811  0.1358 -0.1378  0.6111
  726MPD2     C10780   2.272   0.950  10.012  0.5977 -0.6345 -0.2073
  726MPD2    C110781   2.360   0.985  10.109 -0.8429  0.0635  0.2328
  726MPD2    C210782   2.377   0.902  10.224 -0.1481  0.9619 -0.1882
  726MPD2    C310783   2.298   0.789  10.240  0.3370 -0.0932 -0.1788
  726MPD2    C410784   2.211   0.755  10.139  0.0849  0.2788 -0.1138
  726MPD2    C510785   2.204   0.832  10.029  1.0288 -0.2530 -0.0903
  726MPD2     H10786   2.456   0.929  10.294  2.6092 -2.3385 -2.0506
  726MPD2    H110787   2.163   0.658  10.136 -1.6266  1.0854  0.8244
  726MPD2    H210788   2.273   0.987   9.910  1.1712  0.9632  0.3809
  726MPD2    H310789   2.138   0.795   9.951 -0.0571  2.8082 -0.6281
  726MPD2     N10790   2.308   0.698  10.350 -0.0415  0.0668  0.0117
  726MPD2    H510791   2.257   0.611  10.340  0.0823  0.0775 -0.7262
  726MPD2    N110792   2.440   1.103  10.097 -0.1241  0.4097  0.2782
  726MPD2    H710793   2.521   1.121  10.156 -0.5524  0.8086  0.7396
  727TMC3    C110794   2.514   1.312  10.014 -0.1106 -0.6036 -0.1217
  727TMC3    C210795   2.560   1.341  10.143  0.2841  0.0471 -0.0094
  727TMC3    C310796   2.639   1.452  10.162 -0.3187  0.9217  0.5954
  727TMC3    C410797   2.540   1.387   9.905 -0.2284 -0.1506  0.0920
  727TMC3    C510798   2.621   1.493   9.930  0.0904 -0.2550 -0.3897
  727TMC3    C610799   2.675   1.525  10.053  0.1696  0.3906  0.0703
  727TMC3     C10800   2.427   1.196  10.001 -0.5437 -0.0684 -0.0332
  727TMC3     O10801   2.344   1.217   9.916 -0.5371  0.2063  0.4118
  727TMC3     H10802   2.517   1.293  10.230  0.9306  0.3839  0.5050
  727TMC3    H110803   2.502   1.369   9.805 -0.7062  1.5773 -0.0438
  727TMC3    H210804   2.762   1.590  10.057  0.1521  0.4104  0.1329
  727TMC3    C710805   2.628   1.597   9.836 -0.0621 -0.0974  0.0417
  727TMC3    C810806   2.730   1.461  10.276 -0.2583  0.4153  1.0386
  727TMC3    O110807   2.710   1.685   9.855 -0.2079  0.3208  0.3452
  727TMC3    O210808   2.718   1.369  10.360 -0.2342  0.2506  0.0272
  728TMC3    C110809   2.056   4.240  15.172  0.3258 -0.0882  0.1599
  728TMC3    C210810   2.178   4.216  15.107  0.6809  0.0619 -0.0967
  728TMC3    C310811   2.177   4.230  14.969 -0.0650  0.2813 -0.4974
  728TMC3    C410812   1.942   4.280  15.104  0.2252 -0.2992  0.4034
  728TMC3    C510813   1.950   4.295  14.968  0.2451 -0.0252 -0.2452
  728TMC3    C610814   2.065   4.271  14.898  0.2310 -0.0006 -0.2248
  728TMC3     C10815   2.053   4.197  15.308  0.4966 -0.0064 -0.2217
  728TMC3     O10816   2.157   4.178  15.368  0.5343 -0.2035 -0.0852
  728TMC3     H10817   2.264   4.191  15.168 -0.5920 -0.8119  1.3612
  728TMC3    H110818   1.853   4.298  15.162 -2.3190 -1.5497 -3.1158
  728TMC3    H210819   2.063   4.292  14.792 -0.1130  0.3212 -0.1545
  728TMC3    C710820   1.832   4.311  14.889  0.0531 -0.0922  0.5328
  728TMC3    C810821   2.276   4.146  14.906 -0.3689  0.2361  0.6833
  728TMC3    O110822   1.733   4.258  14.933 -0.6445  0.3935  0.1155
  728TMC3    O210823   2.383   4.127  14.966 -0.6991  0.0552 -0.0522
  729MPD2     C10824   4.539   0.313  17.148 -0.1790  0.4799  0.5344
  729MPD2    C110825   4.550   0.444  17.095 -0.1650 -0.4549 -0.0622
  729MPD2    C210826   4.549   0.551  17.181 -0.0547 -0.2641 -0.0419
  729MPD2    C310827   4.529   0.527  17.320 -0.8457  0.9238  0.2616
  729MPD2    C410828   4.525   0.395  17.369 -0.2128 -0.2048  0.2733
  729MPD2    C510829   4.513   0.289  17.277 -0.1108  0.2449 -0.0253
  729MPD2     H10830   4.551   0.652  17.143  1.7173 -0.9386 -1.7405
  729MPD2    H110831   4.508   0.370  17.473 -1.2965 -1.0429 -0.1016
  729MPD2    H210832   4.525   0.232  17.077  0.2852  1.8663 -1.1258
  729MPD2    H310833   4.491   0.187  17.308  2.8582  0.0460  1.3894
  729MPD2     N10834   4.512   0.631  17.415 -0.2686  0.5802 -0.0850
  729MPD2    H510835   4.491   0.597  17.508  0.9124 -0.5420 -0.2268
  729MPD2    N110836   4.566   0.471  16.954 -0.6502 -0.2587  0.5051
  729MPD2    H710837   4.591   0.565  16.925  3.3244 -0.6896  2.5061
  730TMC3    C110838   4.495   0.842  17.509  0.1380 -0.0051 -1.0526
  730TMC3    C210839   4.546   0.964  17.515  0.4529  0.3728  0.3279
  730TMC3    C310840   4.492   1.063  17.592  0.4308 -0.2133 -0.4011
  730TMC3    C410841   4.373   0.808  17.566  1.0518  0.3988 -0.2501
  730TMC3    C510842   4.316   0.916  17.634  0.9393 -0.1569  0.1950
  730TMC3    C610843   4.375   1.039  17.658  0.7318 -0.2954  0.4956
  730TMC3     C10844   4.528   0.768  17.390 -0.1078 -0.1229  0.2624
  730TMC3     O10845   4.571   0.823  17.293 -0.4908 -0.0694 -0.5114
  730TMC3     H10846   4.641   0.986  17.467  0.6898  0.1254  0.6779
  730TMC3    H110847   4.316   0.720  17.541  2.1908 -0.3771 -0.1146
  730TMC3    H210848   4.333   1.111  17.727 -1.5378  0.4138 -1.6239
  730TMC3    C710849   4.183   0.932  17.579  0.8813 -0.0187  0.1320
  730TMC3    C810850   4.567   1.181  17.610  0.9095 -0.0073 -0.5788
  730TMC3    O110851   4.157   0.873  17.475  0.0794 -0.4149  0.1079
  730TMC3    O210852   4.678   1.187  17.559  0.2432 -0.0937 -0.8496
  731MPD2     C10853   4.025   3.488  12.678  0.7441 -0.0811 -0.6275
  731MPD2    C110854   4.067   3.358  12.651  0.7857 -0.0943 -0.3943
  731MPD2    C210855   4.049   3.260  12.749 -0.0667 -0.0977  0.1276
  731MPD2    C310856   4.004   3.298  12.874  0.5421 -0.4802  0.4994
  731MPD2    C410857   3.976   3.434  12.897 -0.1634  0.0129 -0.0998
  731MPD2    C510858   3.979   3.521  12.798 -0.3117 -0.5060  0.2520
  731MPD2     H10859   4.066   3.155  12.730  1.3788  0.3495 -1.0162
  731MPD2    H110860   3.951   3.467  12.997 -2.9107  1.3215 -1.2251
  731MPD2    H210861   4.035   3.562  12.600 -2.4986  0.1720 -0.8119
  731MPD2    H310862   3.959   3.625  12.822  2.1486  0.1958 -0.6625
  731MPD2     N10863   3.996   3.202  12.984  0.1971  0.0275  0.2552
  731MPD2    H510864   4.012   3.105  12.957 -2.9847 -0.6064  0.6283
  731MPD2    N110865   4.120   3.336  12.519 -0.3948 -1.0249  0.3338
  731MPD2    H710866   4.115   3.412  12.452  0.5785 -0.9101  0.3814
  732TMC3    C110867   4.251   3.235  12.353 -0.6207 -0.2842 -0.0344
  732TMC3    C210868   4.194   3.308  12.252  0.5430 -0.3929 -0.1125
  732TMC3    C310869   4.241   3.293  12.118 -0.3924 -0.1925  0.2569
  732TMC3    C410870   4.369   3.170  12.333  0.0407  0.0953 -0.1835
  732TMC3    C510871   4.419   3.172  12.204  1.0415 -0.2570  0.1140
  732TMC3    C610872   4.354   3.222  12.095  0.2896 -0.8763 -0.6223
  732TMC3     C10873   4.188   3.224  12.477  0.0162  0.2528  0.1823
  732TMC3     O10874   4.205   3.117  12.534 -0.4693 -0.8971 -0.2486
  732TMC3     H10875   4.101   3.357  12.278  0.4583 -2.4063  3.3072
  732TMC3    H110876   4.423   3.133  12.420  1.3081  1.2888 -0.4719
  732TMC3    H210877   4.379   3.209  11.990  0.8611  0.0269 -0.5970
  732TMC3    C710878   4.539   3.108  12.158  0.0841 -0.4984 -0.3107
  732TMC3    C810879   4.153   3.329  12.003 -0.9128 -0.0954  0.6995
  732TMC3    O110880   4.555   3.100  12.037 -0.0301 -0.8680  0.5201
  732TMC3    O210881   4.201   3.352  11.894  0.3835  0.0651  0.1287
  733TMC3    C110882   0.446   1.274  13.025  0.1859  0.5175  0.4945
  733TMC3    C210883   0.540   1.283  13.126 -0.1791  0.2240 -0.5469
  733TMC3    C310884   0.673   1.292  13.093  0.9343  0.2163 -1.2011
  733TMC3    C410885   0.478   1.292  12.891  0.1365  0.2953  0.4368
  733TMC3    C510886   0.607   1.305  12.869  0.0172  0.6592  0.7632
  733TMC3    C610887   0.708   1.307  12.965 -0.1470  0.3110 -0.6121
  733TMC3     C10888   0.316   1.313  13.060 -0.7365 -0.5533  0.3502
  733TMC3     O10889   0.253   1.385  12.988  0.4362  0.3589  0.9616
  733TMC3     H10890   0.513   1.271  13.231  0.8437 -0.7702 -0.3947
  733TMC3    H110891   0.399   1.293  12.816  0.2366  0.7005  0.3389
  733TMC3    H210892   0.810   1.333  12.939  0.3856 -2.2797 -1.0508
  733TMC3    C710893   0.644   1.325  12.728 -0.0259 -0.1829  0.0689
  733TMC3    C810894   0.765   1.346  13.195 -0.3713  0.3103  0.1167
  733TMC3    O110895   0.557   1.338  12.643 -0.2536 -0.1964  0.3874
  733TMC3    O210896   0.715   1.372  13.304 -0.2339  0.3143  0.0978
  734MPD2     C10897   2.133   4.101  12.742 -0.0706 -0.8939 -0.6072
  734MPD2    C110898   2.104   4.042  12.623 -0.2360 -0.4221 -0.1004
  734MPD2    C210899   2.196   4.075  12.524 -0.1308 -0.2470 -0.7403
  734MPD2    C310900   2.300   4.164  12.537  0.2519  0.1603 -0.2457
  734MPD2    C410901   2.322   4.223  12.654  0.1033  0.1383 -0.2753
  734MPD2    C510902   2.244   4.183  12.759  0.0846  0.0534 -0.3800
  734MPD2     H10903   2.195   4.024  12.428 -1.4755 -1.1584 -0.2510
  734MPD2    H110904   2.409   4.284  12.672  0.0859 -0.0167  0.3397
  734MPD2    H210905   2.072   4.078  12.829 -1.2806 -1.8264 -1.7200
  734MPD2    H310906   2.268   4.214  12.860 -2.4802  0.1515  0.2093
  734MPD2     N10907   2.382   4.201  12.428  0.1447 -0.2514 -0.7129
  734MPD2    H510908   2.353   4.162  12.338 -0.4083  0.3213 -0.7815
  734MPD2    N110909   1.991   3.956  12.607  0.0529 -0.1452 -0.4174
  734MPD2    H710910   1.946   3.927  12.693 -0.5322  1.3836 -0.1963
  735TMC3    C110911   1.895   3.779  12.503  0.6909  1.0940 -0.4797
  735TMC3    C210912   1.832   3.752  12.388 -0.0689  0.4762  0.0944
  735TMC3    C310913   1.852   3.629  12.330 -0.2987 -0.0360 -0.4861
  735TMC3    C410914   1.964   3.687  12.581  0.2236 -0.3165  0.0016
  735TMC3    C510915   1.975   3.561  12.522 -0.2667  0.7372  0.3311
  735TMC3    C610916   1.917   3.530  12.397 -0.4616  0.2169  0.0869
  735TMC3     C10917   1.949   3.907  12.491  0.0017  0.8388 -0.1690
  735TMC3     O10918   1.974   3.948  12.379 -0.3565 -0.3583 -0.7660
  735TMC3     H10919   1.767   3.825  12.340  1.5838  3.3138  2.2077
  735TMC3    H110920   2.013   3.726  12.670  0.0360 -1.9019  0.8083
  735TMC3    H210921   1.935   3.436  12.346 -0.7238 -0.4623  1.2179
  735TMC3    C710922   2.066   3.459  12.571 -0.7846  0.5183 -0.1690
  735TMC3    C810923   1.900   3.634  12.195 -0.1595  0.1922  0.3754
  735TMC3    O110924   2.092   3.471  12.691 -0.4095  0.3210 -0.2749
  735TMC3    O210925   1.924   3.525  12.144  0.3584  0.5685 -0.8553
  736MPD2     C10926   2.286   3.262  12.614  0.2539  0.4519  0.0167
  736MPD2    C110927   2.264   3.328  12.497  0.2870 -0.6268 -0.3607
  736MPD2    C210928   2.359   3.332  12.400 -0.0845 -0.6447 -0.8340
  736MPD2    C310929   2.476   3.263  12.424  0.8512  0.2781 -0.1502
  736MPD2    C410930   2.495   3.184  12.531 -0.4598  0.1253  0.6330
  736MPD2    C510931   2.396   3.179  12.624  0.4991 -0.4729  0.2423
  736MPD2     H10932   2.336   3.379  12.305  0.3518  0.1338 -0.5559
  736MPD2    H110933   2.592   3.140  12.553 -0.3120 -1.1288 -2.5053
  736MPD2    H210934   2.214   3.265  12.695 -1.1184 -1.0147 -1.1348
  736MPD2    H310935   2.423   3.127  12.715  1.8456  0.4200  0.3512
  736MPD2     N10936   2.589   3.271  12.335 -0.0721 -0.7502 -0.3661
  736MPD2    H510937   2.667   3.208  12.344  1.8776  1.8713  0.8215
  736MPD2    N110938   2.148   3.410  12.471  0.4567  0.0898  0.3090
  736MPD2    H710939   2.134   3.438  12.374  1.5698  0.2922  0.2034
  737TMC3    C110940   2.696   3.376  12.141 -0.0455 -0.5136 -0.0808
  737TMC3    C210941   2.690   3.491  12.064 -0.3807 -0.1788 -0.1390
  737TMC3    C310942   2.717   3.483  11.933  0.3892 -0.3814 -0.3973
  737TMC3    C410943   2.724   3.254  12.091  0.3824 -0.1437 -0.4261
  737TMC3    C510944   2.771   3.253  11.958  0.3838  0.6696  0.2472
  737TMC3    C610945   2.762   3.365  11.878  0.0033 -0.4523  1.0446
  737TMC3     C10946   2.608   3.388  12.257  0.1059 -0.1620  0.4219
  737TMC3     O10947   2.546   3.491  12.263  0.2689  0.5410 -0.6995
  737TMC3     H10948   2.692   3.587  12.115  1.0725  0.0671 -0.6678
  737TMC3    H110949   2.722   3.164  12.150  0.0965  1.1732  1.5805
  737TMC3    H210950   2.782   3.362  11.772 -0.4095 -0.6542  0.9713
  737TMC3    C710951   2.854   3.142  11.917 -0.3151 -0.4062 -0.1461
  737TMC3    C810952   2.643   3.571  11.848 -0.3089  0.0143  0.4649
  737TMC3    O110953   2.858   3.054  11.999  0.2277  0.2560  0.5187
  737TMC3    O210954   2.547   3.633  11.895  0.1229  0.2406  0.0474
  738MPD2     C10955   3.857   2.066  14.629  0.1704  0.3325 -0.0493
  738MPD2    C110956   3.797   2.122  14.741 -0.3680 -0.2605 -0.3644
  738MPD2    C210957   3.869   2.226  14.807  0.1352  0.7141 -0.3110
  738MPD2    C310958   3.991   2.271  14.761 -0.4893  0.3747  0.1658
  738MPD2    C410959   4.053   2.210  14.648  0.0814  0.5178 -0.8004
  738MPD2    C510960   3.981   2.111  14.584  0.3121  0.7882 -0.0615
  738MPD2     H10961   3.831   2.266  14.900 -1.3109  0.9475 -0.9970
  738MPD2    H110962   4.145   2.250  14.608  1.7558 -1.5268  1.0070
  738MPD2    H210963   3.816   1.982  14.573  0.2570  1.5675 -1.9703
  738MPD2    H310964   4.017   2.074  14.489  0.1028  0.5106 -0.0337
  738MPD2     N10965   4.050   2.379  14.822  0.3075 -0.6460  0.5708
  738MPD2    H510966   4.135   2.408  14.776 -0.5486  0.8864 -0.0473
  738MPD2    N110967   3.667   2.084  14.781 -0.2224  0.2980 -0.1190
  738MPD2    H710968   3.625   2.137  14.857  3.3480  1.5066  0.9834
  739TMC3    C110969   4.125   2.534  14.970 -0.1038 -0.0551 -0.0166
  739TMC3    C210970   4.214   2.575  14.870 -0.0980  0.3984 -0.6036
  739TMC3    C310971   4.261   2.704  14.874  0.6928  0.5051  0.8440
  739TMC3    C410972   4.094   2.610  15.078 -0.3745  0.1795  0.8880
  739TMC3    C510973   4.150   2.734  15.080  0.1930 -0.0090  0.8390
  739TMC3    C610974   4.232   2.785  14.986  0.9641  0.0234 -0.1708
  739TMC3     C10975   4.019   2.442  14.937 -0.5702  0.6428 -0.4428
  739TMC3     O10976   3.922   2.431  15.007  0.2958  0.2169  0.1548
  739TMC3     H10977   4.264   2.506  14.803  1.5493  0.3300  0.6840
  739TMC3    H110978   4.009   2.600  15.145  1.0335 -2.9024  2.2001
  739TMC3    H210979   4.288   2.875  15.004  1.1916 -0.4560  1.5060
  739TMC3    C710980   4.129   2.820  15.196  0.3745 -0.2762 -0.6359
  739TMC3    C810981   4.264   2.767  14.740  0.1150  0.1301  0.4550
  739TMC3    O110982   4.214   2.906  15.221 -0.3018  0.3082  0.7165
  739TMC3    O210983   4.212   2.694  14.660  0.4567 -0.1629 -0.2589
  740TMC3    C110984   4.185   3.969  14.275  0.0147 -0.1970 -0.1198
  740TMC3    C210985   4.273   3.918  14.372  0.1905 -0.8792 -0.6228
  740TMC3    C310986   4.401   3.892  14.340 -0.7623  0.7907 -0.6446
  740TMC3    C410987   4.226   3.977  14.142  1.2913 -0.6529  0.2679
  740TMC3    C510988   4.354   3.937  14.115  0.0476 -0.1823 -0.2712
  740TMC3    C610989   4.440   3.893  14.214 -0.6157 -0.1975  0.0149
  740TMC3     C10990   4.065   4.036  14.319 -0.3541 -0.4183  0.4885
  740TMC3     O10991   4.023   4.120  14.245  0.4167 -0.1155  0.0823
  740TMC3     H10992   4.239   3.894  14.472  0.7817  1.6125  0.1578
  740TMC3    H110993   4.160   4.013  14.064  1.3186 -1.0299  0.0759
  740TMC3    H210994   4.543   3.860  14.199 -1.2167 -1.2164 -1.8218
  740TMC3    C710995   4.379   3.866  13.988  0.2558 -0.9607 -0.4709
  740TMC3    C810996   4.483   3.817  14.439 -0.0617 -0.2984  0.4358
  740TMC3    O110997   4.446   3.763  14.006  0.3350 -0.2701 -0.1906
  740TMC3    O210998   4.568   3.738  14.397 -0.4797  0.0615  0.2681
  741TMC3    C110999   3.399   3.743  14.127  0.0360  0.2809 -0.0321
  741TMC3    C211000   3.304   3.659  14.175 -0.7051  0.3357 -0.0669
  741TMC3    C311001   3.334   3.539  14.231  0.4161  0.1555 -0.5459
  741TMC3    C411002   3.531   3.721  14.151  0.6960 -0.1284 -0.0903
  741TMC3    C511003   3.559   3.606  14.225 -0.2190 -0.1329  0.3982
  741TMC3    C611004   3.467   3.520  14.266 -0.4168 -0.0744  0.4621
  741TMC3     C11005   3.356   3.877  14.086 -0.0150 -0.4356 -0.1784
  741TMC3     O11006   3.238   3.887  14.069 -0.0127 -0.0710 -0.2084
  741TMC3     H11007   3.201   3.691  14.183 -0.8709  0.4617 -2.8743
  741TMC3    H111008   3.608   3.788  14.116  1.1678 -0.6979 -0.1435
  741TMC3    H211009   3.506   3.426  14.302 -1.0717 -2.1987 -4.2885
  741TMC3    C711010   3.691   3.596  14.275 -0.2087  0.2165 -0.3493
  741TMC3    C811011   3.240   3.432  14.245 -1.0758 -0.8259 -0.1942
  741TMC3    O111012   3.781   3.662  14.222  0.0688 -0.3135 -0.3085
  741TMC3    O211013   3.121   3.460  14.231 -0.0166  0.6503  0.1191
  742TMC3    C111014   3.667   1.223  15.386 -0.5044  0.0499 -0.3549
  742TMC3    C211015   3.594   1.262  15.273 -0.2326  0.2771 -0.1992
  742TMC3    C311016   3.659   1.265  15.150  0.5343 -0.2363  0.0033
  742TMC3    C411017   3.791   1.178  15.377  0.4240 -0.8346 -0.1961
  742TMC3    C511018   3.842   1.164  15.247  0.7363  0.4286 -0.1120
  742TMC3    C611019   3.781   1.206  15.136 -0.2197  0.0400 -0.3402
  742TMC3     C11020   3.594   1.235  15.510 -0.1382 -0.1664  0.0947
  742TMC3     O11021   3.471   1.241  15.507 -0.5425 -0.1520  0.2109
  742TMC3     H11022   3.510   1.323  15.303 -0.6113  0.0342 -0.7604
  742TMC3    H111023   3.842   1.139  15.464  1.0107  0.3083 -0.0319
  742TMC3    H211024   3.830   1.198  15.040  0.0829 -0.0794 -0.1757
  742TMC3    C711025   3.955   1.084  15.218 -0.5411  0.0595 -0.1089
  742TMC3    C811026   3.582   1.282  15.029  0.4236 -0.3328  0.1143
  742TMC3    O111027   4.039   1.135  15.147 -0.4108 -0.0146  0.7458
  742TMC3    O211028   3.641   1.294  14.923 -0.1023  0.5924  0.5379
  743MPD2     C11029   0.859   3.167   1.394  0.7543  0.2188 -0.0420
  743MPD2    C111030   0.866   3.044   1.335 -0.0471  1.0423  0.4667
  743MPD2    C211031   0.972   2.961   1.339 -0.2168 -0.1360  0.4653
  743MPD2    C311032   1.079   2.999   1.415 -0.0827  0.0950  0.6665
  743MPD2    C411033   1.075   3.126   1.473  0.2125  0.1433  0.0783
  743MPD2    C511034   0.969   3.207   1.461  0.3242 -0.1322  0.2902
  743MPD2     H11035   0.982   2.869   1.281  0.2786 -0.2934  0.7928
  743MPD2    H111036   1.157   3.159   1.535 -0.3221  1.1412  0.2422
  743MPD2    H211037   0.780   3.240   1.384 -0.9857 -1.4324  1.6646
  743MPD2    H311038   0.979   3.307   1.502 -0.6382 -1.0196  2.7213
  743MPD2     N11039   1.192   2.911   1.422  0.1570 -0.6908 -0.4311
  743MPD2    H511040   1.190   2.822   1.373 -2.2334 -0.0960 -1.4075
  743MPD2    N111041   0.749   3.004   1.272  0.6323  0.2656 -0.4795
  743MPD2    H711042   0.672   3.066   1.295  0.5331  0.4270 -1.2769
  744TMC3    C111043   0.604   2.882   1.139  0.4051  0.2430 -0.3661
  744TMC3    C211044   0.574   2.984   1.053 -0.5601  0.2806  0.0118
  744TMC3    C311045   0.467   2.963   0.968 -0.1492 -0.1177 -0.0404
  744TMC3    C411046   0.555   2.755   1.112  0.2598  0.0204 -0.4331
  744TMC3    C511047   0.448   2.735   1.031  0.2553 -0.1313  0.1696
  744TMC3    C611048   0.404   2.842   0.950 -0.9269 -0.5975  0.0990
  744TMC3     C11049   0.729   2.881   1.212  0.1393 -0.9108  0.0308
  744TMC3     O11050   0.788   2.777   1.220 -0.4843 -0.3520  0.2854
  744TMC3     H11051   0.622   3.080   1.067 -0.1510  0.2356 -1.1288
  744TMC3    H111052   0.590   2.677   1.178 -2.9633 -0.9495  0.0870
  744TMC3    H211053   0.328   2.827   0.875 -1.7461  0.7201  0.6638
  744TMC3    C711054   0.436   2.611   0.955  0.0921 -0.1406 -0.0894
  744TMC3    C811055   0.442   3.062   0.863 -0.0984 -0.1739  0.4888
  744TMC3    O111056   0.323   2.579   0.921 -0.6339 -0.3426 -0.1357
  744TMC3    O211057   0.528   3.143   0.836 -0.3956  0.0535  0.4895
  745TMC3    C111058   3.974   1.387  13.864 -0.0621 -0.1045 -0.5888
  745TMC3    C211059   3.965   1.386  14.001  0.5107  0.0085  0.2033
  745TMC3    C311060   3.842   1.434  14.042  0.4338 -0.3282  0.8266
  745TMC3    C411061   3.869   1.402  13.778 -0.1521 -0.5368  0.2522
  745TMC3    C511062   3.757   1.459  13.818 -1.3409  0.0752 -0.3873
  745TMC3    C611063   3.742   1.469  13.953  0.1896 -0.2302 -0.5022
  745TMC3     C11064   4.104   1.366  13.801  0.1715 -0.5837 -0.2227
  745TMC3     O11065   4.113   1.325  13.686 -0.6913 -0.1788  0.4532
  745TMC3     H11066   4.046   1.363  14.069 -1.0011  0.4165  2.1640
  745TMC3    H111067   3.893   1.389  13.673  1.7730 -1.7001  0.8287
  745TMC3    H211068   3.665   1.525  14.005  0.6333 -0.2718  0.1986
  745TMC3    C711069   3.733   1.583  13.753  0.3424  0.2750 -0.5023
  745TMC3    C811070   3.838   1.483  14.175  0.2873 -0.0157 -0.6092
  745TMC3    O111071   3.617   1.622  13.738  0.4690  0.0600 -0.4359
  745TMC3    O211072   3.719   1.496  14.210 -0.0774 -0.1921  0.0331
  746TMC3    C111073   1.779   3.585  10.500  0.8538 -0.2188 -0.0680
  746TMC3    C211074   1.819   3.677  10.405 -0.0494  0.7112  0.0961
  746TMC3    C311075   1.729   3.703  10.307  0.1544  0.3668  0.2275
  746TMC3    C411076   1.660   3.524  10.500  0.9028  0.7870 -0.0706
  746TMC3    C511077   1.570   3.554  10.405  0.6067 -0.2037 -0.0133
  746TMC3    C611078   1.603   3.644  10.301  0.4709  0.4733  0.0859
  746TMC3     C11079   1.858   3.584  10.628 -0.2443  0.3546 -0.4096
  746TMC3     O11080   1.980   3.596  10.620  0.5758  0.3340 -0.4719
  746TMC3     H11081   1.915   3.726  10.416 -1.0314  2.0451  2.6242
  746TMC3    H111082   1.642   3.447  10.575  1.1071  1.6658  0.8783
  746TMC3    H211083   1.533   3.671  10.223 -0.2727  1.9631  1.2905
  746TMC3    C711084   1.454   3.472  10.381  0.6229 -0.6931 -0.3812
  746TMC3    C811085   1.757   3.835  10.257 -0.1417  0.1229 -0.1396
  746TMC3    O111086   1.394   3.483  10.276  0.0590 -0.4171 -0.1318
  746TMC3    O211087   1.743   3.855  10.135  0.4277  1.0978 -0.7532
  747TMC3    C111088   3.685   3.293  11.268  0.3182 -0.0483 -0.0367
  747TMC3    C211089   3.626   3.199  11.356 -0.3343  0.5840 -0.2240
  747TMC3    C311090   3.538   3.250  11.447  0.4806 -0.5060 -0.0341
  747TMC3    C411091   3.667   3.423  11.287 -0.3609 -0.1832  0.6972
  747TMC3    C511092   3.567   3.459  11.369 -0.5213  0.1864 -0.5710
  747TMC3    C611093   3.506   3.380  11.458  0.9510 -0.5662  0.4518
  747TMC3     C11094   3.798   3.245  11.188  0.5252 -0.3178 -0.2141
  747TMC3     O11095   3.883   3.332  11.164 -0.1847 -0.0260 -0.1782
  747TMC3     H11096   3.637   3.092  11.367 -4.5508  0.0768 -0.9732
  747TMC3    H111097   3.700   3.493  11.211 -2.2536  1.0685  1.0214
  747TMC3    H211098   3.422   3.415  11.518 -1.8461  0.8095 -4.1826
  747TMC3    C711099   3.528   3.598  11.377 -0.0368 -0.1807  0.3584
  747TMC3    C811100   3.477   3.153  11.540 -0.3031  0.3669 -0.1326
  747TMC3    O111101   3.490   3.639  11.486 -0.6839  0.4074  0.3654
  747TMC3    O211102   3.524   3.044  11.544  0.0670  0.4031 -0.0368
  748MPD2     C11103   0.195   3.770   0.974  0.3036  1.2664  0.5850
  748MPD2    C111104   0.273   3.721   0.878  0.3592  0.4832  0.0434
  748MPD2    C211105   0.411   3.735   0.891  0.5233 -0.0352 -0.6692
  748MPD2    C311106   0.464   3.785   1.007  0.1406  0.0213  0.4073
  748MPD2    C411107   0.377   3.827   1.102 -0.1146  1.0416  0.8489
  748MPD2    C511108   0.243   3.823   1.086  0.6078  0.4090  0.5643
  748MPD2     H11109   0.472   3.702   0.808 -0.8729  0.5871 -1.9495
  748MPD2    H111110   0.408   3.898   1.178  1.0307  1.8276 -0.3610
  748MPD2    H211111   0.089   3.763   0.955  0.7559 -0.3385 -1.2733
  748MPD2    H311112   0.178   3.868   1.160  2.1267 -1.3581  3.0145
  748MPD2     N11113   0.611   3.799   1.025 -0.2471  0.1701  0.0862
  748MPD2    H511114   0.672   3.789   0.945 -1.0445 -1.6636 -0.2952
  748MPD2    N111115   0.216   3.674   0.757 -0.7627  0.1107 -0.1756
  748MPD2    H711116   0.116   3.691   0.751 -0.6416  0.5290 -0.9105
  749TMC3    C111117   0.816   3.854   1.127 -0.3505  0.3637  0.2748
  749TMC3    C211118   0.889   3.837   1.244  0.9650 -0.5184 -0.5224
  749TMC3    C311119   1.006   3.905   1.249  0.2537 -0.2661  0.1528
  749TMC3    C411120   0.871   3.913   1.014  0.1218 -0.1247  0.0581
  749TMC3    C511121   1.006   3.952   1.017  0.0075 -0.5393  0.1338
  749TMC3    C611122   1.064   3.953   1.134  0.4930  0.6573 -0.2602
  749TMC3     C11123   0.672   3.838   1.145  0.2372 -0.1858  0.1092
  749TMC3     O11124   0.631   3.824   1.260  0.6843  0.1291 -0.3173
  749TMC3     H11125   0.844   3.783   1.327 -0.9340  1.8696 -0.0104
  749TMC3    H111126   0.810   3.937   0.927 -0.1229 -0.9000  0.0099
  749TMC3    H211127   1.168   3.980   1.150  0.1520  1.5383  0.4628
  749TMC3    C711128   1.047   4.059   0.924 -0.0721  0.2404 -1.0421
  749TMC3    C811129   1.095   3.855   1.347  0.4712  0.3921 -0.7673
  749TMC3    O111130   1.086   4.161   0.986 -0.2428  0.4824  0.0272
  749TMC3    O211131   1.116   3.930   1.443 -0.2115 -0.2834 -0.2397
  750MPD2     C11132   1.902   0.559  11.147 -0.3018  0.5572  0.6251
  750MPD2    C111133   1.822   0.517  11.247 -0.1969  0.4170  0.4406
  750MPD2    C211134   1.816   0.380  11.285 -0.2253 -0.2942 -0.2489
  750MPD2    C311135   1.874   0.286  11.202 -0.3743 -0.1802  0.6052
  750MPD2    C411136   1.951   0.333  11.092 -0.2084 -1.0223  0.1485
  750MPD2    C511137   1.958   0.459  11.066  0.3963 -0.8907 -0.6987
  750MPD2     H11138   1.748   0.340  11.360  1.2865  1.0930  1.8653
  750MPD2    H111139   2.013   0.269  11.029  0.3291 -0.0289 -0.3301
  750MPD2    H211140   1.913   0.656  11.101 -3.0219 -0.3180 -1.9148
  750MPD2    H311141   2.009   0.494  10.977 -3.7370  1.7986 -1.9977
  750MPD2     N11142   1.853   0.146  11.218  0.3959  0.0233  0.2968
  750MPD2    H511143   1.896   0.087  11.148  0.4910  1.7402 -1.1086
  750MPD2    N111144   1.743   0.620  11.307 -0.1932 -0.3047  0.1463
  750MPD2    H711145   1.763   0.718  11.291  1.0718 -0.8889 -1.8602
  751TMC3    C111146   1.767   4.671  11.270  0.1214  0.2162  0.2876
  751TMC3    C211147   1.645   4.613  11.293 -0.3003  0.1425 -0.1662
  751TMC3    C311148   1.632   4.490  11.240 -0.6988 -0.0359 -0.7093
  751TMC3    C411149   1.871   4.619  11.200  0.0107 -0.5764 -0.2054
  751TMC3    C511150   1.845   4.492  11.145  0.5356  0.5707  0.4984
  751TMC3    C611151   1.723   4.433  11.161 -0.1406  0.4082  0.0207
  751TMC3     C11152   1.774   0.076  11.309 -0.0925 -0.2411  0.6959
  751TMC3     O11153   1.709   0.112  11.409  0.5211  0.2082 -0.0925
  751TMC3     H11154   1.572   4.670  11.350 -0.9598  0.4146 -1.2859
  751TMC3    H111155   1.968   4.665  11.181 -1.0129  0.4019 -3.1438
  751TMC3    H211156   1.707   4.334  11.120  1.8757  0.6838 -1.4285
  751TMC3    C711157   1.959   4.431  11.080  0.5102  0.2747  0.4055
  751TMC3    C811158   1.505   4.421  11.252  0.0888 -0.4204 -0.4749
  751TMC3    O111159   2.057   4.506  11.066 -0.1837 -0.1787  0.7368
  751TMC3    O211160   1.489   4.332  11.166  0.2873  0.0411  0.2477
  752TMC3    C111161   0.187   0.825  17.592  1.0116  0.3258  0.0537
  752TMC3    C211162   0.178   0.689  17.601 -0.4774 -0.0323  0.2990
  752TMC3    C311163   0.090   0.635  17.691 -0.1631  0.3585  0.3486
  752TMC3    C411164   0.127   0.898  17.686  0.1863  0.2281  0.5526
  752TMC3    C511165   0.039   0.839   0.035 -0.3318  0.5176 -0.2310
  752TMC3    C611166   0.009   0.706   0.038  0.1436 -1.4293 -0.6360
  752TMC3     C11167   0.216   0.888  17.472  0.2648 -0.1993 -0.1401
  752TMC3     O11168   0.265   0.995  17.493  0.0618  0.4083 -0.4982
  752TMC3     H11169   0.248   0.629  17.544 -1.9248 -0.7877 -0.6747
  752TMC3    H111170   0.130   1.006  17.689 -1.1081  0.2529  0.7685
  752TMC3    H211171   4.691   0.654   0.117  1.8625  1.5990  2.5584
  752TMC3    C711172   4.683   0.921   0.109 -0.3975  0.8344 -0.1003
  752TMC3    C811173   0.063   0.492  17.705  0.0601  0.0526 -0.4135
  752TMC3    O111174   4.714   1.037   0.129 -0.1958 -0.3057  0.3236
  752TMC3    O211175   0.010   0.462   0.070 -0.5992 -0.1510 -0.2596
  753TMC3    C111176   2.151   1.526  13.053 -0.3207 -0.7195  0.3125
  753TMC3    C211177   2.157   1.503  13.191  0.1183  0.4185 -0.0918
  753TMC3    C311178   2.158   1.374  13.234  0.3374 -0.4829  0.8389
  753TMC3    C411179   2.142   1.429  12.959 -0.5457 -0.7770 -1.2030
  753TMC3    C511180   2.121   1.306  13.003 -0.2113  0.3377  0.2498
  753TMC3    C611181   2.139   1.277  13.137 -0.0376 -0.3448 -0.0783
  753TMC3     C11182   2.196   1.658  12.994 -0.3721  0.5148  0.2014
  753TMC3     O11183   2.176   1.673  12.872 -0.4877 -0.0063  0.4824
  753TMC3     H11184   2.143   1.584  13.262 -1.6399  1.6770 -1.8546
  753TMC3    H111185   2.133   1.451  12.853  0.0400 -1.8522 -1.4700
  753TMC3    H211186   2.147   1.171  13.159  0.9673  0.0075  1.2999
  753TMC3    C711187   2.073   1.202  12.911 -0.1313 -0.3067  0.2383
  753TMC3    C811188   2.165   1.338  13.372  0.1733  0.0226  0.9714
  753TMC3    O111189   2.092   1.217  12.791 -0.0399  0.5382  0.2180
  753TMC3    O211190   2.120   1.229  13.403  0.2505  0.2400  0.6672
  754MPD2     C11191   1.315   4.386  13.030  0.8820 -0.1840 -0.9595
  754MPD2    C111192   1.222   4.285  13.042  0.0545 -0.1115 -0.2916
  754MPD2    C211193   1.090   4.310  13.036 -0.3872 -0.2375 -0.2840
  754MPD2    C311194   1.053   4.446  13.041  0.5958  0.4732  0.2867
  754MPD2    C411195   1.141   4.542  13.007  0.2628 -0.3869 -0.7541
  754MPD2    C511196   1.273   4.514  12.997 -0.8526 -0.0632 -0.4221
  754MPD2     H11197   1.023   4.225  13.038  0.2679 -0.7958 -2.7006
  754MPD2    H111198   1.101   4.643  12.997 -0.0925 -0.3532  1.0775
  754MPD2    H211199   1.419   4.355  13.039  1.4083  1.8750  0.0071
  754MPD2    H311200   1.351   4.587  12.975  0.0140 -0.7803  0.2829
  754MPD2     N11201   0.917   4.481  13.067  0.3008  0.1100  0.5716
  754MPD2    H511202   0.899   4.579  13.050 -2.6058 -0.4333  0.5302
  754MPD2    N111203   1.277   4.164  13.068 -0.0583 -0.2509  0.7232
  754MPD2    H711204   1.374   4.163  13.041 -0.2248 -0.9548  0.1402
  755MPD2     C11205   0.376   0.508  12.986 -0.4529 -0.6757  0.0465
  755MPD2    C111206   0.357   0.463  13.116 -0.8924  0.4362 -0.1247
  755MPD2    C211207   0.383   0.328  13.139 -0.6286 -0.8242  0.9179
  755MPD2    C311208   0.424   0.245  13.037 -0.3169  0.1347 -0.3754
  755MPD2    C411209   0.435   0.291  12.904 -0.1505 -0.6293 -0.1731
  755MPD2    C511210   0.404   0.426  12.882  0.3305 -0.0162 -0.5930
  755MPD2     H11211   0.399   0.293  13.241  0.4848 -0.2596  0.9353
  755MPD2    H111212   0.463   0.235  12.816  0.0401 -0.5288 -0.1763
  755MPD2    H211213   0.361   0.611  12.957  1.2187 -0.8365 -1.4104
  755MPD2    H311214   0.400   0.466  12.782 -1.6757  0.7699 -0.1973
  755MPD2     N11215   0.457   0.115  13.083  0.0614  0.0267 -0.2999
  755MPD2    H511216   0.446   0.091  13.181 -0.0531  2.5091  0.2844
  755MPD2    N111217   0.336   0.540  13.236 -0.1604 -0.3146  0.0874
  755MPD2    H711218   0.325   0.488  13.322 -1.4530 -0.3917 -0.1300
  756MPD2     C11219   0.936   1.417   9.615 -0.1277  0.2526  0.9293
  756MPD2    C111220   0.828   1.390   9.696 -0.4288  1.1015 -0.2362
  756MPD2    C211221   0.702   1.407   9.645 -0.1559  0.0580 -0.4392
  756MPD2    C311222   0.668   1.467   9.529 -0.3290  0.2175  0.5812
  756MPD2    C411223   0.772   1.499   9.449  0.0510 -0.2031 -1.0990
  756MPD2    C511224   0.899   1.472   9.493 -0.7385 -0.7726  0.5897
  756MPD2     H11225   0.615   1.363   9.693 -1.5376  3.8041  0.5445
  756MPD2    H111226   0.766   1.551   9.354  0.1816  0.4971 -0.7181
  756MPD2    H211227   1.042   1.400   9.632 -0.0517 -1.3983 -1.0825
  756MPD2    H311228   0.975   1.493   9.419  0.7628 -1.3156  1.9735
  756MPD2     N11229   0.530   1.481   9.498 -1.1765 -0.0984 -0.7703
  756MPD2    H511230   0.461   1.438   9.559 -1.0103  0.4268 -0.2111
  756MPD2    N111231   0.846   1.332   9.819 -0.0344 -0.0455  0.1314
  756MPD2    H711232   0.763   1.307   9.872 -0.4371  0.8853 -0.0645
  757MPD2     C11233   4.624   0.984   9.772 -0.1226  0.3900  0.2237
  757MPD2    C111234   0.026   0.978   9.758 -0.0054  0.5557  0.2027
  757MPD2    C211235   0.099   1.077   9.686 -0.0350 -0.6268  0.5174
  757MPD2    C311236   0.027   1.192   9.651 -0.2293 -0.9748 -0.6730
  757MPD2    C411237   4.629   1.207   9.682 -0.1936 -0.2145  0.4886
  757MPD2    C511238   4.560   1.100   9.736  0.8941  0.5008  0.4323
  757MPD2     H11239   0.204   1.068   9.663  0.2698  0.8480  1.3630
  757MPD2    H111240   4.569   1.292   9.649 -1.2397 -0.3088  2.1449
  757MPD2    H211241   4.557   0.907   9.808  1.4168  0.0500  2.3421
  757MPD2    H311242   4.453   1.111   9.748  0.4236 -1.8483 -1.6730
  757MPD2     N11243   0.104   1.297   9.578 -0.3026  0.2145 -0.0476
  757MPD2    H511244   0.205   1.288   9.577 -0.1817  1.6314 -0.2913
  757MPD2    N111245   0.087   0.854   9.800  0.7821  0.9429 -0.9241
  757MPD2    H711246   0.038   0.805   9.874 -0.1407  2.3783 -0.5864
  758MPD2     C11247   1.054   0.325  15.695 -0.5463  0.5780 -0.0990
  758MPD2    C111248   0.983   0.212  15.722  0.9004  0.8131 -0.0906
  758MPD2    C211249   0.880   0.215  15.809 -0.1928 -0.0306  0.8803
  758MPD2    C311250   0.831   0.329  15.869 -1.0926 -0.6017 -0.0856
  758MPD2    C411251   0.912   0.439  15.849 -0.2389 -0.0588  0.4928
  758MPD2    C511252   1.012   0.439  15.754  0.6576  0.1774  0.0752
  758MPD2     H11253   0.826   0.122  15.827  2.3164 -1.5161  0.7470
  758MPD2    H111254   0.887   0.540  15.881  2.0256  1.0990 -1.3441
  758MPD2    H211255   1.131   0.323  15.619 -0.9499  0.2694 -0.5022
  758MPD2    H311256   1.053   0.535  15.726 -0.8903  1.4654  2.1831
  758MPD2     N11257   0.737   0.323  15.974  0.5882 -0.2927  0.6293
  758MPD2    H511258   0.725   0.394  16.046 -0.6878 -1.8442  1.9482
  758MPD2    N111259   1.046   0.091  15.685  0.4216 -0.4148  0.1770
  758MPD2    H711260   1.119   0.092  15.615  0.9008  3.2801  0.7699
  759MPD2     C11261   4.500   3.584   9.867 -0.3083 -0.4193 -0.6318
  759MPD2    C111262   4.608   3.501   9.887 -0.0349 -0.8820 -0.2715
  759MPD2    C211263   4.728   3.561   9.865 -0.2488 -0.0353  0.0268
  759MPD2    C311264   0.017   3.692   9.831 -0.2671 -0.0802 -1.1170
  759MPD2    C411265   4.641   3.768   9.816  0.0660  0.7178 -0.4999
  759MPD2    C511266   4.520   3.714   9.838  0.0560  0.4669  0.4314
  759MPD2     H11267   0.083   3.504   9.886 -0.2622  0.1475  0.5738
  759MPD2    H111268   4.654   3.871   9.783  1.2365  1.1103  1.2047
  759MPD2    H211269   4.396   3.558   9.880 -0.4775  0.7615  0.3432
  759MPD2    H311270   4.437   3.779   9.812 -0.0704  0.4567  0.8103
  759MPD2     N11271   0.146   3.735   9.793  0.2762 -0.4757  0.1850
  759MPD2    H511272   0.215   3.664   9.774  1.3262 -0.2604  3.1215
  759MPD2    N111273   4.603   3.364   9.918 -0.2464  0.3360  0.0284
  759MPD2    H711274   4.688   3.312   9.935 -1.5764 -2.0752 -0.6930
  760MPD2     C11275   4.120   0.263  12.028  0.8091 -0.9295 -0.2064
  760MPD2    C111276   4.255   0.245  11.990  0.1524 -0.3927 -0.1688
  760MPD2    C211277   4.314   0.137  12.043 -0.1507 -0.2280  0.6692
  760MPD2    C311278   4.253   0.049  12.126  0.2689  0.5980 -0.1546
  760MPD2    C411279   4.123   0.070  12.162 -0.6991  0.0947  0.1575
  760MPD2    C511280   4.059   0.183  12.116  0.1298 -0.0509  0.6898
  760MPD2     H11281   4.404   0.095  11.999  1.1616  4.0172 -0.7226
  760MPD2    H111282   4.058   0.007  12.221  2.3776 -0.4607  2.9957
  760MPD2    H211283   4.055   0.345  11.998  1.4672 -1.1762 -2.2725
  760MPD2    H311284   3.953   0.192  12.132 -0.2294 -0.6827 -1.2917
  760MPD2     N11285   4.321   4.663  12.157 -0.4053  0.2361 -0.1753
  760MPD2    H511286   4.268   4.597  12.212 -0.0697  0.1754  0.0746
  760MPD2    N111287   4.321   0.324  11.897  0.2381 -0.3244  0.4443
  760MPD2    H711288   4.417   0.306  11.869 -0.4652 -3.6950  0.1702
  761MPD2     C11289   1.055   4.271  11.467 -0.0458 -0.4608  0.0075
  761MPD2    C111290   1.110   4.263  11.342  0.4246  0.8414 -0.0148
  761MPD2    C211291   1.233   4.319  11.308 -0.3338  0.7508  0.0476
  761MPD2    C311292   1.304   4.384  11.407  0.0917  0.3677  0.2391
  761MPD2    C411293   1.244   4.395  11.534 -0.5011  0.8620  0.5317
  761MPD2    C511294   1.120   4.341  11.566 -0.2301 -0.0792 -0.8277
  761MPD2     H11295   1.272   4.314  11.207  0.3170  1.0279  0.2860
  761MPD2    H111296   1.300   4.444  11.612  1.0759 -2.2323  1.3618
  761MPD2    H211297   0.956   4.231  11.485 -0.1117  0.0304  0.7710
  761MPD2    H311298   1.079   4.351  11.666  0.9413 -0.3482 -0.3245
  761MPD2     N11299   1.429   4.451  11.370  0.1924 -0.3919 -1.0057
  761MPD2    H511300   1.477   4.506  11.441 -0.5506 -1.4112  0.2941
  761MPD2    N111301   1.027   4.205  11.246 -0.1302  0.1564 -0.0610
  761MPD2    H711302   0.933   4.184  11.278 -0.5225  0.5061 -0.9777
  762MPD2     C11303   1.202   3.952  10.566  0.0207  0.1990  0.0852
  762MPD2    C111304   1.210   4.015  10.689 -0.2462  0.2677  0.0374
  762MPD2    C211305   1.335   4.015  10.748  1.0039  0.4925 -0.7569
  762MPD2    C311306   1.445   3.953  10.695 -0.0484  0.6437 -0.2227
  762MPD2    C411307   1.435   3.894  10.570 -0.2392 -0.0822  0.0640
  762MPD2    C511308   1.309   3.888  10.514 -0.1712 -0.3413 -0.5548
  762MPD2     H11309   1.344   4.073  10.839 -1.6651 -0.6615  0.2250
  762MPD2    H111310   1.515   3.848  10.513  0.2843  0.6037  0.2493
  762MPD2    H211311   1.112   3.951  10.506  0.2516  2.7909 -0.3228
  762MPD2    H311312   1.294   3.838  10.419 -0.7705 -0.6709 -0.2891
  762MPD2     N11313   1.569   3.960  10.767 -0.4123 -0.4501  0.6080
  762MPD2    H511314   1.564   4.007  10.857 -1.8083  0.6618 -0.0649
  762MPD2    N111315   1.102   4.081  10.747 -0.2418  0.3874  0.5197
  762MPD2    H711316   1.116   4.112  10.843 -0.6402  0.6394  0.4978
  763MPD2     C11317   2.523   4.666  15.934 -0.5286 -0.4146 -0.3487
  763MPD2    C111318   2.648   4.713  15.881  1.3032 -0.4839 -0.7203
  763MPD2    C211319   2.692   0.097  15.924 -0.0192 -0.4428 -0.6576
  763MPD2    C311320   2.620   0.171  16.011  0.2964 -0.3075 -0.1742
  763MPD2    C411321   2.502   0.127  16.064 -0.0029 -0.4141 -0.6092
  763MPD2    C511322   2.450   0.006  16.024 -0.0249  0.1623 -0.9315
  763MPD2     H11323   2.769   0.148  15.867  0.7928 -0.8903  0.0546
  763MPD2    H111324   2.439   0.190  16.125 -1.2329 -0.3060 -1.9857
  763MPD2    H211325   2.492   4.564  15.910 -0.1078 -0.2021 -1.8015
  763MPD2    H311326   2.362   4.711  16.081  0.0879  0.3300 -0.6649
  763MPD2     N11327   2.681   0.293  16.051 -0.4482  0.1069  0.5259
  763MPD2    H511328   2.769   0.309  16.005 -1.7646 -2.6597 -2.9860
  763MPD2    N111329   2.721   4.630  15.784 -0.3633 -0.0632  0.0773
  763MPD2    H711330   2.812   4.666  15.756 -0.7362  1.3758  0.7185
  764MPD2     C11331   0.405   1.377  17.664 -0.2005 -0.7068 -0.4576
  764MPD2    C111332   0.280   1.324  17.647 -0.8541 -0.2628 -0.0243
  764MPD2    C211333   0.215   1.267   0.020  0.1648  0.0950  0.4239
  764MPD2    C311334   0.274   1.271   0.143 -0.9762  0.3469 -0.2019
  764MPD2    C411335   0.399   1.336   0.161  0.7988  0.4040 -0.2690
  764MPD2    C511336   0.468   1.378   0.047 -0.7001  0.3817 -0.9430
  764MPD2     H11337   0.114   1.230   0.007  0.3180 -0.1824  0.0166
  764MPD2    H111338   0.450   1.334   0.257  1.1855  0.8175 -0.4645
  764MPD2    H211339   0.463   1.420  17.584 -1.8952  1.8910 -0.2884
  764MPD2    H311340   0.564   1.424   0.066 -0.4432 -0.7560  0.4914
  764MPD2     N11341   0.216   1.202   0.245 -0.9866 -0.7734  0.2751
  764MPD2    H511342   0.128   1.157   0.222 -0.6472 -2.2662  1.9125
  764MPD2    N111343   0.219   1.327  17.521  0.4688 -0.6678  0.5041
  764MPD2    H711344   0.135   1.272  17.502  0.5453 -0.4692 -0.4462
  765MPD2     C11345   0.829   4.329  15.263 -0.5923  0.8634  0.1819
  765MPD2    C111346   0.800   4.325  15.398  1.0709  0.1918  0.1592
  765MPD2    C211347   0.849   4.217  15.468 -0.7310  0.7159 -0.4086
  765MPD2    C311348   0.938   4.129  15.405 -0.2239 -0.5799 -0.3726
  765MPD2    C411349   0.962   4.138  15.270 -0.4330  0.2093  0.6960
  765MPD2    C511350   0.911   4.238  15.200  0.0691  0.6623 -0.2032
  765MPD2     H11351   0.818   4.210  15.572 -1.8784 -1.6442 -0.8874
  765MPD2    H111352   1.035   4.083  15.212  0.2096  0.2370  1.4894
  765MPD2    H211353   0.794   4.416  15.210 -1.2920 -0.9022 -2.2604
  765MPD2    H311354   0.930   4.261  15.096  1.2984  0.2282 -0.0806
  765MPD2     N11355   0.999   4.029  15.488 -0.8382  0.6284  0.8220
  765MPD2    H511356   0.961   4.024  15.582  0.2876 -0.3435  1.2185
  765MPD2    N111357   0.707   4.420  15.447  0.8398 -0.3330  0.0302
  765MPD2    H711358   0.661   4.486  15.385  0.6997  0.3574  0.8703
  766MPD2     C11359   0.215   4.635  14.980  0.0376 -0.0695 -0.0000
  766MPD2    C111360   0.317   4.585  15.060 -0.4505 -0.1741 -0.7041
  766MPD2    C211361   0.412   4.507  14.993 -0.5437 -0.5438  0.3216
  766MPD2    C311362   0.395   4.465  14.860  0.4570  0.4398  0.1347
  766MPD2    C411363   0.292   4.520  14.789  0.0447 -0.0838  0.3755
  766MPD2    C511364   0.196   4.606  14.842  0.0984 -0.5406 -0.0463
  766MPD2     H11365   0.497   4.475  15.052 -0.2574 -0.8645 -0.2682
  766MPD2    H111366   0.275   4.481  14.689 -1.5300  2.4011 -0.3407
  766MPD2    H211367   0.144   4.703  15.025  2.2837  1.5259  1.1692
  766MPD2    H311368   0.106   4.640  14.791 -1.3917 -0.8456  2.3123
  766MPD2     N11369   0.487   4.376  14.798  0.0722 -0.0322  0.3472
  766MPD2    H511370   0.486   4.361  14.698  1.5738 -0.2497  0.3593
  766MPD2    N111371   0.333   4.621  15.199 -1.0593 -0.0836  0.7558
  766MPD2    H711372   0.288   4.706  15.233  0.8127  1.4241 -0.4779
  767MPD2     C11373   0.436   0.166  14.447  0.2648  0.2610 -1.0205
  767MPD2    C111374   0.494   0.057  14.512 -0.2008 -0.4073 -1.0110
  767MPD2    C211375   0.509   4.676  14.444 -0.4755  0.9564 -0.2782
  767MPD2    C311376   0.469   4.668  14.309 -0.8473 -0.6351  0.3464
  767MPD2    C411377   0.423   0.045  14.245  0.2023  0.0906 -0.3645
  767MPD2    C511378   0.406   0.161  14.313 -0.2158 -0.1961 -0.2999
  767MPD2     H11379   0.558   4.588  14.484 -4.1211 -0.2770  1.5396
  767MPD2    H111380   0.398   0.050  14.140  0.3357  1.5192 -0.3276
  767MPD2    H211381   0.418   0.260  14.496  1.9800  1.0404 -1.9096
  767MPD2    H311382   0.362   0.246  14.262 -0.7116  0.9500  2.0164
  767MPD2     N11383   0.483   4.545  14.249 -0.7099 -0.4465  0.3352
  767MPD2    H511384   0.524   4.467  14.299  1.2005 -1.2818 -2.5683
  767MPD2    N111385   0.529   0.079  14.644 -0.0532  0.1801 -0.8347
  767MPD2    H711386   0.507   0.171  14.680  0.3024  0.6026 -1.7006
  768MPD2     C11387   0.660   2.648  10.637  0.3540 -1.3165  0.7098
  768MPD2    C111388   0.770   2.712  10.581 -0.4435 -0.1057  0.6015
  768MPD2    C211389   0.893   2.721  10.653  0.0630 -0.0164 -0.0033
  768MPD2    C311390   0.904   2.664  10.773  0.3095 -0.0332 -0.2635
  768MPD2    C411391   0.810   2.573  10.819 -0.9406  0.6862 -0.0784
  768MPD2    C511392   0.685   2.577  10.757  0.7978  0.0574 -0.4839
  768MPD2     H11393   0.976   2.771  10.605 -0.0292  1.6699  1.6032
  768MPD2    H111394   0.819   2.518  10.912  0.3848  2.8317  1.0757
  768MPD2    H211395   0.561   2.636  10.593  0.4233  2.4060 -0.4126
  768MPD2    H311396   0.598   2.523  10.791 -0.1472  1.6339 -0.3856
  768MPD2     N11397   1.020   2.679  10.854 -0.0324 -0.4149 -0.6287
  768MPD2    H511398   1.021   2.620  10.936 -0.4814 -0.0577 -0.3644
  768MPD2    N111399   0.758   2.791  10.463  0.0103 -0.1267 -0.0127
  768MPD2    H711400   0.843   2.839  10.437  1.7582 -1.8774  2.4857
  769MPD2     C11401   1.606   1.617  15.321  0.5652  0.0602  0.4072
  769MPD2    C111402   1.601   1.479  15.352  0.2978 -0.4700 -0.0674
  769MPD2    C211403   1.660   1.442  15.474  1.1214  0.3282 -0.2829
  769MPD2    C311404   1.746   1.536  15.542  0.2954 -0.7374 -0.3473
  769MPD2    C411405   1.757   1.664  15.496 -0.4100 -0.4233 -0.1954
  769MPD2    C511406   1.684   1.705  15.391  0.4470 -1.6910 -0.3769
  769MPD2     H11407   1.655   1.338  15.504 -0.3785  0.4247 -0.1856
  769MPD2    H111408   1.821   1.739  15.541 -0.7672 -0.5876  0.5756
  769MPD2    H211409   1.550   1.653  15.236 -0.8588 -2.1097  0.4203
  769MPD2    H311410   1.687   1.811  15.369  3.0823 -1.2201  2.1330
  769MPD2     N11411   1.816   1.502  15.663 -0.7201  0.5321 -0.0874
  769MPD2    H511412   1.875   1.574  15.701 -0.6074  0.6531 -0.4854
  769MPD2    N111413   1.531   1.386  15.260  0.3826  0.5108  0.2375
  769MPD2    H711414   1.514   1.292  15.295 -0.2253  0.2145 -0.8721
  770MPD2     C11415   1.357   0.417  15.261  0.9003 -0.3625 -0.5011
  770MPD2    C111416   1.454   0.433  15.164  0.1120 -0.0431  0.2419
  770MPD2    C211417   1.476   0.564  15.112 -0.2586  0.2465 -0.2334
  770MPD2    C311418   1.408   0.677  15.162 -0.4580 -0.3969  0.2094
  770MPD2    C411419   1.325   0.650  15.269  0.0376 -0.2445  0.4099
  770MPD2    C511420   1.300   0.528  15.316 -0.1306  0.7861 -0.0488
  770MPD2     H11421   1.546   0.581  15.031  0.5624 -1.2663  0.1660
  770MPD2    H111422   1.275   0.729  15.324  1.7166  0.2689  1.1936
  770MPD2    H211423   1.331   0.318  15.296  0.2775  0.2941  0.8968
  770MPD2    H311424   1.231   0.516  15.397  1.5201  1.1063  1.4089
  770MPD2     N11425   1.427   0.802  15.108  0.8991 -0.6139 -0.2226
  770MPD2    H511426   1.486   0.810  15.026 -0.7882 -0.7625 -1.4385
  770MPD2    N111427   1.520   0.320  15.106  0.7500 -0.2752 -0.1665
  770MPD2    H711428   1.475   0.230  15.125  0.0269 -0.2036 -1.5253
  771MPD2     C11429   3.173   3.511  13.867 -0.2429  0.5509  0.1125
  771MPD2    C111430   3.061   3.591  13.862 -0.8201  0.7835 -0.4576
  771MPD2    C211431   2.934   3.542  13.880 -0.3721 -0.2101 -0.0350
  771MPD2    C311432   2.920   3.404  13.894  0.0747 -0.0769 -0.5732
  771MPD2    C411433   3.033   3.319  13.903 -0.0164 -0.3234  0.5536
  771MPD2    C511434   3.156   3.381  13.902 -0.6078 -0.4226 -0.1933
  771MPD2     H11435   2.851   3.610  13.872  0.3945  0.6397 -0.8013
  771MPD2    H111436   3.034   3.210  13.904 -1.7688 -0.3368  1.1280
  771MPD2    H211437   3.270   3.557  13.858  0.7057 -1.3276  0.6452
  771MPD2    H311438   3.244   3.320  13.912 -1.1300 -0.8735  1.5718
  771MPD2     N11439   2.786   3.348  13.906 -0.1488 -0.1234  0.0083
  771MPD2    H511440   2.714   3.419  13.902  0.4596  0.4381 -1.0628
  771MPD2    N111441   3.063   3.729  13.825 -0.0894 -0.1753 -0.4829
  771MPD2    H711442   2.979   3.785  13.834  1.2486  1.7579 -0.0413
  772MPD2     C11443   2.757   4.333  14.027  0.2042 -0.1645  0.0313
  772MPD2    C111444   2.723   4.229  13.939 -0.0488 -0.2673 -0.0867
  772MPD2    C211445   2.595   4.182  13.947  0.2736 -0.3149  0.1373
  772MPD2    C311446   2.497   4.258  14.014  0.1653  0.1712 -0.4982
  772MPD2    C411447   2.535   4.352  14.102 -0.8946 -0.3926  0.7998
  772MPD2    C511448   2.669   4.389  14.104 -0.5762 -0.5389  0.3226
  772MPD2     H11449   2.574   4.108  13.871 -0.9421  1.5004 -1.3034
  772MPD2    H111450   2.464   4.389  14.175 -2.1978  0.1436 -0.7435
  772MPD2    H211451   2.857   4.372  14.040 -0.1295  1.0420 -1.0027
  772MPD2    H311452   2.704   4.460  14.178  1.5693  0.5196 -1.6999
  772MPD2     N11453   2.359   4.226  14.018  0.6592 -0.2050 -0.0095
  772MPD2    H511454   2.300   4.281  14.080  0.4199 -1.2283  0.6718
  772MPD2    N111455   2.814   4.171  13.849 -0.3749  0.3322 -0.2606
  772MPD2    H711456   2.785   4.092  13.793  1.9988 -0.0631 -0.9299
  773MPD2     C11457   1.383   0.311  17.507  0.1576  0.2201  0.1524
  773MPD2    C111458   1.309   0.196  17.469  0.0199 -0.0669  0.3486
  773MPD2    C211459   1.360   0.074  17.499  0.1057  0.0696 -0.3401
  773MPD2    C311460   1.480   0.057  17.561  0.4583  0.1650 -0.3778
  773MPD2    C411461   1.549   0.167  17.603 -0.0979  0.3043 -0.0267
  773MPD2    C511462   1.501   0.297  17.579 -0.6363 -0.2976  0.8998
  773MPD2     H11463   1.302   4.726  17.460 -0.2319 -0.5423  1.4515
  773MPD2    H111464   1.646   0.157  17.650  0.3095  0.3721 -0.8485
  773MPD2    H211465   1.358   0.416  17.499  0.1584  0.1856 -0.2966
  773MPD2    H311466   1.556   0.384  17.614 -2.1360  1.4846 -1.2023
  773MPD2     N11467   1.532   4.660  17.580 -0.3192  0.1378 -0.3085
  773MPD2    H511468   1.457   4.591  17.577  1.5881 -1.9030 -0.9020
  773MPD2    N111469   1.188   0.213  17.402 -0.0585 -0.3185  0.4151
  773MPD2    H711470   1.123   0.135  17.399 -1.5064  0.8134  2.5399
  774MPD2     C11471   0.947   3.364  13.647  0.2732 -0.0899 -0.8118
  774MPD2    C111472   1.018   3.458  13.719 -0.3068 -0.4186 -0.0769
  774MPD2    C211473   1.011   3.587  13.675  0.9577 -0.1122  0.0517
  774MPD2    C311474   0.939   3.616  13.567 -0.1338  0.1240 -0.5088
  774MPD2    C411475   0.861   3.519  13.499  0.3914 -0.1350 -0.0254
  774MPD2    C511476   0.861   3.396  13.552 -0.3554  0.6456  0.1036
  774MPD2     H11477   1.070   3.668  13.716  1.7705  0.2526 -1.8391
  774MPD2    H111478   0.816   3.525  13.401  1.2266  1.1765 -0.3323
  774MPD2    H211479   0.948   3.261  13.683 -0.4235  0.8058  1.7534
  774MPD2    H311480   0.794   3.323  13.509  0.2259  1.7752 -2.7434
  774MPD2     N11481   0.959   3.744  13.507 -0.0996  0.1608 -0.8527
  774MPD2    H511482   1.021   3.810  13.554 -0.2639  0.6024 -1.2537
  774MPD2    N111483   1.098   3.413  13.827 -0.1858 -0.4572  0.3268
  774MPD2    H711484   1.082   3.319  13.860  3.2887 -0.0758  3.0475
  775MPD2     C11485   2.086   1.132  15.705 -0.2292  0.8496  0.0084
  775MPD2    C111486   2.177   1.124  15.807  1.1398 -0.0892 -0.4540
  775MPD2    C211487   2.309   1.154  15.782  0.0667  0.1218  0.3358
  775MPD2    C311488   2.351   1.190  15.654 -0.2054 -0.9523 -0.2635
  775MPD2    C411489   2.261   1.197  15.550 -0.7260 -0.1385  0.0824
  775MPD2    C511490   2.129   1.160  15.577  0.3274 -0.3404  0.2278
  775MPD2     H11491   2.376   1.149  15.868  0.7260 -0.6578 -0.2279
  775MPD2    H111492   2.288   1.215  15.447 -1.9459  1.4003  0.0292
  775MPD2    H211493   1.982   1.103  15.714 -0.5278  2.3351  1.2034
  775MPD2    H311494   2.069   1.142  15.489  0.1276  1.5523 -0.0146
  775MPD2     N11495   2.478   1.230  15.610 -0.0312 -0.2828  0.1525
  775MPD2    H511496   2.497   1.243  15.511  2.2950 -1.3807  0.4499
  775MPD2    N111497   2.135   1.076  15.927  0.0784 -0.0526 -0.0991
  775MPD2    H711498   2.040   1.040  15.929  0.3514 -0.7225  0.5012
  776MPD2     C11499   1.225   1.288  11.138 -0.2789 -0.2438 -0.1802
  776MPD2    C111500   1.348   1.256  11.186 -0.1596 -0.4736  0.1444
  776MPD2    C211501   1.447   1.349  11.179 -0.9593 -0.7459  0.4718
  776MPD2    C311502   1.427   1.464  11.098  0.1584  0.1406  0.5413
  776MPD2    C411503   1.302   1.493  11.050  0.4266  0.2883 -0.4165
  776MPD2    C511504   1.198   1.407  11.080  0.0052  0.1567  0.5184
  776MPD2     H11505   1.543   1.326  11.224 -0.4815 -0.4782 -0.4106
  776MPD2    H111506   1.281   1.588  11.001  1.7944  1.8010  1.9759
  776MPD2    H211507   1.139   1.222  11.146 -0.0056 -0.7688 -1.5635
  776MPD2    H311508   1.097   1.425  11.045 -0.5766 -3.1491  0.4891
  776MPD2     N11509   1.522   1.569  11.087 -0.0146 -0.0707  0.3521
  776MPD2    H511510   1.503   1.657  11.042 -0.7628 -0.2473  0.3108
  776MPD2    N111511   1.351   1.132  11.255 -0.3605  0.6025  0.2613
  776MPD2    H711512   1.264   1.080  11.250  0.6820 -1.3124  1.8613
  777MPD2     C11513   1.683   2.955   0.641 -0.4475  0.0994  0.1598
  777MPD2    C111514   1.589   2.922   0.733  0.6654  0.4012  0.9385
  777MPD2    C211515   1.483   2.841   0.685 -0.0721  0.4641 -0.1227
  777MPD2    C311516   1.471   2.802   0.554  0.1922  0.4730 -0.5693
  777MPD2    C411517   1.576   2.839   0.465  0.7210 -0.3929 -0.8558
  777MPD2    C511518   1.679   2.914   0.511  0.1604 -0.4105  1.0765
  777MPD2     H11519   1.406   2.803   0.751 -0.0717 -0.8872 -0.8950
  777MPD2    H111520   1.573   2.815   0.359 -0.6921  0.4850 -1.0116
  777MPD2    H211521   1.762   3.025   0.666  0.8766 -0.8535 -1.3580
  777MPD2    H311522   1.754   2.946   0.440  0.0553  0.2105  1.2515
  777MPD2     N11523   1.354   2.726   0.517  0.0663  0.2335 -0.4291
  777MPD2    H511524   1.283   2.715   0.588  0.7430 -2.2451 -0.1389
  777MPD2    N111525   1.591   2.970   0.865  0.4467 -0.3077  0.1609
  777MPD2    H711526   1.663   3.038   0.885 -0.1647  0.2991  0.2933
  778MPD2     C11527   2.701   3.192  15.326 -0.1517 -0.5985  0.3132
  778MPD2    C111528   2.653   3.155  15.202  1.0021  0.0224 -0.2517
  778MPD2    C211529   2.733   3.164  15.090 -1.0996  0.5987  0.2783
  778MPD2    C311530   2.853   3.232  15.095  0.1496  0.2212 -0.1158
  778MPD2    C411531   2.901   3.264  15.216 -0.6291  0.7520  0.1232
  778MPD2    C511532   2.826   3.246  15.334 -0.1344  0.0066 -0.4873
  778MPD2     H11533   2.694   3.135  14.994 -0.6289  0.3594  0.1587
  778MPD2    H111534   3.004   3.297  15.225  0.1237 -1.6778  0.4567
  778MPD2    H211535   2.649   3.165  15.417  0.9147 -3.0898  0.1766
  778MPD2    H311536   2.866   3.273  15.431  1.1529  0.7443 -1.2122
  778MPD2     N11537   2.919   3.252  14.973 -0.0486 -0.2936  0.1688
  778MPD2    H511538   2.870   3.207  14.896  0.3014 -1.1493  0.4514
  778MPD2    N111539   2.526   3.101  15.183 -0.2846  0.9165  0.0547
  778MPD2    H711540   2.499   3.073  15.089 -0.3056 -1.3210  0.7193
  779MPD2     C11541   2.313   2.396  13.784  0.0532 -0.9286  0.9970
  779MPD2    C111542   2.401   2.374  13.886  0.1970  0.5267 -0.2411
  779MPD2    C211543   2.438   2.480  13.964 -0.3715 -0.0001  0.3840
  779MPD2    C311544   2.395   2.605  13.930 -0.1445 -0.0599 -0.0667
  779MPD2    C411545   2.304   2.622  13.822 -0.2136  0.1113 -0.5215
  779MPD2    C511546   2.268   2.518  13.742 -0.1797  0.8974 -0.6836
  779MPD2     H11547   2.508   2.466  14.046  0.7877 -0.5520 -0.7064
  779MPD2    H111548   2.279   2.723  13.791 -1.5546  0.1924  0.8069
  779MPD2    H211549   2.271   2.313  13.729  0.1513 -0.4187  0.1626
  779MPD2    H311550   2.202   2.530  13.656 -1.2004 -1.8150 -0.2776
  779MPD2     N11551   2.437   2.721  13.996 -0.2599  0.2994 -0.7508
  779MPD2    H511552   2.382   2.805  13.978  1.9915  1.9194 -0.1781
  779MPD2    N111553   2.442   2.244  13.907 -0.1535  0.5924 -0.1246
  779MPD2    H711554   2.408   2.175  13.840  1.6560  0.9529 -1.4051
  780MPD2     C11555   0.843   2.167   0.195  0.0035  0.3369 -0.4575
  780MPD2    C111556   0.953   2.101   0.241 -0.1242  0.5095  0.2296
  780MPD2    C211557   1.077   2.138   0.201  0.3705  0.2466 -0.5966
  780MPD2    C311558   1.085   2.249   0.111  0.3841 -0.4212  0.2535
  780MPD2    C411559   0.976   2.315   0.069  0.8010 -0.1147 -0.0933
  780MPD2    C511560   0.850   2.270   0.105 -0.2107 -0.4739  0.4972
  780MPD2     H11561   1.166   2.082   0.230  0.9517  0.3745 -2.0936
  780MPD2    H111562   0.975   2.408   0.014  1.0944  0.1615  0.3713
  780MPD2    H211563   0.748   2.137   0.238  0.2400 -0.7011 -0.6636
  780MPD2    H311564   0.760   2.324   0.080 -0.3876 -1.7369 -1.5620
  780MPD2     N11565   1.218   2.286   0.074  0.5506  0.8484  0.0007
  780MPD2    H511566   1.293   2.225   0.106  0.7447  0.3158 -1.4941
  780MPD2    N111567   0.930   1.987   0.322  0.5654 -0.0947 -0.5657
  780MPD2    H711568   0.841   1.940   0.335  0.9841  0.0658  2.8143
  781MPD2     C11569   3.147   4.353  12.339 -0.9372 -0.2204 -0.1695
  781MPD2    C111570   3.252   4.273  12.287 -0.3882 -0.4552  0.1931
  781MPD2    C211571   3.280   4.278  12.157  0.3314 -0.2474 -0.0307
  781MPD2    C311572   3.213   4.364  12.071  0.2445 -0.7733 -0.5004
  781MPD2    C411573   3.112   4.452  12.124  0.5045  0.1211 -0.7213
  781MPD2    C511574   3.083   4.446  12.257  0.6278  0.6388  0.6795
  781MPD2     H11575   3.352   4.208  12.115 -0.2252 -0.0751 -1.2707
  781MPD2    H111576   3.066   4.524  12.058 -1.1018 -0.4485 -0.2184
  781MPD2    H211577   3.115   4.354  12.443  0.5958  0.0457  0.3020
  781MPD2    H311578   3.006   4.509  12.301 -0.5647  0.3325 -0.9661
  781MPD2     N11579   3.255   4.390  11.936  0.4682 -0.3794  0.3900
  781MPD2    H511580   3.198   4.453  11.880 -0.9221 -0.1463  2.0953
  781MPD2    N111581   3.316   4.176  12.374 -0.5748  0.4353 -0.0287
  781MPD2    H711582   3.407   4.135  12.355 -0.6516 -0.3685  1.2822
  782MPD2     C11583   2.276   4.525  10.343  0.3800  0.6281 -0.6498
  782MPD2    C111584   2.396   4.561  10.403  0.2680  0.1342  0.5664
  782MPD2    C211585   2.402   4.691  10.457  0.2302  0.0360  0.3921
  782MPD2    C311586   2.304   0.044  10.446  0.4879  0.1638 -0.7436
  782MPD2    C411587   2.191   0.010  10.375  0.3289  0.0146 -0.4157
  782MPD2    C511588   2.174   4.620  10.327 -0.5970 -0.2317 -0.3444
  782MPD2     H11589   2.479   4.723  10.526 -1.0613  0.9729  1.3925
  782MPD2    H111590   2.115   0.085  10.360  0.0959  0.1720  1.5826
  782MPD2    H211591   2.243   4.423  10.329 -0.5593  0.4700  2.6751
  782MPD2    H311592   2.080   4.588  10.284 -0.6461  0.4516 -0.7395
  782MPD2     N11593   2.328   0.171  10.505 -0.2312  0.4135 -0.0922
  782MPD2    H511594   2.418   0.194  10.545  0.2606  1.0571 -1.5503
  782MPD2    N111595   2.485   4.456  10.427  0.0475  0.7028 -0.1616
  782MPD2    H711596   2.453   4.361  10.412 -0.8238  0.7985  1.0563
  783MPD2     C11597   2.034   4.075  11.060  0.4730 -0.5871 -0.1253
  783MPD2    C111598   2.054   4.204  11.028 -1.1205 -0.0281 -0.3575
  783MPD2    C211599   2.165   4.252  10.959  0.7147  0.1849 -0.7445
  783MPD2    C311600   2.261   4.159  10.915 -0.1252 -0.1662 -0.2889
  783MPD2    C411601   2.243   4.024  10.942  0.5557 -0.3410  0.4152
  783MPD2    C511602   2.136   3.984  11.024 -0.3215  0.2191  0.4875
  783MPD2     H11603   2.192   4.353  10.929 -0.6506  1.1266  1.1510
  783MPD2    H111604   2.315   3.949  10.912 -0.3798 -0.6445 -1.0739
  783MPD2    H211605   1.947   4.044  11.117  0.1502  0.0155 -0.2854
  783MPD2    H311606   2.130   3.879  11.051  0.8947 -0.2667 -1.1228
  783MPD2     N11607   2.378   4.206  10.842 -0.2911  0.3927  0.6105
  783MPD2    H511608   2.384   4.303  10.813  0.1668 -0.3795 -1.9226
  783MPD2    N111609   1.953   4.295  11.068  0.5628 -0.0436  0.3844
  783MPD2    H711610   1.873   4.253  11.115  1.7948 -0.9110  1.7114
  784MPD2     C11611   4.170   0.135   0.355 -0.1348  0.4227 -0.3435
  784MPD2    C111612   4.145   0.213   0.471 -0.1586  0.9947  0.6890
  784MPD2    C211613   4.047   0.314   0.471  0.0007 -0.7013  0.2768
  784MPD2    C311614   3.964   0.328   0.357 -0.0578  0.2365  0.4008
  784MPD2    C411615   3.985   0.241   0.251  0.1819 -0.2008  0.0270
  784MPD2    C511616   4.088   0.151   0.253  0.0502  0.2019  0.3009
  784MPD2     H11617   4.031   0.378   0.557  2.2924 -0.5779  0.6183
  784MPD2    H111618   3.924   0.251   0.162  0.3647 -1.2509 -0.2115
  784MPD2    H211619   4.254   0.067   0.342 -0.8446 -0.7861  1.3711
  784MPD2    H311620   4.104   0.097   0.161 -1.1775  0.4428 -0.0634
  784MPD2     N11621   3.873   0.432   0.360 -0.1181 -0.6116 -0.1683
  784MPD2    H511622   3.888   0.502   0.431 -1.7384 -0.7715  0.3303
  784MPD2    N111623   4.219   0.194   0.593  0.4826  0.9148  0.2592
  784MPD2    H711624   4.184   0.248   0.671 -2.1419 -2.3949  1.3811
  785MPD2     C11625   0.064   3.299  10.867  0.8746  0.8152 -0.0597
  785MPD2    C111626   4.683   3.382  10.847  0.7371 -0.5510 -0.2071
  785MPD2    C211627   4.631   3.387  10.718 -0.3205  0.2333 -0.2271
  785MPD2    C311628   4.686   3.313  10.619  0.4978 -0.7813 -0.2017
  785MPD2    C411629   0.050   3.215  10.643  0.4222 -0.5282  0.1766
  785MPD2    C511630   0.120   3.228  10.761  0.7074 -0.0962  0.8119
  785MPD2     H11631   4.544   3.448  10.695 -0.8585  0.1931  1.6534
  785MPD2    H111632   0.076   3.143  10.566  2.2130 -0.0898  0.3698
  785MPD2    H211633   0.115   3.297  10.963 -0.2809  0.8097  0.5512
  785MPD2    H311634   0.203   3.160  10.782 -0.1501 -1.3179  0.2617
  785MPD2     N11635   4.627   3.330  10.491  0.6823 -0.5509  0.1529
  785MPD2    H511636   4.546   3.390  10.481 -0.7133 -2.2746  1.1151
  785MPD2    N111637   4.645   3.457  10.962 -0.1460  0.1278 -0.5411
  785MPD2    H711638   4.700   3.457  11.047 -0.0748  2.2779 -0.5790
  786MPD2     C11639   3.123   1.206  14.811 -0.1940  0.5645  0.3087
  786MPD2    C111640   3.246   1.235  14.753 -0.1139 -0.0402  0.3825
  786MPD2    C211641   3.355   1.260  14.837 -0.5297 -0.1194  0.2221
  786MPD2    C311642   3.340   1.260  14.972  0.1861 -0.3994  0.2910
  786MPD2    C411643   3.220   1.238  15.028  0.0511  0.5826 -0.3055
  786MPD2    C511644   3.113   1.215  14.948 -0.3464 -0.8710 -0.1802
  786MPD2     H11645   3.449   1.289  14.792 -0.1407 -1.7916 -0.0404
  786MPD2    H111646   3.199   1.233  15.134  0.6454  0.5861 -0.1870
  786MPD2    H211647   3.030   1.173  14.767  0.7647 -1.5182 -0.1346
  786MPD2    H311648   3.015   1.193  14.989 -0.4646  0.5816  0.2900
  786MPD2     N11649   3.447   1.265  15.060 -0.2981 -0.4281  0.1076
  786MPD2    H511650   3.426   1.243  15.157  1.9247  1.9804  1.1300
  786MPD2    N111651   3.269   1.228  14.614 -0.1237 -0.0684  0.5958
  786MPD2    H711652   3.365   1.241  14.584 -0.6796  0.4984 -0.9044
  787MPD2     C11653   3.813   1.146  14.327  0.2126 -0.2479  0.9114
  787MPD2    C111654   3.717   1.121  14.235  0.2510 -0.2724  0.0405
  787MPD2    C211655   3.729   1.023  14.137  0.8390  0.5027 -0.4988
  787MPD2    C311656   3.850   0.959  14.123 -0.1696 -0.0410  0.3789
  787MPD2    C411657   3.959   1.002  14.205 -0.7319 -0.0132  0.2848
  787MPD2    C511658   3.939   1.098  14.304  0.1845 -0.4908  0.4599
  787MPD2     H11659   3.645   0.998  14.073  1.3000 -1.3202 -0.3923
  787MPD2    H111660   4.058   0.958  14.198 -0.3608  0.9803 -0.7525
  787MPD2    H211661   3.807   1.218  14.408  0.2143 -0.5687  1.1933
  787MPD2    H311662   4.018   1.114  14.375  0.5514 -2.7284  0.5491
  787MPD2     N11663   3.867   0.867  14.020  1.3202  0.1842 -0.0373
  787MPD2    H511664   3.789   0.860  13.954 -0.7122 -1.0167  2.4769
  787MPD2    N111665   3.594   1.189  14.262 -0.3195  0.3939 -0.8747
  787MPD2    H711666   3.591   1.242  14.349 -0.6804 -2.8448  1.0873
  788MPD2     C11667   0.121   4.692   0.991 -0.3512 -0.4439  0.1075
  788MPD2    C111668   0.173   4.673   0.866 -0.0688  0.3827  0.3872
  788MPD2    C211669   0.137   0.027   0.766 -0.0998  0.3791 -0.4457
  788MPD2    C311670   0.050   0.128   0.796  0.1576 -0.4619  0.2483
  788MPD2    C411671   0.008   0.154   0.924 -0.0852 -0.4726  0.4971
  788MPD2    C511672   0.048   0.071   1.021 -0.1371 -0.4564 -0.1628
  788MPD2     H11673   0.168   0.005   0.665  1.6648  3.3362 -0.5529
  788MPD2    H111674   4.671   0.233   0.939  1.2421  0.7086  0.7560
  788MPD2    H211675   0.140   4.631   1.078 -1.1555  0.0999  0.6700
  788MPD2    H311676   0.006   0.092   1.119 -0.8998 -1.6956 -0.2171
  788MPD2     N11677   0.003   0.211   0.699 -0.0455  0.0768  0.7761
  788MPD2    H511678   4.707   0.304   0.728  0.5295  0.2706  0.7740
  788MPD2    N111679   0.257   4.566   0.834  0.4190  0.0719  0.1891
  788MPD2    H711680   0.306   4.571   0.745  1.6060 -2.3426  0.6958
  789MPD2     C11681   0.471   3.925  16.142 -0.1689 -0.4819 -0.0901
  789MPD2    C111682   0.403   4.036  16.095  0.7163  0.0458  0.2730
  789MPD2    C211683   0.323   4.118  16.173  0.9631  0.5936  0.2858
  789MPD2    C311684   0.304   4.079  16.304 -1.0643  0.2498  0.0991
  789MPD2    C411685   0.374   3.972  16.353 -0.0738 -0.4374 -0.0397
  789MPD2    C511686   0.463   3.901  16.275  0.2516  0.3412 -0.1012
  789MPD2     H11687   0.276   4.202  16.124 -1.0838 -0.9549 -0.4038
  789MPD2    H111688   0.352   3.941  16.454  0.5005 -2.8648 -0.6660
  789MPD2    H211689   0.537   3.861  16.084  0.1844 -0.3110  0.1216
  789MPD2    H311690   0.516   3.813  16.308 -0.4006  0.4225  1.1398
  789MPD2     N11691   0.227   4.166  16.392 -0.2359  0.1411  0.2753
  789MPD2    H511692   0.215   4.139  16.489  3.0122 -1.3344  0.2719
  789MPD2    N111693   0.411   4.080  15.962 -0.1651  0.3129  0.0705
  789MPD2    H711694   0.369   4.166  15.929  0.4412 -0.7238 -3.3410
  790MPD2     C11695   1.381   1.189  13.508 -0.1570  0.1154 -0.4183
  790MPD2    C111696   1.478   1.106  13.474 -0.4774 -0.0419 -0.6587
  790MPD2    C211697   1.507   1.084  13.337  0.0247  0.5325  0.0550
  790MPD2    C311698   1.416   1.136  13.241 -0.9405 -0.4450  0.5949
  790MPD2    C411699   1.314   1.215  13.286  0.0135 -0.3285  0.9397
  790MPD2    C511700   1.296   1.238  13.417  0.6093 -0.0053 -0.0066
  790MPD2     H11701   1.574   1.010  13.295 -0.2969  0.5142 -0.4324
  790MPD2    H111702   1.234   1.244  13.219  1.3090 -1.1673 -0.9564
  790MPD2    H211703   1.361   1.194  13.614 -1.4525  2.9310 -0.7949
  790MPD2    H311704   1.205   1.283  13.455  1.9809  3.1681 -0.4377
  790MPD2     N11705   1.439   1.098  13.103  0.3570 -0.2551 -0.3093
  790MPD2    H511706   1.515   1.033  13.089 -1.3363 -1.8230 -2.2660
  790MPD2    N111707   1.551   1.060  13.585 -0.1432 -0.2661  0.0385
  790MPD2    H711708   1.530   1.098  13.676 -1.6076 -0.6648 -0.1349
  791MPD2     C11709   0.931   1.082  12.360  0.2288  0.3256  0.6407
  791MPD2    C111710   0.973   0.987  12.450  0.3618 -0.4867 -0.8511
  791MPD2    C211711   0.916   0.857  12.460  0.1160 -0.6800  0.7531
  791MPD2    C311712   0.804   0.832  12.386  0.3358 -1.0386  0.1113
  791MPD2    C411713   0.765   0.926  12.291 -0.1083  0.6309 -1.1026
  791MPD2    C511714   0.818   1.048  12.286  0.1092 -0.1013 -0.0923
  791MPD2     H11715   0.965   0.781  12.520 -1.4341 -0.1079  2.7169
  791MPD2    H111716   0.682   0.909  12.223  1.7477 -1.5445 -2.7874
  791MPD2    H211717   0.981   1.175  12.338 -0.8276  0.6162 -0.5663
  791MPD2    H311718   0.787   1.119  12.211  2.2204 -0.3360 -1.1745
  791MPD2     N11719   0.732   0.709  12.404  0.3576 -0.2890 -0.2974
  791MPD2    H511720   0.771   0.646  12.473 -0.1944  1.2943  1.4597
  791MPD2    N111721   1.082   1.029  12.529  0.9240 -0.2913  0.2370
  791MPD2    H711722   1.134   1.113  12.505  2.1427 -1.3177 -0.6509
  792MPD2     C11723   1.624   0.822  10.987 -0.7315  0.2702  0.2663
  792MPD2    C111724   1.548   0.926  10.952 -0.5744  0.1484  0.2699
  792MPD2    C211725   1.408   0.930  10.980 -0.3773  0.2803 -0.6923
  792MPD2    C311726   1.347   0.816  11.036  0.1033  0.4489  0.8121
  792MPD2    C411727   1.429   0.709  11.059 -0.3753 -0.3026  0.3134
  792MPD2    C511728   1.559   0.713  11.034  0.5120 -0.0026  0.3737
  792MPD2     H11729   1.346   1.017  10.963 -1.0915 -0.7440 -3.4653
  792MPD2    H111730   1.393   0.619  11.108 -1.9491  0.6809  0.9617
  792MPD2    H211731   1.726   0.825  10.952  0.0016  0.2131  2.4080
  792MPD2    H311732   1.621   0.626  11.051  0.9780  0.4427  0.9601
  792MPD2     N11733   1.210   0.804  11.063 -0.2589 -0.2082  0.2539
  792MPD2    H511734   1.186   0.716  11.107  1.7961 -0.0892  1.5897
  792MPD2    N111735   1.623   1.036  10.897  0.5575 -0.2129 -0.4173
  792MPD2    H711736   1.724   1.027  10.901  0.3593 -2.2505  0.0127
  793MPD2     C11737   0.513   1.082  10.469  0.4866  0.2450 -0.6657
  793MPD2    C111738   0.649   1.090  10.491  0.3483  0.4602 -0.9298
  793MPD2    C211739   0.693   1.057  10.619  0.1616 -0.3533  0.5589
  793MPD2    C311740   0.610   1.015  10.721  1.1522  0.0399 -0.3376
  793MPD2    C411741   0.472   1.001  10.693  0.4713 -0.4091  0.3199
  793MPD2    C511742   0.421   1.039  10.569 -0.4090 -1.1830 -0.1940
  793MPD2     H11743   0.794   1.085  10.647  0.7375 -2.0640  0.1417
  793MPD2    H111744   0.401   0.974  10.771  0.5555 -1.3339  0.0694
  793MPD2    H211745   0.472   1.098  10.370  2.1442  1.8174 -1.1034
  793MPD2    H311746   0.316   1.040  10.544 -0.3415 -1.0324 -0.4855
  793MPD2     N11747   0.682   0.987  10.839 -0.3462  0.2368  0.0657
  793MPD2    H511748   0.780   1.014  10.838 -0.3274  0.2880  3.4960
  793MPD2    N111749   0.743   1.134  10.393  0.0133 -0.1828 -0.6893
  793MPD2    H711750   0.836   1.160  10.425 -0.0283 -0.6664 -0.1706
  794MPD2     C11751   0.790   0.852  17.006  0.6882 -0.1122  0.2472
  794MPD2    C111752   0.785   0.737  16.925  0.3568 -0.4702  0.0336
  794MPD2    C211753   0.739   0.743  16.795 -0.5248 -0.0069 -0.0849
  794MPD2    C311754   0.692   0.865  16.747  0.1278  0.3880 -0.0621
  794MPD2    C411755   0.711   0.979  16.820 -0.1256 -0.6537 -0.0700
  794MPD2    C511756   0.767   0.968  16.947  0.3034  0.0291  0.1889
  794MPD2     H11757   0.721   0.651  16.742 -1.5442  1.0033 -1.4896
  794MPD2    H111758   0.708   1.077  16.775 -1.7914 -0.3799  0.6029
  794MPD2    H211759   0.830   0.854  17.107  3.4623 -0.0027 -0.8303
  794MPD2    H311760   0.782   1.058  17.006  0.4160  1.5913 -2.2331
  794MPD2     N11761   0.648   0.895  16.617 -0.3170  0.0807 -0.2999
  794MPD2    H511762   0.594   0.981  16.605 -1.2723 -0.2084  1.8821
  794MPD2    N111763   0.833   0.611  16.965 -0.5500  0.6100 -0.0818
  794MPD2    H711764   0.858   0.545  16.892 -1.6987  0.4720 -0.3378
  795MPD2     C11765   4.102   2.511  14.188  0.0582 -0.8971 -0.5444
  795MPD2    C111766   4.085   2.457  14.062 -0.0347  0.8098  0.3071
  795MPD2    C211767   4.170   2.358  14.018  0.0165 -0.1030 -0.1469
  795MPD2    C311768   4.260   2.298  14.098 -0.1188  0.0272  0.3325
  795MPD2    C411769   4.282   2.352  14.220  0.2250 -0.7771 -0.3557
  795MPD2    C511770   4.197   2.452  14.267  0.2022  0.7418 -0.7226
  795MPD2     H11771   4.154   2.312  13.921 -0.5378  1.5535 -0.8383
  795MPD2    H111772   4.354   2.312  14.290 -1.8637  0.2585  2.4262
  795MPD2    H211773   4.041   2.583  14.240  1.2352 -1.1504  1.1833
  795MPD2    H311774   4.217   2.486  14.368 -2.6006 -0.4916  0.2442
  795MPD2     N11775   4.331   2.189  14.050  0.4054  0.2440 -0.3520
  795MPD2    H511776   4.314   2.163  13.953  0.0795 -2.1973  0.3478
  795MPD2    N111777   3.981   2.499  13.979 -0.0992 -0.6389  0.1265
  795MPD2    H711778   3.979   2.452  13.889  1.0975 -0.8535  0.2099
  796MPD2     C11779   3.273   3.906  15.738  0.1502  0.4757 -0.0734
  796MPD2    C111780   3.312   3.977  15.853  0.5661 -0.4930 -0.5356
  796MPD2    C211781   3.313   4.112  15.842 -0.0261 -0.2488  0.2641
  796MPD2    C311782   3.274   4.182  15.726 -1.1763  0.5398 -0.0542
  796MPD2    C411783   3.237   4.108  15.621  0.6869 -0.3996 -0.4380
  796MPD2    C511784   3.234   3.973  15.635  0.1798 -0.6396 -0.3462
  796MPD2     H11785   3.357   4.165  15.925  2.2167 -2.1356  0.2960
  796MPD2    H111786   3.198   4.152  15.530  1.7055  0.4850 -0.4379
  796MPD2    H211787   3.259   3.799  15.744 -2.4912  0.7491 -1.6630
  796MPD2    H311788   3.198   3.909  15.555  0.7862  0.5181 -1.5582
  796MPD2     N11789   3.293   4.321  15.717  0.8175  0.1675 -0.2568
  796MPD2    H511790   3.336   4.369  15.796 -1.3625  1.6720  0.0257
  796MPD2    N111791   3.357   3.920  15.969  0.3252  0.5351 -0.2262
  796MPD2    H711792   3.387   3.980  16.045  1.1576  0.4116 -0.4502
  797MPD2     C11793   4.300   3.431  17.497  0.0636  0.2860  0.3117
  797MPD2    C111794   4.418   3.486  17.465 -0.1750 -0.0196 -0.3142
  797MPD2    C211795   4.417   3.576  17.360 -1.3072 -0.6835 -0.6901
  797MPD2    C311796   4.291   3.610  17.292  0.1958 -0.7807 -0.3574
  797MPD2    C411797   4.173   3.558  17.338 -0.4557 -0.5674  0.0268
  797MPD2    C511798   4.180   3.475  17.444 -0.0469  0.2076  0.3761
  797MPD2     H11799   4.505   3.628  17.325 -0.8800 -1.0435 -0.1472
  797MPD2    H111800   4.074   3.585  17.304 -0.6852 -0.6762  0.6104
  797MPD2    H211801   4.286   3.362  17.579  0.5873 -1.6984 -1.2505
  797MPD2    H311802   4.086   3.439  17.484 -0.2066 -0.2353 -0.3978
  797MPD2     N11803   4.292   3.695  17.177 -0.1456  0.1735  0.3785
  797MPD2    H511804   4.381   3.729  17.142  0.4392 -0.2243  1.4995
  797MPD2    N111805   4.542   3.458  17.524  0.7557  0.3063  0.2733
  797MPD2    H711806   4.624   3.508  17.491 -0.4222  2.3362  0.3761
  798MPD2     C11807   0.119   3.553  16.881 -0.7809  0.1416 -0.1137
  798MPD2    C111808   0.051   3.627  16.977 -0.0650  0.3372  0.3090
  798MPD2    C211809   0.088   3.615  17.109 -0.0547  0.5703  0.0616
  798MPD2    C311810   0.187   3.540  17.160  0.3072 -0.1157  0.0949
  798MPD2    C411811   0.261   3.473  17.063  0.1655  0.0487 -0.4422
  798MPD2    C511812   0.222   3.474  16.927 -0.1783 -0.5979 -0.0170
  798MPD2     H11813   0.028   3.661  17.187 -0.8993 -1.4047  0.5884
  798MPD2    H111814   0.341   3.404  17.088 -0.6504 -1.2834 -1.5069
  798MPD2    H211815   0.083   3.548  16.779  1.2491  1.8359 -0.8976
  798MPD2    H311816   0.265   3.414  16.848 -3.3094 -1.3962 -1.1055
  798MPD2     N11817   0.189   3.522  17.300  0.0187 -0.0953 -0.1862
  798MPD2    H511818   0.117   3.574  17.349 -0.8254 -0.8895 -0.5867
  798MPD2    N111819   4.672   3.684  16.937 -0.5860 -0.3459 -0.2695
  798MPD2    H711820   4.657   3.683  16.837 -0.2202  0.0858 -0.3245
  799MPD2     C11821   3.154   0.710  14.631  0.0778 -0.2343 -0.7084
  799MPD2    C111822   3.121   0.595  14.557  0.0107 -0.0799  0.0190
  799MPD2    C211823   3.063   0.612  14.434 -0.8211 -0.6397  0.7797
  799MPD2    C311824   3.035   0.737  14.383 -0.2756  0.3337  0.0639
  799MPD2    C411825   3.076   0.845  14.450 -0.0083  0.4310 -0.1706
  799MPD2    C511826   3.137   0.831  14.575  0.3526 -0.5286 -0.2199
  799MPD2     H11827   3.028   0.523  14.381 -1.2753  1.4789 -2.4903
  799MPD2    H111828   3.067   0.941  14.399 -1.3469 -1.3332 -3.2396
  799MPD2    H211829   3.199   0.699  14.730 -1.6734  1.8507  0.3217
  799MPD2    H311830   3.174   0.917  14.630  0.1990 -1.2063  0.9365
  799MPD2     N11831   2.990   0.751  14.245  0.1248 -0.0249  0.2935
  799MPD2    H511832   2.981   0.846  14.212 -1.0835  0.4775  2.0341
  799MPD2    N111833   3.122   0.468  14.623 -0.2857 -0.6403 -0.1463
  799MPD2    H711834   3.087   0.390  14.568  0.5025 -1.4679  0.5292
  800MPD2     C11835   3.962   1.741  14.593 -0.0619  0.4725 -0.1390
  800MPD2    C111836   4.069   1.744  14.502  0.1594 -0.3235  0.5407
  800MPD2    C211837   4.066   1.673  14.384 -0.1903  0.0326 -0.0037
  800MPD2    C311838   3.953   1.608  14.342 -0.0510  0.3153  0.8274
  800MPD2    C411839   3.850   1.607  14.437  0.1005 -0.5573 -0.1899
  800MPD2    C511840   3.861   1.662  14.565 -1.1184 -0.1651  0.4606
  800MPD2     H11841   4.155   1.674  14.321 -1.0722  0.7066 -1.2439
  800MPD2    H111842   3.755   1.556  14.421 -0.8866  1.7605 -1.6850
  800MPD2    H211843   3.963   1.801  14.683 -0.3483 -0.0491  0.2098
  800MPD2    H311844   3.767   1.671  14.619 -1.0855  2.8874  0.0153
  800MPD2     N11845   3.955   1.541  14.214  0.5077 -0.4713 -0.0289
  800MPD2    H511846   4.033   1.536  14.150  0.3318 -0.4482 -0.2418
  800MPD2    N111847   4.182   1.818  14.542  0.7805  0.1608 -0.0578
  800MPD2    H711848   4.175   1.855  14.636  2.0320 -0.3086  0.2336
  801MPD2     C11849   4.171   2.207  15.076 -0.5196 -0.3503  0.0443
  801MPD2    C111850   4.164   2.097  14.995  0.2136  0.3229 -0.3572
  801MPD2    C211851   4.059   2.011  14.995  0.6384 -0.3943  0.0803
  801MPD2    C311852   3.955   2.029  15.089  0.5503 -0.3639  1.0698
  801MPD2    C411853   3.961   2.142  15.167 -0.3341  0.0279  0.0457
  801MPD2    C511854   4.069   2.225  15.162 -1.3031 -0.8112 -0.2693
  801MPD2     H11855   4.068   1.914  14.948  1.2429  0.5432 -1.7411
  801MPD2    H111856   3.890   2.160  15.247  0.4537  0.9979  0.5242
  801MPD2    H211857   4.256   2.273  15.075  1.4067 -2.7904  1.9171
  801MPD2    H311858   4.073   2.317  15.220 -0.9540 -1.1142  0.1753
  801MPD2     N11859   3.848   1.943  15.097 -0.8762  0.3484 -0.9701
  801MPD2    H511860   3.782   1.956  15.173  0.1228 -0.3784  0.0367
  801MPD2    N111861   4.256   2.074  14.896  1.0149 -0.2121  0.7752
  801MPD2    H711862   4.232   1.987  14.850  1.2632  0.8573 -1.3384
  802MPD2     C11863   2.832   2.774   0.438  0.2027 -0.1702 -0.3586
  802MPD2    C111864   2.831   2.878   0.343 -0.3175 -0.6482 -0.1332
  802MPD2    C211865   2.948   2.930   0.297 -0.1180 -0.3382  0.1611
  802MPD2    C311866   3.076   2.891   0.345  0.0690  0.2168  0.6023
  802MPD2    C411867   3.067   2.787   0.435 -0.0233  0.7603 -0.6991
  802MPD2    C511868   2.953   2.725   0.482 -0.0684  0.1570  0.1634
  802MPD2     H11869   2.940   3.017   0.233 -1.9674 -1.8552 -1.6825
  802MPD2    H111870   3.165   2.756   0.469 -0.5153 -0.3895 -0.3378
  802MPD2    H211871   2.748   2.747   0.499  1.6957 -2.0121  0.8914
  802MPD2    H311872   2.965   2.660   0.567  1.2891  0.6482  0.3500
  802MPD2     N11873   3.194   2.946   0.294 -0.1650 -0.9252  0.1046
  802MPD2    H511874   3.184   3.013   0.219 -2.6375 -0.4662  0.8477
  802MPD2    N111875   2.708   2.931   0.298 -0.3564 -0.1155  0.0903
  802MPD2    H711876   2.703   3.011   0.237  1.3769  0.2729  0.4558
  803MPD2     C11877   4.254   0.843  11.787  0.5566  0.2951 -0.7559
  803MPD2    C111878   4.346   0.834  11.883  0.0048  0.2204  0.3094
  803MPD2    C211879   4.322   0.755  11.999  0.4114 -0.3429  0.1626
  803MPD2    C311880   4.204   0.682  12.016  0.0831 -0.4285  0.8504
  803MPD2    C411881   4.116   0.694  11.915  0.1653 -0.2783  0.1173
  803MPD2    C511882   4.139   0.772  11.802  0.4850 -0.5999 -0.3402
  803MPD2     H11883   4.410   0.760  12.062  0.8794  0.5283 -0.5722
  803MPD2    H111884   4.020   0.644  11.915 -0.4980  0.9881 -0.1345
  803MPD2    H211885   4.265   0.889  11.689  1.0443 -1.0865 -1.3588
  803MPD2    H311886   4.055   0.779  11.734 -0.2870 -0.4853  0.6212
  803MPD2     N11887   4.168   0.615  12.136  0.2187  0.1069  0.2537
  803MPD2    H511888   4.079   0.567  12.143  0.5863 -0.2872  2.1049
  803MPD2    N111889   4.481   0.888  11.867 -0.2723 -0.9498 -0.0162
  803MPD2    H711890   4.547   0.878  11.943 -0.4450  1.1867  0.3973
  804MPD2     C11891   3.837   2.412  16.741  0.2841 -0.0189 -0.5384
  804MPD2    C111892   3.752   2.374  16.838 -0.2521 -0.7422 -0.1020
  804MPD2    C211893   3.774   2.409  16.972 -0.1552  0.3274 -0.3495
  804MPD2    C311894   3.882   2.488  17.007 -0.3113  0.7953 -0.8919
  804MPD2    C411895   3.979   2.523  16.907  0.3491 -0.2378  0.5188
  804MPD2    C511896   3.952   2.477  16.782 -0.7676 -0.2189 -0.8007
  804MPD2     H11897   3.700   2.382  17.047 -0.4793  2.6984  0.1704
  804MPD2    H111898   4.064   2.587  16.928  1.0048 -0.7445 -0.5463
  804MPD2    H211899   3.828   2.373  16.640 -1.6002 -0.9247  0.0004
  804MPD2    H311900   4.013   2.517  16.702  0.6618 -0.4078  0.1913
  804MPD2     N11901   3.907   2.522  17.143  0.1431 -0.1581  0.2563
  804MPD2    H511902   3.826   2.501  17.200  0.1904  1.4103  0.8982
  804MPD2    N111903   3.641   2.290  16.814  0.0369  0.1016  0.2628
  804MPD2    H711904   3.576   2.277  16.891 -0.3436  2.2340  0.3020
  805MPD2     C11905   2.720   0.830  15.517  0.1598  0.6743 -0.2865
  805MPD2    C111906   2.812   0.793  15.415 -0.1975  1.0657 -0.0906
  805MPD2    C211907   2.942   0.792  15.441  0.4936 -0.1085  0.0066
  805MPD2    C311908   2.994   0.838  15.555  0.0916  0.7196  0.7118
  805MPD2    C411909   2.908   0.883  15.657  0.2292  0.2460 -0.4164
  805MPD2    C511910   2.773   0.877  15.634  0.1146  0.0430 -0.4441
  805MPD2     H11911   3.009   0.752  15.366 -0.0028  0.4652 -0.7458
  805MPD2    H111912   2.937   0.929  15.751 -0.7779  3.0615 -1.4775
  805MPD2    H211913   2.612   0.820  15.511  0.2648 -0.6704  0.2333
  805MPD2    H311914   2.706   0.918  15.709  0.2401 -1.1301  0.3092
  805MPD2     N11915   3.131   0.829  15.567  0.2643 -0.1746 -1.0125
  805MPD2    H511916   3.181   0.795  15.485  1.6667  1.2107 -0.7347
  805MPD2    N111917   2.781   0.740  15.285 -0.3885  0.1144 -0.0824
  805MPD2    H711918   2.850   0.722  15.214 -0.3082  2.3035 -0.5767
  806MPD2     C11919   3.588   4.443   0.062  0.2058 -0.5238  0.1885
  806MPD2    C111920   3.510   4.549   0.090  0.3510  0.3069  0.6582
  806MPD2    C211921   3.498   4.650  17.734  0.2667 -0.1003 -0.6002
  806MPD2    C311922   3.554   4.636  17.611  0.1696  0.1049  0.4253
  806MPD2    C411923   3.634   4.526  17.576 -0.2467  0.5186 -0.1278
  806MPD2    C511924   3.639   4.429  17.675  0.0957  0.3064  0.4961
  806MPD2     H11925   3.432   0.000   0.004  0.4618 -0.1796  1.3958
  806MPD2    H111926   3.691   4.513  17.485 -0.1879  1.4671 -0.2270
  806MPD2    H211927   3.608   4.365   0.135  1.3605  0.6158  1.0909
  806MPD2    H311928   3.686   4.335  17.651  0.7135  0.4105  1.3112
  806MPD2     N11929   3.521   0.003  17.520  0.4391 -0.0211 -0.3901
  806MPD2    H511930   3.476   0.085  17.559  1.3968  0.7956 -0.9813
  806MPD2    N111931   3.447   4.555   0.216 -0.4757  0.4787  0.2965
  806MPD2    H711932   3.454   4.472   0.275 -2.2149 -0.8545 -1.3640
  807MPD2     C11933   3.113   0.345   0.851  0.5793  0.4311 -0.0504
  807MPD2    C111934   3.099   0.210   0.879  0.3200  0.1428 -0.4950
  807MPD2    C211935   3.046   0.176   1.005  0.3492 -0.7739  0.1797
  807MPD2    C311936   3.011   0.272   1.100 -0.9015  0.7510  0.2227
  807MPD2    C411937   3.026   0.406   1.070 -0.5769 -0.5195  0.3582
  807MPD2    C511938   3.087   0.436   0.950  0.3758  0.7296  0.7184
  807MPD2     H11939   3.024   0.074   1.034  2.5254 -0.6396  2.3520
  807MPD2    H111940   3.002   0.482   1.144  2.0486  0.1450  0.5169
  807MPD2    H211941   3.144   0.383   0.754 -1.4084  0.2951 -0.7500
  807MPD2    H311942   3.107   0.541   0.928 -0.0093  1.0293  1.7673
  807MPD2     N11943   2.963   0.216   1.222  0.5715  0.4696 -0.5059
  807MPD2    H511944   2.953   0.116   1.236  1.2418  0.3855 -0.6381
  807MPD2    N111945   3.143   0.102   0.790 -0.0807  0.3104  0.8161
  807MPD2    H711946   3.126   0.012   0.833 -1.5465 -1.0432 -2.6103
  808MPD2     C11947   3.382   1.974   9.437 -0.9092 -0.3185 -0.3664
  808MPD2    C111948   3.453   1.875   9.499  0.1099  0.2235 -0.1209
  808MPD2    C211949   3.567   1.918   9.564 -0.5882 -0.1061 -0.4663
  808MPD2    C311950   3.599   2.056   9.577  0.2415 -0.4771  0.3462
  808MPD2    C411951   3.526   2.151   9.504 -0.2797  0.7403 -0.0957
  808MPD2    C511952   3.416   2.106   9.441 -0.2678  0.0392  0.1925
  808MPD2     H11953   3.624   1.841   9.615  1.8174  0.7556 -1.8549
  808MPD2    H111954   3.541   2.259   9.511  1.8239  0.4189  0.3771
  808MPD2    H211955   3.299   1.950   9.371 -1.7962 -1.0563  1.0320
  808MPD2    H311956   3.348   2.184   9.411 -0.9979 -0.2797  1.0338
  808MPD2     N11957   3.719   2.097   9.643 -0.1902  0.6281 -0.2974
  808MPD2    H511958   3.748   2.190   9.614  1.9074  1.2647  3.8997
  808MPD2    N111959   3.423   1.733   9.500  0.3119  0.1617  0.1810
  808MPD2    H711960   3.487   1.671   9.548 -0.0947  0.2910  0.8908
  809MPD2     C11961   4.554   1.683  10.091  0.0032  0.8904 -0.1746
  809MPD2    C111962   4.589   1.784  10.003 -0.5831 -0.2306 -0.1267
  809MPD2    C211963   4.496   1.852   9.932 -0.0591 -0.1634 -0.4605
  809MPD2    C311964   4.362   1.816   9.949  0.9131 -0.3660  0.7579
  809MPD2    C411965   4.326   1.723  10.035 -0.2278 -0.8465  0.0814
  809MPD2    C511966   4.424   1.665  10.112  0.0287 -0.5307  0.0870
  809MPD2     H11967   4.534   1.929   9.865  0.1074  0.2921  0.1668
  809MPD2    H111968   4.225   1.698  10.063 -0.4044 -2.1052 -1.6960
  809MPD2    H211969   4.623   1.617  10.141 -1.2536 -0.0889  0.2705
  809MPD2    H311970   4.393   1.584  10.177 -0.8245  0.2761  0.6870
  809MPD2     N11971   4.255   1.893   9.884 -0.0650  0.9583 -0.3609
  809MPD2    H511972   4.158   1.873   9.905  0.1729 -0.5579 -0.7597
  809MPD2    N111973   4.723   1.822   9.991  1.0098  0.2596  1.1169
  809MPD2    H711974   0.008   1.896   9.924  2.1818 -0.2691  0.8941
  810MPD2     C11975   3.244   0.458  10.745  0.0884  0.5690  0.1592
  810MPD2    C111976   3.198   0.546  10.658  0.5279 -0.3967  0.3261
  810MPD2    C211977   3.207   0.679  10.684 -0.1829 -0.2147  0.1746
  810MPD2    C311978   3.278   0.722  10.797 -0.2071 -0.4364 -0.1543
  810MPD2    C411979   3.339   0.626  10.875 -0.8136 -0.0015 -0.7192
  810MPD2    C511980   3.317   0.495  10.850 -0.1185 -0.0964  0.2506
  810MPD2     H11981   3.155   0.744  10.614  2.2997  1.4325 -0.1474
  810MPD2    H111982   3.389   0.651  10.968 -0.5030 -1.1783 -0.5648
  810MPD2    H211983   3.215   0.354  10.732  1.6225  0.0123  1.1100
  810MPD2    H311984   3.367   0.422  10.912 -0.3704  0.3247  0.9470
  810MPD2     N11985   3.278   0.857  10.843 -0.0557 -0.3705  0.3037
  810MPD2    H511986   3.322   0.871  10.933  0.3009  0.9475 -0.0714
  810MPD2    N111987   3.144   0.496  10.536  0.1562 -0.1760 -0.4388
  810MPD2    H711988   3.098   0.405  10.537 -0.0344 -0.0777 -0.3707
  811MPD2     C11989   2.832   1.010   9.966  0.4090  0.1388 -0.0681
  811MPD2    C111990   2.892   1.007  10.092 -0.0897 -0.6540  0.0055
  811MPD2    C211991   2.953   1.123  10.137 -0.3613  0.5418  0.7721
  811MPD2    C311992   2.961   1.240  10.063  0.2073 -0.0631 -1.0801
  811MPD2    C411993   2.900   1.238   9.942  0.4095 -0.6283 -0.6028
  811MPD2    C511994   2.834   1.127   9.900 -0.6584  0.2541  0.2646
  811MPD2     H11995   3.012   1.120  10.228  1.0845  2.4094 -0.1052
  811MPD2    H111996   2.912   1.323   9.876  2.1112  0.1072  0.6634
  811MPD2    H211997   2.780   0.927   9.919  0.6589  0.5666 -1.0983
  811MPD2    H311998   2.799   1.121   9.798  0.0929 -1.3970  0.1079
  811MPD2     N11999   3.026   1.353  10.125  0.3575 -0.7391 -0.1209
  811MPD2    H512000   3.072   1.325  10.211  0.4620  3.0959  1.0785
  811MPD2    N112001   2.880   0.892  10.167 -0.5725 -0.3866  0.3029
  811MPD2    H712002   2.874   0.801  10.123 -1.3539 -1.5644  2.8166
  812MPD2     C12003   1.718   0.784  12.143  0.2069 -0.9865 -0.3420
  812MPD2    C112004   1.817   0.885  12.143 -0.2171 -0.1843  0.8122
  812MPD2    C212005   1.905   0.897  12.249 -0.5273 -0.1575 -0.0207
  812MPD2    C312006   1.907   0.804  12.353 -0.5824 -0.5339 -0.5859
  812MPD2    C412007   1.811   0.706  12.359 -0.0479 -0.0839 -0.1393
  812MPD2    C512008   1.721   0.697  12.255 -0.5285 -0.0822  0.0928
  812MPD2     H12009   1.984   0.971  12.245 -0.8304  0.1902  0.4474
  812MPD2    H112010   1.818   0.627  12.433 -0.3827  0.1917  0.1798
  812MPD2    H212011   1.654   0.769  12.057 -0.0816 -1.1296 -0.1048
  812MPD2    H312012   1.650   0.616  12.255 -0.0478 -0.5058 -0.0441
  812MPD2     N12013   2.007   0.802  12.454  0.5446 -0.0193 -0.3195
  812MPD2    H512014   1.992   0.741  12.534 -0.2615  1.3838  0.5881
  812MPD2    N112015   1.795   0.976  12.041  0.3557  0.3944 -0.2955
  812MPD2    H712016   1.702   0.972  12.000 -0.3380 -0.1421  1.3290
  813MPD2     C12017   1.190   2.736  12.546 -0.2204 -0.3211  0.3635
  813MPD2    C112018   1.270   2.837  12.611 -0.3257 -0.0961 -0.8489
  813MPD2    C212019   1.218   2.897  12.725  0.0073  0.6408  0.4086
  813MPD2    C312020   1.094   2.853  12.779 -0.4474  0.8750 -0.6768
  813MPD2    C412021   1.023   2.750  12.712  0.1457  0.7792 -0.5709
  813MPD2    C512022   1.067   2.701  12.593  0.0130  0.4296 -0.3592
  813MPD2     H12023   1.264   2.985  12.769  1.6099 -0.5126  1.0390
  813MPD2    H112024   0.924   2.717  12.741  1.1519  0.5675  2.6410
  813MPD2    H212025   1.225   2.689  12.455 -0.9936  1.2977 -0.7722
  813MPD2    H312026   1.020   2.613  12.551 -1.4074  2.0151 -2.1195
  813MPD2     N12027   1.051   2.909  12.906 -0.8143 -0.0779  0.6596
  813MPD2    H512028   1.111   2.978  12.949 -1.7361  0.9453  0.2998
  813MPD2    N112029   1.397   2.888  12.569  0.2870  0.2949  0.3154
  813MPD2    H712030   1.431   2.961  12.631 -1.3005  2.5223 -1.4358
  814MPD2     C12031   1.786   4.209  12.442  0.5185 -0.6089 -0.3903
  814MPD2    C112032   1.849   4.266  12.339 -0.3606  0.3233  0.9468
  814MPD2    C212033   1.945   4.354  12.366  0.2971  0.1744 -0.1405
  814MPD2    C312034   1.982   4.390  12.496  0.1160  0.3188  0.1652
  814MPD2    C412035   1.915   4.337  12.604 -0.4262 -0.2955  0.9127
  814MPD2    C512036   1.816   4.242  12.574 -0.7274 -0.2888 -0.2851
  814MPD2     H12037   1.993   4.402  12.281  0.0706  1.2615  0.3422
  814MPD2    H112038   1.943   4.354  12.707  2.1475 -0.7785  0.2971
  814MPD2    H212039   1.699   4.145  12.434 -0.5835  0.6856  1.3242
  814MPD2    H312040   1.766   4.186  12.652  1.5290 -1.0978  0.5897
  814MPD2     N12041   2.074   4.490  12.524 -0.0842 -0.4454 -0.5664
  814MPD2    H512042   2.096   4.517  12.619  0.4824  0.0288 -0.8310
  814MPD2    N112043   1.837   4.218  12.210  0.9194  0.5795  0.3364
  814MPD2    H712044   1.897   4.255  12.138  2.7180  1.8185  2.4781
  815MPD2     C12045   2.012   1.931  11.837 -0.4150 -0.6583 -0.0928
  815MPD2    C112046   1.958   2.001  11.737  0.7309  0.3053 -0.0977
  815MPD2    C212047   1.827   2.054  11.745  0.1599 -0.0604  0.7207
  815MPD2    C312048   1.760   2.044  11.865 -0.3696  0.1435 -0.1190
  815MPD2    C412049   1.817   1.973  11.963  0.7867  0.1196 -0.6799
  815MPD2    C512050   1.943   1.916  11.953 -0.1152 -0.7464  0.0297
  815MPD2     H12051   1.790   2.119  11.667  1.7642 -0.1136 -0.1033
  815MPD2    H112052   1.764   1.951  12.055  0.2948 -1.7126 -1.4069
  815MPD2    H212053   2.110   1.885  11.833 -1.3038 -2.5357 -0.3458
  815MPD2    H312054   1.973   1.851  12.034 -1.3626  0.8014  1.7524
  815MPD2     N12055   1.631   2.101  11.879 -0.0052  0.3610  0.5383
  815MPD2    H512056   1.583   2.127  11.794  1.1531  0.7819  0.0149
  815MPD2    N112057   2.040   2.019  11.627  0.4094  0.5876 -0.0860
  815MPD2    H712058   2.137   1.990  11.637  0.4281  1.9896  4.0424
  816MPD2     C12059   2.893   2.270  17.378  0.6894 -0.6666  0.5670
  816MPD2    C112060   2.761   2.267  17.329 -0.0080 -0.2487  1.0642
  816MPD2    C212061   2.742   2.184  17.220 -0.4656 -0.1524 -0.0675
  816MPD2    C312062   2.846   2.119  17.160 -0.0190  0.2978 -0.1431
  816MPD2    C412063   2.974   2.132  17.208  0.6244  0.4294 -1.1266
  816MPD2    C512064   3.001   2.214  17.317 -0.2188 -0.5016 -0.7057
  816MPD2     H12065   2.643   2.170  17.178  0.3005 -1.8335 -1.2812
  816MPD2    H112066   3.052   2.080  17.154  2.3659  1.0088  0.8632
  816MPD2    H212067   2.920   2.328  17.465 -1.5120  2.0130 -0.5292
  816MPD2    H312068   3.097   2.230  17.364 -1.4463 -0.1182  1.6472
  816MPD2     N12069   2.812   2.038  17.050  0.2498  0.7137 -0.6136
  816MPD2    H512070   2.714   2.046  17.024  0.4620 -0.6325 -1.8051
  816MPD2    N112071   2.658   2.332  17.403  0.2165  0.0109 -0.1404
  816MPD2    H712072   2.679   2.364  17.497  0.2584 -0.2623 -0.0574
  817MPD2     C12073   2.120   3.933   9.844 -0.0174 -0.0396 -0.3575
  817MPD2    C112074   2.109   3.900   9.713  0.3208  0.4415 -0.5089
  817MPD2    C212075   2.022   3.967   9.629  0.2276 -0.9535 -0.2694
  817MPD2    C312076   1.946   4.071   9.692  0.1090 -0.5825 -1.3571
  817MPD2    C412077   1.949   4.088   9.828  0.1326  0.4711  0.2141
  817MPD2    C512078   2.044   4.027   9.910  0.7458 -0.3052  0.0412
  817MPD2     H12079   2.002   3.938   9.526  2.4670  1.3629 -1.3946
  817MPD2    H112080   1.883   4.158   9.877 -0.7342 -0.9166  1.0400
  817MPD2    H212081   2.190   3.882   9.909 -0.9679 -1.4648 -0.4683
  817MPD2    H312082   2.046   4.043  10.017 -0.5603  0.5336 -0.0572
  817MPD2     N12083   1.876   4.159   9.610 -0.0340  0.2097  0.1173
  817MPD2    H512084   1.885   4.136   9.511 -2.5781 -0.4560  0.0629
  817MPD2    N112085   2.191   3.799   9.653 -0.0224 -0.1267  0.0788
  817MPD2    H712086   2.155   3.758   9.568  0.0434  1.0415 -0.5065
  818MPD2     C12087   0.861   4.250   9.820 -1.0081  0.9050  0.2307
  818MPD2    C112088   0.866   4.123   9.867 -0.2824 -0.4458  0.1884
  818MPD2    C212089   0.943   4.024   9.801 -1.2133  0.0080  0.5463
  818MPD2    C312090   0.998   4.052   9.677  0.2393  0.1323 -0.2942
  818MPD2    C412091   0.977   4.177   9.625  0.1705  0.3894 -0.1441
  818MPD2    C512092   0.915   4.275   9.699 -0.0475  0.0925 -0.3398
  818MPD2     H12093   0.946   3.923   9.838  0.4330 -0.6357 -1.3914
  818MPD2    H112094   1.018   4.200   9.527 -0.7613  1.2465 -0.3243
  818MPD2    H212095   0.796   4.329   9.858 -2.3972  0.2878 -0.8510
  818MPD2    H312096   0.903   4.373   9.655 -3.5962  0.0317  0.5075
  818MPD2     N12097   1.075   3.961   9.604 -0.4107 -0.2503  0.2491
  818MPD2    H512098   1.100   3.994   9.511  2.1909  0.2279  1.1466
  818MPD2    N112099   0.808   4.085   9.993  0.2231  0.8259 -0.3198
  818MPD2    H712100   0.814   3.987  10.019  2.0813  0.4079 -2.3410
  819MPD2     C12101   3.688   0.229  15.248  1.1306 -0.2676 -0.2066
  819MPD2    C112102   3.668   0.114  15.319 -0.0806  0.2995  0.3301
  819MPD2    C212103   3.771   0.078  15.404  0.4804 -0.4637  0.3814
  819MPD2    C312104   3.881   0.155  15.427 -0.0444 -0.7657 -0.0664
  819MPD2    C412105   3.891   0.265  15.356 -0.6357 -0.2654 -0.1650
  819MPD2    C512106   3.799   0.308  15.271 -0.1491  0.3062  0.1156
  819MPD2     H12107   3.766   4.723  15.463 -0.8266 -0.6867 -0.0867
  819MPD2    H112108   3.982   0.324  15.363 -0.9878  0.1774  0.7476
  819MPD2    H212109   3.620   0.258  15.168  0.2049 -2.3928 -0.1676
  819MPD2    H312110   3.827   0.400  15.220  0.8779 -0.1760 -0.1983
  819MPD2     N12111   3.979   0.101  15.508 -0.1191 -0.5428 -0.9089
  819MPD2    H512112   3.963   0.009  15.548 -1.3012 -0.8986 -2.1943
  819MPD2    N112113   3.546   0.048  15.286  0.1293  0.0623  0.1870
  819MPD2    H712114   3.494   0.089  15.209 -1.0419  1.6194  1.8016
  820MPD2     C12115   2.767   0.141  14.727  0.1311 -0.1318 -0.0049
  820MPD2    C112116   2.821   0.220  14.820 -0.2676  0.4037 -0.0812
  820MPD2    C212117   2.906   0.161  14.916  0.6492  0.2386  0.0862
  820MPD2    C312118   2.948   0.026  14.900 -0.6485  0.1300  0.2520
  820MPD2    C412119   2.891   4.684  14.801  0.4611 -0.1425  0.4725
  820MPD2    C512120   2.800   0.010  14.710  0.0096 -0.2659  0.8342
  820MPD2     H12121   2.947   0.229  14.990  1.9059 -0.2160 -0.2035
  820MPD2    H112122   2.917   4.581  14.776 -0.8660 -0.4571  0.3861
  820MPD2    H212123   2.699   0.175  14.650 -0.5081 -1.7947 -0.1792
  820MPD2    H312124   2.758   4.687  14.629  0.8292 -0.6642  0.6940
  820MPD2     N12125   3.040   4.703  14.986 -1.4104 -0.1425  0.6319
  820MPD2    H512126   3.071   4.607  14.975 -0.7282  0.3598 -1.6918
  820MPD2    N112127   2.780   0.356  14.816 -0.1301  0.0073 -0.4869
  820MPD2    H712128   2.692   0.367  14.767 -0.4114 -1.1869 -0.2488
  821MPD2     C12129   3.766   1.809  13.544  0.7708 -0.0050 -0.5110
  821MPD2    C112130   3.864   1.742  13.618 -0.6950 -0.1126  0.3199
  821MPD2    C212131   3.993   1.782  13.599  0.1089  0.7264 -0.5141
  821MPD2    C312132   4.030   1.881  13.510  0.4808  0.2373  0.1976
  821MPD2    C412133   3.935   1.958  13.451  0.1492  0.2545 -0.1338
  821MPD2    C512134   3.809   1.913  13.465  0.0931  0.2322  0.4603
  821MPD2     H12135   4.069   1.723  13.648  0.1842  2.1216  1.0818
  821MPD2    H112136   3.954   2.038  13.380  2.3122 -0.5869 -0.5147
  821MPD2    H212137   3.659   1.792  13.555  0.9731 -0.7248  0.2623
  821MPD2    H312138   3.736   1.949  13.394 -0.6547 -0.9426  0.6433
  821MPD2     N12139   4.169   1.899  13.484 -0.2201 -0.0890  0.0972
  821MPD2    H512140   4.191   1.977  13.423  1.1842 -0.9909 -0.5316
  821MPD2    N112141   3.849   1.635  13.703  0.5082  0.5350 -0.4681
  821MPD2    H712142   3.934   1.589  13.735  0.5456  0.7686 -0.2226
  822MPD2     C12143   4.515   1.711  16.060  0.1776 -0.1088 -0.0235
  822MPD2    C112144   4.483   1.659  16.184  0.5739  0.2561  0.2735
  822MPD2    C212145   4.383   1.715  16.252  0.3856 -0.6282  0.5872
  822MPD2    C312146   4.317   1.831  16.208 -0.6443 -0.6066  0.1477
  822MPD2    C412147   4.348   1.876  16.082 -1.2577  0.4448 -0.4197
  822MPD2    C512148   4.450   1.822  16.008  0.0419  0.1427  0.8924
  822MPD2     H12149   4.342   1.668  16.341 -2.1680  1.8942  0.7354
  822MPD2    H112150   4.303   1.960  16.032  1.1959  1.1966 -1.3726
  822MPD2    H212151   4.586   1.661  15.995 -0.4263 -0.7611 -0.1804
  822MPD2    H312152   4.468   1.849  15.904 -2.9427 -0.5005  0.2305
  822MPD2     N12153   4.234   1.905  16.296 -0.2942 -0.3866 -0.4068
  822MPD2    H512154   4.204   1.863  16.384 -0.3765  0.3307 -0.0951
  822MPD2    N112155   4.549   1.554  16.252  0.0206  0.6960  0.1007
  822MPD2    H712156   4.526   1.546  16.350 -0.1362  2.3955  0.2113
  823MPD2     C12157   3.769   1.972  16.988 -0.6303 -0.6250 -0.4137
  823MPD2    C112158   3.807   1.908  16.869 -0.2556 -0.2449 -0.2638
  823MPD2    C212159   3.770   1.774  16.854  0.4621  0.4587  0.5879
  823MPD2    C312160   3.682   1.717  16.940  0.3017 -0.3006  0.3937
  823MPD2    C412161   3.635   1.790  17.046  0.3340 -0.7332 -0.0384
  823MPD2    C512162   3.676   1.918  17.065 -0.6846  0.2111 -0.0175
  823MPD2     H12163   3.819   1.721  16.774 -1.0462  1.7605 -1.1949
  823MPD2    H112164   3.573   1.751  17.126 -0.9908  0.8901 -0.2906
  823MPD2    H212165   3.803   2.073  17.012 -0.0201 -1.1198  0.7984
  823MPD2    H312166   3.653   1.971  17.157 -0.6388 -0.6421  0.4786
  823MPD2     N12167   3.646   1.584  16.945  0.0674  0.8005  0.1971
  823MPD2    H512168   3.571   1.545  17.001 -0.2242  0.1746 -0.6223
  823MPD2    N112169   3.898   1.972  16.787  0.2643  0.4556  0.5003
  823MPD2    H712170   3.923   2.068  16.809  0.3183  0.4736  0.3608
  824MPD2     C12171   0.249   0.829  16.185 -0.4475 -0.0651 -0.2813
  824MPD2    C112172   0.259   0.957  16.138  0.1637 -0.8781 -0.1894
  824MPD2    C212173   0.360   0.988  16.046  0.3068 -0.0097  0.6357
  824MPD2    C312174   0.449   0.894  16.011  0.1547 -0.8718  0.6483
  824MPD2    C412175   0.430   0.765  16.054  0.4872 -0.1179 -0.2713
  824MPD2    C512176   0.327   0.732  16.131  0.1714  0.1335 -0.3134
  824MPD2     H12177   0.375   1.090  16.013  1.4132  0.6317  3.1422
  824MPD2    H112178   0.485   0.676  16.026  1.6949  0.5809 -0.1203
  824MPD2    H212179   0.180   0.803  16.265 -0.1613  0.0362 -0.0051
  824MPD2    H312180   0.312   0.626  16.149  0.1037  0.2172  0.1187
  824MPD2     N12181   0.554   0.936  15.925  0.4260  0.2423 -0.3580
  824MPD2    H512182   0.549   1.030  15.887 -1.9571 -0.2574 -1.2492
  824MPD2    N112183   0.195   1.067  16.198 -0.5032 -0.4675 -0.1253
  824MPD2    H712184   0.217   1.164  16.177  3.1974 -1.2470  0.1768
  825MPD2     C12185   1.003   1.384  15.376  0.4143 -0.2564 -0.5789
  825MPD2    C112186   0.930   1.375  15.492 -0.8176  0.0235 -0.6490
  825MPD2    C212187   0.879   1.493  15.547 -0.2791 -0.5016 -0.3978
  825MPD2    C312188   0.921   1.612  15.500  0.4283 -0.1428  0.2471
  825MPD2    C412189   0.983   1.618  15.372  0.1563 -1.0498  0.0348
  825MPD2    C512190   1.019   1.505  15.313  0.2963 -0.5511  0.4901
  825MPD2     H12191   0.817   1.484  15.635  1.7479  0.7368  1.1695
  825MPD2    H112192   1.007   1.711  15.322  0.1477 -1.3606 -0.5424
  825MPD2    H212193   1.049   1.294  15.337  2.9022  1.1924 -1.0459
  825MPD2    H312194   1.069   1.508  15.218 -1.8742 -2.2944 -0.7175
  825MPD2     N12195   0.891   1.731  15.562 -0.7643 -0.0002 -0.4908
  825MPD2    H512196   0.918   1.821  15.524 -2.6951  0.5997 -0.4383
  825MPD2    N112197   0.907   1.241  15.533  0.6544 -0.1711  0.3259
  825MPD2    H712198   0.950   1.164  15.483  0.4963 -0.2002  0.2373
  826MPD2     C12199   0.865   0.603  13.648 -0.1439 -0.4617  0.7672
  826MPD2    C112200   0.776   0.628  13.548  0.5139  0.1819  0.2353
  826MPD2    C212201   0.700   0.742  13.552 -0.0051  1.2965 -0.4705
  826MPD2    C312202   0.713   0.828  13.658 -0.0686  0.0388 -0.6454
  826MPD2    C412203   0.797   0.799  13.761 -0.1394 -0.0826 -0.8213
  826MPD2    C512204   0.870   0.680  13.757  0.9314  0.3463  1.5002
  826MPD2     H12205   0.628   0.767  13.474 -3.9376 -3.0065  1.7326
  826MPD2    H112206   0.815   0.864  13.846  0.6445 -1.2905 -0.0752
  826MPD2    H212207   0.915   0.507  13.655 -0.4317 -0.5170  2.0947
  826MPD2    H312208   0.932   0.649  13.840 -1.1194 -1.1406  2.4962
  826MPD2     N12209   0.622   0.935  13.682 -0.2273 -0.0788  0.2639
  826MPD2    H512210   0.628   0.981  13.772  1.3892 -1.9783  1.1203
  826MPD2    N112211   0.772   0.533  13.439  0.3590  0.0156  0.1508
  826MPD2    H712212   0.809   0.439  13.448  0.7024 -0.0520 -1.8772
  827MPD2     C12213   1.579   2.812   9.879  1.1314 -0.3351  0.1770
  827MPD2    C112214   1.503   2.704   9.911 -0.0079  0.0012  0.0754
  827MPD2    C212215   1.389   2.669   9.838 -0.2160 -0.5369 -0.4017
  827MPD2    C312216   1.342   2.752   9.739 -0.7826 -1.2335 -0.0757
  827MPD2    C412217   1.409   2.870   9.716  0.5310  0.0993 -0.0546
  827MPD2    C512218   1.524   2.900   9.789 -0.4167 -0.0003  0.5926
  827MPD2     H12219   1.342   2.571   9.847  1.0621 -0.6430  4.8127
  827MPD2    H112220   1.369   2.934   9.639 -0.4334  1.2755  1.4311
  827MPD2    H212221   1.669   2.834   9.936  1.1899  1.2871 -0.5464
  827MPD2    H312222   1.573   2.996   9.776 -0.9249  0.0549 -0.8897
  827MPD2     N12223   1.232   2.707   9.660 -0.2911  0.2001 -0.1414
  827MPD2    H512224   1.183   2.627   9.700 -1.2423  2.1163  2.5687
  827MPD2    N112225   1.538   2.636  10.029  0.1837 -0.4545  0.5547
  827MPD2    H712226   1.608   2.676  10.090 -0.0249  0.4954  0.1642
  828MPD2     C12227   4.588   1.550  12.842  0.5057 -0.6150  0.5891
  828MPD2    C112228   4.555   1.652  12.752 -0.8362 -0.1987 -0.1742
  828MPD2    C212229   4.652   1.686  12.659  0.0549 -0.6294  0.4474
  828MPD2    C312230   0.047   1.652  12.674 -0.2810 -0.1006  0.4763
  828MPD2    C412231   0.078   1.553  12.763  0.2082  0.5849  0.3051
  828MPD2    C512232   4.718   1.492  12.838  0.6625 -0.0189  0.4069
  828MPD2     H12233   4.621   1.754  12.581 -2.1676 -1.8328  0.2722
  828MPD2    H112234   0.175   1.505  12.764  0.4292  1.0228 -0.0042
  828MPD2    H212235   4.514   1.504  12.907 -0.1731  1.2140  1.1007
  828MPD2    H312236   0.007   1.409  12.903 -0.6496 -0.4554  0.3561
  828MPD2     N12237   0.142   1.698  12.585 -0.8467  0.3693 -0.0309
  828MPD2    H512238   0.218   1.637  12.557 -0.6351  0.3259  0.6283
  828MPD2    N112239   4.422   1.713  12.748 -0.2921  0.5701  0.6321
  828MPD2    H712240   4.402   1.788  12.682 -2.8859 -1.2913 -0.7327
  829MPD2     C12241   4.251   2.509  12.488  0.5933 -0.5612 -0.1570
  829MPD2    C112242   4.128   2.467  12.530 -0.2375 -0.3500  0.7399
  829MPD2    C212243   4.123   2.352  12.615  0.3157  1.0640 -0.0855
  829MPD2    C312244   4.235   2.279  12.647 -0.0172  0.2162  0.2400
  829MPD2    C412245   4.353   2.315  12.593 -0.1149  0.3061  0.0841
  829MPD2    C512246   4.364   2.431  12.513  0.4960 -0.0567  0.3397
  829MPD2     H12247   4.030   2.306  12.644 -0.6270  2.9793 -0.0466
  829MPD2    H112248   4.440   2.260  12.625 -1.2525 -0.5469  1.7118
  829MPD2    H212249   4.262   2.596  12.424 -0.9963 -2.1492 -2.6249
  829MPD2    H312250   4.460   2.460  12.471 -0.6045  0.2946 -1.9400
  829MPD2     N12251   4.231   2.170  12.731 -0.1578  0.7725 -0.0782
  829MPD2    H512252   4.307   2.103  12.734  0.1800  1.1185 -0.8135
  829MPD2    N112253   4.022   2.542  12.485  0.0578 -0.1932  0.1475
  829MPD2    H712254   4.048   2.609  12.414  0.6847  1.3675  1.8440
  830MPD2     C12255   4.713   0.257  15.316 -0.3006  0.6368  0.3449
  830MPD2    C112256   4.694   0.165  15.419  0.3039 -1.1674 -0.5582
  830MPD2    C212257   0.051   0.170  15.524 -0.0421  0.7510 -0.7088
  830MPD2    C312258   0.161   0.251  15.513  0.7426  0.2964 -0.2867
  830MPD2    C412259   0.182   0.333  15.404  0.6501  0.3032 -0.7105
  830MPD2    C512260   0.088   0.334  15.307 -0.5347 -0.3615 -0.1000
  830MPD2     H12261   0.051   0.095  15.602  0.1231 -0.4066 -1.8171
  830MPD2    H112262   0.271   0.394  15.392  2.2076 -1.6425  0.9390
  830MPD2    H212263   4.648   0.258  15.229 -0.6325  0.9918  0.5946
  830MPD2    H312264   0.103   0.388  15.215 -5.1313 -1.0682 -1.2923
  830MPD2     N12265   0.248   0.261  15.620 -0.6249 -0.2362  0.0345
  830MPD2    H512266   0.321   0.329  15.602  1.6886 -3.2522 -1.9858
  830MPD2    N112267   4.576   0.084  15.431 -0.0966  0.1095 -0.5616
  830MPD2    H712268   4.512   0.110  15.356 -0.6638  0.4143  0.0250
  831MPD2     C12269   4.413   1.992  16.690 -0.1393  0.3869  0.4725
  831MPD2    C112270   4.459   1.913  16.586 -0.3469 -0.4305 -0.0519
  831MPD2    C212271   4.432   1.773  16.590  0.3504 -0.1384 -0.1691
  831MPD2    C312272   4.334   1.728  16.679  0.1400 -0.4833  0.0274
  831MPD2    C412273   4.289   1.813  16.779  0.5860  0.1419  0.5784
  831MPD2    C512274   4.331   1.949  16.787  0.2957  0.2030  0.4517
  831MPD2     H12275   4.465   1.717  16.503 -0.2720  0.8985 -1.0842
  831MPD2    H112276   4.208   1.782  16.844 -1.1189  0.9496 -1.1605
  831MPD2    H212277   4.428   2.099  16.681  0.1204  0.3984  1.0460
  831MPD2    H312278   4.293   2.028  16.851  1.3371  1.2443 -0.2241
  831MPD2     N12279   4.283   1.599  16.669  0.1043 -0.5601  0.2100
  831MPD2    H512280   4.200   1.588  16.727 -1.1995  1.0142 -1.3562
  831MPD2    N112281   4.536   1.958  16.473  0.3886  0.3424 -0.4239
  831MPD2    H712282   4.525   2.056  16.448 -0.2760 -0.2560 -2.4342
  832MPD2     C12283   3.064   3.049  17.561  0.3699 -0.5443 -0.0516
  832MPD2    C112284   3.039   3.166  17.489 -0.2114 -0.1345 -0.4448
  832MPD2    C212285   2.921   3.162  17.420  0.0402  0.1072  0.6055
  832MPD2    C312286   2.835   3.052  17.411 -0.2958  0.2092 -0.0904
  832MPD2    C412287   2.864   2.946  17.476  0.2083  0.0989 -0.0140
  832MPD2    C512288   2.977   2.939  17.543 -0.1802 -0.4612  1.0212
  832MPD2     H12289   2.897   3.243  17.352  0.3594  1.8744  2.6145
  832MPD2    H112290   2.799   2.860  17.473  0.3399 -0.0229  0.6591
  832MPD2    H212291   3.145   3.044  17.633 -0.5298  1.7536  1.1314
  832MPD2    H312292   3.007   2.851  17.597  1.0060 -0.0627  1.0002
  832MPD2     N12293   2.725   3.045  17.317 -0.1677  0.1937  0.2061
  832MPD2    H512294   2.666   2.962  17.323 -0.3649  0.4611  2.0242
  832MPD2    N112295   3.130   3.270  17.497 -0.1415 -0.2667  0.3273
  832MPD2    H712296   3.211   3.248  17.554 -0.7674  0.0582  1.3231
  833MPD2     C12297   0.341   4.011  12.740  0.3343 -0.3567 -0.2692
  833MPD2    C112298   0.391   4.135  12.707  0.3866  0.7356  0.1822
  833MPD2    C212299   0.486   4.135  12.600 -0.9365 -0.9124  0.0053
  833MPD2    C312300   0.548   4.017  12.563 -0.0522  0.6302  0.2100
  833MPD2    C412301   0.507   3.897  12.614  0.2836  0.1594  0.4554
  833MPD2    C512302   0.408   3.895  12.701 -0.3252  0.1113  0.6097
  833MPD2     H12303   0.532   4.228  12.566  0.0604 -1.7228 -0.8461
  833MPD2    H112304   0.559   3.803  12.598  0.5717  0.1964  1.1683
  833MPD2    H212305   0.266   4.009  12.817  2.6959  0.0402  2.0335
  833MPD2    H312306   0.378   3.802  12.748 -2.5039  0.7291  0.4522
  833MPD2     N12307   0.669   4.008  12.484 -0.5069 -0.4849  0.3023
  833MPD2    H512308   0.701   3.913  12.467  1.1301 -0.0717  1.0556
  833MPD2    N112309   0.328   4.249  12.755  0.3942 -0.0997 -0.2564
  833MPD2    H712310   0.237   4.236  12.799  0.9510 -0.3278  0.8044
  834MPD2     C12311   0.603   3.525  11.807  0.0288 -0.3548 -0.2186
  834MPD2    C112312   0.564   3.655  11.766  0.5601 -0.8804  0.4717
  834MPD2    C212313   0.612   3.765  11.840 -0.2022 -0.3855  0.4542
  834MPD2    C312314   0.704   3.748  11.947  0.4582 -0.4727  0.7331
  834MPD2    C412315   0.741   3.621  11.984 -0.1630  0.1086  0.4485
  834MPD2    C512316   0.687   3.512  11.919  0.6725  0.1679  0.3358
  834MPD2     H12317   0.587   3.864  11.803 -0.8216 -1.0382 -0.8694
  834MPD2    H112318   0.806   3.607  12.070  1.9688  0.1297 -1.1620
  834MPD2    H212319   0.581   3.435  11.750 -0.4630 -0.6876  0.5068
  834MPD2    H312320   0.715   3.412  11.951  0.0981  0.7419  2.6306
  834MPD2     N12321   0.766   3.847  12.026  0.4639  0.4552 -0.1151
  834MPD2    H512322   0.828   3.824  12.103  1.5315  1.2008 -0.7360
  834MPD2    N112323   0.493   3.656  11.645 -0.5825 -0.9588  0.0584
  834MPD2    H712324   0.472   3.568  11.600 -1.8209 -0.5350 -0.1996
  835MPD2     C12325   0.307   2.459  11.345  0.2125  0.0934 -0.1878
  835MPD2    C112326   0.210   2.537  11.400 -0.4547 -0.2254 -0.7540
  835MPD2    C212327   0.202   2.562  11.543  0.9752 -0.3367  0.2139
  835MPD2    C312328   0.296   2.506  11.621  0.5338  0.1864 -0.1490
  835MPD2    C412329   0.400   2.424  11.565  0.5190  0.7637  0.3066
  835MPD2    C512330   0.402   2.405  11.428  0.3089 -0.8471  0.0863
  835MPD2     H12331   0.123   2.624  11.583  0.3588 -0.5188 -0.7283
  835MPD2    H112332   0.482   2.388  11.625 -1.9385 -2.8147  1.5341
  835MPD2    H212333   0.316   2.449  11.238 -0.0614 -0.7212 -0.1390
  835MPD2    H312334   0.482   2.353  11.378 -0.9950 -0.1836 -2.6965
  835MPD2     N12335   0.282   2.518  11.760 -0.0806  0.0873 -0.1537
  835MPD2    H512336   0.343   2.451  11.807  0.0484  1.5708  1.8031
  835MPD2    N112337   0.105   2.588  11.317  0.1839  0.1620 -1.1467
  835MPD2    H712338   0.030   2.640  11.361  0.7275  0.4912 -0.6223
  836MPD2     C12339   4.376   2.749  12.145  0.5121 -0.5460 -0.5942
  836MPD2    C112340   4.482   2.730  12.223 -0.4461 -0.0161  0.0968
  836MPD2    C212341   4.465   2.771  12.356  0.2815 -0.3055 -0.2047
  836MPD2    C312342   4.342   2.817  12.400 -0.2029 -0.1744 -0.3482
  836MPD2    C412343   4.239   2.836  12.322 -0.1327  0.5799  0.1048
  836MPD2    C512344   4.258   2.812  12.192 -0.5230 -0.8632  0.0817
  836MPD2     H12345   4.547   2.751  12.424  1.4133 -0.6744 -1.6859
  836MPD2    H112346   4.160   2.898  12.362  0.2303 -0.8306  3.0014
  836MPD2    H212347   4.383   2.724  12.039  0.8075 -0.6411 -0.5526
  836MPD2    H312348   4.175   2.822  12.124  1.3257  2.7481 -1.6151
  836MPD2     N12349   4.320   2.856  12.534 -0.2693  0.2847  0.1930
  836MPD2    H512350   4.225   2.887  12.553 -0.1363  1.6201 -1.3161
  836MPD2    N112351   4.605   2.681  12.173  0.1350  0.3161 -0.4472
  836MPD2    H712352   4.611   2.662  12.074  1.4911  1.9172 -0.6624
  837MPD2     C12353   3.539   1.664  10.662 -0.4248 -0.5624 -0.6857
  837MPD2    C112354   3.527   1.737  10.543  0.3294 -0.1521  0.3041
  837MPD2    C212355   3.579   1.865  10.547  0.3525 -0.8137  0.3183
  837MPD2    C312356   3.641   1.918  10.655  0.5617  0.6280 -0.4737
  837MPD2    C412357   3.663   1.836  10.769 -0.4542 -0.0237  0.2300
  837MPD2    C512358   3.603   1.711  10.775  0.0522 -0.1570 -0.6497
  837MPD2     H12359   3.565   1.931  10.462 -0.6377 -0.4055  0.8038
  837MPD2    H112360   3.700   1.884  10.859  0.1658 -1.4400  0.7213
  837MPD2    H212361   3.487   1.569  10.660  0.3587 -1.0217  0.7401
  837MPD2    H312362   3.600   1.655  10.867 -0.2853  1.2489  0.1851
  837MPD2     N12363   3.682   2.052  10.643 -0.7795  0.0468  0.1494
  837MPD2    H512364   3.673   2.092  10.551  2.3571 -1.5511 -0.8338
  837MPD2    N112365   3.453   1.703  10.434 -0.5009  0.3437 -0.3979
  837MPD2    H712366   3.455   1.769  10.357 -3.0611 -0.1702 -0.8821
  838MPD2     C12367   2.064   0.402  12.131 -0.4163 -0.5362  0.1253
  838MPD2    C112368   1.996   0.305  12.065 -0.2400 -0.8016 -0.0790
  838MPD2    C212369   1.881   0.248  12.126 -0.4565  0.9756 -0.2837
  838MPD2    C312370   1.837   0.303  12.245  0.0280 -0.0350 -0.1329
  838MPD2    C412371   1.926   0.393  12.312  0.2659 -0.5119  0.0739
  838MPD2    C512372   2.041   0.436  12.262  0.1585 -0.2831  0.5970
  838MPD2     H12373   1.822   0.180  12.067  0.6935 -1.2140  1.0685
  838MPD2    H112374   1.902   0.429  12.411  0.5931 -3.5049  1.2070
  838MPD2    H212375   2.152   0.448  12.087 -1.1751 -1.5422 -2.4036
  838MPD2    H312376   2.099   0.507  12.320  0.0948 -1.6409  2.3022
  838MPD2     N12377   1.715   0.259  12.289 -0.1371 -0.6213  0.6075
  838MPD2    H512378   1.671   0.193  12.226  1.3153 -1.0747  0.0679
  838MPD2    N112379   2.035   0.257  11.939  0.2819 -0.1743  0.1956
  838MPD2    H712380   1.973   0.183  11.906  0.8476 -0.2539 -0.7153
  839MPD2     C12381   1.619   4.350  11.802 -0.7047  0.1351 -0.0077
  839MPD2    C112382   1.680   4.350  11.674  0.9216  0.2247 -0.4627
  839MPD2    C212383   1.777   4.444  11.646  0.0137  0.5977  0.5119
  839MPD2    C312384   1.806   4.544  11.734  0.1344  0.2587  0.0147
  839MPD2    C412385   1.736   4.550  11.849  0.6256  0.0125  0.0866
  839MPD2    C512386   1.643   4.459  11.881 -0.4103  0.4593 -0.2002
  839MPD2     H12387   1.836   4.437  11.555 -3.2231 -0.4554 -1.4861
  839MPD2    H112388   1.756   4.629  11.920  2.2538 -0.5124  0.2295
  839MPD2    H212389   1.552   4.275  11.843  1.7663 -2.0042  0.0684
  839MPD2    H312390   1.601   4.471  11.980 -3.2487  0.6248 -1.4031
  839MPD2     N12391   1.909   4.645  11.707 -0.0795  0.6841 -0.8054
  839MPD2    H512392   1.910   4.722  11.774  0.5709  0.8471 -0.9975
  839MPD2    N112393   1.643   4.254  11.582 -0.3936 -0.0201 -0.7237
  839MPD2    H712394   1.697   4.238  11.498 -0.9446 -2.0909 -0.6896
  840MPD2     C12395   1.990   2.786  10.378  0.9393 -0.0653  0.0288
  840MPD2    C112396   1.919   2.694  10.457 -0.5591 -1.0317 -0.5640
  840MPD2    C212397   1.956   2.671  10.590  0.5101  0.4665 -0.2076
  840MPD2    C312398   2.067   2.742  10.641 -0.2413  0.5069  0.0225
  840MPD2    C412399   2.144   2.812  10.554 -0.3499 -0.4104  0.6497
  840MPD2    C512400   2.109   2.836  10.424 -0.0358  0.3785 -0.2409
  840MPD2     H12401   1.914   2.601  10.661  0.1492  0.3075 -0.5777
  840MPD2    H112402   2.228   2.875  10.583 -0.2845  0.9235 -2.4772
  840MPD2    H212403   1.963   2.799  10.274 -1.8412  1.1112  0.8999
  840MPD2    H312404   2.169   2.907  10.368 -1.4334  1.9346  0.2268
  840MPD2     N12405   2.111   2.740  10.774 -0.5090 -0.3408  0.1327
  840MPD2    H512406   2.200   2.779  10.804  0.9955 -2.6056 -1.4704
  840MPD2    N112407   1.807   2.624  10.407  0.3383  0.5284 -0.3269
  840MPD2    H712408   1.765   2.655  10.320 -2.2215 -2.5739 -0.1925
  841MPD2     C12409   1.673   1.823  14.851  0.0294 -0.2052  0.6725
  841MPD2    C112410   1.635   1.845  14.717 -0.1693 -0.2907  0.6311
  841MPD2    C212411   1.557   1.955  14.690 -0.0318  0.1595 -0.1047
  841MPD2    C312412   1.527   2.050  14.784  0.4409 -0.6559  0.4534
  841MPD2    C412413   1.574   2.031  14.909 -0.4892 -0.2180 -0.7485
  841MPD2    C512414   1.645   1.918  14.945 -0.0659 -0.3452 -0.4666
  841MPD2     H12415   1.523   1.975  14.589  0.2388  0.2161 -0.1864
  841MPD2    H112416   1.565   2.105  14.989 -0.0696 -1.9458  0.8972
  841MPD2    H212417   1.732   1.739  14.885 -0.5718  0.2438  2.8244
  841MPD2    H312418   1.680   1.909  15.047 -1.6322 -0.2391  0.0894
  841MPD2     N12419   1.458   2.167  14.739 -0.9949  0.3621  0.1175
  841MPD2    H512420   1.426   2.162  14.643  0.7288 -0.9336 -0.3727
  841MPD2    N112421   1.650   1.748  14.616  0.0341 -0.5703  0.1759
  841MPD2    H712422   1.611   1.762  14.523 -0.9780 -1.3960  0.4747
  842MPD2     C12423   1.953   2.912  17.217  0.3132  0.7259  0.3973
  842MPD2    C112424   1.830   2.838  17.238 -0.4084  0.0625 -0.6210
  842MPD2    C212425   1.706   2.902  17.228 -0.3363  0.4908 -0.5749
  842MPD2    C312426   1.707   3.040  17.207 -0.3298 -0.2125  0.2551
  842MPD2    C412427   1.824   3.110  17.197 -0.4979 -0.0312 -0.0967
  842MPD2    C512428   1.945   3.049  17.206  0.0512 -0.5598  0.7078
  842MPD2     H12429   1.615   2.842  17.228  0.4376 -0.6864  2.2617
  842MPD2    H112430   1.827   3.218  17.188 -1.3965  0.0541  0.6535
  842MPD2    H212431   2.049   2.863  17.221 -0.5720 -0.9664  1.0790
  842MPD2    H312432   2.034   3.107  17.184  1.7657 -3.2104  0.6450
  842MPD2     N12433   1.588   3.115  17.208 -0.3592  0.1100 -0.6232
  842MPD2    H512434   1.601   3.215  17.221 -1.1464  0.1289 -0.0085
  842MPD2    N112435   1.843   2.705  17.285  0.0630  0.0516  0.2952
  842MPD2    H712436   1.938   2.676  17.305 -0.1483  0.1083  1.3458
  843MPD2     C12437   4.022   3.844   0.228 -0.0542 -0.5151  0.3343
  843MPD2    C112438   4.143   3.799   0.180 -0.7435  0.7915 -0.2019
  843MPD2    C212439   4.221   3.873   0.097 -0.3609  0.1204 -0.0961
  843MPD2    C312440   4.185   4.005   0.072 -0.1888 -0.6505 -0.3661
  843MPD2    C412441   4.068   4.054   0.120 -0.1300  0.9957  0.4608
  843MPD2    C512442   3.980   3.974   0.200 -0.3063  0.2034  0.1836
  843MPD2     H12443   4.303   3.829   0.042  1.1108  1.5193  0.9692
  843MPD2    H112444   4.034   4.152   0.091  2.1295  1.1919 -1.5413
  843MPD2    H212445   3.963   3.789   0.301 -0.0773  0.1439  0.8180
  843MPD2    H312446   3.889   4.017   0.240 -1.0899 -1.8247  0.5826
  843MPD2     N12447   4.259   4.091  17.734 -0.2785 -0.2419  0.2470
  843MPD2    H512448   4.227   4.184  17.710 -0.1306 -0.5015 -0.9614
  843MPD2    N112449   4.178   3.662   0.219 -0.0815 -0.2339  1.1756
  843MPD2    H712450   4.110   3.612   0.276 -1.4357  0.0581 -0.1956
  844MPD2     C12451   2.460   2.569  16.926 -0.1379 -0.2171 -0.3361
  844MPD2    C112452   2.493   2.649  16.815  0.0137  0.0771  0.3229
  844MPD2    C212453   2.597   2.743  16.821 -0.6515  0.3066  0.2946
  844MPD2    C312454   2.681   2.759  16.933 -0.2968  0.2008 -0.2302
  844MPD2    C412455   2.654   2.668  17.034 -0.0104  0.5880 -0.1162
  844MPD2    C512456   2.552   2.581  17.033 -0.3363 -0.6087 -0.6095
  844MPD2     H12457   2.615   2.809  16.737  3.1208 -0.4142  0.5163
  844MPD2    H112458   2.717   2.665  17.122 -1.5542 -0.8192  0.9146
  844MPD2    H212459   2.379   2.499  16.941 -0.7230  0.5973  0.3198
  844MPD2    H312460   2.528   2.532  17.126  2.2698 -3.0411 -1.2060
  844MPD2     N12461   2.784   2.860  16.936 -0.2524 -0.1198 -0.1736
  844MPD2    H512462   2.787   2.924  16.856  1.2335 -0.8915 -0.7228
  844MPD2    N112463   2.398   2.650  16.709 -0.1769 -0.4012 -0.6098
  844MPD2    H712464   2.406   2.723  16.639  1.6026 -1.6049 -1.6489
  845MPD2     C12465   2.804   3.551  16.438 -0.2502  0.1906  0.5711
  845MPD2    C112466   2.802   3.595  16.571  0.1720  0.2625  0.3276
  845MPD2    C212467   2.845   3.504  16.671  0.2209 -0.2427 -0.4492
  845MPD2    C312468   2.906   3.381  16.642  0.4298 -0.3678 -0.2991
  845MPD2    C412469   2.913   3.345  16.508 -0.5520 -0.1092  0.7383
  845MPD2    C512470   2.856   3.429  16.411 -0.0893  0.6387 -0.6953
  845MPD2     H12471   2.832   3.526  16.776  3.5607  0.5437 -0.2123
  845MPD2    H112472   2.958   3.250  16.481 -1.5888 -0.1742 -0.8078
  845MPD2    H212473   2.765   3.615  16.360  1.3848  0.3594 -0.0945
  845MPD2    H312474   2.868   3.401  16.307  1.1713  0.2975 -0.4624
  845MPD2     N12475   2.946   3.287  16.735 -0.1437  0.4418  1.4319
  845MPD2    H512476   2.977   3.194  16.708 -2.9415  0.1732 -0.8271
  845MPD2    N112477   2.746   3.723  16.597 -0.4786 -0.0341 -0.3739
  845MPD2    H712478   2.694   3.762  16.518  0.3073  3.6797  0.9330
  846MPD2     C12479   4.340   3.744  13.485  0.9745 -0.5209  0.2292
  846MPD2    C112480   4.296   3.873  13.503  1.2181  0.0323 -0.1788
  846MPD2    C212481   4.293   3.931  13.629  0.9709 -0.5586 -0.1997
  846MPD2    C312482   4.336   3.855  13.740 -0.2109 -0.1019 -0.0082
  846MPD2    C412483   4.396   3.737  13.719 -0.3730  0.4353 -0.5019
  846MPD2    C512484   4.395   3.682  13.598 -0.1822  0.1449 -0.8093
  846MPD2     H12485   4.263   4.035  13.640  1.8650 -0.2430 -0.7652
  846MPD2    H112486   4.439   3.672  13.794 -0.4356 -0.9581 -1.6663
  846MPD2    H212487   4.352   3.698  13.388 -1.2450  0.1376 -0.3559
  846MPD2    H312488   4.434   3.583  13.578  1.1748  0.2705  1.1890
  846MPD2     N12489   4.321   3.916  13.872 -0.1470 -0.5043  0.0003
  846MPD2    H512490   4.282   4.009  13.883  0.2362 -0.4877  1.2380
  846MPD2    N112491   4.276   3.956  13.391  0.1261 -0.8974  0.1065
  846MPD2    H712492   4.262   4.055  13.407 -2.9311 -1.0490 -1.6567
  847MPD2     C12493   4.565   4.406  14.389 -0.0346 -0.6826 -0.3989
  847MPD2    C112494   4.543   4.547  14.383  0.7428 -0.4599 -0.6648
  847MPD2    C212495   4.486   4.612  14.480  0.0435 -0.4490  0.5446
  847MPD2    C312496   4.418   4.537  14.574 -0.5783  0.3706  0.1204
  847MPD2    C412497   4.416   4.399  14.575  0.3579  0.8369 -0.4849
  847MPD2    C512498   4.491   4.331  14.479 -0.5103 -0.2024 -0.4388
  847MPD2     H12499   4.498   4.719  14.485  0.5893 -0.4408 -1.1879
  847MPD2    H112500   4.357   4.346  14.649  0.6270 -2.0040 -2.2947
  847MPD2    H212501   4.635   4.351  14.327 -0.0537 -1.1798  0.0128
  847MPD2    H312502   4.487   4.223  14.468 -1.3405 -0.2170 -0.0183
  847MPD2     N12503   4.330   4.611  14.660  0.0276  0.2456  0.0579
  847MPD2    H512504   4.321   4.710  14.637 -2.5124  0.0622  0.2856
  847MPD2    N112505   4.596   4.626  14.279  0.0681  0.1516 -0.0873
  847MPD2    H712506   4.570   4.722  14.297 -1.2560 -0.2191 -0.0330
  848MPD2     C12507   2.515   3.233  16.467 -0.1542 -0.6870  0.8647
  848MPD2    C112508   2.408   3.205  16.554  0.4746  0.9690  0.4611
  848MPD2    C212509   2.279   3.227  16.509  0.6276 -0.0442  0.1556
  848MPD2    C312510   2.251   3.270  16.381  0.1584  0.2315 -0.2641
  848MPD2    C412511   2.354   3.305  16.295  0.5923 -0.9138 -0.0566
  848MPD2    C512512   2.487   3.282  16.341 -0.7217 -0.1274 -0.6949
  848MPD2     H12513   2.197   3.203  16.576  0.1180  2.4728  0.4308
  848MPD2    H112514   2.337   3.352  16.198 -0.3426 -1.2234 -0.0438
  848MPD2    H212515   2.620   3.216  16.491 -0.0262  0.7092  1.3091
  848MPD2    H312516   2.572   3.276  16.275  1.6043 -0.0349  2.2838
  848MPD2     N12517   2.119   3.277  16.334  0.0515  0.1450 -0.0405
  848MPD2    H512518   2.117   3.339  16.253  1.6733 -0.4664 -0.5375
  848MPD2    N112519   2.419   3.168  16.690 -0.1567 -0.4415 -0.5168
  848MPD2    H712520   2.337   3.175  16.750 -0.7155 -0.4350 -1.2889
  849MPD2     C12521   1.448   2.971  14.040  0.4626  0.4119 -0.2353
  849MPD2    C112522   1.572   2.969  13.977  0.4853 -0.8108 -0.8519
  849MPD2    C212523   1.663   2.877  14.016  0.6021  0.6930 -0.2476
  849MPD2    C312524   1.638   2.789  14.121 -0.5876 -1.2922 -0.2317
  849MPD2    C412525   1.511   2.784  14.178  0.6875 -0.6951 -0.2237
  849MPD2    C512526   1.421   2.870  14.135 -0.2440  0.2869  0.3209
  849MPD2     H12527   1.758   2.867  13.963  0.1404 -0.4606 -0.8576
  849MPD2    H112528   1.482   2.713  14.255  2.1844 -0.9229  0.1301
  849MPD2    H212529   1.369   3.037  14.007  2.5505  3.1034  0.1057
  849MPD2    H312530   1.320   2.862  14.174 -0.2018 -1.1799  0.1274
  849MPD2     N12531   1.736   2.699  14.156  0.4503 -0.5747  0.0371
  849MPD2    H512532   1.814   2.700  14.092 -0.6784 -0.5124 -1.3455
  849MPD2    N112533   1.609   3.063  13.880  0.1791 -0.3563 -0.0604
  849MPD2    H712534   1.705   3.071  13.847  0.6233  0.3609  1.4152
  850MPD2     C12535   4.432   1.323  15.176  0.1785 -0.2220  0.0611
  850MPD2    C112536   4.535   1.299  15.092  0.1532 -0.0871  0.0602
  850MPD2    C212537   4.603   1.408  15.044  0.3975 -1.0063 -0.1350
  850MPD2    C312538   4.579   1.534  15.091  1.3333  0.2054 -0.2340
  850MPD2    C412539   4.480   1.551  15.184 -0.8494  0.0424 -0.5459
  850MPD2    C512540   4.397   1.446  15.219 -0.0361  0.9096 -0.2514
  850MPD2     H12541   4.691   1.397  14.983  1.4537 -1.1956  1.4228
  850MPD2    H112542   4.443   1.647  15.217 -0.6498 -0.2405  0.5277
  850MPD2    H212543   4.371   1.242  15.214 -0.3347  0.3430  0.4444
  850MPD2    H312544   4.319   1.449  15.294 -1.1039 -1.0735 -1.2834
  850MPD2     N12545   4.672   1.638  15.077  0.5049  0.2220 -0.1924
  850MPD2    H512546   4.648   1.722  15.129 -0.2575 -0.5709  0.7403
  850MPD2    N112547   4.563   1.170  15.060  0.2286  0.0691  0.4472
  850MPD2    H712548   4.508   1.094  15.100  0.5998 -0.3768  0.1193
  851MPD2     C12549   0.428   0.858  15.287  0.3470  0.6991  0.3055
  851MPD2    C112550   0.302   0.803  15.302  0.0683  0.5505  0.2299
  851MPD2    C212551   0.262   0.746  15.421  0.9409 -0.4271 -0.3663
  851MPD2    C312552   0.353   0.737  15.522  0.0518 -0.0105  0.0780
  851MPD2    C412553   0.471   0.798  15.509  0.6022 -0.2682  0.0404
  851MPD2    C512554   0.513   0.851  15.392  0.8349 -0.1091 -0.4096
  851MPD2     H12555   0.168   0.693  15.430  1.6671 -1.3146  1.8871
  851MPD2    H112556   0.540   0.806  15.593 -0.7092 -1.8816  1.2786
  851MPD2    H212557   0.459   0.910  15.197 -0.4574  1.3286  0.3919
  851MPD2    H312558   0.613   0.890  15.384 -0.4509  2.7875 -2.1986
  851MPD2     N12559   0.319   0.646  15.628  0.6528  0.6728  0.1287
  851MPD2    H512560   0.222   0.620  15.631  0.9921 -0.6723 -0.5758
  851MPD2    N112561   0.224   0.806  15.188  0.5978  0.2451 -0.3298
  851MPD2    H712562   0.258   0.861  15.110 -1.1062 -0.8763 -1.8573
  852MPD2     C12563   0.260   3.914  10.106 -0.2920  0.0064  0.5178
  852MPD2    C112564   0.199   3.905  10.229  0.1447 -0.2973  0.4670
  852MPD2    C212565   0.212   4.005  10.320 -0.5402 -0.3865  0.0207
  852MPD2    C312566   0.281   4.121  10.296  0.2900  1.1775 -0.0295
  852MPD2    C412567   0.351   4.127  10.176 -0.6598 -0.3071  0.5286
  852MPD2    C512568   0.339   4.022  10.089 -0.6392  0.2974 -0.0162
  852MPD2     H12569   0.144   4.006  10.404 -0.6083 -1.1686 -0.0242
  852MPD2    H112570   0.403   4.219  10.151 -1.3242 -0.0466  0.0923
  852MPD2    H212571   0.267   3.837  10.030 -1.5712 -0.1582  0.5549
  852MPD2    H312572   0.388   4.035   9.993 -0.1935 -2.5390 -0.1823
  852MPD2     N12573   0.285   4.218  10.395 -0.0108  0.7244 -0.6133
  852MPD2    H512574   0.219   4.195  10.469 -1.3660 -1.7684 -2.6056
  852MPD2    N112575   0.116   3.799  10.260  0.4536  0.3176 -0.3475
  852MPD2    H712576   0.070   3.808  10.349 -0.1048  3.3700 -0.9612
  853MPD2     C12577   1.231   3.211  12.421 -0.6151  0.4880  0.5957
  853MPD2    C112578   1.228   3.350  12.393  0.5501 -0.4799  0.0379
  853MPD2    C212579   1.202   3.388  12.265  0.4744  0.2994  0.0838
  853MPD2    C312580   1.198   3.292  12.164 -0.3773 -0.5991  0.4060
  853MPD2    C412581   1.204   3.156  12.188 -0.3741 -0.3102  0.8525
  853MPD2    C512582   1.223   3.112  12.314  0.3700  0.5292  0.7984
  853MPD2     H12583   1.196   3.493  12.239 -0.7489  0.1288 -0.3407
  853MPD2    H112584   1.186   3.089  12.105 -2.1672  2.2280 -0.8374
  853MPD2    H212585   1.224   3.170  12.521 -1.8166  1.3379  0.8654
  853MPD2    H312586   1.212   3.005  12.330 -0.3216  0.1131 -2.5054
  853MPD2     N12587   1.183   3.330  12.028  0.5936  0.0631  0.7398
  853MPD2    H512588   1.211   3.264  11.957 -4.1276 -0.2741 -0.7732
  853MPD2    N112589   1.225   3.445  12.501 -0.2760  0.2708  0.1813
  853MPD2    H712590   1.238   3.410  12.595 -1.3702  0.3701  0.3711
  854MPD2     C12591   2.795   3.720  13.284  0.2064  0.7131  0.0100
  854MPD2    C112592   2.854   3.705  13.159 -1.1615 -0.3168 -0.3458
  854MPD2    C212593   2.957   3.621  13.144 -0.2937 -0.1894  0.7396
  854MPD2    C312594   3.009   3.551  13.252  0.2332 -0.4954 -0.1635
  854MPD2    C412595   2.960   3.572  13.378 -0.7509  1.0739  0.6892
  854MPD2    C512596   2.856   3.660  13.394 -0.0058  0.1706 -0.5082
  854MPD2     H12597   2.997   3.604  13.044 -0.1298 -1.4840  1.0278
  854MPD2    H112598   3.002   3.512  13.458 -0.2582 -0.7584 -0.9707
  854MPD2    H212599   2.710   3.785  13.307 -1.1192 -1.0022 -0.0579
  854MPD2    H312600   2.816   3.676  13.494  0.3552 -0.5684 -0.2423
  854MPD2     N12601   3.125   3.473  13.244 -0.1785 -0.0474  1.0537
  854MPD2    H512602   3.164   3.446  13.333 -0.7575 -1.1316  0.9726
  854MPD2    N112603   2.802   3.792  13.062 -0.5256  0.4601  0.3592
  854MPD2    H712604   2.718   3.847  13.073  0.9235  2.3209  2.1011
  855MPD2     C12605   3.539   3.395  13.938 -0.1556  0.2259 -0.5320
  855MPD2    C112606   3.547   3.274  13.883 -0.5127  0.5813 -0.0013
  855MPD2    C212607   3.531   3.267  13.746  0.3366  0.2207 -0.9412
  855MPD2    C312608   3.498   3.381  13.667 -0.5725 -1.4943  0.1993
  855MPD2    C412609   3.491   3.506  13.731 -0.1737  0.6386 -0.6255
  855MPD2    C512610   3.499   3.507  13.866 -0.1514  0.7736 -0.0795
  855MPD2     H12611   3.553   3.172  13.698  3.2667  0.9136 -0.9624
  855MPD2    H112612   3.483   3.596  13.671 -2.1960  0.7525 -0.1649
  855MPD2    H212613   3.544   3.407  14.046 -2.0151 -0.6577 -0.3325
  855MPD2    H312614   3.502   3.604  13.913 -1.8227  0.0829  1.4757
  855MPD2     N12615   3.491   3.384  13.529 -0.0182 -0.8199  0.4338
  855MPD2    H512616   3.458   3.461  13.472  0.5244 -1.8704 -1.2895
  855MPD2    N112617   3.578   3.162  13.955  0.1385 -0.4133  0.3291
  855MPD2    H712618   3.590   3.079  13.898  0.0053  0.7246 -1.3573
  856MPD2     C12619   0.495   3.963  13.860  0.8041  0.0815 -0.0177
  856MPD2    C112620   0.600   4.055  13.858 -0.0916 -0.1341 -0.1152
  856MPD2    C212621   0.572   4.187  13.855  0.8616 -0.0204 -0.6170
  856MPD2    C312622   0.452   4.226  13.807  0.6835 -0.2639  0.1802
  856MPD2    C412623   0.353   4.133  13.786  0.2166  0.4577  0.1700
  856MPD2    C512624   0.370   4.008  13.818  0.1108 -0.3916 -0.3746
  856MPD2     H12625   0.651   4.261  13.857  1.9881 -1.2748  0.7689
  856MPD2    H112626   0.250   4.165  13.768  0.1311  0.3356  0.4391
  856MPD2    H212627   0.508   3.858  13.881  0.7245  0.2178  0.7192
  856MPD2    H312628   0.283   3.945  13.799 -1.7985  1.4471  2.2213
  856MPD2     N12629   0.417   4.358  13.777 -0.3471  0.9198 -0.3365
  856MPD2    H512630   0.319   4.379  13.758 -0.8836 -0.6792  0.5929
  856MPD2    N112631   0.731   4.018  13.889  0.5928  0.3970  0.5461
  856MPD2    H712632   0.800   4.091  13.905 -0.8282  1.8728  0.0213
  857MPD2     C12633   2.675   1.963  12.536 -0.0026  0.4320  0.9622
  857MPD2    C112634   2.627   1.893  12.641  0.0465 -0.1214 -0.2763
  857MPD2    C212635   2.639   1.943  12.772 -0.3652 -0.0439 -0.3163
  857MPD2    C312636   2.720   2.054  12.795  0.0114 -0.6373 -0.2520
  857MPD2    C412637   2.778   2.113  12.683  0.1121  0.4767  0.5361
  857MPD2    C512638   2.743   2.077  12.552 -0.2763 -0.2519 -0.3431
  857MPD2     H12639   2.603   1.892  12.861 -0.3175  1.1493  0.4025
  857MPD2    H112640   2.852   2.193  12.680  0.5724  0.0779  1.3437
  857MPD2    H212641   2.657   1.921  12.437  1.6166 -0.2634  0.9658
  857MPD2    H312642   2.781   2.139  12.471  0.6601  0.7674  0.8780
  857MPD2     N12643   2.751   2.098  12.932  0.6493 -0.4384 -0.5617
  857MPD2    H512644   2.706   2.042  13.003 -1.5824 -1.0415 -2.4309
  857MPD2    N112645   2.577   1.764  12.611  0.2570 -0.1098 -0.2568
  857MPD2    H712646   2.561   1.738  12.514 -2.0941  0.3818 -0.0061
  858MPD2     C12647   2.611   0.346  16.670  0.5750 -0.0269 -0.3968
  858MPD2    C112648   2.696   0.450  16.663  0.7981  0.0564  0.1804
  858MPD2    C212649   2.743   0.518  16.772 -0.7040 -0.1621 -0.0751
  858MPD2    C312650   2.697   0.481  16.896 -0.3109  0.6564 -0.1218
  858MPD2    C412651   2.610   0.380  16.907 -0.0969  0.2851  0.1382
  858MPD2    C512652   2.579   0.309  16.797 -0.0942  0.1289  0.0017
  858MPD2     H12653   2.818   0.596  16.764 -0.9203  0.0613  0.0467
  858MPD2    H112654   2.563   0.346  16.999  0.3294  1.2876  0.7373
  858MPD2    H212655   2.567   0.289  16.589 -0.3025  0.1700 -0.0487
  858MPD2    H312656   2.504   0.235  16.820 -1.5471  2.0006  1.2644
  858MPD2     N12657   2.734   0.549  17.010  0.0709  0.8893 -0.8736
  858MPD2    H512658   2.695   0.519  17.099  0.5393  2.8343 -0.0098
  858MPD2    N112659   2.727   0.483  16.531  0.2355  0.3070 -0.4174
  858MPD2    H712660   2.668   0.448  16.456  1.2508  1.1278 -1.5986
  859MPD2     C12661   1.569   2.476  15.469 -0.0622  0.8472  0.0760
  859MPD2    C112662   1.579   2.543  15.350  0.1274  0.0692  1.1873
  859MPD2    C212663   1.672   2.493  15.254 -0.0387 -1.0298 -0.1488
  859MPD2    C312664   1.746   2.379  15.279  0.1356  0.1622 -0.3247
  859MPD2    C412665   1.731   2.317  15.403  0.2141 -0.2110  0.1726
  859MPD2    C512666   1.646   2.361  15.500  0.0762 -0.2714  0.0955
  859MPD2     H12667   1.688   2.547  15.161 -0.0864  2.3592  1.8139
  859MPD2    H112668   1.785   2.225  15.423  0.0325 -0.2477  0.4943
  859MPD2    H212669   1.505   2.512  15.548 -1.0395  0.2492 -0.4388
  859MPD2    H312670   1.650   2.308  15.595  2.0093 -0.3691 -0.0531
  859MPD2     N12671   1.822   2.309  15.186  0.2121  0.3688 -0.8302
  859MPD2    H512672   1.857   2.220  15.221  2.5309  1.2120 -0.9946
  859MPD2    N112673   1.492   2.651  15.316  0.5026 -0.1860  0.5288
  859MPD2    H712674   1.411   2.667  15.375 -0.0377 -0.9447 -0.0076
  860MPD2     C12675   3.922   3.424  11.861  0.1508  0.0623  0.2516
  860MPD2    C112676   3.912   3.343  11.962  0.5995  0.0758  0.7543
  860MPD2    C212677   3.791   3.280  11.997  0.8821  0.0089  0.4594
  860MPD2    C312678   3.676   3.323  11.939 -0.3059  0.1173 -0.3035
  860MPD2    C412679   3.683   3.425  11.844 -0.6397  0.3524  0.0930
  860MPD2    C512680   3.805   3.472  11.806 -0.7113  0.4415  0.4616
  860MPD2     H12681   3.792   3.196  12.065  2.0663 -0.1517  0.2466
  860MPD2    H112682   3.589   3.465  11.807  0.0523  0.7972 -1.1473
  860MPD2    H212683   4.015   3.470  11.831  0.3711 -1.3837 -1.2588
  860MPD2    H312684   3.816   3.559  11.742  0.2708  0.4336  0.6161
  860MPD2     N12685   3.555   3.268  11.985  0.4818  0.6804  0.1153
  860MPD2    H512686   3.566   3.223  12.075  0.5224 -0.7790 -0.6163
  860MPD2    N112687   4.023   3.303  12.038 -0.1420 -0.0095  0.1950
  860MPD2    H712688   3.995   3.250  12.120 -0.9057  0.6837  0.3876
  861MPD2     C12689   2.824   1.156  10.908  0.1672  0.3547  0.0807
  861MPD2    C112690   2.796   1.280  10.953 -0.3987  0.3926  0.1683
  861MPD2    C212691   2.720   1.367  10.868 -0.0780  0.3301  0.0934
  861MPD2    C312692   2.703   1.333  10.734  0.0940  0.6890 -0.4272
  861MPD2    C412693   2.752   1.215  10.693  0.7100 -0.1046 -0.3207
  861MPD2    C512694   2.806   1.123  10.777  0.7211  0.2966  0.0610
  861MPD2     H12695   2.687   1.462  10.910  1.1463  0.2280  1.2935
  861MPD2    H112696   2.748   1.183  10.589 -3.4460  1.9768 -0.7911
  861MPD2    H212697   2.875   1.081  10.968 -1.3245 -0.6861  0.0403
  861MPD2    H312698   2.855   1.032  10.744  0.8489  0.7803 -1.0912
  861MPD2     N12699   2.638   1.419  10.643 -0.1860 -0.2711 -0.2176
  861MPD2    H512700   2.634   1.378  10.550  1.3418 -1.1276  0.1074
  861MPD2    N112701   2.845   1.329  11.083  0.8600 -0.2691  0.0754
  861MPD2    H712702   2.822   1.423  11.113  0.5974  0.0261 -1.0371
  862MPD2     C12703   2.071   1.478  10.181 -0.7292  1.1031 -0.0049
  862MPD2    C112704   2.177   1.402  10.230  0.2296 -0.2861 -0.4468
  862MPD2    C212705   2.176   1.266  10.247 -0.5109 -0.7789 -0.4076
  862MPD2    C312706   2.064   1.201  10.211  0.4281  0.2292 -0.5961
  862MPD2    C412707   1.957   1.267  10.151  0.3867 -0.5440  0.2044
  862MPD2    C512708   1.968   1.405  10.130  0.2828 -0.3630 -1.0959
  862MPD2     H12709   2.261   1.214  10.290  0.7479 -1.6944 -4.0657
  862MPD2    H112710   1.869   1.213  10.121 -1.7727  1.6175  2.6387
  862MPD2    H212711   2.069   1.586  10.187 -0.1300  1.3508 -4.1986
  862MPD2    H312712   1.884   1.452  10.079 -0.5621 -0.5869  0.0983
  862MPD2     N12713   2.062   1.062  10.243 -0.2499  0.1991 -0.4477
  862MPD2    H512714   2.141   1.010  10.280 -1.0754  0.0312  1.0873
  862MPD2    N112715   2.291   1.469  10.286 -0.3714  0.7121 -1.4579
  862MPD2    H712716   2.358   1.415  10.341  0.7794  2.7850 -0.8239
  863MPD2     C12717   0.575   4.379  16.332 -0.6932  1.2333  0.0731
  863MPD2    C112718   0.632   4.492  16.397  0.3934  0.1807 -1.3163
  863MPD2    C212719   0.740   4.473  16.483 -0.8311 -0.1492  0.0829
  863MPD2    C312720   0.787   4.342  16.501 -0.6137  0.7993 -0.6606
  863MPD2    C412721   0.728   4.230  16.436 -0.5308 -0.6763  0.5414
  863MPD2    C512722   0.623   4.253  16.347  0.3501  0.1027  0.1845
  863MPD2     H12723   0.774   4.562  16.536  0.5317 -1.2447  1.0370
  863MPD2    H112724   0.764   4.128  16.436  1.8186  0.1569  0.1066
  863MPD2    H212725   0.492   4.389  16.263  0.9870  0.7475 -2.0290
  863MPD2    H312726   0.582   4.169  16.294  0.3135 -1.2632  2.3792
  863MPD2     N12727   0.895   4.317  16.583 -0.0378 -0.2751  0.0860
  863MPD2    H512728   0.911   4.218  16.599  0.6354 -0.0960  0.5237
  863MPD2    N112729   0.578   4.618  16.362  0.3444  0.0395 -0.2329
  863MPD2    H712730   0.523   4.625  16.277 -1.5743  0.7581  1.0884
  864MPD2     C12731   1.601   0.240  16.871  0.3052 -0.2402  0.8427
  864MPD2    C112732   1.711   0.163  16.847 -0.2135  0.1124  0.0125
  864MPD2    C212733   1.835   0.225  16.872  0.1384 -0.7365 -0.9460
  864MPD2    C312734   1.841   0.364  16.898 -0.0636  0.4571 -0.4807
  864MPD2    C412735   1.725   0.432  16.934  0.2408  0.6938 -0.3985
  864MPD2    C512736   1.604   0.369  16.926 -0.5220  0.0438 -1.1771
  864MPD2     H12737   1.927   0.172  16.853  0.2366  0.3435 -3.5147
  864MPD2    H112738   1.737   0.532  16.973 -0.9291  0.2173  1.1587
  864MPD2    H212739   1.505   0.193  16.850  0.3598 -0.7775  1.7975
  864MPD2    H312740   1.508   0.415  16.948 -0.7254  0.3514 -2.7258
  864MPD2     N12741   1.960   0.437  16.899  0.8568  0.5445  0.0004
  864MPD2    H512742   1.948   0.535  16.923  0.0008  0.6532 -0.8744
  864MPD2    N112743   1.691   0.038  16.788  0.5219 -0.0058 -0.0519
  864MPD2    H712744   1.599   0.011  16.754  0.7197 -2.0341  0.9962
  865MPD2     C12745   2.352   1.155  16.711 -0.2955  0.1390 -0.1978
  865MPD2    C112746   2.291   1.030  16.689 -0.0207  0.7221  0.5628
  865MPD2    C212747   2.293   0.935  16.793 -0.0400  0.6475  0.2346
  865MPD2    C312748   2.373   0.967  16.909 -0.3723 -0.1526  0.5776
  865MPD2    C412749   2.436   1.081  16.917  0.2759  0.0745  0.5948
  865MPD2    C512750   2.418   1.171  16.825 -0.0062 -0.2737  0.8843
  865MPD2     H12751   2.230   0.847  16.790  0.7096  0.1042  0.5626
  865MPD2    H112752   2.494   1.104  17.006  0.6509  0.3697  0.2763
  865MPD2    H212753   2.359   1.229  16.633  2.7508  0.4378  0.3665
  865MPD2    H312754   2.451   1.273  16.843 -1.2904  0.5692 -1.5963
  865MPD2     N12755   2.386   0.883  17.022 -0.2668 -0.2676  0.4727
  865MPD2    H512756   2.437   0.929  17.096  1.0044  1.0275 -1.2069
  865MPD2    N112757   2.246   1.006  16.554  0.1139 -0.3345 -0.0056
  865MPD2    H712758   2.243   1.089  16.494  1.2105  2.0086  3.1949
  866MPD2     C12759   3.591   1.821  11.169  0.0033  0.7581  0.2369
  866MPD2    C112760   3.512   1.710  11.193 -0.6064  0.3043 -0.1697
  866MPD2    C212761   3.385   1.717  11.139 -0.3778 -0.0560  0.1659
  866MPD2    C312762   3.337   1.829  11.076 -0.2762  0.2258  0.5272
  866MPD2    C412763   3.413   1.945  11.070 -0.4937  0.1285 -0.6195
  866MPD2    C512764   3.539   1.934  11.109  0.5004  0.0511 -0.0334
  866MPD2     H12765   3.325   1.627  11.139  0.2504 -0.4686 -0.5036
  866MPD2    H112766   3.376   2.034  11.020  0.5078  1.0455  0.2613
  866MPD2    H212767   3.698   1.814  11.185 -0.1426  0.7387  1.2043
  866MPD2    H312768   3.599   2.019  11.078 -0.2804  0.2988 -0.8473
  866MPD2     N12769   3.206   1.841  11.032 -0.8113 -0.1329 -0.3345
  866MPD2    H512770   3.195   1.915  10.963 -1.1310  0.1997  0.0676
  866MPD2    N112771   3.570   1.591  11.247  0.1110 -0.0627  0.6690
  866MPD2    H712772   3.662   1.598  11.288  1.1019 -0.5373 -1.4733
  867MPD2     C12773   0.299   1.503  16.440  0.2302 -0.4740  0.4244
  867MPD2    C112774   0.358   1.402  16.512 -0.5969  0.3941  0.2711
  867MPD2    C212775   0.345   1.409  16.647  0.3114  0.7985 -0.7052
  867MPD2    C312776   0.277   1.513  16.709  0.2389  0.1890 -0.4074
  867MPD2    C412777   0.219   1.615  16.630  0.1451 -0.0954  0.6122
  867MPD2    C512778   0.244   1.615  16.493 -0.4686 -0.5790  1.0565
  867MPD2     H12779   0.389   1.332  16.709  1.4767  1.3216 -0.8812
  867MPD2    H112780   0.144   1.688  16.661 -0.4126  0.1740 -1.4133
  867MPD2    H212781   0.287   1.497  16.333 -0.1946 -2.3734  0.5773
  867MPD2    H312782   0.197   1.698  16.441  0.7802 -0.7534 -0.3304
  867MPD2     N12783   0.252   1.513  16.850 -0.0351 -0.1509  0.0098
  867MPD2    H512784   0.181   1.580  16.878  1.1479  1.3197 -0.5650
  867MPD2    N112785   0.399   1.290  16.436 -0.0123  0.3602 -0.3540
  867MPD2    H712786   0.393   1.297  16.335  2.2747 -2.3374 -0.6789
  868MPD2     C12787   2.427   4.579  12.802 -0.2965  0.3160  0.2699
  868MPD2    C112788   2.479   4.684  12.876 -0.4278  0.2859  0.0715
  868MPD2    C212789   2.394   0.032  12.949  0.0680 -0.0002 -0.4877
  868MPD2    C312790   2.261   0.003  12.957 -0.2500 -0.1588 -0.6164
  868MPD2    C412791   2.214   4.627  12.888 -0.6534 -1.0027  1.1772
  868MPD2    C512792   2.292   4.554  12.807 -0.1954  0.0012 -0.1320
  868MPD2     H12793   2.430   0.109  13.016 -0.3675  1.1656 -1.5937
  868MPD2    H112794   2.111   4.593  12.897 -0.9917 -0.1273  0.5146
  868MPD2    H212795   2.493   4.512  12.748 -0.4881 -1.3947  2.1483
  868MPD2    H312796   2.249   4.466  12.761  0.4926 -0.0014 -0.7646
  868MPD2     N12797   2.170   0.086  13.019 -0.1270  0.5527  0.6225
  868MPD2    H512798   2.197   0.177  13.057 -1.8942  0.7453  1.4036
  868MPD2    N112799   2.617   4.704  12.867  0.7313  0.8000  0.0791
  868MPD2    H712800   2.665   4.629  12.818  0.4713  0.6421  0.0667
  869MPD2     C12801   3.190   2.299   0.411 -0.0809 -0.8882  0.5757
  869MPD2    C112802   3.121   2.351   0.521 -0.0686 -0.4107 -0.8435
  869MPD2    C212803   3.188   2.446   0.592  0.7182  0.0869  0.0339
  869MPD2    C312804   3.323   2.476   0.576  0.3559 -0.4743  0.5709
  869MPD2    C412805   3.394   2.407   0.476  0.0366 -0.3296 -0.2961
  869MPD2    C512806   3.324   2.329   0.391  1.2134 -0.0647 -0.1762
  869MPD2     H12807   3.129   2.515   0.651 -1.1814 -1.0992 -0.4920
  869MPD2    H112808   3.501   2.417   0.462  0.1222 -2.2170 -0.8905
  869MPD2    H212809   3.149   2.229   0.339  0.0432 -0.5083  0.1338
  869MPD2    H312810   3.376   2.272   0.314  3.9572  1.5786  0.4492
  869MPD2     N12811   3.375   2.587   0.653  0.4900 -1.0524  0.0922
  869MPD2    H512812   3.307   2.628   0.716  0.1199 -2.5089  0.6558
  869MPD2    N112813   2.981   2.325   0.529 -0.2946  0.1400 -0.2004
  869MPD2    H712814   2.945   2.266   0.455 -0.3960 -1.2602  0.9715
  870MPD2     C12815   3.338   1.731   1.381 -0.0946 -0.1378 -0.5033
  870MPD2    C112816   3.299   1.629   1.299  0.3571  0.2101 -0.8674
  870MPD2    C212817   3.188   1.650   1.219  0.1436  0.0770 -0.3961
  870MPD2    C312818   3.103   1.759   1.234  0.7806  0.3874  0.3693
  870MPD2    C412819   3.150   1.858   1.316 -0.5629 -0.1486  0.3113
  870MPD2    C512820   3.257   1.842   1.399 -0.4895  0.1798 -0.1471
  870MPD2     H12821   3.153   1.572   1.152  2.8158  0.8350 -2.6775
  870MPD2    H112822   3.110   1.958   1.320  0.1373  0.1738 -1.1662
  870MPD2    H212823   3.418   1.724   1.453 -1.2214 -0.8325  0.6828
  870MPD2    H312824   3.290   1.912   1.475 -1.5499 -0.4816  0.9132
  870MPD2     N12825   2.992   1.772   1.149 -0.0699  0.6091 -0.1308
  870MPD2    H512826   2.982   1.696   1.083  2.0328 -1.2797  1.7288
  870MPD2    N112827   3.382   1.522   1.290  0.2232 -0.5435 -0.8629
  870MPD2    H712828   3.467   1.536   1.343 -1.2765  1.6460  0.9195
  871MPD2     C12829   3.868   0.864  16.545 -0.4492 -0.1486  0.5894
  871MPD2    C112830   3.943   0.925  16.646  0.8876 -0.4060 -0.2937
  871MPD2    C212831   4.075   0.891  16.665 -0.4973  0.1220  0.3575
  871MPD2    C312832   4.129   0.788  16.594 -0.3383 -0.5809  0.3659
  871MPD2    C412833   4.050   0.724  16.495 -0.5006 -0.9862 -0.6256
  871MPD2    C512834   3.923   0.765  16.476 -0.3995 -0.2896  0.1811
  871MPD2     H12835   4.140   0.947  16.732  0.8653  0.1955 -1.0197
  871MPD2    H112836   4.081   0.650  16.422 -3.0225 -3.1157  0.4768
  871MPD2    H212837   3.770   0.900  16.516 -0.1954 -2.2760 -2.8558
  871MPD2    H312838   3.869   0.722  16.392 -2.7378  1.8627  0.5796
  871MPD2     N12839   4.263   0.757  16.605  0.6179 -0.1083 -0.1920
  871MPD2    H512840   4.315   0.819  16.668  1.3513  0.7999 -1.6983
  871MPD2    N112841   3.878   1.021  16.726 -0.5437 -0.2118 -0.3455
  871MPD2    H712842   3.787   1.056  16.700 -0.3337  0.1993 -0.5224
  872MPD2     C12843   0.933   3.146  14.481  0.8305  0.0584  0.2787
  872MPD2    C112844   0.917   3.254  14.399  0.3095 -0.1503  0.1289
  872MPD2    C212845   0.793   3.309  14.381 -0.0957  0.6741  0.2961
  872MPD2    C312846   0.677   3.259  14.444 -0.1538 -0.7787 -0.3170
  872MPD2    C412847   0.700   3.149  14.524  0.2692 -0.1850  0.3826
  872MPD2    C512848   0.821   3.095  14.536  0.4565 -0.6336  0.0027
  872MPD2     H12849   0.793   3.398  14.319  0.8597  0.2148 -0.3593
  872MPD2    H112850   0.618   3.096  14.571  0.7698 -0.3571  1.0824
  872MPD2    H212851   1.020   3.083  14.491  0.1122 -0.9392  0.2020
  872MPD2    H312852   0.827   3.006  14.599  0.4082 -0.2143  0.5956
  872MPD2     N12853   0.543   3.293  14.408  0.1470  0.7027 -0.5453
  872MPD2    H512854   0.473   3.237  14.456  1.0714 -0.5294 -0.6532
  872MPD2    N112855   1.021   3.321  14.337 -0.6016  0.3777 -0.0608
  872MPD2    H712856   1.005   3.411  14.293  1.7548 -0.2876 -2.2719
  873MPD2     C12857   2.390   3.258   0.656  0.3069  0.1105 -0.0330
  873MPD2    C112858   2.254   3.246   0.654  0.1597  0.5265 -0.4365
  873MPD2    C212859   2.191   3.126   0.628 -0.0129  0.0638 -0.0057
  873MPD2    C312860   2.267   3.011   0.594  0.3434  0.4612 -0.0386
  873MPD2    C412861   2.407   3.019   0.590  0.4017 -0.6456  0.0384
  873MPD2    C512862   2.464   3.140   0.629 -0.3232  0.0097 -0.0794
  873MPD2     H12863   2.083   3.121   0.623 -0.0642  0.2628  1.1279
  873MPD2    H112864   2.464   2.928   0.575 -0.5496 -1.3737  0.8006
  873MPD2    H212865   2.443   3.344   0.695 -0.5711  1.0337 -0.8995
  873MPD2    H312866   2.572   3.148   0.627 -0.2347 -1.4164 -0.4335
  873MPD2     N12867   2.210   2.878   0.573 -0.0369 -0.5563 -0.2823
  873MPD2    H512868   2.272   2.805   0.539 -0.2767 -0.8916  0.0055
  873MPD2    N112869   2.187   3.366   0.692 -0.0606  0.0730  0.1396
  873MPD2    H712870   2.236   3.455   0.703  1.1998 -0.6979  0.7646
  874MPD2     C12871   1.292   2.924  16.774  0.3231 -0.2597  0.6239
  874MPD2    C112872   1.423   2.889  16.767  0.2112 -0.2603  0.5186
  874MPD2    C212873   1.508   2.960  16.680  0.2448  0.1512  0.4144
  874MPD2    C312874   1.470   3.077  16.614  0.6284  0.0108  0.4002
  874MPD2    C412875   1.342   3.116  16.636 -0.3566 -1.0875 -0.1898
  874MPD2    C512876   1.256   3.032  16.701  1.3229  0.1358  0.5861
  874MPD2     H12877   1.607   2.917  16.666  0.0847  0.2885 -1.1916
  874MPD2    H112878   1.299   3.198  16.580 -1.4058 -0.7393  1.1277
  874MPD2    H212879   1.220   2.862  16.827 -1.3678  1.1520 -0.0043
  874MPD2    H312880   1.155   3.070  16.687  1.7129  1.1947  0.6130
  874MPD2     N12881   1.573   3.150  16.545  0.0143  0.5489  0.7409
  874MPD2    H512882   1.667   3.115  16.531 -1.0595 -1.1836 -2.0878
  874MPD2    N112883   1.460   2.770  16.835  0.3618 -0.0541 -0.2241
  874MPD2    H712884   1.387   2.723  16.888  1.6736  0.5377  2.1081
  875MPD2     C12885   2.687   1.689  14.492  0.0925 -0.0923  0.2335
  875MPD2    C112886   2.750   1.802  14.444 -0.1584 -0.1850 -0.5867
  875MPD2    C212887   2.857   1.856  14.517 -0.3017 -0.0934 -0.4914
  875MPD2    C312888   2.901   1.804  14.638  0.1108  0.1736 -0.2458
  875MPD2    C412889   2.834   1.696  14.694 -0.2834 -0.3852  0.9640
  875MPD2    C512890   2.729   1.643  14.616  0.0897  0.9303  0.1837
  875MPD2     H12891   2.911   1.940  14.473 -0.4708  0.3192  0.0867
  875MPD2    H112892   2.872   1.636  14.777  0.6870 -1.3210 -0.1490
  875MPD2    H212893   2.611   1.633  14.439  0.0872  0.0790  0.0591
  875MPD2    H312894   2.691   1.541  14.620  2.1255  0.1212 -0.9019
  875MPD2     N12895   3.006   1.863  14.712  0.2795 -0.6788  0.2778
  875MPD2    H512896   3.019   1.827  14.807 -0.8145 -0.4815  0.5005
  875MPD2    N112897   2.724   1.857  14.313 -0.2973  0.0938  0.6546
  875MPD2    H712898   2.773   1.941  14.284 -1.1330  0.0456 -0.8634
  876MPD2     C12899   1.509   3.474  16.052 -0.0615 -1.2858 -0.3748
  876MPD2    C112900   1.623   3.418  16.007 -0.0430  0.3085  0.2386
  876MPD2    C212901   1.659   3.291  16.045  0.2142  0.8217  0.1331
  876MPD2    C312902   1.569   3.217  16.121  0.0824 -0.3343 -0.2112
  876MPD2    C412903   1.443   3.267  16.144  0.3542  0.3042 -0.0682
  876MPD2    C512904   1.419   3.396  16.117  0.1722 -0.8205 -0.6430
  876MPD2     H12905   1.748   3.238  16.016  0.1582  1.6666 -1.5431
  876MPD2    H112906   1.366   3.201  16.181 -0.0854  0.9569  0.1729
  876MPD2    H212907   1.486   3.574  16.018  1.1447 -1.1012 -0.6357
  876MPD2    H312908   1.316   3.428  16.125  0.6441  0.6199 -0.4709
  876MPD2     N12909   1.607   3.086  16.161  0.3914 -0.1930  0.2919
  876MPD2    H512910   1.705   3.064  16.151  0.9011  1.9105  0.7182
  876MPD2    N112911   1.702   3.493  15.917 -0.1338 -0.5330  0.2319
  876MPD2    H712912   1.666   3.583  15.888 -0.6828 -0.5307  0.9274
  877MPD2     C12913   2.436   3.508  15.451  0.3895  0.5139  0.0405
  877MPD2    C112914   2.316   3.545  15.392 -0.2441 -0.2664 -0.1538
  877MPD2    C212915   2.298   3.537  15.255  0.0977 -0.4018 -0.1780
  877MPD2    C312916   2.402   3.508  15.167  0.2735 -0.0195  0.5930
  877MPD2    C412917   2.527   3.482  15.225  1.0491 -0.2124 -0.0819
  877MPD2    C512918   2.540   3.483  15.364 -0.4463 -0.2136  0.1160
  877MPD2     H12919   2.200   3.549  15.211  0.6053  2.4259 -0.5434
  877MPD2    H112920   2.614   3.452  15.168  0.7077  0.4011 -0.9152
  877MPD2    H212921   2.444   3.510  15.559 -2.3393 -0.8226  0.2611
  877MPD2    H312922   2.633   3.455  15.413 -0.6271 -1.0580 -0.0371
  877MPD2     N12923   2.388   3.476  15.037  0.1038 -0.2136 -0.3278
  877MPD2    H512924   2.470   3.442  14.987 -0.2887 -0.5716 -0.7405
  877MPD2    N112925   2.203   3.589  15.461  0.0160 -0.2578 -0.2391
  877MPD2    H712926   2.128   3.629  15.405 -1.4983 -1.4080  0.9908
  878MPD2     C12927   1.485   2.779  12.948 -0.4034  0.9262 -0.3260
  878MPD2    C112928   1.586   2.871  12.935 -0.1153  0.3014 -0.0907
  878MPD2    C212929   1.606   2.963  13.039  0.2997 -0.2890 -0.8616
  878MPD2    C312930   1.535   2.970  13.157  0.3985 -0.1036 -0.1509
  878MPD2    C412931   1.442   2.875  13.164 -0.6025  0.1910 -0.1694
  878MPD2    C512932   1.409   2.787  13.063  1.2266  0.3003 -0.4684
  878MPD2     H12933   1.686   3.035  13.024 -0.7639  1.1420  0.2857
  878MPD2    H112934   1.377   2.885  13.250  1.0190  3.0343  0.7337
  878MPD2    H212935   1.453   2.708  12.872  0.6051 -2.4275  2.3986
  878MPD2    H312936   1.331   2.713  13.074  2.4437 -0.9762 -0.4516
  878MPD2     N12937   1.575   3.059  13.263 -0.0556  0.6405 -0.1517
  878MPD2    H512938   1.650   3.123  13.241  1.8140 -1.5263 -0.0782
  878MPD2    N112939   1.663   2.859  12.822  0.1738  0.3009 -0.5528
  878MPD2    H712940   1.635   2.783  12.760  0.6187  1.4819 -2.2081
  879MPD2     C12941   1.805   4.284  16.379  1.0615 -0.0181 -0.8560
  879MPD2    C112942   1.809   4.186  16.475  0.3490 -0.2579  0.0811
  879MPD2    C212943   1.711   4.089  16.472 -0.0815 -0.2316 -0.5711
  879MPD2    C312944   1.616   4.085  16.374 -0.4192 -0.6352 -0.0672
  879MPD2    C412945   1.618   4.182  16.279 -0.7497 -0.0999  0.6543
  879MPD2    C512946   1.711   4.283  16.282  0.0790 -0.2890 -0.5364
  879MPD2     H12947   1.716   4.014  16.551 -1.2922  0.0484 -0.2151
  879MPD2    H112948   1.534   4.188  16.211  0.4521 -1.9264 -0.9694
  879MPD2    H212949   1.873   4.367  16.363 -0.5566  0.9526 -2.6792
  879MPD2    H312950   1.707   4.364  16.210  0.2937  2.2397  2.3038
  879MPD2     N12951   1.527   3.979  16.356 -0.0939  0.4020 -0.0092
  879MPD2    H512952   1.469   3.992  16.274 -2.7268 -1.2481  1.5739
  879MPD2    N112953   1.919   4.186  16.564 -0.3078  0.3577 -0.2908
  879MPD2    H712954   1.986   4.259  16.543 -1.4782  2.0500  1.8126
  880MPD2     C12955   3.040   1.091   0.329 -0.3003 -0.6519 -1.0731
  880MPD2    C112956   3.084   1.107   0.200  0.6174  0.2179  1.4314
  880MPD2    C212957   3.172   1.019   0.144  0.3329 -1.2255 -0.1689
  880MPD2    C312958   3.214   0.911   0.220 -0.0634 -0.0036  0.0337
  880MPD2    C412959   3.172   0.893   0.350  1.2929  0.1912  0.3439
  880MPD2    C512960   3.082   0.987   0.403  0.5383  0.8540  0.1205
  880MPD2     H12961   3.216   1.031   0.045 -0.4182 -0.0766 -0.3662
  880MPD2    H112962   3.207   0.814   0.417 -0.0722 -0.5894  0.1439
  880MPD2    H212963   2.966   1.155   0.376  1.5091  1.2926 -0.8875
  880MPD2    H312964   3.051   0.981   0.507  0.0377 -0.4872 -0.1057
  880MPD2     N12965   3.322   0.833   0.173  0.3990 -0.3992  0.3387
  880MPD2    H512966   3.370   0.869   0.091 -1.4331  1.8807  0.2863
  880MPD2    N112967   3.036   1.226   0.139 -0.3203  0.0327 -0.0282
  880MPD2    H712968   2.990   1.296   0.196 -0.4856  0.6874 -0.9630
  881MPD2     C12969   3.360   2.097  17.324  0.5456  0.0702 -0.0564
  881MPD2    C112970   3.330   1.981  17.262  0.7486 -0.0746  1.1090
  881MPD2    C212971   3.255   1.884  17.333 -0.5486  0.7719 -0.0382
  881MPD2    C312972   3.226   1.910  17.469  0.1430  0.3353 -0.4076
  881MPD2    C412973   3.275   2.024  17.532 -0.5564  0.1754  0.0150
  881MPD2    C512974   3.349   2.113  17.461 -0.2692  0.6195 -0.0180
  881MPD2     H12975   3.228   1.790  17.287  2.5604 -0.7019  1.1372
  881MPD2    H112976   3.263   2.033  17.639  1.5451 -2.7759  0.5065
  881MPD2    H212977   3.424   2.170  17.276 -3.0598  4.0963  1.1645
  881MPD2    H312978   3.384   2.203  17.510  1.4064 -0.3601  0.5560
  881MPD2     N12979   3.154   1.819  17.548 -0.6438 -0.2250 -0.3947
  881MPD2    H512980   3.126   1.847  17.641  0.8913  0.6070 -0.1637
  881MPD2    N112981   3.334   1.973  17.120 -1.0790  0.4656  0.6630
  881MPD2    H712982   3.286   1.897  17.074  1.3969 -1.2417  0.8840
  882MPD2     C12983   1.848   3.237  14.317  0.0183 -0.0157  0.2735
  882MPD2    C112984   1.848   3.289  14.443  0.4212 -0.6639 -0.1356
  882MPD2    C212985   1.727   3.281  14.519  0.1877 -0.5569  0.0049
  882MPD2    C312986   1.618   3.212  14.464 -0.5715 -0.1719  0.1909
  882MPD2    C412987   1.629   3.153  14.343  0.6844  0.1370  0.3871
  882MPD2    C512988   1.743   3.166  14.266  0.4325 -0.2386 -0.3119
  882MPD2     H12989   1.721   3.326  14.617  0.8430  0.9951 -0.6555
  882MPD2    H112990   1.548   3.092  14.305  0.4735  1.9310 -2.0762
  882MPD2    H212991   1.939   3.224  14.260  0.0031 -1.3688  0.5559
  882MPD2    H312992   1.756   3.115  14.172  2.9774 -0.7923  0.3454
  882MPD2     N12993   1.497   3.199  14.543 -0.0735  0.6357 -0.1759
  882MPD2    H512994   1.427   3.130  14.517  1.0758  0.3851 -2.6404
  882MPD2    N112995   1.970   3.340  14.489 -0.0166  0.1069  0.4896
  882MPD2    H712996   2.049   3.353  14.427  0.6946  1.3170  1.6576
  883MPD2     C12997   3.595   3.663  15.571 -0.5929 -0.1741  0.1176
  883MPD2    C112998   3.723   3.697  15.522  0.0373 -0.5369 -0.7781
  883MPD2    C212999   3.816   3.761  15.605 -0.4046 -0.5775  0.1332
  883MPD2    C313000   3.779   3.809  15.724  0.6099 -0.0680  0.5371
  883MPD2    C413001   3.656   3.768  15.780  0.5084 -0.4331  0.4589
  883MPD2    C513002   3.567   3.704  15.699  0.3926  0.2818 -0.6682
  883MPD2     H13003   3.919   3.778  15.575 -0.9152 -0.3816 -1.5055
  883MPD2    H113004   3.635   3.794  15.884  0.8463  1.2080  0.1234
  883MPD2    H213005   3.525   3.613  15.505 -0.5210 -1.2801  0.8851
  883MPD2    H313006   3.470   3.683  15.743  0.2546 -1.2658 -1.7017
  883MPD2     N13007   3.877   3.885  15.793  0.3261  0.0866  0.0124
  883MPD2    H513008   3.965   3.891  15.744 -0.1439  0.0748 -0.8442
  883MPD2    N113009   3.779   3.656  15.392 -0.4235  0.1408  0.0284
  883MPD2    H713010   3.875   3.683  15.376  0.1074  0.5650  3.7467
  884MPD2     C13011   1.272   4.535  15.208  0.2466  0.3660 -0.2108
  884MPD2    C113012   1.263   4.605  15.089  1.3127 -0.4171 -0.3360
  884MPD2    C213013   1.146   4.660  15.059 -0.2329 -0.4566 -0.0314
  884MPD2    C313014   1.033   4.647  15.131  0.5275  0.5064  1.2532
  884MPD2    C413015   1.032   4.575  15.250 -0.9340  0.6075  0.3669
  884MPD2    C513016   1.153   4.521  15.279  0.3613 -0.6447 -0.4106
  884MPD2     H13017   1.141   4.715  14.966  0.7243 -0.9978 -0.3949
  884MPD2    H113018   0.950   4.563  15.320 -1.9607  0.2425 -0.8978
  884MPD2    H213019   1.363   4.488  15.243  0.1292  1.1451  1.1645
  884MPD2    H313020   1.153   4.462  15.370 -0.9587  0.3495  0.2276
  884MPD2     N13021   0.918   4.711  15.081 -0.5143  0.2305 -0.2987
  884MPD2    H513022   0.928   0.001  14.983 -0.5849 -1.0706 -0.6385
  884MPD2    N113023   1.374   4.648  15.001  0.4703 -0.4571  0.1803
  884MPD2    H713024   1.354   4.721  14.934  1.4796 -0.6749 -0.3606
  885MPD2     C13025   3.871   4.620   0.150 -0.0037  0.4702 -0.6883
  885MPD2    C113026   3.995   4.577   0.102 -0.3803  0.4834  0.0928
  885MPD2    C213027   4.037   4.610  17.716  0.7268  0.9315  0.0699
  885MPD2    C313028   3.964   4.696  17.638  0.2332 -0.4505  0.0949
  885MPD2    C413029   3.857   0.025  17.697 -0.0088 -0.1266  0.0448
  885MPD2    C513030   3.812   4.724   0.085  0.0886  0.2746  1.0555
  885MPD2     H13031   4.135   4.580  17.679 -0.2120 -1.4594 -0.4947
  885MPD2    H113032   3.803   0.107  17.650 -2.5916 -0.1241  3.0053
  885MPD2    H213033   3.831   4.588   0.245  1.2169  2.0588  0.3533
  885MPD2    H313034   3.733   0.044   0.135 -1.4305  0.1224 -1.1854
  885MPD2     N13035   3.996   4.719  17.505  0.0439 -0.1464  0.7020
  885MPD2    H513036   4.068   4.657  17.470 -0.2941  0.1409 -0.4987
  885MPD2    N113037   4.071   4.487   0.184 -0.0011  0.2596  0.7567
  885MPD2    H713038   4.032   4.466   0.275  0.1139 -1.2859  0.4447
  886MPD2     C13039   4.734   3.475  15.555  0.2439  0.2805 -0.1372
  886MPD2    C113040   0.130   3.428  15.568  0.2260 -0.9759  0.1170
  886MPD2    C213041   0.215   3.432  15.461 -0.0963 -0.9321  0.8568
  886MPD2    C313042   0.167   3.482  15.340  0.1966  0.0097  0.3799
  886MPD2    C413043   0.034   3.527  15.328 -0.3974 -0.0442 -0.0210
  886MPD2    C513044   4.690   3.525  15.438 -0.2601 -0.1944 -0.3237
  886MPD2     H13045   0.319   3.404  15.472 -0.0278 -1.3081 -0.7306
  886MPD2    H113046   4.732   3.573  15.237  0.8171  1.4208  0.2085
  886MPD2    H213047   4.682   3.500  15.647 -0.8707 -1.0073 -0.4233
  886MPD2    H313048   4.589   3.565  15.433 -0.1930 -0.1998 -1.8455
  886MPD2     N13049   0.257   3.478  15.227 -0.2046  0.2757  0.7477
  886MPD2    H513050   0.355   3.453  15.238  0.5052  3.0968  0.6530
  886MPD2    N113051   0.179   3.365  15.687 -0.0927  0.3716  0.2008
  886MPD2    H713052   0.275   3.331  15.687 -0.5112 -0.7795  1.8137
  887MPD2     C13053   0.833   3.242  15.857 -0.1356 -0.7060 -0.0257
  887MPD2    C113054   0.759   3.360  15.867  0.4428  0.0155  0.1192
  887MPD2    C213055   0.809   3.486  15.838  0.1784  0.2521 -0.6156
  887MPD2    C313056   0.939   3.492  15.801 -0.0565 -0.2265  0.0988
  887MPD2    C413057   1.017   3.381  15.788  0.8354  0.4301 -0.6897
  887MPD2    C513058   0.964   3.255  15.826 -0.0835 -0.0656 -0.3365
  887MPD2     H13059   0.755   3.576  15.863  0.9550  0.4902  0.2137
  887MPD2    H113060   1.123   3.386  15.764  1.0222  0.2483  0.0992
  887MPD2    H213061   0.807   3.146  15.901  0.9603 -1.3617 -0.7986
  887MPD2    H313062   1.026   3.167  15.830 -2.5936 -1.9011 -2.2132
  887MPD2     N13063   0.987   3.620  15.788 -0.0965  0.0963 -0.3207
  887MPD2    H513064   0.918   3.692  15.773 -2.8186 -2.7175 -1.4260
  887MPD2    N113065   0.621   3.349  15.912 -0.3418 -0.8200  0.4343
  887MPD2    H713066   0.581   3.440  15.931 -1.3793 -1.2393  0.2291
  888MPD2     C13067   3.328   2.950  15.032  0.1742  0.6882  0.4546
  888MPD2    C113068   3.254   3.040  15.104  0.4322  1.1128  0.6137
  888MPD2    C213069   3.283   3.177  15.107 -0.3353 -0.0877 -0.4355
  888MPD2    C313070   3.396   3.220  15.041  0.1699 -0.2286 -0.2074
  888MPD2    C413071   3.473   3.124  14.972 -0.4865  0.4515  0.4049
  888MPD2    C513072   3.446   2.989  14.980 -0.1245 -0.6399  1.2034
  888MPD2     H13073   3.226   3.255  15.155  0.8828  0.6448 -0.1633
  888MPD2    H113074   3.560   3.148  14.912 -1.3451  2.1917 -0.1413
  888MPD2    H213075   3.312   2.844  15.046  3.6678  0.2905  1.4575
  888MPD2    H313076   3.516   2.918  14.937 -0.4688 -0.4226  0.2773
  888MPD2     N13077   3.424   3.361  15.032  0.2215 -0.0711  0.2586
  888MPD2    H513078   3.362   3.411  15.094  0.0289  0.3335 -0.2630
  888MPD2    N113079   3.146   2.998  15.184  0.5138 -0.2759  0.6675
  888MPD2    H713080   3.098   3.069  15.238 -0.0775  0.5616 -0.9672
  889MPD2     C13081   2.351   2.607  13.363  0.3877 -0.2370 -0.4205
  889MPD2    C113082   2.480   2.620  13.413 -0.3256  0.3292 -0.1888
  889MPD2    C213083   2.517   2.738  13.470 -0.8470 -0.2429  0.2386
  889MPD2    C313084   2.419   2.816  13.529  0.3468 -0.1125  0.0042
  889MPD2    C413085   2.288   2.792  13.498 -0.2346 -0.4685  0.1679
  889MPD2    C513086   2.257   2.696  13.401  0.4223 -0.6574 -0.1627
  889MPD2     H13087   2.612   2.759  13.518 -1.0726 -2.2419  1.5468
  889MPD2    H113088   2.198   2.843  13.531 -0.4272 -0.6802 -0.0226
  889MPD2    H213089   2.314   2.518  13.315 -0.3814 -0.7097  1.0380
  889MPD2    H313090   2.153   2.669  13.388 -0.3536  0.5218  3.5665
  889MPD2     N13091   2.456   2.922  13.612 -0.1493  0.5593  1.1763
  889MPD2    H513092   2.556   2.930  13.628  0.0647  1.1752 -0.5040
  889MPD2    N113093   2.587   2.538  13.373  0.1239  0.3412  0.3816
  889MPD2    H713094   2.680   2.558  13.410  0.3780  0.3677 -0.2610
  890MPD2     C13095   1.529   4.603  14.606 -0.5251 -0.2309  0.7595
  890MPD2    C113096   1.651   4.668  14.608 -0.0851 -0.5545  0.2371
  890MPD2    C213097   1.757   4.606  14.673  0.5290  0.2417 -0.0481
  890MPD2    C313098   1.742   4.479  14.728 -0.1439 -0.1077 -0.7611
  890MPD2    C413099   1.621   4.415  14.715  0.4562  0.6385  0.4218
  890MPD2    C513100   1.515   4.469  14.648 -0.2436  0.3951  0.2211
  890MPD2     H13101   1.858   4.645  14.663  0.8394 -0.8443 -1.0350
  890MPD2    H113102   1.591   4.320  14.760  0.9943  1.1218  1.8025
  890MPD2    H213103   1.439   4.648  14.566 -0.3854  0.3006  1.0446
  890MPD2    H313104   1.423   4.412  14.639  0.9972 -1.6203  0.5108
  890MPD2     N13105   1.845   4.420  14.801  0.0623 -0.5673  0.4801
  890MPD2    H513106   1.932   4.474  14.801  0.4345 -1.1702 -1.3424
  890MPD2    N113107   1.653   0.062  14.550 -0.3198 -0.2864  0.3000
  890MPD2    H713108   1.561   0.085  14.513 -0.0667  1.1138  0.5411
  891MPD2     C13109   0.090   3.141  17.134 -0.2733 -0.3849  0.1990
  891MPD2    C113110   4.727   3.119  17.229  0.6623 -0.3555 -0.3748
  891MPD2    C213111   0.023   3.039  17.338  0.2896  0.2595 -0.3763
  891MPD2    C313112   0.156   2.991  17.363 -0.1459 -0.6718 -0.1205
  891MPD2    C413113   0.250   3.018  17.267  0.1357 -0.5823 -1.2700
  891MPD2    C513114   0.218   3.091  17.152 -0.4444  0.6740 -0.0615
  891MPD2     H13115   4.686   3.011  17.413 -0.3191 -1.1643 -1.4787
  891MPD2    H113116   0.353   2.986  17.279 -0.8321 -2.3871  2.2127
  891MPD2    H213117   0.070   3.190  17.040  0.1394  0.4570  0.5491
  891MPD2    H313118   0.287   3.106  17.070  1.8373  0.2930  1.7871
  891MPD2     N13119   0.176   2.923  17.485  0.5408  0.3018 -0.0422
  891MPD2    H513120   0.091   2.881  17.524  0.4970  2.2438  1.9882
  891MPD2    N113121   4.599   3.167  17.197 -0.3407  0.1377 -0.0739
  891MPD2    H713122   4.582   3.213  17.108 -0.8560 -0.9704 -0.5530
  892MPD2     C13123   0.997   3.820  15.135  0.0994  0.1571  0.2780
  892MPD2    C113124   0.987   3.830  14.998  0.0181  0.2939  0.1804
  892MPD2    C213125   1.020   3.716  14.923  0.2529  0.0840 -0.0413
  892MPD2    C313126   1.064   3.600  14.980  0.6405  0.4920  0.6407
  892MPD2    C413127   1.081   3.599  15.120  0.2870  1.3598  0.9744
  892MPD2    C513128   1.050   3.707  15.193 -0.6271 -0.1389 -0.0747
  892MPD2     H13129   1.013   3.722  14.815 -1.5799 -0.9409  0.0081
  892MPD2    H113130   1.116   3.518  15.183 -1.3511 -0.8892 -1.0245
  892MPD2    H213131   0.964   3.892  15.209  2.2173  0.8545  0.5599
  892MPD2    H313132   1.061   3.699  15.300 -1.8960 -0.3318  0.0433
  892MPD2     N13133   1.097   3.489  14.900 -0.1964 -0.0949 -0.2075
  892MPD2    H513134   1.129   3.509  14.806  0.8352  2.5050  0.6881
  892MPD2    N113135   0.928   3.940  14.929  0.3209 -0.1571  0.3194
  892MPD2    H713136   0.885   4.011  14.986 -1.7640 -0.9702 -0.2662
  893MPD2     C13137   3.416   3.651   1.218  0.4860  0.3695  0.5132
  893MPD2    C113138   3.295   3.590   1.205 -0.0357 -0.8073  1.2772
  893MPD2    C213139   3.185   3.655   1.255 -0.6917 -0.3249 -0.3634
  893MPD2    C313140   3.197   3.777   1.323  0.8971  0.2574  0.2887
  893MPD2    C413141   3.317   3.829   1.341  0.0552 -0.0919  0.5250
  893MPD2    C513142   3.423   3.768   1.287 -0.0089 -0.2759 -0.0925
  893MPD2     H13143   3.091   3.602   1.247 -0.9446 -0.3833  2.9273
  893MPD2    H113144   3.331   3.921   1.397  0.5534 -0.1593  0.5074
  893MPD2    H213145   3.501   3.604   1.170 -1.0893 -3.0240  1.0788
  893MPD2    H313146   3.521   3.815   1.295 -0.4922  0.1057  3.4300
  893MPD2     N13147   3.094   3.849   1.392  0.7073 -0.3482 -0.3406
  893MPD2    H513148   3.127   3.928   1.447  0.2262  0.1677 -0.8021
  893MPD2    N113149   3.300   3.469   1.138 -0.2503 -0.4436 -0.1289
  893MPD2    H713150   3.389   3.430   1.110 -0.3858  1.8531 -3.7384
  894MPD2     C13151   0.541   4.205   1.234 -0.2434  0.5496 -0.0345
  894MPD2    C113152   0.429   4.273   1.259 -0.1027 -0.1128 -1.1515
  894MPD2    C213153   0.418   4.402   1.216 -0.5545  1.0027  0.5429
  894MPD2    C313154   0.524   4.466   1.147 -0.5607 -0.2554  0.1209
  894MPD2    C413155   0.632   4.383   1.120  0.0340  0.0683 -0.2117
  894MPD2    C513156   0.641   4.261   1.161 -0.1561 -0.1964  0.3464
  894MPD2     H13157   0.327   4.458   1.231 -0.1624  1.5117  1.0312
  894MPD2    H113158   0.727   4.415   1.078 -0.7069 -0.6737 -2.4428
  894MPD2    H213159   0.545   4.098   1.251  3.1370  1.0165  2.0979
  894MPD2    H313160   0.730   4.202   1.142  0.6370  1.0210  0.2571
  894MPD2     N13161   0.513   4.600   1.105 -0.5647 -0.2315 -0.8685
  894MPD2    H513162   0.430   4.654   1.128  0.2419  1.8218 -2.7273
  894MPD2    N113163   0.322   4.220   1.336  0.2751 -0.0826 -0.1236
  894MPD2    H713164   0.238   4.276   1.340  0.2102 -0.4383  3.6235
  895MPD2     C13165   0.094   2.842  14.368 -0.6566  0.2266  0.0966
  895MPD2    C113166   0.062   2.859  14.237 -0.5068  0.3196  0.4204
  895MPD2    C213167   0.157   2.839  14.139  0.1543 -0.0661 -0.3607
  895MPD2    C313168   0.278   2.775  14.167 -0.2048 -0.2173  0.2332
  895MPD2    C413169   0.304   2.755  14.294  0.1056 -0.4572  0.0201
  895MPD2    C513170   0.215   2.786  14.392  0.3854 -0.1458 -0.5826
  895MPD2     H13171   0.132   2.851  14.034  1.7402  1.5348 -0.5534
  895MPD2    H113172   0.400   2.715  14.324 -0.6846 -3.0561 -0.8780
  895MPD2    H213173   0.019   2.868  14.441  0.3650  0.0479  1.2155
  895MPD2    H313174   0.252   2.769  14.493 -1.5079 -1.4509 -0.1023
  895MPD2     N13175   0.369   2.729  14.073 -0.0746 -0.5518  0.0073
  895MPD2    H513176   0.444   2.668  14.105  1.2971  0.7228 -0.8344
  895MPD2    N113177   4.671   2.894  14.190 -0.2405  0.5596 -0.2461
  895MPD2    H713178   4.658   2.889  14.090 -1.6876  0.3661 -0.0468
  896MPD2     C13179   2.641   1.042   1.066  0.2638  0.9106  0.4901
  896MPD2    C113180   2.611   0.930   0.998  0.1184  0.3720  0.7191
  896MPD2    C213181   2.503   0.851   1.025  0.4182  0.3910  0.1475
  896MPD2    C313182   2.404   0.900   1.108 -0.9042 -0.4050 -0.3035
  896MPD2    C413183   2.421   1.021   1.170  0.2882  0.4799  0.5446
  896MPD2    C513184   2.541   1.081   1.155  0.4098  0.5013  0.2510
  896MPD2     H13185   2.488   0.754   0.978  2.0109 -0.7247  1.9580
  896MPD2    H113186   2.351   1.061   1.242 -0.0726 -1.7278  1.3909
  896MPD2    H213187   2.726   1.107   1.050 -1.6809  3.7096  1.4463
  896MPD2    H313188   2.553   1.181   1.196  1.1725  0.6304 -0.2801
  896MPD2     N13189   2.290   0.813   1.128  0.2976  0.2902 -0.0478
  896MPD2    H513190   2.285   0.734   1.065 -0.5640 -0.7260  1.3036
  896MPD2    N113191   2.697   0.887   0.891  0.3294 -0.2298 -0.8866
  896MPD2    H713192   2.790   0.926   0.891  1.0104 -1.8441  0.8070
  897MPD2     C13193   3.802   1.990  11.405 -0.2537  0.5654  0.2731
  897MPD2    C113194   3.779   2.104  11.331  0.3739 -0.2977 -0.7976
  897MPD2    C213195   3.651   2.148  11.330  0.1787  0.5686 -0.3405
  897MPD2    C313196   3.551   2.102  11.412 -0.2299 -0.0924 -0.1804
  897MPD2    C413197   3.587   2.008  11.501 -0.6911 -0.5528 -0.0243
  897MPD2    C513198   3.714   1.949  11.500  0.2989  0.7597 -0.5953
  897MPD2     H13199   3.635   2.246  11.287  0.6826  1.4353  1.4343
  897MPD2    H113200   3.524   1.972  11.581 -0.8609 -1.2365 -0.4643
  897MPD2    H213201   3.902   1.950  11.414 -0.7578 -0.9068 -0.6519
  897MPD2    H313202   3.742   1.865  11.562  2.3204  1.3024 -0.7601
  897MPD2     N13203   3.422   2.160  11.412  0.4086 -0.2057 -0.6755
  897MPD2    H513204   3.362   2.128  11.486  2.9564  0.3139  1.6091
  897MPD2    N113205   3.877   2.150  11.238  0.1052 -0.0264  0.1858
  897MPD2    H713206   3.966   2.102  11.244  0.6669  0.6360 -3.1096
  898MPD2     C13207   0.978   3.925   0.098 -0.1750  0.8857  0.1847
  898MPD2    C113208   0.943   3.874  17.715  0.7118 -0.0423 -0.1770
  898MPD2    C213209   0.881   3.959  17.623  0.3843  0.7671  0.0855
  898MPD2    C313210   0.862   4.089  17.656 -0.3298 -0.1525  0.1357
  898MPD2    C413211   0.903   4.134   0.036  0.4413  0.8833 -0.2405
  898MPD2    C513212   0.953   4.054   0.135 -1.1310  0.2811  0.2142
  898MPD2     H13213   0.839   3.920  17.531  1.6307 -0.6402  0.1102
  898MPD2    H113214   0.876   4.236   0.062 -1.8847  0.2686 -0.2574
  898MPD2    H213215   1.025   3.855   0.166 -1.9543 -0.3260  0.1739
  898MPD2    H313216   0.972   4.097   0.233  0.1510 -0.7586  0.4170
  898MPD2     N13217   0.807   4.182  17.559  0.3034  1.0590 -0.1470
  898MPD2    H513218   0.761   4.137  17.481  3.3687  1.0531 -1.9609
  898MPD2    N113219   0.974   3.741  17.670  0.1833 -0.3602 -0.3304
  898MPD2    H713220   0.975   3.721  17.570 -1.8165 -0.7973 -0.2641
  899MPD2     C13221   0.987   3.737  16.775  0.2758 -0.6397 -0.1538
  899MPD2    C113222   1.056   3.823  16.858 -0.6366 -0.4183  0.4261
  899MPD2    C213223   1.060   3.789  16.989 -0.0108 -0.2454  0.8841
  899MPD2    C313224   0.979   3.684  17.047  0.7202 -1.3956  0.0807
  899MPD2    C413225   0.914   3.609  16.955  0.6075 -0.0168 -0.2655
  899MPD2    C513226   0.921   3.630  16.825  0.8469 -0.3459 -0.5878
  899MPD2     H13227   1.119   3.850  17.056 -1.4595 -0.3653  2.2901
  899MPD2    H113228   0.857   3.526  16.995 -0.9165  0.7743 -0.7769
  899MPD2    H213229   0.972   3.764  16.672  2.2376 -0.2278 -0.3214
  899MPD2    H313230   0.889   3.552  16.757  1.6775 -0.9176 -0.3149
  899MPD2     N13231   0.981   3.649  17.191 -0.0437 -0.5984  0.2217
  899MPD2    H513232   0.928   3.565  17.211 -0.4342 -0.3542  0.2164
  899MPD2    N113233   1.098   3.953  16.822 -1.3560  0.2120 -0.3586
  899MPD2    H713234   1.066   3.986  16.731  2.6866  1.6802 -1.2754
  900MPD2     C13235   1.327   0.773  12.394  0.1662  0.0634  0.5163
  900MPD2    C113236   1.227   0.686  12.393  0.1354 -0.5246  0.2993
  900MPD2    C213237   1.134   0.682  12.293 -0.2112  0.4169 -0.6253
  900MPD2    C313238   1.142   0.776  12.192  0.8276  0.8639  0.1771
  900MPD2    C413239   1.252   0.861  12.191 -0.0762  0.5191  0.1459
  900MPD2    C513240   1.344   0.861  12.292  0.3986  0.4132  0.4875
  900MPD2     H13241   1.055   0.608  12.288  1.1652 -0.9870 -2.1032
  900MPD2    H113242   1.271   0.925  12.106  0.8326  2.6796  1.9675
  900MPD2    H213243   1.402   0.780  12.471  1.3573  1.5514 -0.7742
  900MPD2    H313244   1.423   0.934  12.300 -1.1781  2.1389  0.4697
  900MPD2     N13245   1.035   0.770  12.102  0.3760 -0.2724 -0.5361
  900MPD2    H513246   0.965   0.699  12.119 -0.2206  0.5072  0.2831
  900MPD2    N113247   1.234   0.597  12.500  0.7155  0.3028 -0.1019
  900MPD2    H713248   1.311   0.606  12.566  0.2070 -2.6458  0.8872
  901MPD2     C13249   0.913   4.365  12.676 -0.4367  0.7915  0.4362
  901MPD2    C113250   1.048   4.372  12.664  0.8008  0.3704  0.9380
  901MPD2    C213251   1.104   4.494  12.679  0.3300  0.4349  0.2754
  901MPD2    C313252   1.022   4.605  12.706  0.0814 -0.4117  0.3157
  901MPD2    C413253   0.887   4.590  12.707 -0.3542  0.3953 -0.9581
  901MPD2    C513254   0.833   4.469  12.692 -0.0406  0.2940  0.0780
  901MPD2     H13255   1.213   4.494  12.687  0.2934  2.1554  0.8741
  901MPD2    H113256   0.815   4.667  12.734 -0.4801  0.3052 -1.0339
  901MPD2    H213257   0.863   4.271  12.659  1.2643 -0.2078  0.8734
  901MPD2    H313258   0.726   4.460  12.701  0.0854 -1.0934  0.2088
  901MPD2     N13259   1.093   4.723  12.736  0.0199 -0.2509  1.1011
  901MPD2    H513260   1.195   4.722  12.733 -0.0793  0.0128 -1.6313
  901MPD2    N113261   1.113   4.244  12.633 -0.2164  0.5695 -0.3012
  901MPD2    H713262   1.058   4.159  12.627 -1.8167  1.7443 -2.3015
  902MPD2     C13263   0.509   3.438  13.055  0.0239 -0.1302 -0.4581
  902MPD2    C113264   0.402   3.404  12.983 -0.0153  0.0797  0.8208
  902MPD2    C213265   0.410   3.295  12.894  0.0603  0.7654 -0.2959
  902MPD2    C313266   0.514   3.205  12.891  0.4878  0.1502 -0.0614
  902MPD2    C413267   0.614   3.228  12.981 -0.2383 -0.6575 -0.1663
  902MPD2    C513268   0.612   3.350  13.061 -0.3271  0.6041  0.1659
  902MPD2     H13269   0.334   3.297  12.818  0.0082 -0.9866 -0.2848
  902MPD2    H113270   0.698   3.159  12.983  0.7390  0.5116 -0.9210
  902MPD2    H213271   0.519   3.526  13.116  1.3996  0.1193 -1.0483
  902MPD2    H313272   0.696   3.378  13.124 -0.8052 -1.5347  1.7527
  902MPD2     N13273   0.502   3.095  12.803 -0.2146  0.1826  0.0098
  902MPD2    H513274   0.425   3.094  12.737 -0.0754  0.4656 -0.1602
  902MPD2    N113275   0.295   3.494  12.997  0.7822  0.5445 -0.4456
  902MPD2    H713276   0.298   3.563  13.071  0.9838  0.5519 -0.4598
  903MPD2     C13277   0.277   2.924  12.207  0.0790 -0.0820 -0.9300
  903MPD2    C113278   0.210   2.905  12.323  0.2703  0.0956  0.9104
  903MPD2    C213279   0.083   2.955  12.335  0.7099  0.3893  0.4255
  903MPD2    C313280   0.021   3.019  12.227  0.5207 -0.1144  0.3352
  903MPD2    C413281   0.089   3.032  12.109  0.0893  0.7878 -0.5231
  903MPD2    C513282   0.219   2.987  12.100 -0.1665  0.1353 -0.6954
  903MPD2     H13283   0.027   2.952  12.427  0.9350 -1.2639  0.5031
  903MPD2    H113284   0.050   3.088  12.024  1.0934  0.7999 -0.9767
  903MPD2    H213285   0.382   2.897  12.201  0.6240  1.2362  2.6180
  903MPD2    H313286   0.287   3.012  12.019  0.3493  0.7671 -0.0602
  903MPD2     N13287   4.631   3.068  12.255  0.0301  0.2577  0.0056
  903MPD2    H513288   4.600   3.082  12.351  1.2944  2.4167  0.1026
  903MPD2    N113289   0.277   2.838  12.423  0.5244  0.8093  0.1240
  903MPD2    H713290   0.373   2.814  12.401  0.5836  0.2327  1.0180
  904MPD2     C13291   0.409   2.044  13.805  0.3612 -0.6146 -0.0666
  904MPD2    C113292   0.440   2.122  13.910  0.5869  0.1425  0.5074
  904MPD2    C213293   0.572   2.169  13.924  0.3454  0.1675 -0.0260
  904MPD2    C313294   0.669   2.136  13.829  0.3468  0.7050  0.2183
  904MPD2    C413295   0.633   2.055  13.722  0.0880 -0.8247  0.1527
  904MPD2    C513296   0.500   2.017  13.706 -0.0086 -0.3880  0.2039
  904MPD2     H13297   0.604   2.220  14.014 -2.6956 -1.7727  2.1614
  904MPD2    H113298   0.697   2.041  13.636 -1.3985  1.3452 -1.3119
  904MPD2    H213299   0.309   2.005  13.792 -0.4847  1.7613 -0.6881
  904MPD2    H313300   0.465   1.972  13.614  2.1060  0.5155 -1.0382
  904MPD2     N13301   0.800   2.176  13.855 -0.2019  0.5868 -0.7112
  904MPD2    H513302   0.822   2.247  13.923  1.7486 -2.5321  1.8943
  904MPD2    N113303   0.351   2.167  14.009 -0.5174  0.3932 -0.3440
  904MPD2    H713304   0.377   2.243  14.071 -1.7042  1.1813 -0.8215
  905MPD2     C13305   0.034   2.498  13.535 -0.1859  0.8316  0.4213
  905MPD2    C113306   0.050   2.542  13.662 -0.8516  0.1368  0.4631
  905MPD2    C213307   0.127   2.661  13.676  0.7929 -0.0084 -0.5011
  905MPD2    C313308   0.195   2.712  13.565 -0.0748  0.3679 -0.6781
  905MPD2    C413309   0.165   2.664  13.438  0.0900 -0.9816 -0.5148
  905MPD2    C513310   0.084   2.559  13.421 -0.4320  0.1811  0.8188
  905MPD2     H13311   0.152   2.699  13.775 -1.1228 -0.1253  0.0124
  905MPD2    H113312   0.199   2.717  13.349  0.1301  0.2458  0.2306
  905MPD2    H213313   4.704   2.413  13.518 -1.0810  1.9865 -1.9470
  905MPD2    H313314   0.050   2.534  13.321  0.0183 -3.3517  1.5687
  905MPD2     N13315   0.296   2.802  13.602 -0.6084 -0.1397 -0.4341
  905MPD2    H513316   0.313   2.816  13.701 -0.8149 -0.5453 -0.3463
  905MPD2    N113317   0.013   2.468  13.774 -0.4992 -0.2274 -0.0069
  905MPD2    H713318   4.732   2.368  13.762 -0.6896 -0.2332  0.3204
  906MPD2     C13319   1.890   2.547  11.583 -0.2002  0.2603  0.0898
  906MPD2    C113320   1.877   2.524  11.442 -0.3074 -0.1743  0.3774
  906MPD2    C213321   1.796   2.420  11.403  0.2643 -0.6361  0.0541
  906MPD2    C313322   1.712   2.356  11.498  0.3349  0.5138  0.6048
  906MPD2    C413323   1.734   2.376  11.631  0.4942  0.1163  0.2437
  906MPD2    C513324   1.820   2.475  11.669 -0.5733 -0.0464 -0.5147
  906MPD2     H13325   1.785   2.390  11.300 -2.0241  0.2238  0.0339
  906MPD2    H113326   1.678   2.331  11.712  0.8905 -0.0183  0.4451
  906MPD2    H213327   1.950   2.630  11.618 -0.3404  0.0413  0.8601
  906MPD2    H313328   1.837   2.485  11.776 -2.1416  1.4359 -0.4106
  906MPD2     N13329   1.622   2.267  11.444 -0.0089  1.2796 -0.1589
  906MPD2    H513330   1.599   2.270  11.345  2.1512 -0.0835 -0.7036
  906MPD2    N113331   1.950   2.589  11.345  0.3405  0.2329  0.3034
  906MPD2    H713332   1.913   2.583  11.250 -0.2509  0.5460  0.5170
  907MPD2     C13333   0.637   2.053  16.321 -0.0634  0.0340 -0.3521
  907MPD2    C113334   0.728   1.989  16.243  0.0630  0.0471 -0.3046
  907MPD2    C213335   0.834   1.921  16.294  0.1434  0.3446 -0.3178
  907MPD2    C313336   0.858   1.921  16.432 -0.1565  0.3178 -0.3223
  907MPD2    C413337   0.766   1.984  16.511 -0.0816 -0.2135  0.1470
  907MPD2    C513338   0.653   2.048  16.462 -0.3821 -0.4958  0.8681
  907MPD2     H13339   0.897   1.877  16.218  0.0008 -2.0717  0.9667
  907MPD2    H113340   0.770   1.985  16.619  2.1796 -2.8999  0.0932
  907MPD2    H213341   0.559   2.115  16.279  0.1875  1.4054  1.2144
  907MPD2    H313342   0.589   2.103  16.530 -1.1726 -0.4869  0.1188
  907MPD2     N13343   0.958   1.835  16.492  0.1269  0.1945  0.5474
  907MPD2    H513344   1.009   1.779  16.424 -0.3069  0.0367  0.3511
  907MPD2    N113345   0.718   1.975  16.104  0.0330 -0.3972 -0.0170
  907MPD2    H713346   0.786   1.909  16.066  1.6972  1.8724 -0.9592
  908MPD2     C13347   4.071   1.814  10.418  0.0714  1.0077 -0.7994
  908MPD2    C113348   4.010   1.768  10.530 -0.7438 -0.0071 -0.1356
  908MPD2    C213349   4.040   1.848  10.647  0.0940 -0.1188  0.7225
  908MPD2    C313350   4.105   1.966  10.650  0.1156 -0.9251 -0.8486
  908MPD2    C413351   4.166   2.003  10.533 -0.4649  0.5998  0.3863
  908MPD2    C513352   4.149   1.927  10.423  0.6920  0.3320  0.3964
  908MPD2     H13353   3.989   1.814  10.737 -1.8701  1.2906  0.1573
  908MPD2    H113354   4.244   2.079  10.528 -0.0630  0.0642 -1.2746
  908MPD2    H213355   4.073   1.768  10.320 -1.8770  0.3850 -0.5416
  908MPD2    H313356   4.187   1.974  10.334 -1.7702  1.9512  0.2121
  908MPD2     N13357   4.095   2.050  10.768 -0.1679  0.1640 -0.1799
  908MPD2    H513358   4.036   2.020  10.845  0.8566 -1.1779  0.0839
  908MPD2    N113359   3.946   1.644  10.525  0.0566  0.2759  0.3441
  908MPD2    H713360   3.929   1.607  10.432  0.3089  0.7637  0.1037
  909MPD2     C13361   3.868   0.538  11.617 -0.4933  0.0487  0.1347
  909MPD2    C113362   3.867   0.674  11.596 -0.0226  0.0393  0.3479
  909MPD2    C213363   3.816   0.759  11.698  0.5378  0.4498  0.0277
  909MPD2    C313364   3.760   0.714  11.818 -0.2939 -0.3691  0.4024
  909MPD2    C413365   3.750   0.574  11.827 -0.3216 -0.0020 -0.5740
  909MPD2    C513366   3.806   0.490  11.729 -0.4715 -0.4442 -0.1751
  909MPD2     H13367   3.813   0.867  11.683  0.4145  0.5894  1.0429
  909MPD2    H113368   3.708   0.518  11.910 -1.9529  0.6373 -0.9578
  909MPD2    H213369   3.913   0.468  11.548  0.1600 -0.6608  1.2628
  909MPD2    H313370   3.798   0.383  11.744 -0.0189 -0.5871 -0.9546
  909MPD2     N13371   3.710   0.804  11.911  0.4761 -0.3695 -0.2647
  909MPD2    H513372   3.738   0.900  11.892  0.7810 -0.5042 -0.5007
  909MPD2    N113373   3.918   0.729  11.479  0.6344 -0.0522 -0.3800
  909MPD2    H713374   3.915   0.830  11.471 -1.3218 -0.1104 -0.4305
  910MPD2     C13375   0.168   1.961  16.844 -0.3993  0.1724  0.4235
  910MPD2    C113376   0.259   1.951  16.737  0.1401  0.0957  0.1381
  910MPD2    C213377   0.243   2.023  16.623 -0.3243 -0.5799  0.2639
  910MPD2    C313378   0.132   2.107  16.606  0.0378 -0.5819 -0.2257
  910MPD2    C413379   0.034   2.103  16.704 -0.8935 -0.1985  0.5398
  910MPD2    C513380   0.055   2.033  16.818 -0.7080  0.1775  0.4758
  910MPD2     H13381   0.316   2.011  16.544  0.3252 -1.9874  1.0665
  910MPD2    H113382   4.684   2.171  16.710 -2.5340 -2.3985  2.0580
  910MPD2    H213383   0.181   1.901  16.934  0.5542 -0.0193  0.1571
  910MPD2    H313384   4.709   2.044  16.889 -4.2782  2.5559 -3.9018
  910MPD2     N13385   0.124   2.198  16.496  0.1224  0.4386  0.0020
  910MPD2    H513386   0.042   2.258  16.496  0.0980  0.4038  1.4299
  910MPD2    N113387   0.380   1.884  16.756  0.1383  0.1857  0.7704
  910MPD2    H713388   0.443   1.862  16.679  0.1731  2.3031  0.1714
  911MPD2     C13389   2.892   2.654  16.641 -0.0578 -0.3350 -0.3521
  911MPD2    C113390   2.977   2.761  16.619 -0.6696 -0.1867 -0.1652
  911MPD2    C213391   2.937   2.853  16.527  0.1301  0.0900  0.2801
  911MPD2    C313392   2.823   2.844  16.451 -0.0266 -0.8475  0.1418
  911MPD2    C413393   2.735   2.741  16.481 -0.8029 -0.4311 -0.1613
  911MPD2    C513394   2.770   2.646  16.575 -0.5636 -0.2487  0.0363
  911MPD2     H13395   2.997   2.942  16.516  2.5728 -1.5611  0.2657
  911MPD2    H113396   2.641   2.724  16.431 -0.0524 -0.0348 -1.7057
  911MPD2    H213397   2.916   2.583  16.719  0.9246 -1.7949 -1.9897
  911MPD2    H313398   2.697   2.572  16.601 -0.5048 -0.1483  0.4780
  911MPD2     N13399   2.786   2.937  16.348  0.4895 -0.1239  0.0643
  911MPD2    H513400   2.697   2.928  16.300 -0.3303  0.7561  1.4197
  911MPD2    N113401   3.097   2.769  16.696  0.1961  0.1335 -0.5811
  911MPD2    H713402   3.120   2.682  16.742  2.3491  1.2753  0.5600
  912MPD2     C13403   2.367   2.903  15.814 -0.1322 -0.0266 -0.3925
  912MPD2    C113404   2.461   2.845  15.897 -0.3545  0.2137  0.4877
  912MPD2    C213405   2.418   2.744  15.978 -0.1543 -0.9546 -0.2825
  912MPD2    C313406   2.283   2.712  15.995 -0.1557  0.2220  0.1701
  912MPD2    C413407   2.199   2.765  15.909 -0.9270  0.5143  0.3877
  912MPD2    C513408   2.237   2.857  15.812 -0.1788 -0.1763 -0.6666
  912MPD2     H13409   2.489   2.690  16.040  0.9141  1.0238  0.2330
  912MPD2    H113410   2.094   2.739  15.917 -0.7435 -0.7981 -1.4393
  912MPD2    H213411   2.381   2.994  15.758 -0.1071 -1.7282 -3.1419
  912MPD2    H313412   2.169   2.913  15.749 -2.1054 -0.2147  1.3969
  912MPD2     N13413   2.240   2.633  16.099 -0.0164 -0.1730  0.0455
  912MPD2    H513414   2.140   2.612  16.094 -0.1055  0.4099 -0.7390
  912MPD2    N113415   2.593   2.885  15.914  0.3428 -0.4293 -0.1710
  912MPD2    H713416   2.653   2.848  15.987 -1.4399 -2.3741  0.2890
  913MPD2     C13417   3.368   3.953  10.722  0.0859 -0.0740 -0.1624
  913MPD2    C113418   3.301   3.834  10.750 -0.5189 -0.0396 -0.1734
  913MPD2    C213419   3.243   3.765  10.641 -0.4216 -0.1432 -0.8376
  913MPD2    C313420   3.253   3.806  10.509 -0.7353 -0.2277 -0.6969
  913MPD2    C413421   3.329   3.920  10.490 -0.8935 -0.3520  0.2301
  913MPD2    C513422   3.392   3.989  10.590  0.0722 -0.6016  0.3408
  913MPD2     H13423   3.185   3.676  10.661 -0.5974  0.8490  3.0696
  913MPD2    H113424   3.340   3.965  10.392 -1.4228 -1.8338 -0.5041
  913MPD2    H213425   3.411   4.021  10.795  1.4830 -1.3849  0.2192
  913MPD2    H313426   3.456   4.072  10.565 -0.4247 -1.1823 -2.9224
  913MPD2     N13427   3.175   3.755  10.404  0.7519  0.4393  0.8385
  913MPD2    H513428   3.178   3.800  10.313  0.3488  0.0260  0.6220
  913MPD2    N113429   3.299   3.782  10.877 -0.3661 -0.5856 -0.4455
  913MPD2    H713430   3.348   3.836  10.947  0.6092 -1.0108 -0.7967
  914MPD2     C13431   1.316   4.508  12.001  0.2128  0.3466 -0.0419
  914MPD2    C113432   1.337   4.529  12.140  0.6534  0.4262 -0.7556
  914MPD2    C213433   1.362   4.422  12.225  1.0083  0.2275 -0.1582
  914MPD2    C313434   1.372   4.295  12.175  0.1766 -0.4054 -0.5636
  914MPD2    C413435   1.337   4.269  12.041  0.1946  0.2969  0.3612
  914MPD2    C513436   1.314   4.379  11.960 -0.3232 -0.0387  0.4786
  914MPD2     H13437   1.385   4.434  12.331 -0.0349 -0.8707  0.1956
  914MPD2    H113438   1.347   4.171  11.994  0.3526 -0.1921  1.4310
  914MPD2    H213439   1.310   4.592  11.934 -1.4916  0.4089  0.2006
  914MPD2    H313440   1.296   4.353  11.856  2.2082  0.0967  0.0033
  914MPD2     N13441   1.389   4.186  12.259  0.5616  0.0870  0.5198
  914MPD2    H513442   1.396   4.215  12.357 -0.5861  0.0583  0.6058
  914MPD2    N113443   1.340   4.656  12.190  0.0988  0.0762  0.1874
  914MPD2    H713444   1.329   4.729  12.119  2.2919 -0.4340 -0.6616
  915MPD2     C13445   3.726   4.206  15.685  0.2897 -0.2831 -0.1241
  915MPD2    C113446   3.788   4.328  15.668  0.7391  0.2698  0.5873
  915MPD2    C213447   3.785   4.424  15.771  0.5331  0.3239  0.4026
  915MPD2    C313448   3.695   4.402  15.876 -0.7568 -0.1500  0.0680
  915MPD2    C413449   3.630   4.283  15.885  0.5806  0.0603 -0.1519
  915MPD2    C513450   3.657   4.180  15.797 -0.3048 -0.4726 -0.4355
  915MPD2     H13451   3.844   4.515  15.771 -2.6871  2.4277  0.3171
  915MPD2    H113452   3.560   4.263  15.965  2.3940 -3.5921  0.5606
  915MPD2    H213453   3.733   4.133  15.604  1.2767  0.6453 -0.8793
  915MPD2    H313454   3.604   4.090  15.824 -0.3596 -0.5709 -0.8699
  915MPD2     N13455   3.683   4.499  15.975 -0.0878 -0.1945  0.0386
  915MPD2    H513456   3.730   4.587  15.952 -1.3567  0.3108 -0.5966
  915MPD2    N113457   3.868   4.335  15.548  0.5224  0.0879  0.6560
  915MPD2    H713458   3.873   4.254  15.487  1.7037  1.3282 -0.8627
  916MPD2     C13459   1.794   2.666  15.695 -0.2433 -0.0887 -0.4804
  916MPD2    C113460   1.843   2.626  15.817  0.2921  0.2936 -0.4649
  916MPD2    C213461   1.960   2.543  15.806 -0.0082 -0.0261  0.1966
  916MPD2    C313462   2.015   2.505  15.686  0.7927  0.3569 -0.6484
  916MPD2    C413463   1.949   2.540  15.570 -0.0196 -0.0113  0.4599
  916MPD2    C513464   1.846   2.623  15.579  0.0637  0.5422 -0.5806
  916MPD2     H13465   2.029   2.509  15.882  0.3614  1.4159  0.5241
  916MPD2    H113466   1.976   2.507  15.470 -0.6042 -0.9040  0.5936
  916MPD2    H213467   1.712   2.736  15.686  0.6312  1.1838  1.3044
  916MPD2    H313468   1.791   2.649  15.489 -1.7071 -1.4443 -0.0875
  916MPD2     N13469   2.137   2.437  15.675  0.5815 -0.0180 -0.6785
  916MPD2    H513470   2.180   2.411  15.763  1.5527  2.1363 -0.5207
  916MPD2    N113471   1.794   2.674  15.942  0.3296  0.1278 -0.0593
  916MPD2    H713472   1.717   2.740  15.943  0.1882 -0.0313 -0.5084
  917MPD2     C13473   2.645   0.122  11.338 -0.2528  0.8767 -0.5690
  917MPD2    C113474   2.597   0.210  11.435  0.4323 -0.0225  0.2937
  917MPD2    C213475   2.586   0.349  11.401  0.3518 -0.0648  0.4171
  917MPD2    C313476   2.608   0.401  11.276 -0.0477 -0.0002 -0.6703
  917MPD2    C413477   2.635   0.308  11.177  0.6397  0.1644 -0.8634
  917MPD2    C513478   2.655   0.171  11.209 -0.8599 -0.2242 -0.1631
  917MPD2     H13479   2.546   0.420  11.473  0.7294 -0.9407  1.5084
  917MPD2    H113480   2.656   0.343  11.076 -0.4509  2.3859 -0.3287
  917MPD2    H213481   2.647   0.014  11.345 -0.7369  0.9795  1.1300
  917MPD2    H313482   2.676   0.104  11.127  1.0174 -0.7825  0.7712
  917MPD2     N13483   2.602   0.539  11.245 -0.6644  0.0609 -0.5631
  917MPD2    H513484   2.615   0.562  11.147  3.4731 -0.5541 -0.1698
  917MPD2    N113485   2.558   0.162  11.561 -0.2126 -0.0275 -0.0702
  917MPD2    H713486   2.556   0.061  11.576 -1.1071  0.1712  1.1456
  918MPD2     C13487   2.504   0.593  12.482 -0.0646 -0.6740  0.2106
  918MPD2    C113488   2.594   0.614  12.382  0.0672  0.0720 -0.1739
  918MPD2    C213489   2.583   0.533  12.273 -0.5060 -0.2376  0.0365
  918MPD2    C313490   2.496   0.423  12.273 -0.2239  0.7228  0.3214
  918MPD2    C413491   2.394   0.420  12.366  0.0121 -0.2291 -0.0745
  918MPD2    C513492   2.404   0.500  12.474  0.0022  0.4576  0.3705
  918MPD2     H13493   2.651   0.549  12.190  0.2958  0.8612  0.8923
  918MPD2    H113494   2.308   0.355  12.365  1.3260 -1.9500 -1.8477
  918MPD2    H213495   2.493   0.659  12.568  2.1882 -1.2858  0.9743
  918MPD2    H313496   2.329   0.499  12.551  0.4985 -0.0007  0.8448
  918MPD2     N13497   2.486   0.334  12.160  0.2506 -0.3522 -0.5320
  918MPD2    H513498   2.550   0.349  12.083  3.3128 -0.2231  2.0159
  918MPD2    N113499   2.694   0.710  12.381 -0.5257 -0.1771 -0.6248
  918MPD2    H713500   2.744   0.718  12.293  1.3941 -2.3163  0.2761
  919MPD2     C13501   2.571   3.771  11.655  0.3199 -0.3430  0.2694
  919MPD2    C113502   2.678   3.681  11.634  0.1557  0.1510  0.8371
  919MPD2    C213503   2.748   3.688  11.518  0.2895 -0.4907  0.0271
  919MPD2    C313504   2.711   3.765  11.411  1.1866 -0.5315  0.1006
  919MPD2    C413505   2.611   3.858  11.435 -0.1152  0.9399  0.1874
  919MPD2    C513506   2.540   3.856  11.555 -0.4162 -0.3309 -0.4055
  919MPD2     H13507   2.840   3.630  11.514  0.1120 -0.6672 -1.5625
  919MPD2    H113508   2.581   3.926  11.356  2.5086  0.5543 -1.1356
  919MPD2    H213509   2.505   3.774  11.741 -2.2424  4.2177 -1.8300
  919MPD2    H313510   2.466   3.935  11.565  0.4929  0.6580 -1.5619
  919MPD2     N13511   2.770   3.763  11.281 -0.0143 -0.1429 -0.4667
  919MPD2    H513512   2.741   3.831  11.212  0.0475 -0.1776 -0.5265
  919MPD2    N113513   2.707   3.580  11.728  0.2199  0.7308 -0.0856
  919MPD2    H713514   2.777   3.511  11.701  0.6776  1.3608 -0.5099
  920MPD2     C13515   2.982   4.158  10.396 -0.0763 -0.2467 -0.5989
  920MPD2    C113516   2.883   4.062  10.378  0.4742  0.1241 -0.0567
  920MPD2    C213517   2.861   3.971  10.479 -0.5893 -0.1345  0.3915
  920MPD2    C313518   2.936   3.981  10.595 -0.4573  0.7973 -0.4062
  920MPD2    C413519   3.041   4.077  10.614  0.7252  0.0639 -0.3315
  920MPD2    C513520   3.064   4.159  10.510 -0.5357 -0.3379  0.1241
  920MPD2     H13521   2.790   3.889  10.475 -0.9690  0.1751  0.7996
  920MPD2    H113522   3.101   4.080  10.704  1.5076  0.1057 -0.8616
  920MPD2    H213523   3.018   4.229  10.323 -0.2422 -0.1520 -0.5893
  920MPD2    H313524   3.153   4.221  10.502 -0.3324 -0.2705  2.8238
  920MPD2     N13525   2.909   3.876  10.690  0.6912 -0.4844  0.2619
  920MPD2    H513526   2.847   3.801  10.661  1.6378 -1.7372  1.4801
  920MPD2    N113527   2.797   4.061  10.266  0.2561 -0.0852  0.2204
  920MPD2    H713528   2.719   3.997  10.264  1.4083 -1.5338  1.4870
  921MPD2     C13529   3.830   2.991  17.444 -0.3309  0.2422  0.3979
  921MPD2    C113530   3.852   3.041  17.318  0.2328 -0.2209  0.9778
  921MPD2    C213531   3.773   2.997  17.215  0.4271 -0.2992 -0.0792
  921MPD2    C313532   3.663   2.914  17.243 -0.3884 -0.7750 -0.0892
  921MPD2    C413533   3.632   2.888  17.369 -0.4717  1.0519  0.1035
  921MPD2    C513534   3.720   2.919  17.469 -0.5763 -0.6041  0.4654
  921MPD2     H13535   3.799   3.017  17.112  3.8138  0.0499  0.8460
  921MPD2    H113536   3.545   2.829  17.395  1.3674 -0.6641  2.3437
  921MPD2    H213537   3.891   3.028  17.526 -0.3009 -1.6817  1.2467
  921MPD2    H313538   3.689   2.914  17.573 -2.3898 -1.3697 -0.1136
  921MPD2     N13539   3.577   2.865  17.141  0.2085  0.1954 -0.0969
  921MPD2    H513540   3.518   2.790  17.176  1.6180 -0.5539  0.6685
  921MPD2    N113541   3.970   3.119  17.308 -0.7459 -0.3634  0.0421
  921MPD2    H713542   4.018   3.139  17.395 -1.3554  0.0799  0.2773
  922MPD2     C13543   4.562   1.690  17.703 -0.0306 -0.4408  0.6923
  922MPD2    C113544   4.451   1.632   0.018  0.1496 -0.1947  0.2070
  922MPD2    C213545   4.430   1.497  17.738  0.5042  0.3540  0.1472
  922MPD2    C313546   4.527   1.415  17.687  0.5923  0.3752 -0.1687
  922MPD2    C413547   4.638   1.476  17.629  0.1406  0.0972  0.3802
  922MPD2    C513548   4.659   1.608  17.637 -0.2668 -0.5487 -0.0693
  922MPD2     H13549   4.343   1.456   0.048  0.6271 -0.2269 -0.1137
  922MPD2    H113550   4.717   1.418  17.583  0.3843  0.2341  0.6263
  922MPD2    H213551   4.580   1.796  17.709 -2.9149  0.0149  1.1702
  922MPD2    H313552   0.013   1.649  17.592  0.5668 -0.2367  1.8805
  922MPD2     N13553   4.495   1.278  17.669 -0.0156  0.0340 -0.1435
  922MPD2    H513554   4.404   1.257  17.709  0.6967 -0.5748  1.1494
  922MPD2    N113555   4.344   1.709   0.077 -0.5938  0.4068  0.7630
  922MPD2    H713556   4.268   1.656   0.118 -1.0026  0.6342  0.3046
  923MPD2     C13557   1.496   3.608   8.746 -0.1337  0.0883 -0.0172
  923MPD2    C113558   1.503   3.642   8.879 -0.5284  0.1198 -0.2462
  923MPD2    C213559   1.574   3.566   8.970  0.4464  0.1930  0.9346
  923MPD2    C313560   1.637   3.450   8.922 -0.3350 -0.1723  0.3084
  923MPD2    C413561   1.614   3.406   8.793  0.3710 -0.4131  0.4434
  923MPD2    C513562   1.543   3.488   8.706 -0.0247 -0.4364  0.6920
  923MPD2     H13563   1.584   3.604   9.072 -0.8633  2.5865  0.1693
  923MPD2    H113564   1.660   3.315   8.755  1.3899  0.7357 -1.0757
  923MPD2    H213565   1.432   3.654   8.672  1.6908  2.3063 -0.2118
  923MPD2    H313566   1.510   3.460   8.607 -1.5825 -1.4971  1.5122
  923MPD2     N13567   1.721   3.372   9.009  0.4008  0.3847  0.4037
  923MPD2    H513568   1.745   3.283   8.967 -0.2184  0.8815 -1.0084
  923MPD2    N113569   1.435   3.765   8.910  0.5258 -0.0423  0.0884
  923MPD2    H713570   1.388   3.821   8.840  0.6031  1.9654  1.6307
  924MPD2     C13571   1.419   1.113  16.330  0.0656  0.5153 -0.1276
  924MPD2    C113572   1.395   1.112  16.469 -0.4740  0.4347 -0.6197
  924MPD2    C213573   1.385   1.235  16.530 -0.4791  0.5505 -0.3870
  924MPD2    C313574   1.397   1.356  16.456  0.1339 -0.6087  0.0195
  924MPD2    C413575   1.415   1.347  16.320  0.3765 -0.0020 -0.3040
  924MPD2    C513576   1.427   1.228  16.260 -0.0810 -0.1515 -0.1169
  924MPD2     H13577   1.371   1.243  16.637  2.5381 -3.5743  0.2771
  924MPD2    H113578   1.432   1.440  16.267 -0.7242 -1.0127 -2.4174
  924MPD2    H213579   1.436   1.029  16.264 -0.2066  0.7950 -0.5493
  924MPD2    H313580   1.460   1.229  16.157  0.7434 -2.8075  0.1186
  924MPD2     N13581   1.373   1.474  16.528 -0.4715 -0.0617 -0.4161
  924MPD2    H513582   1.356   1.460  16.627 -0.8308 -0.5404 -0.5490
  924MPD2    N113583   1.395   0.997  16.548  0.4766  0.0514 -0.5529
  924MPD2    H713584   1.384   1.008  16.648  0.5927 -0.1282 -0.5208
  925MPD2     C13585   0.106   3.993  14.451  0.3826 -0.4815  0.2878
  925MPD2    C113586   0.122   3.890  14.540 -0.1999 -0.3619  0.0907
  925MPD2    C213587   0.106   3.910  14.676 -0.5610 -0.0290 -0.1198
  925MPD2    C313588   0.073   4.035  14.723  0.2459  0.0141  0.8739
  925MPD2    C413589   0.043   4.135  14.635 -0.0726  0.6065  0.7150
  925MPD2    C513590   0.060   4.111  14.499 -0.2381  0.1280  1.3408
  925MPD2     H13591   0.135   3.834  14.748  0.7959 -1.3193 -2.0271
  925MPD2    H113592   0.012   4.234  14.668  1.4398  0.9804  1.0204
  925MPD2    H213593   0.106   3.984  14.343  3.1957  1.8208  0.1044
  925MPD2    H313594   0.040   4.185  14.423 -0.4995  0.3050  1.5837
  925MPD2     N13595   0.079   4.075  14.862  1.1307 -0.7722  0.6745
  925MPD2    H513596   0.055   4.173  14.873  2.7268 -0.3099 -0.0927
  925MPD2    N113597   0.151   3.758  14.497 -0.2053  0.0193 -0.1230
  925MPD2    H713598   0.153   3.682  14.565 -0.6353  1.0302  1.0162
  926MPD2     C13599   4.053   1.990  13.897  0.3239  1.1148  0.3093
  926MPD2    C113600   3.940   2.048  13.841 -0.4681 -0.2570 -0.6932
  926MPD2    C213601   3.959   2.133  13.740 -0.6510 -0.2808 -0.5516
  926MPD2    C313602   4.087   2.169  13.691 -0.5993  0.8862 -0.2753
  926MPD2    C413603   4.199   2.108  13.744  0.3711 -0.4307 -0.5898
  926MPD2    C513604   4.179   2.022  13.850 -0.0631  0.3343  0.3020
  926MPD2     H13605   3.871   2.169  13.688 -0.1379  2.9002  0.7627
  926MPD2    H113606   4.303   2.120  13.715  1.0431  1.3703  2.5790
  926MPD2    H213607   4.044   1.911  13.971  0.0530 -0.8920 -1.8400
  926MPD2    H313608   4.261   1.965  13.891  1.5077  0.9745 -1.9097
  926MPD2     N13609   4.109   2.260  13.587  0.1769 -0.4195 -0.5812
  926MPD2    H513610   4.205   2.283  13.562  0.0343  1.1735  0.3219
  926MPD2    N113611   3.814   2.026  13.895  0.5115 -0.0579 -0.3944
  926MPD2    H713612   3.739   2.082  13.856 -0.0746  0.6711  1.7923
  927MPD2     C13613   3.829   4.575  17.099 -0.6441  0.1687 -1.2083
  927MPD2    C113614   3.815   4.439  17.136  0.5085  0.7275  1.0358
  927MPD2    C213615   3.883   4.344  17.066  0.0660 -0.0510 -0.1835
  927MPD2    C313616   3.974   4.380  16.968  0.1821  0.2877  0.3285
  927MPD2    C413617   4.006   4.510  16.942 -0.7182  0.3006  0.5584
  927MPD2    C513618   3.925   4.606  17.009 -0.4095  0.0616  0.6528
  927MPD2     H13619   3.850   4.241  17.079 -1.8165  0.3976 -1.5327
  927MPD2    H113620   4.081   4.540  16.869 -0.2119 -2.9198 -0.2474
  927MPD2    H213621   3.766   4.653  17.140 -1.0044 -0.1778 -1.0997
  927MPD2    H313622   3.932   4.708  16.973  1.5970 -0.1134  0.5288
  927MPD2     N13623   4.049   4.278  16.905  0.6215 -0.3088  0.5504
  927MPD2    H513624   4.094   4.296  16.816  1.7180 -0.5108  1.0758
  927MPD2    N113625   3.717   4.406  17.231  0.7536 -0.0100  0.6883
  927MPD2    H713626   3.656   4.481  17.261 -0.0161 -0.1251 -0.6108
  928MPD2     C13627   0.487   2.368   0.788  0.5614 -0.0319 -0.3188
  928MPD2    C113628   0.584   2.469   0.821 -0.1028 -0.1394  0.0585
  928MPD2    C213629   0.700   2.477   0.749 -0.1698 -0.5688 -0.2243
  928MPD2    C313630   0.727   2.380   0.647 -0.0563  0.3952  0.7909
  928MPD2    C413631   0.632   2.286   0.614  0.2175 -0.3279 -0.1844
  928MPD2    C513632   0.516   2.276   0.692  0.1755 -0.9027  0.2285
  928MPD2     H13633   0.778   2.547   0.776 -0.3373 -0.3695 -0.2639
  928MPD2    H113634   0.636   2.216   0.531 -1.1521 -0.7060  0.0704
  928MPD2    H213635   0.393   2.353   0.839  0.3353 -0.7253 -0.9483
  928MPD2    H313636   0.445   2.197   0.671 -1.9719  1.0571  0.1521
  928MPD2     N13637   0.843   2.386   0.563 -0.5464 -0.4092 -0.6210
  928MPD2    H513638   0.853   2.331   0.478 -1.4872  0.7899 -1.5010
  928MPD2    N113639   0.563   2.571   0.913  0.1259 -0.8920  0.3140
  928MPD2    H713640   0.638   2.638   0.926 -0.2665 -0.1463 -1.3247
  929MPD2     C13641   1.558   3.282  10.073 -0.0318  0.2154  0.4796
  929MPD2    C113642   1.455   3.212  10.003 -0.1942  0.2358 -0.2348
  929MPD2    C213643   1.397   3.278   9.890  0.0477 -0.0276 -0.0016
  929MPD2    C313644   1.450   3.400   9.849  0.2598  0.1470  0.4965
  929MPD2    C413645   1.554   3.462   9.915 -0.3213  0.3164 -0.0306
  929MPD2    C513646   1.607   3.401  10.026 -0.7295  0.0210  0.0286
  929MPD2     H13647   1.327   3.218   9.833  0.4668  1.5812 -2.1935
  929MPD2    H113648   1.585   3.564   9.896  0.4051  0.5033  2.1718
  929MPD2    H213649   1.588   3.238  10.167 -0.5253 -1.2298 -0.0424
  929MPD2    H313650   1.676   3.455  10.089 -0.4153 -0.6147  0.2294
  929MPD2     N13651   1.397   3.479   9.745  0.1055  1.0639 -0.4103
  929MPD2    H513652   1.439   3.571   9.731 -0.9501  1.6927  0.5207
  929MPD2    N113653   1.410   3.085  10.059 -0.4004  0.1309  0.0333
  929MPD2    H713654   1.457   3.051  10.143  1.2875 -0.5302 -1.1734
  930MPD2     C13655   2.817   0.135  14.169  0.5461 -1.0731  0.4392
  930MPD2    C113656   2.952   0.156  14.155  0.2860  0.7842  0.3022
  930MPD2    C213657   3.023   0.085  14.063  0.3659  0.3027 -0.0988
  930MPD2    C313658   2.957   4.708  14.005 -0.5505 -0.9630 -0.3797
  930MPD2    C413659   2.825   4.681  14.029  0.0965 -0.2311  0.1612
  930MPD2    C513660   2.756   0.035  14.106 -0.3389 -0.1551  0.4155
  930MPD2     H13661   3.128   0.104  14.050  0.1952  2.6297  1.9518
  930MPD2    H113662   2.768   4.619  13.961 -0.8757  0.4566  0.3572
  930MPD2    H213663   2.748   0.186  14.236 -0.0158 -2.5734  0.9909
  930MPD2    H313664   2.652   0.018  14.129 -0.8342  1.4667 -0.6338
  930MPD2     N13665   3.019   4.631  13.902 -0.0014 -0.3553 -0.0237
  930MPD2    H513666   2.957   4.567  13.853  0.8363 -0.1690 -1.3302
  930MPD2    N113667   3.015   0.261  14.227 -0.1933  0.4645 -0.0256
  930MPD2    H713668   2.950   0.309  14.289  1.3653  2.8547 -0.2695
  931MPD2     C13669   3.675   3.864   0.061  0.0586  0.8310  0.3472
  931MPD2    C113670   3.554   3.916   0.037  0.3206  0.1484  0.4672
  931MPD2    C213671   3.455   3.918   0.131  0.0487 -0.9704 -0.1507
  931MPD2    C313672   3.468   3.846   0.245 -0.0436  0.3157 -0.5625
  931MPD2    C413673   3.587   3.780   0.269 -0.6228  0.4739  0.0904
  931MPD2    C513674   3.685   3.786   0.174  0.2029 -0.1103 -0.2399
  931MPD2     H13675   3.356   3.959   0.115 -0.0231 -0.9276  0.4126
  931MPD2    H113676   3.599   3.705   0.347 -1.2682  0.7954  0.4974
  931MPD2    H213677   3.761   3.872  17.735  0.7666 -0.2031  1.1323
  931MPD2    H313678   3.778   3.735   0.195  0.2845 -1.3223 -3.4144
  931MPD2     N13679   3.365   3.814   0.332  0.0433  0.2658 -0.0831
  931MPD2    H513680   3.379   3.744   0.404 -0.5979  0.7650  0.5371
  931MPD2    N113681   3.535   3.978  17.652  0.2240  0.3872  0.8191
  931MPD2    H713682   3.625   3.986  17.606 -1.7187  0.4286 -2.9722
  932MPD2     C13683   0.133   3.207  11.204  0.5893  0.2712  0.4119
  932MPD2    C113684   0.239   3.239  11.292  0.8936 -0.0935 -0.0887
  932MPD2    C213685   0.315   3.136  11.351  0.8681 -0.7067 -0.0345
  932MPD2    C313686   0.294   3.003  11.311  0.1836 -0.2954  1.0629
  932MPD2    C413687   0.199   2.980  11.219  0.3648  0.0641 -0.1102
  932MPD2    C513688   0.117   3.079  11.167  0.3845  0.2160 -0.0299
  932MPD2     H13689   0.393   3.161  11.421  0.9498  1.1743 -0.8043
  932MPD2    H113690   0.171   2.881  11.186  0.0220  0.7276 -1.8171
  932MPD2    H213691   0.065   3.285  11.174 -0.1929 -1.3557 -2.0408
  932MPD2    H313692   0.028   3.058  11.109  1.8315  0.8697 -2.4658
  932MPD2     N13693   0.369   2.900  11.376  0.2701  0.1345 -0.3905
  932MPD2    H513694   0.378   2.807  11.336  0.3573  0.0121 -0.0900
  932MPD2    N113695   0.270   3.369  11.334  0.6567  0.0320 -0.1063
  932MPD2    H713696   0.334   3.380  11.413  0.2749  2.1301 -0.0835
  933MPD2     C13697   0.135   3.097   0.657 -0.5333 -0.0072  0.4557
  933MPD2    C113698   0.264   3.118   0.703  0.1598 -0.8856 -0.2304
  933MPD2    C213699   0.343   3.207   0.633  0.7151 -0.2835 -0.8569
  933MPD2    C313700   0.302   3.257   0.502 -0.2898  0.1528 -0.4721
  933MPD2    C413701   0.176   3.231   0.458  0.1869 -0.1526  0.0686
  933MPD2    C513702   0.099   3.148   0.536  0.3124 -0.1295  0.3493
  933MPD2     H13703   0.435   3.252   0.669  0.3167 -0.4683  0.4159
  933MPD2    H113704   0.126   3.274   0.372  1.2790 -0.8318 -0.9097
  933MPD2    H213705   0.064   3.034   0.709 -0.7842 -0.1533 -0.0726
  933MPD2    H313706   4.727   3.141   0.518  0.5096 -2.9640  0.3436
  933MPD2     N13707   0.395   3.339   0.426  0.2832 -0.1810  0.3900
  933MPD2    H513708   0.482   3.357   0.475 -0.3287  2.3475  0.5530
  933MPD2    N113709   0.312   3.055   0.818 -0.4674 -0.1676 -0.0169
  933MPD2    H713710   0.242   2.993   0.858 -0.6733  0.0381 -0.0607
  934MPD2     C13711   2.025   0.552   1.423 -0.0338  0.5256  0.6600
  934MPD2    C113712   2.077   0.450   1.345 -0.4053  0.0783  0.2881
  934MPD2    C213713   1.990   0.364   1.280 -0.1098  0.6267 -0.1648
  934MPD2    C313714   1.854   0.380   1.285 -0.5879  0.4724  0.0505
  934MPD2    C413715   1.801   0.481   1.362 -1.0602  0.2265  0.0832
  934MPD2    C513716   1.886   0.563   1.436  0.1882  0.0854 -0.5039
  934MPD2     H13717   2.038   0.293   1.214 -1.1450 -1.1398  0.9754
  934MPD2    H113718   1.693   0.492   1.367 -1.2376 -1.5630  0.2749
  934MPD2    H213719   2.089   0.625   1.472 -0.1973  1.5502 -0.6565
  934MPD2    H313720   1.845   0.635   1.506  1.9311  1.1661 -0.5906
  934MPD2     N13721   1.765   0.294   1.211 -0.7697 -0.2468  0.1756
  934MPD2    H513722   1.666   0.317   1.210 -0.7468 -0.0329  2.9626
  934MPD2    N113723   2.213   0.429   1.312  0.2751 -0.3548  0.3133
  934MPD2    H713724   2.242   0.354   1.249  3.7086  1.2270  0.0425
  935MPD2     C13725   2.022   4.123   0.802 -0.3901 -0.1563  0.6435
  935MPD2    C113726   1.901   4.148   0.734 -0.3620 -0.0573 -0.3625
  935MPD2    C213727   1.835   4.258   0.784 -0.1680 -0.3425  0.0127
  935MPD2    C313728   1.876   4.339   0.892 -0.4136  0.0266 -0.0564
  935MPD2    C413729   1.985   4.306   0.959 -0.3593  0.0556 -0.5420
  935MPD2    C513730   2.059   4.199   0.907 -0.3801  0.2127  0.3272
  935MPD2     H13731   1.737   4.275   0.741 -1.1672  0.2870  2.5695
  935MPD2    H113732   2.018   4.357   1.049  1.4874  0.6784 -1.5762
  935MPD2    H213733   2.080   4.033   0.787 -2.5067 -1.3931 -0.0264
  935MPD2    H313734   2.158   4.184   0.949 -0.2905  1.1489  0.4677
  935MPD2     N13735   1.803   4.451   0.933  0.1128  0.3984 -0.2893
  935MPD2    H513736   1.832   4.482   1.025 -1.5948  0.0681  0.3687
  935MPD2    N113737   1.852   4.060   0.641 -0.1252 -0.7345 -0.4981
  935MPD2    H713738   1.765   4.081   0.593  1.0992  0.1959 -2.3043
  936MPD2     C13739   0.789   1.405  12.470 -0.4903  0.0343 -1.0145
  936MPD2    C113740   0.849   1.362  12.586 -0.0200 -0.2795  0.7170
  936MPD2    C213741   0.984   1.368  12.596  0.2178 -0.2434  0.3026
  936MPD2    C313742   1.062   1.408  12.492 -0.2071 -0.7050  0.8852
  936MPD2    C413743   1.000   1.438  12.372 -0.7795 -0.6171  0.0375
  936MPD2    C513744   0.865   1.439  12.368 -0.0270 -0.4184 -0.0599
  936MPD2     H13745   1.032   1.329  12.685 -2.2261  1.7832  2.4735
  936MPD2    H113746   1.053   1.470  12.284  0.4734  1.6683  1.6130
  936MPD2    H213747   0.681   1.401  12.461 -0.8128  2.6369  1.5949
  936MPD2    H313748   0.808   1.473  12.282 -0.3515 -0.5615  0.1023
  936MPD2     N13749   1.201   1.440  12.504  0.8549  0.7844  0.1362
  936MPD2    H513750   1.258   1.470  12.426 -0.4452  0.0016 -1.1088
  936MPD2    N113751   0.780   1.325  12.700  0.0537 -0.1917 -0.0317
  936MPD2    H713752   0.843   1.290  12.772 -1.2015  0.1047  1.2192
  937MPD2     C13753   3.106   2.995  11.845 -0.2293 -0.5086 -0.3102
  937MPD2    C113754   3.064   3.112  11.790 -0.5074  0.1062  0.4204
  937MPD2    C213755   3.154   3.170  11.702 -0.1301  0.1944  0.6690
  937MPD2    C313756   3.276   3.121  11.675  0.4353  0.4170  0.3484
  937MPD2    C413757   3.311   3.003  11.731 -0.4366  0.0292 -0.0435
  937MPD2    C513758   3.229   2.949  11.817  0.0839  0.3876  0.4969
  937MPD2     H13759   3.123   3.263  11.654 -0.7773 -0.8222 -0.8702
  937MPD2    H113760   3.408   2.957  11.712  0.2130  2.0058 -1.4714
  937MPD2    H213761   3.043   2.942  11.916  0.1288  0.5746  0.8092
  937MPD2    H313762   3.264   2.853  11.855  1.9864  0.6465 -0.5809
  937MPD2     N13763   3.359   3.194  11.585  0.7665  0.0720  0.4173
  937MPD2    H513764   3.321   3.277  11.542 -2.5779 -2.0632 -0.7299
  937MPD2    N113765   2.943   3.182  11.822 -0.4858 -0.1327  0.3368
  937MPD2    H713766   2.926   3.268  11.772  0.5150 -1.8001 -2.8522
  938MPD2     C13767   1.166   4.261   0.468  0.0363 -0.4087 -0.8138
  938MPD2    C113768   1.142   4.328   0.584  0.1361  0.2424  0.1643
  938MPD2    C213769   1.091   4.256   0.696 -0.2486 -0.0492 -0.1490
  938MPD2    C313770   1.081   4.123   0.688 -0.4233  0.0869 -0.1650
  938MPD2    C413771   1.104   4.063   0.570  0.1840 -0.2463 -0.2878
  938MPD2    C513772   1.141   4.129   0.455  0.0627  0.2431  0.8983
  938MPD2     H13773   1.071   4.313   0.786  0.6499  0.9154 -0.5534
  938MPD2    H113774   1.098   3.955   0.565 -0.1217 -0.1512 -1.9558
  938MPD2    H213775   1.201   4.311   0.378 -0.1855  1.8321  0.3336
  938MPD2    H313776   1.161   4.075   0.363  1.1408 -0.0450  1.3038
  938MPD2     N13777   1.037   4.034   0.786  0.1755 -0.2200  0.0232
  938MPD2    H513778   1.007   3.944   0.748  0.5003 -1.0388  1.6802
  938MPD2    N113779   1.182   4.457   0.607  0.7691  0.1509  0.1227
  938MPD2    H713780   1.137   4.504   0.685 -1.4513  0.5408 -1.3851
  939MPD2     C13781   1.706   0.912   0.575  0.0261  0.2290  0.5744
  939MPD2    C113782   1.809   0.945   0.661  0.7241  0.3483  0.8408
  939MPD2    C213783   1.923   0.874   0.662  0.0717 -0.2877 -0.7514
  939MPD2    C313784   1.946   0.775   0.573 -0.2795 -0.6000 -1.0319
  939MPD2    C413785   1.847   0.751   0.480  0.1479 -0.7359 -0.3631
  939MPD2    C513786   1.729   0.823   0.482  0.0252 -0.2463  0.6670
  939MPD2     H13787   1.995   0.891   0.741 -1.5459  1.1747  0.3939
  939MPD2    H113788   1.842   0.667   0.411 -1.5815  0.6253 -1.8691
  939MPD2    H213789   1.613   0.967   0.583  0.9587  2.2561 -2.5027
  939MPD2    H313790   1.648   0.800   0.414 -1.1450  1.7123  1.4178
  939MPD2     N13791   2.069   0.703   0.582  0.7586  0.1634  1.1370
  939MPD2    H513792   2.126   0.740   0.657 -0.5677  0.2879  2.0769
  939MPD2    N113793   1.785   1.053   0.752 -0.0106 -0.1818 -0.9062
  939MPD2    H713794   1.707   1.113   0.729 -0.2272 -0.5560 -1.1421
  940MPD2     C13795   1.551   2.090  12.879 -0.2860 -0.5726  1.2739
  940MPD2    C113796   1.613   1.980  12.935 -0.1764 -0.5845 -1.0105
  940MPD2    C213797   1.677   1.889  12.856  0.7788  0.4312  0.1718
  940MPD2    C313798   1.684   1.919  12.721  0.8093  0.2617  0.0565
  940MPD2    C413799   1.629   2.031  12.667  0.7621 -0.3288  0.2802
  940MPD2    C513800   1.553   2.111  12.747  0.0544  0.0961  0.4827
  940MPD2     H13801   1.717   1.801  12.905 -0.1674  0.5620  1.1921
  940MPD2    H113802   1.632   2.054  12.562 -0.6527  1.4214  0.6216
  940MPD2    H213803   1.487   2.156  12.936  0.5182  0.8613  0.5038
  940MPD2    H313804   1.499   2.194  12.703 -0.0292  0.9772  2.2533
  940MPD2     N13805   1.747   1.840  12.622  0.4566  0.0643 -0.2859
  940MPD2    H513806   1.758   1.873  12.527 -1.5098 -2.0030 -1.2231
  940MPD2    N113807   1.613   1.964  13.076 -0.3882  0.1822  0.0880
  940MPD2    H713808   1.663   1.879  13.103 -0.2079  1.5983  4.2083
  941MPD2     C13809   0.278   1.807   9.620 -0.1902 -0.2961  0.3941
  941MPD2    C113810   0.362   1.730   9.703  0.6867 -0.6073 -0.3156
  941MPD2    C213811   0.298   1.633   9.786 -0.3016 -0.6401 -0.6394
  941MPD2    C313812   0.162   1.617   9.777  0.1795  0.0732 -0.3300
  941MPD2    C413813   0.087   1.694   9.698 -0.5532 -0.3903  0.8622
  941MPD2    C513814   0.142   1.787   9.616 -0.2644  0.6421  0.3015
  941MPD2     H13815   0.362   1.576   9.852 -0.5360  0.4898  0.5693
  941MPD2    H113816   4.715   1.680   9.690 -0.5368  1.6124 -3.3192
  941MPD2    H213817   0.320   1.874   9.546 -0.7565 -0.8640 -0.4398
  941MPD2    H313818   0.081   1.830   9.536  2.2979 -1.3664 -2.7412
  941MPD2     N13819   0.093   1.523   9.858  0.0228  1.1825 -0.2395
  941MPD2    H513820   4.727   1.522   9.850  0.0806  0.0181 -0.7603
  941MPD2    N113821   0.503   1.733   9.711  0.0374 -0.3308  0.7952
  941MPD2    H713822   0.549   1.679   9.784 -0.6631 -1.4041  0.4350
  942MPD2     C13823   0.871   4.049   8.849 -0.0618 -1.3944 -0.1713
  942MPD2    C113824   0.841   3.979   8.961 -0.3698  0.0440 -0.4765
  942MPD2    C213825   0.908   3.856   8.987 -0.2623  0.0769  0.9148
  942MPD2    C313826   1.001   3.801   8.899  0.2147  0.1508  0.2659
  942MPD2    C413827   1.025   3.875   8.786 -1.0407  0.2291 -0.2310
  942MPD2    C513828   0.963   3.994   8.766  0.4720  0.7143 -0.7243
  942MPD2     H13829   0.878   3.802   9.076  1.3265 -1.3571  0.5582
  942MPD2    H113830   1.087   3.838   8.704 -2.6476  1.8964 -2.2054
  942MPD2    H213831   0.833   4.148   8.828  1.7676 -1.2278 -2.6639
  942MPD2    H313832   0.998   4.048   8.679 -1.0979  2.8473 -0.0361
  942MPD2     N13833   1.058   3.676   8.925 -0.1727 -0.2178  0.5925
  942MPD2    H513834   1.061   3.648   9.022 -0.3497  2.2083  1.3032
  942MPD2    N113835   0.746   4.023   9.049 -0.0286  0.4228 -0.2887
  942MPD2    H713836   0.723   3.967   9.131 -1.1739  0.9082 -0.2800
  943MPD2     C13837   2.187   4.450   9.673  0.0330 -0.3225 -0.2325
  943MPD2    C113838   2.185   4.399   9.550  0.4242 -0.1769  0.3573
  943MPD2    C213839   2.105   4.461   9.457 -0.2116 -0.3460  0.9431
  943MPD2    C313840   2.016   4.568   9.488 -0.2376 -0.4461  0.8905
  943MPD2    C413841   2.023   4.622   9.617 -0.1386  0.7939 -0.3872
  943MPD2    C513842   2.110   4.561   9.709  0.4086  0.2361  0.2818
  943MPD2     H13843   2.094   4.413   9.360 -1.6376 -1.3991  1.6231
  943MPD2    H113844   1.957   4.701   9.651  0.1053  1.2469 -0.9560
  943MPD2    H213845   2.239   4.401   9.754  4.2082  0.4613 -2.4876
  943MPD2    H313846   2.115   4.599   9.811  0.6035 -2.7610  1.4135
  943MPD2     N13847   1.936   4.634   9.396  0.3188 -0.0047  0.3795
  943MPD2    H513848   1.892   4.721   9.423 -0.7265  0.6071 -3.2890
  943MPD2    N113849   2.254   4.281   9.524 -0.3620  0.3727  0.5208
  943MPD2    H713850   2.313   4.258   9.603  1.6096  0.6705 -0.8848
  944MPD2     C13851   3.536   0.065  11.280 -0.2861 -0.0195 -0.0470
  944MPD2    C113852   3.447   0.124  11.198  0.4415  0.3482 -0.2113
  944MPD2    C213853   3.399   0.252  11.223 -0.0585  0.8235 -0.1547
  944MPD2    C313854   3.452   0.321  11.331  0.0340  0.4422 -0.4169
  944MPD2    C413855   3.552   0.262  11.402 -0.4016 -0.4466  0.4354
  944MPD2    C513856   3.601   0.137  11.375 -0.5482  0.3674  0.2211
  944MPD2     H13857   3.333   0.314  11.163 -2.2148 -4.1821 -2.9209
  944MPD2    H113858   3.609   0.312  11.480  0.2304  0.5349 -0.6590
  944MPD2    H213859   3.556   4.694  11.270 -1.7532 -0.3841  0.9623
  944MPD2    H313860   3.662   0.087  11.448  1.8855  2.2011 -0.5723
  944MPD2     N13861   3.416   0.453  11.357 -0.1469  0.2815  0.5068
  944MPD2    H513862   3.340   0.484  11.297 -0.4548  1.2897  1.4146
  944MPD2    N113863   3.395   0.043  11.096  0.4331  0.7079 -0.0871
  944MPD2    H713864   3.424   4.684  11.073  0.6285  0.5884  0.6344
    1TMC1    C113865   2.179   0.879  14.391  0.1006  0.7764  0.9015
    1TMC1    C213866   2.105   0.822  14.290 -0.1434 -0.2128 -1.4772
    1TMC1    C313867   2.125   0.689  14.270 -0.3270 -0.6640 -0.0086
    1TMC1    C413868   2.269   0.805  14.463  0.1516  0.6522 -0.4927
    1TMC1    C513869   2.283   0.673  14.435 -0.1948 -0.7740  1.2610
    1TMC1    C613870   2.212   0.603  14.339 -0.3190  0.0937  0.3337
    1TMC1     C13871   2.179   1.021  14.425  0.7334 -0.2746  0.0691
    1TMC1     O13872   2.254   1.055  14.517 -0.1514  0.2503  0.1503
    1TMC1     H13873   2.023   0.863  14.232  0.1256  1.1049 -0.9266
    1TMC1    H113874   2.342   0.840  14.535 -1.5627  1.0745  1.0455
    1TMC1    H213875   2.222   0.497  14.321  0.1424  0.0519  0.8220
    1TMC1    C713876   2.394   0.595  14.504  0.2344  0.3226  0.7722
    1TMC1    C813877   2.038   0.627  14.171  0.3527  0.5104 -0.1579
    1TMC1    O113878   2.507   0.643  14.518  0.1239 -0.4071 -0.3915
    1TMC1    O213879   1.916   0.634  14.161  0.0731  0.1799 -0.4744
    1TMC1    O313880   2.366   0.465  14.490  0.2064 -0.3082  0.3399
    1TMC1    H313881   2.269   0.452  14.497 -0.0490  0.8279 -0.8882
    1TMC1    O513882   2.125   0.552  14.098 -0.7933 -0.2174 -0.5256
    1TMC1    H513883   2.221   0.544  14.117 -1.2966 -1.4705  1.4577
    2MPD2     C13884   2.016   1.503  14.393  0.4468  0.5331  0.5939
    2MPD2    C113885   2.000   1.454  14.265 -0.2276  0.1901  0.8084
    2MPD2    C213886   2.031   1.326  14.248 -0.5785 -0.6251  0.2745
    2MPD2    C313887   2.075   1.242  14.351  0.1802 -0.0110  0.0219
    2MPD2    C413888   2.091   1.298  14.476 -0.9531 -0.3578 -0.1390
    2MPD2    C513889   2.067   1.427  14.498  0.1241 -0.0971 -0.2544
    2MPD2     H13890   2.021   1.279  14.151  1.8076 -0.2422 -0.1713
    2MPD2    H113891   2.099   1.251  14.574  1.6982 -0.7657 -0.5689
    2MPD2    H213892   1.985   1.606  14.410 -0.3033  0.1769  1.3613
    2MPD2    H313893   2.059   1.467  14.599 -0.6947 -0.0401 -0.3394
    2MPD2     N13894   2.105   1.104  14.331  0.7682  0.6826  0.3455
    2MPD2    H513895   2.071   1.062  14.245  0.7367  2.3596 -0.4626
    2MPD2    N113896   1.957   1.546  14.167 -1.0215  0.5738 -0.2965
    2MPD2    H713897   1.946   1.643  14.195 -1.8175  1.2023 -2.7578
    3TMC2    C113898   1.948   1.624  13.951  0.5924  0.1643 -0.0656
    3TMC2    C213899   2.030   1.729  13.983  0.3247 -0.9812 -0.0299
    3TMC2    C313900   2.085   1.811  13.887  0.2758 -0.2637 -0.2954
    3TMC2    C413901   1.920   1.606  13.823  0.2463 -0.0715 -0.2696
    3TMC2    C513902   1.983   1.680  13.726 -0.1615  0.4142  0.4274
    3TMC2    C613903   2.062   1.786  13.756  0.2502 -0.3724  0.6759
    3TMC2     C13904   1.938   1.509  14.036 -0.3189  0.6132 -0.6354
    3TMC2     O13905   1.918   1.399  13.986 -0.1431  0.1661 -0.5842
    3TMC2     H13906   2.051   1.741  14.088  0.5458 -0.1582 -0.1701
    3TMC2    H113907   1.862   1.520  13.793 -1.3383  1.2451 -0.9436
    3TMC2    H213908   2.118   1.845  13.685  0.8427 -0.8584  0.7345
    3TMC2    C713909   1.936   1.662  13.592 -0.2491  0.1657 -0.1750
    3TMC2    C813910   2.159   1.930  13.911  0.2257  0.3488 -0.3648
    3TMC2    O113911   1.886   1.558  13.555 -0.5983 -0.3054  0.1547
    3TMC2    O213912   2.151   2.023  13.829  0.5196  0.4692 -0.4090
    3TMC2    O513913   2.213   1.943  14.034  0.4709 -0.1812  0.2510
    3TMC2    H513914   2.224   1.857  14.082  1.9091  0.3218  0.8237
    4TMC2    C113915   1.800   2.421  12.972  0.0181 -0.6518 -0.2807
    4TMC2    C213916   1.887   2.523  12.960  0.0688 -0.5968  0.0693
    4TMC2    C313917   2.001   2.527  13.034  0.0697  0.5477  0.2245
    4TMC2    C413918   1.812   2.316  13.058  0.3149 -0.2241  0.4511
    4TMC2    C513919   1.924   2.318  13.130 -0.1621 -0.3874 -0.6701
    4TMC2    C613920   2.023   2.420  13.121 -0.5508 -0.0310 -0.2099
    4TMC2     C13921   1.674   2.442  12.901 -0.4152  0.4318 -0.8269
    4TMC2     O13922   1.672   2.521  12.808  0.4860 -0.3027 -0.6599
    4TMC2     H13923   1.872   2.585  12.873 -2.1859 -2.4981 -0.9217
    4TMC2    H113924   1.747   2.229  13.056  1.4628 -1.0811  0.4897
    4TMC2    H213925   2.115   2.425  13.178 -1.9816 -1.7426  2.2646
    4TMC2    C713926   1.967   2.208  13.213  0.0600 -0.2271  0.3546
    4TMC2    C813927   2.068   2.652  13.051  0.5389  0.6095  0.2657
    4TMC2    O113928   2.000   2.234  13.328  0.1743 -0.3833  0.0571
    4TMC2    O213929   2.187   2.666  13.040 -0.0575  0.1507  0.0386
    4TMC2    O513930   1.973   2.753  13.045 -0.1730  0.3317  0.7232
    4TMC2    H513931   1.894   2.718  13.092  1.2931 -1.2476  1.9977
    5MPD2     C13932   1.156   2.412  12.870 -0.1698  0.7682 -0.5195
    5MPD2    C113933   1.200   2.383  13.001 -0.3575  0.1222  0.4892
    5MPD2    C213934   1.331   2.392  13.035 -0.0988 -0.7098  0.0844
    5MPD2    C313935   1.426   2.417  12.937  0.0580 -0.2391  0.5335
    5MPD2    C413936   1.390   2.446  12.806  0.0444 -0.5854 -0.1343
    5MPD2    C513937   1.256   2.439  12.773  0.0063  0.0095 -0.5475
    5MPD2     H13938   1.362   2.374  13.138  0.2514  1.1542  0.3035
    5MPD2    H113939   1.466   2.458  12.730 -0.1752 -0.3370 -0.3133
    5MPD2    H213940   1.052   2.402  12.843  0.1837  0.0959 -1.6315
    5MPD2    H313941   1.230   2.466  12.671 -0.2077 -1.0454 -0.7766
    5MPD2     N13942   1.565   2.408  12.978  0.0083 -0.0371  0.4365
    5MPD2    H513943   1.581   2.355  13.063  0.7529 -1.1561 -0.4034
    5MPD2    N113944   1.092   2.350  13.092  0.0399 -0.5424 -0.2280
    5MPD2    H713945   0.995   2.369  13.067  0.7436  1.8868 -1.0757
    6MPD1     C13946   4.544   3.563  13.278 -0.0152 -0.2169 -0.2428
    6MPD1    C113947   4.653   3.577  13.368 -0.3004 -0.2671 -0.4515
    6MPD1    C213948   0.020   3.477  13.365 -0.6026 -0.5536  0.0651
    6MPD1    C313949   0.015   3.372  13.272 -0.2212 -0.0262 -0.9140
    6MPD1    C413950   4.641   3.359  13.194  0.0991 -0.3616 -0.0121
    6MPD1    C513951   4.539   3.453  13.191 -0.5305  0.5038  0.4652
    6MPD1     H13952   0.102   3.481  13.436  2.1255 -2.6787 -2.9470
    6MPD1    H113953   4.642   3.284  13.116  0.9236 -0.9351  0.5560
    6MPD1    H213954   4.472   3.644  13.266  1.2336  0.7985 -0.9491
    6MPD1    H313955   4.471   3.448  13.107 -0.3750  2.3359  0.2336
    6MPD1     N13956   0.110   3.270  13.258 -0.0169  0.1448 -0.0911
    6MPD1    H513957   0.096   3.196  13.190 -0.8765  1.0823 -0.9392
    6MPD1    N113958   4.680   3.704  13.428  0.0820  0.0795 -0.5124
    6MPD1    H613959   4.588   3.737  13.458  0.7431  0.1202  1.4215
    6MPD1    H713960   0.001   3.682  13.509 -0.4924  1.1125  0.1651
    7MPD2     C13961   0.841   2.908  13.577 -0.0747  0.0025  0.2375
    7MPD2    C113962   0.777   2.852  13.474  0.6706  0.1319  0.0506
    7MPD2    C213963   0.790   2.715  13.457 -0.2815  0.6173  0.0478
    7MPD2    C313964   0.860   2.641  13.551 -0.5537 -0.3741 -0.4954
    7MPD2    C413965   0.912   2.697  13.661  0.4891  0.0428 -0.0526
    7MPD2    C513966   0.918   2.832  13.664  0.3485  0.0096 -0.8767
    7MPD2     H13967   0.746   2.659  13.376 -0.4628 -2.0449  2.0118
    7MPD2    H113968   0.964   2.635  13.732 -0.4469  0.6675  1.1828
    7MPD2    H213969   0.846   3.014  13.595  0.3099 -0.2025  1.3067
    7MPD2    H313970   0.978   2.884  13.738 -0.8163 -0.0377  0.0919
    7MPD2     N13971   0.841   2.502  13.533  0.0654 -0.1284 -0.1117
    7MPD2    H513972   0.769   2.483  13.464 -0.9963  1.0922  0.6401
    7MPD2    N113973   0.697   2.922  13.383  0.4750  0.2142 -0.9995
    7MPD2    H713974   0.663   2.869  13.304 -1.6847  1.5717 -0.9688
    8TMC3    C113975   0.898   2.278  13.519  0.5112  0.5186  0.3526
    8TMC3    C213976   1.009   2.271  13.436 -0.2501  0.2101 -0.0169
    8TMC3    C313977   0.992   2.275  13.300  0.0208 -0.6910  0.8627
    8TMC3    C413978   0.774   2.267  13.464  0.3173 -0.3099 -0.7137
    8TMC3    C513979   0.759   2.257  13.330 -0.3871  0.4790 -0.5066
    8TMC3    C613980   0.868   2.257  13.244 -0.9693 -0.6045 -0.3850
    8TMC3     C13981   0.918   2.401  13.584  0.0770 -0.7865 -0.0909
    8TMC3     O13982   1.008   2.411  13.665  0.0924  0.0795  0.1239
    8TMC3     H13983   1.099   2.320  13.470 -0.3835  0.4702 -0.0382
    8TMC3    H113984   0.681   2.273  13.521  1.1398 -2.5005  0.8242
    8TMC3    H213985   0.859   2.234  13.139  0.6695 -2.4053 -0.1394
    8TMC3    C713986   0.655   2.345  13.289 -0.0358  0.7319 -0.7673
    8TMC3    C813987   1.110   2.299  13.221 -0.1262 -0.1042 -0.6069
    8TMC3    O113988   0.609   2.409  13.383 -0.0708  0.2249  0.0928
    8TMC3    O213989   1.217   2.270  13.276  0.5059 -0.0357  0.3126
    9TMC3    C113990   0.319   3.157  13.289 -0.0373 -0.7115  0.1955
    9TMC3    C213991   0.284   3.064  13.197  0.1851  0.3736  0.2017
    9TMC3    C313992   0.381   2.974  13.165  0.3124 -0.0542  0.4851
    9TMC3    C413993   0.448   3.174  13.342  0.2189 -0.3136 -0.2331
    9TMC3    C513994   0.535   3.074  13.309  0.1002 -0.1195 -0.0851
    9TMC3    C613995   0.512   2.982  13.213 -0.8260  0.0018 -0.3032
    9TMC3     C13996   0.235   3.269  13.324 -0.8342 -0.7865  0.1263
    9TMC3     O13997   0.284   3.354  13.389  0.4724 -0.4629  0.4512
    9TMC3     H13998   0.184   3.046  13.160  0.9367  2.1341 -2.7363
    9TMC3    H113999   0.468   3.233  13.430 -2.0089 -0.1337  0.1562
    9TMC3    H214000   0.589   2.921  13.166  0.5910  0.8560  0.9143
    9TMC3    C714001   0.644   3.043  13.404 -0.0284  0.3102  0.2211
    9TMC3    C814002   0.338   2.857  13.086 -0.2993 -0.6965  0.4275
    9TMC3    O114003   0.673   3.127  13.493  0.1817 -0.1639 -1.1899
    9TMC3    O214004   0.263   2.868  12.989  0.2823 -0.1858  0.1397
   10MPD2     C14005   0.508   2.396  12.954 -0.0825 -0.1119  0.4849
   10MPD2    C114006   0.526   2.416  13.089 -0.6602 -0.4286 -0.6590
   10MPD2    C214007   0.476   2.532  13.150 -0.5778  0.4250 -0.3353
   10MPD2    C314008   0.407   2.629  13.080  0.0738  0.8134  0.6386
   10MPD2    C414009   0.383   2.601  12.945  0.2610 -0.3716  0.0458
   10MPD2    C514010   0.436   2.488  12.886 -0.3630 -0.1109  0.1014
   10MPD2     H14011   0.494   2.559  13.254  0.4305  0.8305 -0.6229
   10MPD2    H114012   0.330   2.675  12.886 -0.1027 -1.5866 -1.1452
   10MPD2    H214013   0.549   2.306  12.909 -1.6125 -0.3594 -0.4256
   10MPD2    H314014   0.418   2.470  12.781  1.1251  1.0144 -0.3564
   10MPD2     N14015   0.384   2.743  13.147  0.2196 -0.2267 -0.3207
   10MPD2    H514016   0.408   2.757  13.244 -0.5696  0.4654 -0.2289
   10MPD2    N114017   0.613   2.325  13.157  0.0308 -0.1695 -0.3630
   10MPD2    H714018   0.659   2.252  13.103  0.5773 -1.8554  2.3983
   11MPD2     C14019   1.885   1.701  13.283 -0.4982  0.3711 -0.1689
   11MPD2    C114020   1.930   1.798  13.370  0.2196  0.0157 -0.6491
   11MPD2    C214021   1.951   1.929  13.330 -0.5127  0.1473  0.1397
   11MPD2    C314022   1.930   1.959  13.197 -0.5148  0.4502 -0.2884
   11MPD2    C414023   1.899   1.851  13.106  0.0218 -0.2936  0.2420
   11MPD2    C514024   1.874   1.726  13.150  0.2554  0.0553  0.3314
   11MPD2     H14025   1.980   2.006  13.401  0.0853  0.7320 -0.7323
   11MPD2    H114026   1.893   1.864  12.998 -1.7189 -0.5007  0.3120
   11MPD2    H214027   1.855   1.602  13.316  1.2748 -0.0423  0.2028
   11MPD2    H314028   1.856   1.644  13.083  1.1827 -0.4695  0.7153
   11MPD2     N14029   1.937   2.091  13.148  0.6883  0.2376 -0.2122
   11MPD2    H514030   1.911   2.100  13.050  0.5484  1.6191 -0.0478
   11MPD2    N114031   1.962   1.772  13.504 -0.0064 -0.1811 -0.8858
   11MPD2    H714032   2.008   1.845  13.557 -1.2035 -0.5285  0.6098
    1MPD1     C14033   3.897   3.401  16.446  0.0936 -0.0612  0.4476
    1MPD1    C114034   3.763   3.382  16.429 -0.7264  0.1701 -0.0971
    1MPD1    C214035   3.703   3.409  16.304 -0.2902 -1.1611 -1.1751
    1MPD1    C314036   3.780   3.425  16.191 -0.0253  0.1824 -0.0678
    1MPD1    C414037   3.916   3.426  16.206 -0.0683  0.3959 -0.1966
    1MPD1    C514038   3.966   3.434  16.336 -0.3799 -0.0315  0.2127
    1MPD1     H14039   3.595   3.401  16.291 -0.5262 -0.5471  0.3394
    1MPD1    H114040   3.982   3.446  16.122 -1.1473  0.7763 -0.9544
    1MPD1    H214041   3.949   3.400  16.541  0.0851  1.8346  0.4758
    1MPD1    H314042   4.070   3.451  16.362  0.2693 -0.6153 -1.9315
    1MPD1     N14043   3.734   3.424  16.061 -0.4492  0.0573 -0.2982
    1MPD1    H514044   3.800   3.424  15.984 -2.1204  1.1596 -1.7355
    1MPD1    N114045   3.678   3.369  16.547 -0.1348  0.6552  0.2800
    1MPD1    H614046   3.583   3.334  16.536  0.0507  0.0207  0.7180
    1MPD1    H714047   3.734   3.312  16.609 -0.6692 -2.0591 -1.7470
    2MPD1     C14048   4.194   3.373  15.358  0.3490 -0.2321  0.3992
    2MPD1    C114049   4.165   3.482  15.434  0.4158  0.2176  0.2207
    2MPD1    C214050   4.049   3.473  15.509 -0.5734 -0.6496  0.9784
    2MPD1    C314051   3.971   3.365  15.504  0.3048  0.8312  0.3085
    2MPD1    C414052   3.995   3.266  15.421  0.0469  0.3122 -0.0757
    2MPD1    C514053   4.107   3.264  15.353  0.2064  0.3745 -0.2983
    2MPD1     H14054   4.021   3.559  15.569  0.7787  0.8029 -0.4814
    2MPD1    H114055   3.929   3.181  15.415 -1.8122  1.6076  2.0827
    2MPD1    H214056   4.289   3.360  15.307  0.1137  1.2743 -0.4226
    2MPD1    H314057   4.128   3.178  15.291  2.3030 -0.2000  1.2126
    2MPD1     N14058   3.853   3.371  15.587 -0.4443 -1.5378 -0.3204
    2MPD1    H514059   3.844   3.455  15.643  2.0033  0.0752 -2.3376
    2MPD1    N114060   4.257   3.580  15.466  0.2431  0.7133  0.7046
    2MPD1    H614061   4.208   3.663  15.498 -1.7439 -0.4964  0.8244
    2MPD1    H714062   4.325   3.614  15.398  0.4483 -1.0113  0.0499
    3TMC3    C114063   3.642   3.337  15.667 -0.0867  0.2123  0.1628
    3TMC3    C214064   3.518   3.362  15.622 -0.1245 -0.4948  0.1567
    3TMC3    C314065   3.422   3.396  15.717  0.2651  1.2074  0.0285
    3TMC3    C414066   3.678   3.350  15.796 -0.1243  0.4061 -0.5501
    3TMC3    C514067   3.581   3.393  15.889  0.3404 -0.2443 -1.0787
    3TMC3    C614068   3.449   3.407  15.847  0.0457 -0.8467  0.2889
    3TMC3     C14069   3.735   3.299  15.568  0.0094 -0.1830 -0.3130
    3TMC3     O14070   3.698   3.221  15.481  0.1950 -0.1247  0.4778
    3TMC3     H14071   3.491   3.359  15.517  1.4762 -0.2962 -0.2668
    3TMC3    H114072   3.774   3.311  15.826 -0.7927 -2.1363 -1.7669
    3TMC3    H214073   3.364   3.435  15.908  1.6062  4.5939  0.0056
    3TMC3    C714074   3.604   3.428  16.024 -0.1143 -0.3684 -0.7757
    3TMC3    C814075   3.284   3.419  15.662  0.2167  0.7819  0.0373
    3TMC3    O114076   3.507   3.436  16.101  0.0485  0.2772  0.0818
    3TMC3    O214077   3.269   3.390  15.548  0.6122  0.2019  0.2876
    4MPD1     C14078   2.783   3.473  15.724 -0.5751 -0.5873  0.0082
    4MPD1    C114079   2.842   3.581  15.778 -0.5717 -0.8065 -0.3919
    4MPD1    C214080   2.983   3.581  15.795 -0.0575 -0.6596  0.4360
    4MPD1    C314081   3.059   3.487  15.725  0.2097  0.0393  0.0394
    4MPD1    C414082   2.992   3.384  15.657  0.0752 -1.0817  0.7050
    4MPD1    C514083   2.855   3.377  15.664 -0.5441  0.0059 -0.0570
    4MPD1     H14084   3.025   3.665  15.849  1.2992 -1.8039  1.1656
    4MPD1    H114085   3.040   3.305  15.601  0.3316  0.6055 -1.4857
    4MPD1    H214086   2.678   3.450  15.738 -0.6484  0.9334  1.8513
    4MPD1    H314087   2.817   3.282  15.628  0.4313 -0.7271  0.8694
    4MPD1     N14088   3.202   3.498  15.743 -0.3585  0.7351  0.1626
    4MPD1    H514089   3.235   3.553  15.822 -0.4610 -1.1782  1.5200
    4MPD1    N114090   2.769   3.672  15.856  0.2741 -0.0835 -0.4199
    4MPD1    H614091   2.675   3.694  15.823 -0.8499 -0.3086  2.6460
    4MPD1    H714092   2.819   3.760  15.867 -1.2249  0.6328  0.7120
    1TCq1    O114093   0.840   0.957   9.526 -0.2468 -0.8636 -0.2939
    1TCq1    C114094   0.951   1.025   9.486 -0.0619  0.3097  0.6329
    1TCq1    O214095   0.981   1.046   9.370  0.7965 -0.4517 -0.4260
    1TCq1    C214096   1.043   1.042   9.594 -0.1387  0.0302  0.4470
    1TCq1    C314097   1.143   1.128   9.559 -0.0130 -0.1084 -1.2988
    1TCq1    C414098   1.252   1.129   9.641 -0.7668 -0.8444  0.8644
    1TCq1    C514099   1.279   1.011   9.707  0.3613  0.1273  0.2910
    1TCq1    C614100   1.177   0.921   9.733  0.0401  0.0725  0.1856
    1TCq1    C714101   1.053   0.949   9.700 -0.4348 -0.6981  0.5204
    1TCq1    C814102   1.205   0.799   9.810 -0.2799  0.4610  0.0781
    1TCq1    O414103   1.108   0.726   9.834  0.1570 -0.9431 -0.1347
    1TCq1    C914104   1.369   1.205   9.603  0.2785 -0.3997  0.0554
    1TCq1    O514105   1.346   1.295   9.519 -0.2237  0.2303  0.4498
    1TCq1    O614106   1.474   1.166   9.654  0.1189  0.0781 -0.3664
    1TCq1    H114107   0.842   0.940   9.622  1.6783 -0.7167 -0.3064
    1TCq1    H214108   1.122   1.207   9.488 -2.4426 -0.1131 -0.5909
    1TCq1    H314109   1.376   0.984   9.748 -0.9045 -2.7199  1.4224
    1TCq1    H414110   0.972   0.880   9.723 -0.5687 -0.6307  0.2462
    2MPD1     C14111   1.505   0.502  10.097 -0.5011  0.0598  0.0599
    2MPD1    C114112   1.578   0.615  10.071  0.1421 -0.2158  0.1738
    2MPD1    C214113   1.508   0.715   9.999  0.2217 -0.7323  0.1942
    2MPD1    C314114   1.385   0.695   9.947 -0.0928 -0.4334  0.1196
    2MPD1    C414115   1.319   0.575   9.970  0.1614 -0.6403 -0.8835
    2MPD1    C514116   1.388   0.475  10.034  0.7000 -0.1597 -0.0489
    2MPD1     H14117   1.568   0.805   9.990  1.2386 -1.7855 -3.5063
    2MPD1    H114118   1.217   0.557   9.937 -0.0245  0.6956 -1.0175
    2MPD1    H214119   1.548   0.433  10.168 -0.3237 -1.6225 -1.6978
    2MPD1    H314120   1.335   0.382  10.052  3.5155 -1.4574  1.7338
    2MPD1     N14121   1.328   0.801   9.872 -0.3851  0.3373  0.6247
    2MPD1    H514122   1.378   0.889   9.873  1.4005 -0.6036 -4.1307
    2MPD1    N114123   1.699   0.640  10.143 -0.3394  0.0966 -0.4673
    2MPD1    H614124   1.762   0.689  10.081 -0.9178  0.3672 -0.8436
    2MPD1    H714125   1.748   0.553  10.163  1.4259  0.8816 -1.4317
    1TMC1    C114126   3.436   3.873   0.747 -0.2227 -0.4986 -0.4142
    1TMC1    C214127   3.512   3.824   0.853  0.5383  0.1542  0.2034
    1TMC1    C314128   3.643   3.846   0.842  0.2963  0.6659  0.2164
    1TMC1    C414129   3.490   3.942   0.648  0.2644 -0.2211  0.0538
    1TMC1    C514130   3.619   3.943   0.633 -0.1557 -0.2136  0.1101
    1TMC1    C614131   3.706   3.899   0.731 -0.4826 -0.0846  0.8149
    1TMC1     C14132   3.299   3.907   0.782 -0.1248 -0.3322  0.0911
    1TMC1     O14133   3.253   4.012   0.738 -0.1612  0.2832 -0.9262
    1TMC1     H14134   3.461   3.783   0.939  1.1593  1.1410  1.0341
    1TMC1    H114135   3.430   3.986   0.569 -1.7337 -1.7111  0.7311
    1TMC1    H214136   3.813   3.906   0.715 -0.5424 -1.0662 -0.0468
    1TMC1    C714137   3.679   4.018   0.528 -0.0786 -0.1805 -0.3410
    1TMC1    C814138   3.739   3.795   0.939  0.0449 -0.0934  0.6074
    1TMC1    O114139   3.623   4.104   0.463  0.2561 -0.8427  0.2653
    1TMC1    O214140   3.826   3.717   0.904 -0.3667  0.4586 -0.3380
    1TMC1    O314141   3.777   3.943   0.480  0.0607 -0.0104 -0.2194
    1TMC1    H314142   3.788   3.858   0.528  0.5120 -1.1699 -2.3760
    1TMC1    O514143   3.682   3.801   1.060 -0.1214  0.4205  0.4679
    1TMC1    H514144   3.611   3.868   1.049 -1.1655 -0.7592  0.0095
    2MPD1     C14145   2.848   3.811   1.005 -0.1527  0.0200  0.0006
    2MPD1    C114146   2.923   3.696   1.010  0.2159  0.2558 -0.3950
    2MPD1    C214147   3.043   3.698   0.947 -0.4966  0.1533  0.1820
    2MPD1    C314148   3.096   3.814   0.889 -0.0668 -0.6708 -0.0755
    2MPD1    C414149   3.017   3.932   0.890  0.5671 -0.1019 -0.2262
    2MPD1    C514150   2.894   3.927   0.946  0.1719 -0.1608 -0.4177
    2MPD1     H14151   3.098   3.605   0.949 -1.3009 -0.3669 -3.1112
    2MPD1    H114152   3.048   4.021   0.836 -3.1778 -0.3128 -2.7622
    2MPD1    H214153   2.755   3.808   1.061 -1.1834 -1.7092 -1.8015
    2MPD1    H314154   2.829   4.012   0.962  1.7303  0.6000  1.8837
    2MPD1     N14155   3.226   3.806   0.828 -0.5238  0.6915  0.0333
    2MPD1    H514156   3.271   3.719   0.854  1.4032  0.7631 -3.0965
    2MPD1    N114157   2.862   3.584   1.063  0.3240  0.1625 -0.2364
    2MPD1    H614158   2.781   3.606   1.121  1.2092 -0.2542  1.1671
    2MPD1    H714159   2.916   3.500   1.083  0.4211  0.4599  0.7646
    1MPD1     C14160   1.951   2.302  12.047 -0.2798 -0.3060  0.4134
    1MPD1    C114161   2.077   2.307  11.995 -0.6443  0.5844 -0.1244
    1MPD1    C214162   2.141   2.427  11.987  0.8311  0.1735  0.3019
    1MPD1    C314163   2.075   2.550  12.016  0.6331  0.3823 -0.5552
    1MPD1    C414164   1.944   2.538  12.058  0.0602  0.3874  0.5502
    1MPD1    C514165   1.885   2.421  12.086 -0.5362  0.9278 -0.7512
    1MPD1     H14166   2.247   2.430  11.966  0.3091  1.4868 -2.1675
    1MPD1    H114167   1.890   2.616  12.111 -2.3724 -1.2150  0.4812
    1MPD1    H214168   1.902   2.208  12.069 -1.3243  0.2946  0.6655
    1MPD1    H314169   1.785   2.416  12.126 -0.2076  0.0931 -0.0318
    1MPD1     N14170   2.153   2.663  12.010 -0.0374 -0.0303  0.4794
    1MPD1    H514171   2.246   2.645  11.974 -1.0332 -0.6126 -1.7945
    1MPD1    N114172   2.153   2.188  11.996 -0.4921 -0.6223 -0.1767
    1MPD1    H614173   2.109   2.104  11.957  1.0176 -0.4050 -2.3869
    1MPD1    H714174   2.236   2.196  11.937 -0.6080  1.5264 -0.0462
    2MPD1     C14175   1.451   3.528  11.395 -0.1570  0.0408  0.3083
    2MPD1    C114176   1.381   3.474  11.292  0.8718  0.2319  1.0281
    2MPD1    C214177   1.450   3.410  11.186  0.0049  0.4614  0.3599
    2MPD1    C314178   1.591   3.392  11.201 -0.3430 -0.2773  0.4355
    2MPD1    C414179   1.654   3.453  11.311 -0.1051 -0.1447  0.6959
    2MPD1    C514180   1.590   3.527  11.400 -0.1063 -0.3520 -0.2029
    2MPD1     H14181   1.401   3.369  11.098  0.5630  2.1735 -0.7465
    2MPD1    H114182   1.763   3.451  11.317 -0.0484  1.4765  0.2101
    2MPD1    H214183   1.401   3.553  11.488 -1.6538  0.0091 -0.4876
    2MPD1    H314184   1.636   3.585  11.479 -0.6949  0.3837 -0.4025
    2MPD1     N14185   1.677   3.331  11.104  0.8894  0.6587 -0.0588
    2MPD1    H514186   1.772   3.316  11.135  1.0159  0.9311 -0.3146
    2MPD1    N114187   1.247   3.501  11.279  0.3385 -0.5628  0.3070
    2MPD1    H614188   1.180   3.432  11.245  1.4561 -1.4062 -0.1725
    2MPD1    H714189   1.208   3.521  11.370 -0.1036  2.6336 -0.5792
    3MPD1     C14190   2.099   3.267  10.107 -0.4869 -0.4917  0.7522
    3MPD1    C114191   1.964   3.261  10.132 -0.1516  0.2479  0.3625
    3MPD1    C214192   1.922   3.250  10.264  0.1374  0.0720  0.1172
    3MPD1    C314193   2.013   3.257  10.366 -0.0726  0.8326  0.8975
    3MPD1    C414194   2.145   3.279  10.343 -0.3341 -0.8565  0.0605
    3MPD1    C514195   2.188   3.290  10.210  0.0910 -0.2647 -0.2718
    3MPD1     H14196   1.819   3.236  10.295  1.1654 -0.4131  3.2676
    3MPD1    H114197   2.217   3.292  10.423 -0.8114  0.0600  0.3397
    3MPD1    H214198   2.149   3.253  10.011  1.9072 -1.8780  2.2102
    3MPD1    H314199   2.295   3.278  10.202  0.1023 -0.5997  0.3237
    3MPD1     N14200   1.967   3.224  10.498 -0.2164 -0.0143 -0.1780
    3MPD1    H514201   2.040   3.241  10.567  1.0169  0.1475 -1.5126
    3MPD1    N114202   1.884   3.229  10.024 -0.0448  0.6282 -0.4345
    3MPD1    H614203   1.917   3.286   9.946  1.4483 -0.0557 -0.2979
    3MPD1    H714204   1.785   3.241  10.043  0.5412  2.9090  1.1423
    4MPD2     C14205   2.292   3.413  11.666  0.3761 -0.0971  0.4071
    4MPD2    C114206   2.385   3.313  11.692 -0.2945  0.0049  0.0194
    4MPD2    C214207   2.490   3.285  11.611 -0.5677  0.0741 -0.4701
    4MPD2    C314208   2.516   3.379  11.510  0.3858 -0.5244 -0.6673
    4MPD2    C414209   2.428   3.481  11.486  0.7778 -0.3474 -0.7302
    4MPD2    C514210   2.314   3.497  11.560 -0.0956  0.0454  0.0342
    4MPD2     H14211   2.541   3.190  11.618 -0.7261  0.1511  1.7641
    4MPD2    H114212   2.445   3.558  11.412 -2.9019  0.0126 -1.1575
    4MPD2    H214213   2.213   3.452  11.729 -0.1750 -0.1816 -0.2250
    4MPD2    H314214   2.255   3.587  11.553  0.3979  0.5257  1.9396
    4MPD2     N14215   2.629   3.367  11.421 -0.2236 -0.5659 -0.1783
    4MPD2    H514216   2.632   3.420  11.334 -2.1246  0.0733  0.1538
    4MPD2    N114217   2.363   3.228  11.806  0.3995 -0.2511  0.4040
    4MPD2    H714218   2.441   3.164  11.816 -0.0644 -1.0816 -1.1506
    5TMC3    C114219   2.273   3.125  11.991  0.2085 -0.3739  0.2396
    5TMC3    C214220   2.178   3.032  12.003 -0.5138  0.1665 -0.1142
    5TMC3    C314221   2.216   2.899  12.033  0.7031 -0.1018  0.2192
    5TMC3    C414222   2.406   3.100  11.997  0.0223  0.3057  0.2732
    5TMC3    C514223   2.441   2.971  12.026  0.0709  0.2180 -0.4839
    5TMC3    C614224   2.347   2.870  12.044 -1.1707 -0.3268 -0.5439
    5TMC3     C14225   2.245   3.216  11.878  0.2601 -0.5430  0.2609
    5TMC3     O14226   2.133   3.256  11.850  0.0287  0.5674  0.4888
    5TMC3     H14227   2.080   3.052  11.961 -0.3041  0.6288 -0.3880
    5TMC3    H114228   2.469   3.188  12.002 -1.5983  1.3382  1.9877
    5TMC3    H214229   2.373   2.765  12.054  0.3343  0.2365  1.4485
    5TMC3    C714230   2.545   2.941  11.928  0.3293 -0.2317 -1.2369
    5TMC3    C814231   2.114   2.791  12.032  0.0298 -0.0216  0.2340
    5TMC3    O114232   2.560   3.026  11.840  0.3640  0.0497  1.0151
    5TMC3    O214233   1.999   2.831  12.047 -0.6486  0.9304  0.4066
    6TMC3    C114234   1.741   3.215  10.903  0.5237 -0.3712  0.2505
    6TMC3    C214235   1.746   3.231  10.766  0.6520  0.5440  0.3342
    6TMC3    C314236   1.854   3.187  10.694  0.8550  0.4870  0.3318
    6TMC3    C414237   1.846   3.153  10.967 -0.5593  0.0307 -0.1745
    6TMC3    C514238   1.945   3.103  10.890  0.3015 -0.3081 -0.0831
    6TMC3    C614239   1.960   3.125  10.751 -0.0830  0.2443  0.2329
    6TMC3     C14240   1.644   3.299  10.976 -0.5539 -0.2133 -0.2550
    6TMC3     O14241   1.542   3.333  10.911 -0.6011  0.2792 -0.2799
    6TMC3     H14242   1.664   3.282  10.717  0.5568  1.0159  0.9843
    6TMC3    H114243   1.827   3.113  11.066 -1.7238  1.5504  0.2104
    6TMC3    H214244   2.034   3.070  10.695 -0.3035  0.6633 -0.4654
    6TMC3    C714245   2.068   3.071  10.961 -0.1040  0.4917 -0.3192
    6TMC3    C814246   1.843   3.209  10.547  0.9394  0.2746 -0.1237
    6TMC3    O114247   2.159   3.042  10.885  0.0745  0.3371  0.5380
    6TMC3    O214248   1.730   3.233  10.497 -0.2609 -0.0469 -0.4930
    7MPD2     C14249   2.941   2.725  11.729  0.6788  0.2215  0.3300
    7MPD2    C114250   2.846   2.806  11.668 -0.1796  0.4752  0.3719
    7MPD2    C214251   2.737   2.832  11.738 -0.5939 -0.3321 -0.3039
    7MPD2    C314252   2.722   2.795  11.874  0.1141  0.3278  0.0420
    7MPD2    C414253   2.818   2.717  11.930 -0.0399  0.4377 -0.7632
    7MPD2    C514254   2.927   2.675  11.850 -0.2983 -0.6120 -0.1651
    7MPD2     H14255   2.660   2.890  11.689 -0.6144  1.3006  1.6769
    7MPD2    H114256   2.815   2.699  12.037 -2.1526  0.4393 -0.8237
    7MPD2    H214257   3.034   2.704  11.679  1.3364 -0.0919  1.6758
    7MPD2    H314258   3.007   2.623  11.901  0.8799  3.0480  1.7257
    7MPD2     N14259   2.621   2.832  11.959 -0.5038 -0.1897  0.4015
    7MPD2    H514260   2.599   2.786  12.046 -3.9822 -1.2911 -1.0701
    7MPD2    N114261   2.876   2.856  11.535  0.1213  0.2608 -0.3346
    7MPD2    H714262   2.974   2.852  11.507  0.3856 -0.3574  0.6936
    8TMC3    C114263   2.838   2.991  11.344 -0.0477  0.4096 -0.1265
    8TMC3    C214264   2.763   2.980  11.230 -0.4186  0.3998 -0.6765
    8TMC3    C314265   2.720   3.091  11.163  0.1474  0.4288  0.4007
    8TMC3    C414266   2.875   3.115  11.389 -0.6190  0.0776 -0.0013
    8TMC3    C514267   2.810   3.224  11.344  0.2897 -0.1713  0.3667
    8TMC3    C614268   2.736   3.208  11.229 -0.0715  0.2684  0.3253
    8TMC3     C14269   2.780   2.918  11.454  0.2813 -0.0652  0.2802
    8TMC3     O14270   2.656   2.917  11.470 -0.3711  0.1006  0.1234
    8TMC3     H14271   2.732   2.878  11.209  0.7308  0.2767 -1.8142
    8TMC3    H114272   2.931   3.128  11.481 -0.7098  0.6578 -0.0236
    8TMC3    H214273   2.677   3.295  11.202 -0.5206 -0.6635 -1.7276
    8TMC3    C714274   2.744   3.292  11.458 -0.0792  0.3808 -0.3318
    8TMC3    C814275   2.586   3.068  11.132  1.0076 -0.0320  0.8787
    8TMC3    O114276   2.778   3.250  11.572 -0.0024 -0.1228  0.3321
    8TMC3    O214277   2.545   3.112  11.030 -0.1856  0.3892 -0.0765
    9MPD2     C14278   2.341   3.015  11.393  0.1254  0.2271  0.0564
    9MPD2    C114279   2.384   3.041  11.265 -0.1031  0.3591  0.6670
    9MPD2    C214280   2.288   3.056  11.164  0.7237 -0.0790  0.1365
    9MPD2    C314281   2.155   3.053  11.198 -0.3389  0.0561 -0.2341
    9MPD2    C414282   2.117   3.054  11.331  0.4518  0.4093 -0.1649
    9MPD2    C514283   2.209   3.023  11.423 -0.7529 -0.0899  0.3941
    9MPD2     H14284   2.318   3.056  11.059 -1.5618  0.8545 -0.5140
    9MPD2    H114285   2.012   3.058  11.358  0.5189  1.1178  0.0011
    9MPD2    H214286   2.409   2.984  11.471 -0.3236 -1.5489 -0.2513
    9MPD2    H314287   2.184   3.018  11.528  0.2446 -1.6820  0.5528
    9MPD2     N14288   2.056   3.062  11.098  1.2168 -0.8526  0.1233
    9MPD2    H514289   1.965   3.091  11.131  0.3317 -2.6716 -0.7326
    9MPD2    N114290   2.523   3.033  11.246  0.4276 -0.4850 -0.4813
    9MPD2    H714291   2.577   3.007  11.329 -1.6914 -3.5158 -0.0710
    1MPD1     C14292   0.420   2.228  16.839  0.5509 -0.0596 -0.3860
    1MPD1    C114293   0.437   2.321  16.736 -0.8653 -0.1348 -0.0000
    1MPD1    C214294   0.562   2.336  16.679  0.4775 -0.0178  0.6115
    1MPD1    C314295   0.675   2.267  16.732  0.0098  0.1749 -0.0753
    1MPD1    C414296   0.656   2.185  16.843 -0.0780  0.1570 -0.5659
    1MPD1    C514297   0.530   2.162  16.890  0.4936 -0.4260 -0.2559
    1MPD1     H14298   0.580   2.400  16.594 -1.8772  1.2763  1.0812
    1MPD1    H114299   0.739   2.139  16.895 -0.2636 -0.0891 -0.4874
    1MPD1    H214300   0.318   2.214  16.871  0.5442 -0.8337 -0.7415
    1MPD1    H314301   0.517   2.105  16.981  0.3127 -0.7052 -0.4551
    1MPD1     N14302   0.807   2.276  16.675 -0.8784  0.9639 -0.3547
    1MPD1    H514303   0.873   2.212  16.717 -1.6071  0.4198 -0.0555
    1MPD1    N114304   0.322   2.378  16.676  0.7614  0.3616  0.1654
    1MPD1    H614305   0.309   2.332  16.586  0.7994 -1.6578  1.2009
    1MPD1    H714306   0.242   2.360  16.736 -1.7518 -0.9307 -3.5103
    2TMC2    C114307   1.181   2.392  16.411  0.6567  0.4892  0.5656
    2TMC2    C214308   1.245   2.271  16.439 -0.3970 -0.2060 -0.1667
    2TMC2    C314309   1.180   2.189  16.522  0.1516 -0.2074  1.0084
    2TMC2    C414310   1.052   2.417  16.440 -0.9992  0.4238 -0.4987
    2TMC2    C514311   0.991   2.334  16.531 -0.0391 -0.0717  0.5332
    2TMC2    C614312   1.053   2.214  16.569  0.3093 -0.1001 -0.4295
    2TMC2     C14313   1.235   2.473  16.311 -0.9037  0.0558 -0.0288
    2TMC2     O14314   1.177   2.578  16.293 -0.2119  0.2368  0.5021
    2TMC2     H14315   1.354   2.267  16.438 -0.2300  3.3276  1.5771
    2TMC2    H114316   0.997   2.502  16.400  0.1620  1.6912  0.5948
    2TMC2    H214317   1.010   2.149  16.643  1.7275 -0.3021  0.2063
    2TMC2    C714318   0.847   2.359  16.569  0.2904 -0.3879  0.7433
    2TMC2    C814319   1.243   2.078  16.582 -0.1704 -1.0648 -0.1737
    2TMC2    O114320   0.793   2.454  16.512 -0.3939 -0.7460 -0.2437
    2TMC2    O214321   1.218   2.033  16.694  0.2071 -0.5390 -0.3497
    2TMC2    O514322   1.305   2.012  16.481  0.1622  0.6797  0.2870
    2TMC2    H514323   1.301   2.058  16.394  0.1417 -2.0137 -1.1481
    3MPD1     C14324   1.494   2.548  15.869  0.6098  0.4158  0.7010
    3MPD1    C114325   1.553   2.446  15.945 -0.0473 -0.0674 -0.4713
    3MPD1    C214326   1.504   2.411  16.068 -0.3226 -0.2335  0.4849
    3MPD1    C314327   1.400   2.478  16.123 -0.7029 -0.0323 -0.1937
    3MPD1    C414328   1.347   2.579  16.053  0.4792  0.4755 -0.4800
    3MPD1    C514329   1.390   2.609  15.928  0.3160 -0.2869  0.5436
    3MPD1     H14330   1.555   2.335  16.126 -0.8765  0.4163  1.8292
    3MPD1    H114331   1.268   2.641  16.094 -0.1618  0.7660 -2.1434
    3MPD1    H214332   1.530   2.573  15.770  0.2040  2.5939  1.1247
    3MPD1    H314333   1.328   2.676  15.869  0.0416  0.4876  1.7047
    3MPD1     N14334   1.348   2.424  16.245 -0.2724  0.1288 -0.1430
    3MPD1    H514335   1.393   2.335  16.264 -1.4626 -0.2431  0.9657
    3MPD1    N114336   1.653   2.363  15.888  0.3987 -0.1189 -0.6406
    3MPD1    H614337   1.714   2.416  15.826  3.2797 -0.6114  1.7516
    3MPD1    H714338   1.716   2.330  15.961  0.5696  0.7219 -0.4011
    1TMC1    C114339   0.145   0.947  12.921  0.1555 -0.0780  0.1780
    1TMC1    C214340   0.060   1.054  12.929  0.1704  0.2905 -0.0698
    1TMC1    C314341   4.667   1.033  12.966 -0.1058  0.6795 -0.2909
    1TMC1    C414342   0.102   0.812  12.941  0.0417  0.0572  0.5740
    1TMC1    C514343   4.707   0.800  12.975  0.1580  0.0328 -0.3850
    1TMC1    C614344   4.623   0.908  12.993  0.0411 -0.2537  0.0061
    1TMC1     C14345   0.268   0.972  12.851  0.7261 -0.0038 -0.1473
    1TMC1     O14346   0.271   1.065  12.774  0.4201 -0.0547 -0.1750
    1TMC1     H14347   0.086   1.159  12.913  4.4878 -0.4098  2.1707
    1TMC1    H114348   0.172   0.732  12.921 -0.2980 -0.1667  0.2717
    1TMC1    H214349   4.520   0.889  13.019  0.1485 -1.8363 -0.7480
    1TMC1    C714350   4.665   0.673  13.032  0.5621  0.6778 -0.3647
    1TMC1    C814351   4.569   1.133  12.929  0.0114  0.5937  0.0018
    1TMC1    O114352   4.589   0.656  13.126  0.2958  0.0394  0.0358
    1TMC1    O214353   4.583   1.215  12.839  0.1191  0.2147  0.4187
    1TMC1    O314354   0.007   0.578  12.969  0.0286 -0.7457 -0.3016
    1TMC1    H314355   0.031   0.607  12.879  1.7770  0.8052  0.6841
    1TMC1    O514356   4.501   1.150  13.041  0.2230  0.2842  0.0041
    1TMC1    H514357   4.541   1.094  13.111  0.8964  1.6198  0.6894
    2MPD2     C14358   0.553   0.951  12.778 -0.0433  0.1226  0.5728
    2MPD2    C114359   0.499   0.889  12.887  0.7605  0.8512  0.5360
    2MPD2    C214360   0.590   0.842  12.978  1.3250 -0.0448  0.7256
    2MPD2    C314361   0.730   0.867  12.972 -0.5098 -0.3856  0.6501
    2MPD2    C414362   0.782   0.916  12.860 -0.3118 -0.3489 -0.3566
    2MPD2    C514363   0.690   0.963  12.765 -0.3039 -0.4844 -0.1096
    2MPD2     H14364   0.552   0.784  13.061  1.3084 -1.3298 -0.1866
    2MPD2    H114365   0.887   0.923  12.837  0.1967  0.4936  2.2736
    2MPD2    H214366   0.487   0.984  12.698  1.5432 -2.1229 -1.6594
    2MPD2    H314367   0.725   1.016  12.677 -0.3516 -1.3149 -0.6320
    2MPD2     N14368   0.810   0.839  13.081  0.1496  0.0867  0.1479
    2MPD2    H514369   0.766   0.785  13.155  0.0505 -0.1569 -0.0906
    2MPD2    N114370   0.361   0.893  12.914  0.1798  0.6572  0.6006
    2MPD2    H714371   0.329   0.839  12.994 -2.7562  1.5799  0.0464
    3TCq1    O114372   1.246   0.874  13.612  0.0325 -0.8444  0.6153
    3TCq1    C114373   1.124   0.922  13.562 -0.6144 -0.2232 -0.4698
    3TCq1    O214374   1.061   1.020  13.599 -0.9133  0.0466 -0.1901
    3TCq1    C214375   1.105   0.854  13.437  0.1215 -0.2233  0.5555
    3TCq1    C314376   1.124   0.722  13.440 -0.2507 -0.0648  0.0470
    3TCq1    C414377   1.064   0.643  13.341 -0.2910  0.3752 -0.7000
    3TCq1    C514378   0.996   0.704  13.235 -0.2410 -0.2117 -0.0021
    3TCq1    C614379   0.998   0.841  13.230 -0.1698 -1.0004  0.7927
    3TCq1    C714380   1.047   0.918  13.338 -0.3148 -0.3706  0.4139
    3TCq1    C814381   0.929   0.906  13.121 -0.6494  0.2149 -0.1792
    3TCq1    O414382   0.956   1.021  13.091  0.3599 -0.3257  0.6992
    3TCq1    C914383   1.076   0.499  13.343 -0.0135 -0.0093 -0.4580
    3TCq1    O514384   1.098   0.443  13.452 -0.4879 -0.1791 -0.3935
    3TCq1    O614385   1.058   0.447  13.228  0.1766  0.0244  0.3786
    3TCq1    H114386   1.298   0.817  13.552  0.7398  0.0598  0.3837
    3TCq1    H214387   1.169   0.671  13.525 -0.7327 -2.3717 -1.0748
    3TCq1    H314388   0.951   0.642  13.158  1.5279 -2.0043  0.3914
    3TCq1    H414389   1.043   1.026  13.344 -0.8049 -0.3089 -1.1807
    1MPD2     C14390   0.033   1.910  14.780 -0.4839  0.2022  0.6556
    1MPD2    C114391   4.657   1.922  14.857  0.1515 -0.1942  0.4740
    1MPD2    C214392   4.550   1.838  14.839  0.4716  0.2309  0.0539
    1MPD2    C314393   4.549   1.740  14.743  0.5000 -0.2678  0.1961
    1MPD2    C414394   4.662   1.725  14.664  0.1571 -0.6424  0.5755
    1MPD2    C514395   0.033   1.802  14.691 -0.1933  0.3378 -0.1415
    1MPD2     H14396   4.458   1.858  14.892 -1.5130 -3.3945 -2.0484
    1MPD2    H114397   4.668   1.651  14.585  1.8386  0.3650 -0.2290
    1MPD2    H214398   0.125   1.967  14.789  0.2513 -0.8545 -0.0734
    1MPD2    H314399   0.123   1.788  14.633  0.0032 -0.8632  0.4393
    1MPD2     N14400   4.441   1.645  14.744 -0.7625 -0.3002 -0.6082
    1MPD2    H514401   4.460   1.564  14.685 -1.5970  0.3953 -1.8355
    1MPD2    N114402   4.659   2.015  14.962 -0.1724 -0.1347  0.2724
    1MPD2    H714403   4.728   2.089  14.948 -0.0923  0.0532  1.6429
    2TMC3    C114404   4.607   2.101  15.180  0.1317  1.0097  0.3956
    2TMC3    C214405   4.542   2.062  15.294 -0.2480  0.4639 -0.3225
    2TMC3    C314406   4.456   2.152  15.356  0.1030  0.5727  0.0645
    2TMC3    C414407   4.590   2.226  15.120  0.8593 -0.2616  0.3074
    2TMC3    C514408   4.500   2.306  15.179  0.4338  0.2436  0.3118
    2TMC3    C614409   4.437   2.275  15.297  0.4719  0.2991  0.1265
    2TMC3     C14410   4.603   1.991  15.087  0.1459 -0.0256 -0.1947
    2TMC3     O14411   4.568   1.884  15.134 -0.2835  0.1218 -0.0889
    2TMC3     H14412   4.567   1.968  15.342 -1.0678  0.1816 -0.4455
    2TMC3    H114413   4.647   2.263  15.037  1.2051  3.1011  2.0342
    2TMC3    H214414   4.371   2.350  15.340 -0.0072  0.5462 -1.0395
    2TMC3    C714415   4.520   2.441  15.160 -0.0260  0.9780 -0.2167
    2TMC3    C814416   4.328   2.093  15.374  0.1185  0.3204  0.4236
    2TMC3    O114417   4.422   2.503  15.126  0.2257  0.2377  0.0453
    2TMC3    O214418   4.249   2.150  15.449  0.0615  0.5184 -0.9377
    3TCq1    O114419   0.735   2.851  15.757  0.0115 -0.2790 -0.7073
    3TCq1    C114420   0.669   2.934  15.674 -0.1786 -0.3977 -0.5979
    3TCq1    O214421   0.721   2.980  15.575 -0.0988 -0.6658  0.4828
    3TCq1    C214422   0.523   2.936  15.694 -0.5545 -0.1548  0.0394
    3TCq1    C314423   0.468   2.877  15.804 -0.2790  0.1434  0.1998
    3TCq1    C414424   0.336   2.832  15.808 -0.4681  0.4516 -0.2175
    3TCq1    C514425   0.256   2.858  15.704  0.3470  0.1684 -0.6966
    3TCq1    C614426   0.303   2.935  15.597  0.6164 -0.6333 -0.3143
    3TCq1    C714427   0.436   2.966  15.589  0.0329 -0.1865  0.6874
    3TCq1    C814428   0.229   2.935  15.467  0.4969 -0.0297  0.4316
    3TCq1    O414429   0.263   3.015  15.380 -0.9846 -0.0863 -0.0463
    3TCq1    C914430   0.276   2.784  15.928 -0.7440  0.4047  0.7339
    3TCq1    O514431   0.151   2.760  15.923  0.2664  0.2531  0.7043
    3TCq1    O614432   0.355   2.756  16.026  0.3630  0.3478  0.4018
    3TCq1    H114433   0.677   2.810  15.825  0.1001 -0.1392 -0.5497
    3TCq1    H214434   0.524   2.881  15.897 -0.5202  1.9181  0.2778
    3TCq1    H314435   0.150   2.839  15.716  0.8374 -1.5804  0.7537
    3TCq1    H414436   0.481   3.003  15.497 -1.8922  0.7487  0.1328
    4MPD2     C14437   0.031   2.881  15.247  0.4388 -0.5774  0.8219
    4MPD2    C114438   0.077   2.787  15.342  0.6766  0.6227  0.7913
    4MPD2    C214439   0.021   2.664  15.342 -0.1975 -0.3578  1.3159
    4MPD2    C314440   4.668   2.624  15.240  0.2583 -0.0959  0.5160
    4MPD2    C414441   4.626   2.720  15.148 -0.1913  0.1767 -0.3822
    4MPD2    C514442   4.672   2.844  15.150 -0.2962  0.4629  0.0533
    4MPD2     H14443   0.044   2.596  15.423  0.6461  0.6528  1.9121
    4MPD2    H114444   4.567   2.681  15.066  0.7959 -0.8290 -0.6161
    4MPD2    H214445   0.074   2.980  15.253  2.6668 -1.4216 -1.1764
    4MPD2    H314446   4.649   2.914  15.070  0.2523  0.6793  0.0834
    4MPD2     N14447   4.621   2.488  15.240 -0.6213  0.4727  0.4808
    4MPD2    H514448   4.681   2.420  15.286 -0.4371  1.4458  1.6802
    4MPD2    N114449   0.159   2.817  15.455 -0.0728 -0.3321 -0.1859
    4MPD2    H714450   0.161   2.756  15.536  1.6125  1.3153  1.0317
    5TMC2    C114451   4.033   1.474  14.926 -0.6719 -0.2222 -0.0251
    5TMC2    C214452   4.072   1.340  14.916  1.0247  0.1047  0.7614
    5TMC2    C314453   4.185   1.321  14.843  0.0671 -0.6539 -0.5220
    5TMC2    C414454   4.096   1.578  14.851  0.0964 -0.3145 -0.3665
    5TMC2    C514455   4.220   1.553  14.789 -0.1854  0.1934 -0.1532
    5TMC2    C614456   4.268   1.424  14.791  0.9107 -0.2106 -0.1417
    5TMC2     C14457   3.993   1.524  15.059 -0.0115 -0.7191 -0.0604
    5TMC2     O14458   3.901   1.474  15.127 -0.1354 -0.0444  0.4154
    5TMC2     H14459   4.031   1.260  14.977 -0.1044  0.8367  0.9637
    5TMC2    H114460   4.055   1.678  14.855 -1.7398 -1.0721  0.1700
    5TMC2    H214461   4.364   1.393  14.752  0.9577 -1.0079  0.5907
    5TMC2    C714462   4.310   1.668  14.787  0.6458  0.5308  0.7230
    5TMC2    C814463   4.268   1.199  14.857  0.0588  0.0372  0.0801
    5TMC2    O114464   4.259   1.760  14.848  0.0262 -0.1185  0.9338
    5TMC2    O214465   4.351   1.171  14.773 -0.4171 -0.3973  0.2974
    5TMC2    O514466   4.260   1.149  14.978 -0.8394 -0.5065  0.1252
    5TMC2    H514467   4.179   1.166  15.030 -1.6225 -2.1304 -0.5705
    6MPD2     C14468   4.128   1.877  15.414  0.5561  0.2206  0.0707
    6MPD2    C114469   4.212   1.884  15.302  0.3457 -1.0396 -0.1189
    6MPD2    C214470   4.209   1.790  15.200 -0.4018  0.8023 -0.3429
    6MPD2    C314471   4.103   1.701  15.202 -0.2729  0.7468 -1.1473
    6MPD2    C414472   4.016   1.691  15.306  0.2573 -0.7746  0.3103
    6MPD2    C514473   4.027   1.781  15.410 -0.2762  0.4320 -0.3029
    6MPD2     H14474   4.288   1.790  15.126  0.1904  2.6186  0.2981
    6MPD2    H114475   3.951   1.605  15.315  0.1933 -0.6493  1.0402
    6MPD2    H214476   4.139   1.932  15.507 -0.0082 -0.0838  0.3145
    6MPD2    H314477   3.971   1.759  15.500  0.7652 -1.2300 -0.0557
    6MPD2     N14478   4.091   1.620  15.092 -0.4651  0.4657  0.1845
    6MPD2    H514479   4.158   1.630  15.016 -1.8664 -1.5162 -1.3236
    6MPD2    N114480   4.319   1.976  15.302  0.3007 -0.3485  0.0103
    6MPD2    H714481   4.395   1.970  15.235  0.3198 -1.0762  0.0965
  945NH3     N114482   3.507   2.821  15.379 -0.1694  0.4220  0.5193
  945NH3     H214483   3.430   2.756  15.385 -0.3181  0.5631  0.1294
  945NH3     H314484   3.545   2.827  15.473 -0.1359 -2.9102  0.7255
  945NH3     H414485   3.471   2.908  15.341  1.0171  1.5814  2.0547
  946SOD     NA14486   4.533   2.855  15.807  0.0217 -0.2263  0.4362
  947SOD     NA14487   0.329   1.590   4.865  0.2772  0.3616 -0.2279
  948SOD     NA14488   1.563   3.458   6.045 -0.0627 -0.1296  0.4928
  949SOD     NA14489   4.266   4.461   9.763 -0.4674  0.5964  0.1834
  950SOD     NA14490   1.620   1.105   9.806  0.1522  0.4728 -0.2869
  951SOD     NA14491   2.815   2.176  11.766  0.1907  0.0785 -0.3011
  952SOD     NA14492   2.986   1.741  16.396 -0.9084 -0.1044  0.2278
  953SOD     NA14493   2.048   3.669  16.817  0.1303  0.0203 -0.6896
  954SOL     OW14494   1.747   1.229   5.561 -0.0937  0.0138 -0.3856
  954SOL    HW114495   1.731   1.155   5.502 -1.4196  0.4025 -0.5058
  954SOL    HW214496   1.771   1.182   5.641 -0.3802 -0.4319 -0.5603
  955SOL     OW14497   1.456   1.839   8.988 -0.4921  0.1363  0.1433
  955SOL    HW114498   1.426   1.819   8.900 -1.2212  1.9463 -0.0270
  955SOL    HW214499   1.479   1.753   9.024 -0.1446 -0.2354 -0.9861
  956SOL     OW14500   0.550   2.028   4.215 -0.1512 -1.0806 -0.9243
  956SOL    HW114501   0.526   1.995   4.301 -0.5997 -2.1214 -1.4534
  956SOL    HW214502   0.621   2.091   4.224 -1.1558  0.2978 -2.6146
  957SOL     OW14503   0.799   2.400   2.235  1.3289 -0.3117 -0.0515
  957SOL    HW114504   0.864   2.466   2.212  1.0653 -0.4150 -1.1323
  957SOL    HW214505   0.725   2.457   2.217  1.2862 -0.9265 -1.8225
  958SOL     OW14506   4.018   0.072   9.505 -0.5639  0.0527 -0.0259
  958SOL    HW114507   3.929   0.108   9.508 -0.3269  0.5106  1.4528
  958SOL    HW214508   4.072   0.150   9.520 -1.1091  0.5337 -0.5579
  959SOL     OW14509   2.329   1.829   2.216 -0.4924 -0.5447 -0.0851
  959SOL    HW114510   2.384   1.861   2.287 -2.3144 -1.7780  1.8666
  959SOL    HW214511   2.401   1.813   2.155 -1.4022  2.6965 -2.0295
  960SOL     OW14512   2.528   2.722   7.506  0.0625  0.1612 -0.7814
  960SOL    HW114513   2.551   2.632   7.527 -0.8560 -0.1952 -1.3195
  960SOL    HW214514   2.547   2.774   7.585  1.3185  0.7903 -1.5014
  961SOL     OW14515   1.491   0.571  15.953 -0.3262 -0.8042  1.2710
  961SOL    HW114516   1.449   0.645  15.996  0.0072  0.0517  0.1198
  961SOL    HW214517   1.572   0.552  16.001  1.2374  1.5698 -0.4431
  962SOL     OW14518   4.135   0.607   8.381  0.2391  0.0211  0.2110
  962SOL    HW114519   4.157   0.549   8.454  1.2410 -0.6017 -0.5795
  962SOL    HW214520   4.222   0.639   8.356  0.6195 -0.6527  0.6752
  963SOL     OW14521   3.019   3.610   5.740  0.1662 -0.7048  0.2939
  963SOL    HW114522   2.936   3.600   5.693 -0.7388 -0.3170  1.8144
  963SOL    HW214523   3.032   3.515   5.741  0.0701 -0.7333 -0.7269
  964SOL     OW14524   4.504   1.635   1.732 -0.5166  0.2985 -0.3669
  964SOL    HW114525   4.583   1.688   1.725  0.7395 -1.5581 -0.1200
  964SOL    HW214526   4.483   1.632   1.638 -2.4214 -2.0070  0.1402
  965SOL     OW14527   3.774   1.287   8.782  0.3776 -0.6480 -0.1701
  965SOL    HW114528   3.832   1.325   8.715  0.5861  1.1133  1.0120
  965SOL    HW214529   3.759   1.369   8.828  0.0722 -1.7536  1.6867
  966SOL     OW14530   0.856   1.815   1.567 -0.6084 -0.2190 -0.3850
  966SOL    HW114531   0.819   1.728   1.578 -3.8237  1.4415  2.0625
  966SOL    HW214532   0.825   1.836   1.479  1.7067  0.2522 -1.0883
  967SOL     OW14533   0.506   1.756  16.238 -0.6691  0.2638  0.1626
  967SOL    HW114534   0.493   1.844  16.272 -1.3146 -0.3490  1.4906
  967SOL    HW214535   0.422   1.745  16.193 -0.2843  1.1097 -0.7642
  968SOL     OW14536   1.129   0.698  12.925 -0.2335  0.7812  0.6499
  968SOL    HW114537   1.052   0.642  12.916  1.0008 -0.9333  0.6042
  968SOL    HW214538   1.121   0.766  12.859 -1.1562  0.9103  0.8990
  969SOL     OW14539   1.172   2.849   6.710 -0.1537 -0.0877 -0.4973
  969SOL    HW114540   1.113   2.849   6.785  0.8011  0.4133  0.2570
  969SOL    HW214541   1.166   2.943   6.691 -0.1625  0.0407  0.1673
  970SOL     OW14542   3.154   4.595   8.413 -0.1797  0.1532 -0.0600
  970SOL    HW114543   3.079   4.598   8.472 -0.3545  0.1716 -0.2826
  970SOL    HW214544   3.196   4.680   8.407  0.9313 -0.1128  3.9557
  971SOL     OW14545   4.475   0.060   6.530  0.4656  0.2410  0.4397
  971SOL    HW114546   4.477   4.735   6.455  1.8710 -0.0328  0.6982
  971SOL    HW214547   4.521   0.136   6.497 -2.7296  0.9546 -2.4113
  972SOL     OW14548   0.254   4.100   6.142 -0.9410 -0.0588  0.1703
  972SOL    HW114549   0.328   4.042   6.157 -2.2974 -0.8871  3.6891
  972SOL    HW214550   0.178   4.044   6.158 -0.8206 -0.4726 -0.6772
  973SOL     OW14551   4.091   2.510   8.475  0.0727  0.3738  0.2440
  973SOL    HW114552   4.119   2.587   8.524  1.5873 -0.4862  0.7439
  973SOL    HW214553   4.026   2.543   8.413  1.6259 -2.9752 -3.1737
  974SOL     OW14554   3.775   0.787   1.245  0.6294  0.3581  0.1725
  974SOL    HW114555   3.748   0.732   1.318  0.9183  0.5757  0.4443
  974SOL    HW214556   3.839   0.850   1.278  0.0312  1.8360 -1.4514
  975SOL     OW14557   3.560   3.409   7.143 -0.3821 -0.2276  0.1982
  975SOL    HW114558   3.548   3.477   7.209  0.2672 -1.0538  1.1609
  975SOL    HW214559   3.491   3.349   7.174  0.5571 -1.5250 -0.2073
  976SOL     OW14560   2.847   2.062   4.177  0.4323 -0.4185  0.0506
  976SOL    HW114561   2.831   2.047   4.270  0.5971  0.2781  0.1983
  976SOL    HW214562   2.878   1.978   4.145 -0.1805  0.3383 -2.5412
  977SOL     OW14563   2.875   1.923  16.465 -0.0481  0.0025  0.3364
  977SOL    HW114564   2.890   1.946  16.556 -0.8144  2.0506 -0.0627
  977SOL    HW214565   2.852   2.009  16.431 -0.3524  0.3538  1.4214
  978SOL     OW14566   2.645   1.262   6.736  0.1693 -0.3339 -0.1640
  978SOL    HW114567   2.669   1.355   6.742  0.9878 -0.6068  0.8342
  978SOL    HW214568   2.635   1.249   6.830  0.7246 -0.9093 -0.1892
  979SOL     OW14569   0.981   0.144   7.243 -0.0244 -0.0686 -0.3954
  979SOL    HW114570   1.014   0.209   7.181 -0.7658  1.4664  0.7849
  979SOL    HW214571   0.952   0.198   7.318  0.6969  1.4366 -1.2014
  980SOL     OW14572   4.365   1.177   1.982 -0.1042 -0.1279  0.2345
  980SOL    HW114573   4.406   1.247   1.931 -0.9883  0.3530  0.1946
  980SOL    HW214574   4.372   1.218   2.068  1.0179  4.4188 -1.9588
  981SOL     OW14575   4.371   4.716  10.367 -0.2218 -0.3424 -0.0801
  981SOL    HW114576   4.448   4.680  10.410 -0.6843 -0.0545  0.9741
  981SOL    HW214577   4.379   4.666  10.286 -2.2757  0.6746 -0.8946
  982SOL     OW14578   1.255   2.115   7.318 -0.4599  0.0932  0.4893
  982SOL    HW114579   1.271   2.097   7.226 -1.1009  1.7246  0.0476
  982SOL    HW214580   1.169   2.073   7.324  0.8331 -2.5849  0.2552
  983SOL     OW14581   0.020   4.035  15.897  0.3681 -0.1464 -0.3221
  983SOL    HW114582   0.017   4.119  15.942  2.2953 -0.8351  1.0941
  983SOL    HW214583   4.700   3.974  15.946  1.7747 -1.0348  0.1631
  984SOL     OW14584   4.695   4.647   8.172  0.3642  0.7007 -0.3251
  984SOL    HW114585   4.691   4.555   8.147  3.7949  0.2072  0.9483
  984SOL    HW214586   4.632   4.649   8.244 -0.4277 -2.3382 -0.9308
  985SOL     OW14587   3.000   0.186   4.562 -0.4725  0.3611  0.4231
  985SOL    HW114588   2.984   0.263   4.508  2.0270  0.6696  0.1169
  985SOL    HW214589   3.090   0.168   4.532 -0.7730 -0.8830  0.2606
  986SOL     OW14590   1.846   4.624   6.544 -0.4712  0.6267  0.1545
  986SOL    HW114591   1.798   4.657   6.620 -0.5031  4.9930 -1.7176
  986SOL    HW214592   1.775   4.639   6.481 -0.2245  0.4015 -0.1759
  987SOL     OW14593   3.044   0.848  16.688 -0.4277  0.3167  0.3541
  987SOL    HW114594   3.011   0.837  16.778 -2.2034 -1.4334 -0.5030
  987SOL    HW214595   3.007   0.767  16.652  0.1346 -0.5355  1.6910
  988SOL     OW14596   4.089   3.253  15.747 -0.5901  0.6671 -1.0299
  988SOL    HW114597   4.062   3.164  15.723 -2.2071  0.9388 -0.2313
  988SOL    HW214598   4.133   3.281  15.667  1.2259 -0.0517 -0.2801
  989SOL     OW14599   1.540   1.590   1.500  1.1796  0.2512  0.1516
  989SOL    HW114600   1.471   1.569   1.438 -0.3160  1.5854  1.3763
  989SOL    HW214601   1.506   1.677   1.520  1.1688  0.8144 -2.3724
  990SOL     OW14602   3.185   1.515   6.070  0.2804 -0.2519 -0.5496
  990SOL    HW114603   3.188   1.594   6.124 -0.5824  0.8334 -2.1012
  990SOL    HW214604   3.142   1.546   5.990  0.5154  4.1264  1.0256
  991SOL     OW14605   0.898   0.574   1.490 -0.5375  0.4721  0.2100
  991SOL    HW114606   0.887   0.553   1.397 -1.9745 -0.1975  0.5164
  991SOL    HW214607   0.943   0.657   1.502  0.6384 -0.4541  2.0932
  992SOL     OW14608   3.648   3.790  10.462 -0.1043  0.0750 -0.0835
  992SOL    HW114609   3.648   3.820  10.371  0.1761  1.9482  0.5264
  992SOL    HW214610   3.705   3.857  10.499 -0.8094  0.4851  0.2622
  993SOL     OW14611   0.182   1.369   5.405  0.2109 -0.0221  0.1563
  993SOL    HW114612   0.182   1.281   5.369  1.3614 -0.5012  1.3364
  993SOL    HW214613   0.141   1.358   5.491 -1.7783  1.1759 -0.6427
  994SOL     OW14614   2.090   2.260   5.551 -0.2397  0.1207  0.1357
  994SOL    HW114615   2.000   2.229   5.547  0.7664 -2.6608 -0.7477
  994SOL    HW214616   2.105   2.258   5.457 -2.8402  1.4627 -0.3125
  995SOL     OW14617   4.077   3.488  11.114 -0.2899 -0.0507 -0.0821
  995SOL    HW114618   4.140   3.448  11.174  0.7187  0.3021 -0.9068
  995SOL    HW214619   4.005   3.443  11.158 -0.5291  0.7196  0.3234
  996SOL     OW14620   3.397   0.101   7.367  0.7963  0.2226  0.1494
  996SOL    HW114621   3.390   0.012   7.401 -0.8943  1.1249  2.1638
  996SOL    HW214622   3.308   0.128   7.343  0.4725 -0.5524  0.4793
  997SOL     OW14623   1.573   1.034   5.432 -0.0335 -0.1769  0.2330
  997SOL    HW114624   1.600   0.957   5.483 -0.2406 -0.4080 -0.0042
  997SOL    HW214625   1.558   1.002   5.343 -0.2557 -0.2992  0.3151
  998SOL     OW14626   3.976   0.904   1.379  0.4448  0.1219 -0.0902
  998SOL    HW114627   3.941   0.991   1.397 -1.0477 -0.5401  0.2506
  998SOL    HW214628   4.064   0.915   1.415 -0.0915 -1.3750  1.6840
  999SOL     OW14629   4.102   0.911   9.183  0.6376  0.2771  0.0061
  999SOL    HW114630   4.142   0.825   9.173 -1.7908 -1.0948  1.9450
  999SOL    HW214631   4.103   0.919   9.279  1.8314 -1.0462  0.1004
 1000SOL     OW14632   3.165   3.553   4.455 -0.9168 -0.6463  0.1153
 1000SOL    HW114633   3.174   3.638   4.497 -1.4005  0.5196 -2.1382
 1000SOL    HW214634   3.255   3.520   4.453 -0.5333  0.3468  1.2144
 1001SOL     OW14635   3.819   2.269   8.163  0.0400  0.2140  0.2898
 1001SOL    HW114636   3.801   2.245   8.254  0.1240  1.9454  0.7484
 1001SOL    HW214637   3.728   2.262   8.133 -0.0512  0.8292  0.4281
 1002SOL     OW14638   4.656   2.655  15.819 -0.9103 -0.3666 -0.7619
 1002SOL    HW114639   4.653   2.566  15.784  0.3533 -0.7381  0.0928
 1002SOL    HW214640   0.016   2.668  15.820 -0.6052 -2.7341 -0.2914
 1003SOL     OW14641   1.335   1.349   4.840 -0.2028  0.7744  0.3432
 1003SOL    HW114642   1.368   1.259   4.842 -1.0370  0.4435 -0.6608
 1003SOL    HW214643   1.248   1.325   4.809  0.4560 -0.7328 -0.3295
 1004SOL     OW14644   1.599   2.640  13.392  0.0680 -0.6546 -0.8113
 1004SOL    HW114645   1.622   2.624  13.483  0.1777 -1.7257 -1.0147
 1004SOL    HW214646   1.520   2.586  13.384  0.1000 -0.9195  0.7783
 1005SOL     OW14647   4.243   0.352   6.329  0.0123  0.7534 -0.3371
 1005SOL    HW114648   4.205   0.287   6.388  2.4662 -1.6245 -1.3605
 1005SOL    HW214649   4.203   0.436   6.351 -1.3831 -0.0796  0.3044
 1006SOL     OW14650   0.834   3.287   6.271 -0.1901  0.2035 -0.4459
 1006SOL    HW114651   0.818   3.195   6.292  1.4114 -0.2340 -1.1505
 1006SOL    HW214652   0.929   3.300   6.272 -0.3781  1.6147 -1.1653
 1007SOL     OW14653   4.407   2.053   7.462  0.3335 -0.0328 -0.4122
 1007SOL    HW114654   4.349   1.979   7.482 -0.8075  0.5403 -1.6233
 1007SOL    HW214655   4.346   2.124   7.481  0.8155  0.1198  0.5517
 1008SOL     OW14656   1.987   0.966  10.969  0.1456 -0.6230  0.5781
 1008SOL    HW114657   2.026   0.929  10.890  1.4826 -1.8590  1.8171
 1008SOL    HW214658   2.045   1.039  10.988 -1.2660  0.6177  0.1127
 1009SOL     OW14659   0.938   1.547  16.125 -0.3097  0.0993 -0.0555
 1009SOL    HW114660   0.861   1.562  16.181 -0.4345  0.0577 -0.2150
 1009SOL    HW214661   0.885   1.506  16.057  0.6391 -0.6279 -0.3503
 1010SOL     OW14662   3.371   3.245   1.741  0.2952  0.5323 -0.4621
 1010SOL    HW114663   3.331   3.172   1.694 -1.5296 -1.0049  3.5545
 1010SOL    HW214664   3.342   3.318   1.686 -0.4239  1.1437  0.7311
 1011SOL     OW14665   4.188   0.271   9.542 -0.1826  0.1641  0.0052
 1011SOL    HW114666   4.190   0.357   9.584 -0.2502 -0.2536  0.8706
 1011SOL    HW214667   4.277   0.238   9.554  0.0534  0.6965 -0.2954
 1012SOL     OW14668   2.257   1.221   0.711  0.5954  0.1338 -0.2106
 1012SOL    HW114669   2.307   1.273   0.774  1.5453 -0.4892 -0.4649
 1012SOL    HW214670   2.239   1.149   0.771 -1.4533  0.5575 -0.3086
 1013SOL     OW14671   3.330   0.539   7.520 -0.3068  0.2261  1.0545
 1013SOL    HW114672   3.423   0.553   7.507 -0.1076 -1.4849  0.6047
 1013SOL    HW214673   3.311   0.576   7.607 -0.8476 -0.4371  1.2244
 1014SOL     OW14674   0.426   3.650   1.350  0.1139  0.0184  0.1828
 1014SOL    HW114675   0.483   3.707   1.298  0.3763  0.3358  0.8073
 1014SOL    HW214676   0.442   3.562   1.318 -1.4592 -0.3374  0.3810
 1015SOL     OW14677   1.910   2.365   6.610  0.5915  0.2171  0.0866
 1015SOL    HW114678   1.850   2.358   6.536 -0.2462  0.8165  0.6969
 1015SOL    HW214679   1.992   2.347   6.566  1.0988 -0.7677  1.4193
 1016SOL     OW14680   2.994   2.672   7.538  0.4701  0.2131 -0.3301
 1016SOL    HW114681   2.999   2.748   7.479 -3.4158  0.9296  0.2720
 1016SOL    HW214682   2.998   2.710   7.625  1.0985 -1.2737  0.2860
 1017SOL     OW14683   2.867   0.675   9.992  0.6933  0.0723 -0.5187
 1017SOL    HW114684   2.778   0.688   9.959  0.0788 -0.9759  0.6974
 1017SOL    HW214685   2.899   0.607   9.933 -2.8198 -1.6416 -0.4764
 1018SOL     OW14686   2.124   3.295   0.357 -0.0560  0.2629  0.1223
 1018SOL    HW114687   2.071   3.326   0.430  0.5302 -1.1598  1.1619
 1018SOL    HW214688   2.067   3.223   0.329 -1.8534  2.3727 -1.5905
 1019SOL     OW14689   2.614   4.593  11.584  0.0572 -0.5002 -0.3477
 1019SOL    HW114690   2.699   4.600  11.627 -0.1043  0.6950 -0.2119
 1019SOL    HW214691   2.625   4.514  11.531 -0.1777  0.2605 -1.5415
 1020SOL     OW14692   0.314   4.531   7.018 -0.8340  0.2243  0.2404
 1020SOL    HW114693   0.351   4.587   7.087  0.4807  0.0964 -0.3570
 1020SOL    HW214694   0.252   4.474   7.062  1.1367 -1.0050  1.4087
 1021SOL     OW14695   1.379   1.659   3.232 -0.2246  0.6376  0.2278
 1021SOL    HW114696   1.445   1.728   3.236  0.4088  0.0028  0.6275
 1021SOL    HW214697   1.422   1.575   3.214  1.3665  1.6874 -0.9395
 1022SOL     OW14698   4.197   3.681   7.407  0.2427  0.5685 -0.3981
 1022SOL    HW114699   4.157   3.753   7.359  1.8798  0.0720 -2.4909
 1022SOL    HW214700   4.121   3.665   7.463  0.3853 -0.0896 -0.3970
 1023SOL     OW14701   3.686   3.082   2.386 -0.2364  0.6764 -0.1755
 1023SOL    HW114702   3.680   3.080   2.481  0.0243  1.2217 -0.1450
 1023SOL    HW214703   3.604   3.047   2.352  1.5352 -0.1403 -3.6034
 1024SOL     OW14704   2.439   1.961  13.459 -0.1190  0.0201 -0.2175
 1024SOL    HW114705   2.428   1.894  13.527  1.5466  0.6308  0.6620
 1024SOL    HW214706   2.384   2.029  13.497 -0.0993  1.0075 -1.9559
 1025SOL     OW14707   1.631   0.815  14.884  0.3127  0.1620  0.2056
 1025SOL    HW114708   1.667   0.891  14.839 -0.4166  0.4884  0.1696
 1025SOL    HW214709   1.711   0.764  14.891  1.0259  1.0903 -1.4862
 1026SOL     OW14710   3.009   3.863  14.819 -0.4574 -0.8041  0.3879
 1026SOL    HW114711   2.974   3.871  14.908  1.8341  0.8434  1.1493
 1026SOL    HW214712   2.993   3.771  14.797  0.9341 -1.4365  2.0049
 1027SOL     OW14713   3.439   1.407   7.184 -0.0225  0.8152 -0.1892
 1027SOL    HW114714   3.410   1.495   7.162  2.0497  1.0885 -1.8544
 1027SOL    HW214715   3.357   1.362   7.205  1.3814 -1.0149  1.3911
 1028SOL     OW14716   3.639   2.484  11.969 -0.0511 -0.0398  0.2111
 1028SOL    HW114717   3.729   2.474  11.937  1.2950 -1.3853  4.3086
 1028SOL    HW214718   3.610   2.398  11.938  2.7310 -0.5592 -0.9448
 1029SOL     OW14719   2.336   3.222   7.992 -0.3506 -0.6376  0.4844
 1029SOL    HW114720   2.322   3.313   8.018 -2.6025 -1.6365  2.7562
 1029SOL    HW214721   2.271   3.180   8.048 -1.9133 -0.2668 -1.0826
 1030SOL     OW14722   3.107   0.327   1.653  0.3293 -0.4003  0.6404
 1030SOL    HW114723   3.197   0.306   1.677  0.1851 -0.7745  0.8490
 1030SOL    HW214724   3.112   0.421   1.636  0.3906 -0.2549  1.5012
 1031SOL     OW14725   2.575   3.562   4.878 -0.2698 -0.3791  0.0504
 1031SOL    HW114726   2.640   3.518   4.933  2.1134  0.4014 -2.1739
 1031SOL    HW214727   2.606   3.651   4.895  1.1697 -0.6053 -1.4292
 1032SOL     OW14728   2.387   3.310   4.820 -0.1732  0.4649 -0.0399
 1032SOL    HW114729   2.434   3.392   4.833  3.3854 -1.5544 -0.0869
 1032SOL    HW214730   2.460   3.251   4.802 -0.5447 -0.2766  0.8869
 1033SOL     OW14731   2.166   1.495  16.687  0.1027  0.5264 -0.1627
 1033SOL    HW114732   2.128   1.442  16.617 -2.5867  0.6761  1.1557
 1033SOL    HW214733   2.256   1.470  16.669  0.4100 -0.2785  2.4482
 1034SOL     OW14734   3.600   4.276   6.873 -0.3898  0.1587  0.0009
 1034SOL    HW114735   3.538   4.269   6.801  0.4719 -0.3909 -0.6857
 1034SOL    HW214736   3.543   4.320   6.936 -2.3751  0.0272 -1.7162
 1035SOL     OW14737   1.449   4.352   2.429 -0.0729 -0.1927 -0.0979
 1035SOL    HW114738   1.528   4.399   2.453  1.2396 -2.6480  0.3979
 1035SOL    HW214739   1.483   4.277   2.381  1.3552 -0.7330  1.7987
 1036SOL     OW14740   2.895   2.051   8.876  0.3985  0.0721 -0.2280
 1036SOL    HW114741   2.982   2.019   8.855 -0.2542 -1.1097 -1.1288
 1036SOL    HW214742   2.920   2.139   8.903  1.0923 -0.2641  0.2224
 1037SOL     OW14743   3.480   1.690   2.924 -0.1025 -0.2072 -0.5602
 1037SOL    HW114744   3.442   1.732   2.847  1.2956  1.1201 -0.5384
 1037SOL    HW214745   3.532   1.625   2.876 -2.8724 -0.2478 -3.4972
 1038SOL     OW14746   3.998   1.056  11.634 -0.2096  0.3655 -0.0954
 1038SOL    HW114747   3.993   1.083  11.542  0.5722  2.6432  0.5490
 1038SOL    HW214748   4.084   1.075  11.669 -0.1509 -2.2029  1.1717
 1039SOL     OW14749   0.854   1.002   1.638 -0.6774  0.0949 -0.2713
 1039SOL    HW114750   0.873   1.078   1.583 -1.2029 -0.1648 -0.8065
 1039SOL    HW214751   0.939   0.989   1.680 -1.4948  0.5335  1.5316
 1040SOL     OW14752   0.397   3.213   5.287 -0.2758 -0.0897  0.2047
 1040SOL    HW114753   0.485   3.176   5.295  1.1778  3.4219  0.2884
 1040SOL    HW214754   0.358   3.147   5.229  1.2396 -1.6231  0.9670
 1041SOL     OW14755   2.589   0.745   3.604  0.6916  0.3688  0.2763
 1041SOL    HW114756   2.631   0.666   3.571 -1.2686  0.0330 -1.4199
 1041SOL    HW214757   2.660   0.780   3.657  0.8335  2.4557 -1.3033
 1042SOL     OW14758   4.597   0.513   3.326  0.1396  0.2612 -0.4410
 1042SOL    HW114759   4.620   0.591   3.377 -1.7893 -0.3318  1.3178
 1042SOL    HW214760   4.551   0.555   3.254 -2.3895 -1.8154 -0.0275
 1043SOL     OW14761   2.378   4.379   6.070  0.0814  0.3007 -0.0378
 1043SOL    HW114762   2.289   4.373   6.105  0.2091  1.4127  0.4627
 1043SOL    HW214763   2.423   4.400   6.152 -1.3255  0.0150  0.8105
 1044SOL     OW14764   1.685   3.218   5.686 -0.0634  0.7647 -0.3614
 1044SOL    HW114765   1.778   3.228   5.667 -0.2582  3.2371 -0.0073
 1044SOL    HW214766   1.677   3.251   5.775 -0.7442  1.8193 -0.8080
 1045SOL     OW14767   1.294   1.313  15.490  0.4989  0.0415  0.3390
 1045SOL    HW114768   1.310   1.392  15.440  1.0044  0.1774  0.7125
 1045SOL    HW214769   1.252   1.359  15.563 -0.4749 -0.9501  0.4041
 1046SOL     OW14770   4.668   0.162   9.689  0.0011 -0.6246 -0.1742
 1046SOL    HW114771   4.648   0.207   9.771  2.9443 -0.6547  0.5788
 1046SOL    HW214772   4.715   0.087   9.727 -0.7961 -0.6700  0.7047
 1047SOL     OW14773   0.579   3.682   8.838  0.4795 -0.8065 -0.0903
 1047SOL    HW114774   0.558   3.589   8.838  3.7963 -1.5315 -1.7294
 1047SOL    HW214775   0.646   3.687   8.771  1.1000 -1.4117  0.4847
 1048SOL     OW14776   0.156   4.335  15.191 -0.5593  0.0176  0.1009
 1048SOL    HW114777   0.243   4.301  15.169 -0.7457  0.5360 -1.4391
 1048SOL    HW214778   0.162   4.337  15.287  4.7976 -0.2273 -0.2217
 1049SOL     OW14779   0.268   0.918  11.246 -0.2300  0.4941 -0.3621
 1049SOL    HW114780   0.177   0.900  11.222  0.2742 -0.7095 -1.3315
 1049SOL    HW214781   0.268   0.910  11.341 -0.4236  2.0172 -0.2354
 1050SOL     OW14782   4.096   4.562   5.220 -0.3672  0.0499  0.4033
 1050SOL    HW114783   4.042   4.630   5.179 -0.2854 -0.0492  0.1302
 1050SOL    HW214784   4.032   4.517   5.275  2.5342 -1.2808  2.6985
 1051SOL     OW14785   3.444   4.670  10.213 -0.3939 -0.0473 -0.2833
 1051SOL    HW114786   3.431   0.029  10.225  2.1038  0.3579 -0.7075
 1051SOL    HW214787   3.529   4.658  10.256 -0.2553 -0.1366 -0.5879
 1052SOL     OW14788   4.677   3.484   5.662 -0.0605 -0.3047  0.4824
 1052SOL    HW114789   0.011   3.443   5.714  1.0847 -0.3438 -1.0645
 1052SOL    HW214790   4.731   3.529   5.597  0.0163 -1.0193  0.0544
 1053SOL     OW14791   3.568   3.430   8.239 -0.4293  0.3545  0.1973
 1053SOL    HW114792   3.593   3.358   8.297 -0.1430  1.7689  1.8313
 1053SOL    HW214793   3.547   3.378   8.161  1.1569  0.8801 -0.5701
 1054SOL     OW14794   3.863   1.688   7.609 -0.2603 -0.0818  0.1491
 1054SOL    HW114795   3.842   1.637   7.687 -1.0459 -1.7249 -1.1302
 1054SOL    HW214796   3.794   1.656   7.551 -1.2246 -0.7707  1.6681
 1055SOL     OW14797   3.562   1.099   8.723 -0.2074  0.2325 -0.2245
 1055SOL    HW114798   3.626   1.167   8.746 -2.5221  2.1353  0.4958
 1055SOL    HW214799   3.613   1.024   8.690  1.9098  1.5878 -0.0393
 1056SOL     OW14800   2.458   2.029  14.475  0.3265 -0.3165  0.5939
 1056SOL    HW114801   2.453   2.028  14.570  0.0681 -2.8075  0.5540
 1056SOL    HW214802   2.552   2.014  14.464  0.3370  0.3350 -0.2623
 1057SOL     OW14803   4.230   0.164  10.550 -0.3289  0.0469  0.6546
 1057SOL    HW114804   4.293   0.127  10.488  0.5425  0.1182  1.5002
 1057SOL    HW214805   4.197   0.090  10.601  0.7609 -0.1872  1.0248
 1058SOL     OW14806   1.525   2.084   7.491 -0.0103 -0.5220  0.7421
 1058SOL    HW114807   1.469   2.045   7.423 -0.5209  0.2163  0.7317
 1058SOL    HW214808   1.456   2.114   7.550 -0.5375  0.4714 -0.3743
 1059SOL     OW14809   2.683   3.612   2.773  0.9601  0.1329  0.0992
 1059SOL    HW114810   2.759   3.651   2.817 -1.6439  0.2732  4.5312
 1059SOL    HW214811   2.720   3.549   2.711 -0.3400  0.0402 -0.5821
 1060SOL     OW14812   0.686   3.530  13.776 -0.0716  0.4854  0.3521
 1060SOL    HW114813   0.770   3.484  13.787  0.2097  0.8626 -0.1829
 1060SOL    HW214814   0.713   3.618  13.803 -2.1069  1.7997 -1.8619
 1061SOL     OW14815   4.236   2.741   2.866 -0.1154 -0.1313  0.1998
 1061SOL    HW114816   4.223   2.688   2.787  0.7238  0.7957 -0.5797
 1061SOL    HW214817   4.244   2.673   2.932  0.9178  0.4616  0.6868
 1062SOL     OW14818   4.654   3.908   5.925  0.0391  0.0345 -0.2376
 1062SOL    HW114819   4.730   3.895   5.982 -0.3050 -1.4574 -0.1110
 1062SOL    HW214820   4.674   3.853   5.849  0.9538  0.0715 -0.0296
 1063SOL     OW14821   1.122   1.725   9.290  0.6342  0.0797 -0.0952
 1063SOL    HW114822   1.148   1.816   9.298  3.6459 -0.6264 -1.9069
 1063SOL    HW214823   1.178   1.677   9.352  1.3320  3.0159  1.5095
 1064SOL     OW14824   0.992   3.621   3.611  0.0480  0.2209  0.5257
 1064SOL    HW114825   1.023   3.700   3.567 -0.2187  0.5759  0.9778
 1064SOL    HW214826   0.974   3.658   3.697 -0.0015  1.6353 -0.1057
 1065SOL     OW14827   0.602   3.089   1.838 -0.1678  0.2802 -0.1436
 1065SOL    HW114828   0.564   3.016   1.789 -1.0835  0.0686  0.9026
 1065SOL    HW214829   0.615   3.145   1.761 -1.2492  0.3055 -0.3046
 1066SOL     OW14830   3.254   2.654   3.600  0.3735 -0.1103  0.1599
 1066SOL    HW114831   3.310   2.617   3.669 -1.5430 -2.1313  0.6118
 1066SOL    HW214832   3.163   2.641   3.625  0.2042  0.8671  0.0377
 1067SOL     OW14833   1.345   2.526   6.819  0.0933 -0.3668  0.4907
 1067SOL    HW114834   1.343   2.621   6.805 -5.0756 -0.4907  0.3150
 1067SOL    HW214835   1.271   2.514   6.879  0.4799  0.4169  1.1407
 1068SOL     OW14836   1.124   3.499  10.278  0.1329 -0.1635  0.4303
 1068SOL    HW114837   1.128   3.521  10.185 -1.5525 -0.2038  0.3478
 1068SOL    HW214838   1.214   3.472  10.291  0.5645  0.2077 -1.7809
 1069SOL     OW14839   2.163   0.330   6.820 -0.2053 -0.2283 -0.6062
 1069SOL    HW114840   2.251   0.298   6.836  0.3737  0.9472 -1.3986
 1069SOL    HW214841   2.116   0.261   6.865 -0.7986  0.9264  0.5365
 1070SOL     OW14842   2.367   2.239   3.880 -0.3373  0.2959  0.1588
 1070SOL    HW114843   2.328   2.153   3.894 -1.2020  0.5747 -0.5348
 1070SOL    HW214844   2.381   2.276   3.968  1.6803  0.0132 -0.0359
 1071SOL     OW14845   2.042   2.575   7.884  0.8099 -0.3531  0.2738
 1071SOL    HW114846   2.047   2.480   7.873 -0.4931 -0.3823 -0.0816
 1071SOL    HW214847   2.030   2.586   7.979 -2.9450  0.1183 -0.2540
 1072SOL     OW14848   3.426   4.731   9.292  0.1997 -0.4070  0.5640
 1072SOL    HW114849   3.496   4.675   9.259  1.7628  1.0698  1.3965
 1072SOL    HW214850   3.466   0.051   9.359 -0.1005 -2.9793  2.8557
 1073SOL     OW14851   1.735   2.640   7.531  0.3343  0.2768 -0.4752
 1073SOL    HW114852   1.829   2.629   7.517  0.0692 -0.3180 -1.7147
 1073SOL    HW214853   1.714   2.548   7.542 -0.3121  0.5777  0.8758
 1074SOL     OW14854   1.040   2.728  12.154  0.7945  0.1650  0.0606
 1074SOL    HW114855   1.075   2.664  12.216 -2.3586 -0.9686  0.6709
 1074SOL    HW214856   1.070   2.687  12.073  0.2205  0.4232 -0.2859
 1075SOL     OW14857   4.460   2.285  11.067 -0.3755  1.1809  0.2584
 1075SOL    HW114858   4.550   2.260  11.043 -1.4421 -2.0338 -0.4259
 1075SOL    HW214859   4.418   2.207  11.103  2.9632  0.1608  1.9058
 1076SOL     OW14860   3.478   1.133   2.415  0.5335  0.3584 -0.6144
 1076SOL    HW114861   3.418   1.193   2.371  0.7916  0.1185 -1.2994
 1076SOL    HW214862   3.551   1.153   2.356  2.1958  0.1479  1.3813
 1077SOL     OW14863   2.105   0.984   4.725 -0.4280 -0.0483 -0.4245
 1077SOL    HW114864   2.028   0.940   4.689 -0.6216  0.3119 -0.4518
 1077SOL    HW214865   2.141   1.035   4.653  0.9061 -0.5909 -0.1431
 1078SOL     OW14866   1.056   3.517  15.482  0.2898  0.0443 -0.9921
 1078SOL    HW114867   1.031   3.497  15.572 -0.3410 -1.8093 -1.5799
 1078SOL    HW214868   1.150   3.499  15.478  0.2539  0.0428 -1.7441
 1079SOL     OW14869   4.587   0.357  13.347  0.5874 -0.3038  0.1479
 1079SOL    HW114870   4.635   0.330  13.425  0.8174 -1.1894 -0.2935
 1079SOL    HW214871   4.641   0.426  13.308  0.1370  0.3327  0.6398
 1080SOL     OW14872   2.315   1.468   6.886 -0.1687 -0.5995 -0.2541
 1080SOL    HW114873   2.307   1.373   6.879 -3.0712 -0.3990  0.6904
 1080SOL    HW214874   2.242   1.497   6.940 -0.1081 -1.3600  0.2370
 1081SOL     OW14875   2.380   4.592   6.767  0.1438 -0.2460  0.3203
 1081SOL    HW114876   2.413   4.506   6.741  0.6107  0.5336 -1.6455
 1081SOL    HW214877   2.385   4.584   6.863 -0.1513 -1.9991  0.1926
 1082SOL     OW14878   0.146   0.707   3.830 -0.3931 -0.6416  0.6701
 1082SOL    HW114879   0.114   0.617   3.837 -0.6751 -0.5278  0.8431
 1082SOL    HW214880   0.112   0.750   3.908  0.4576  1.2428 -0.0057
 1083SOL     OW14881   2.296   1.886  14.325 -0.3365  0.2334 -0.1708
 1083SOL    HW114882   2.363   1.945  14.360  1.7533 -1.8097 -0.7086
 1083SOL    HW214883   2.222   1.937  14.355 -0.2831 -1.0162  2.1062
 1084SOL     OW14884   0.537   4.629   5.235  0.2971 -0.2181  0.3652
 1084SOL    HW114885   0.562   4.710   5.191  0.0699 -1.8709 -2.7833
 1084SOL    HW214886   0.450   4.615   5.197 -0.1905  2.4931  0.4795
 1085SOL     OW14887   4.428   3.585   8.977 -0.3415  0.3051 -0.0102
 1085SOL    HW114888   4.368   3.511   8.976 -1.0003  0.8555 -0.9867
 1085SOL    HW214889   4.468   3.567   9.062  0.6642 -0.6264 -0.6809
 1086SOL     OW14890   4.387   1.687   1.970  0.9381 -0.8208 -0.1543
 1086SOL    HW114891   4.420   1.660   1.885 -1.8198 -2.2557 -0.7801
 1086SOL    HW214892   4.463   1.741   1.991 -0.5611  0.9493  0.6754
 1087SOL     OW14893   3.807   2.051  10.165 -0.2530 -0.3362  0.2233
 1087SOL    HW114894   3.744   2.010  10.106 -0.5262 -1.2465  1.1322
 1087SOL    HW214895   3.855   2.120  10.119 -1.9653  0.2572 -0.6848
 1088SOL     OW14896   4.210   0.610   2.495 -0.0458 -0.3103  0.1575
 1088SOL    HW114897   4.151   0.637   2.425 -0.0169 -0.7313 -0.0298
 1088SOL    HW214898   4.294   0.621   2.450 -0.5550 -0.6444 -0.8655
 1089SOL     OW14899   3.334   4.469   6.727  0.5769 -0.9322  0.0228
 1089SOL    HW114900   3.272   4.452   6.656 -1.1147  2.5522  0.6554
 1089SOL    HW214901   3.286   4.513   6.797  0.2515  1.6271 -1.8131
 1090SOL     OW14902   4.612   4.346   2.926  0.3831  0.0532 -0.3963
 1090SOL    HW114903   4.533   4.381   2.967  0.7671 -0.4047  0.7365
 1090SOL    HW214904   4.643   4.291   2.998 -1.3360  1.2652  1.2673
 1091SOL     OW14905   2.505   4.696   3.070  0.5029 -0.0959 -0.2628
 1091SOL    HW114906   2.588   4.731   3.037 -1.0037  0.8944 -2.9618
 1091SOL    HW214907   2.506   4.724   3.162  0.0555  3.5843 -1.3982
 1092SOL     OW14908   2.985   0.731   8.211 -0.7884 -0.0213  0.4526
 1092SOL    HW114909   3.070   0.730   8.167 -0.3232  3.5070  1.2333
 1092SOL    HW214910   3.009   0.684   8.291 -0.4033  3.1491  2.2283
 1093SOL     OW14911   3.746   3.605   1.268  0.2993  0.0974 -0.5022
 1093SOL    HW114912   3.750   3.687   1.220  0.5158  0.1259 -0.4355
 1093SOL    HW214913   3.784   3.631   1.352 -1.4472 -2.0694  0.9673
 1094SOL     OW14914   2.438   1.536   2.042 -0.0729  0.1138 -0.4541
 1094SOL    HW114915   2.369   1.487   1.997 -0.8087 -0.3325  1.1519
 1094SOL    HW214916   2.422   1.526   2.136  1.3007  1.1309 -0.1091
 1095SOL     OW14917   0.231   1.590   3.123  0.0014  0.2589  0.7403
 1095SOL    HW114918   0.289   1.651   3.168 -0.8981  1.3825  0.3745
 1095SOL    HW214919   0.217   1.532   3.199  0.5042 -0.6268  0.1486
 1096SOL     OW14920   0.150   4.403  10.153  0.0070 -0.0972 -0.6084
 1096SOL    HW114921   0.062   4.419  10.117 -0.6626  0.7666  1.4157
 1096SOL    HW214922   0.112   4.364  10.232  2.0336  1.9161  1.3598
 1097SOL     OW14923   2.776   0.996  16.289 -0.3774  0.3203 -0.2228
 1097SOL    HW114924   2.770   1.000  16.384  0.4654 -1.5194 -0.0873
 1097SOL    HW214925   2.697   1.044  16.263  0.0665  0.9393 -0.4359
 1098SOL     OW14926   2.991   3.864  14.125 -0.3869 -0.1557  0.0051
 1098SOL    HW114927   2.967   3.925  14.195  0.9290 -0.3205  0.6066
 1098SOL    HW214928   3.086   3.868  14.116 -0.3165 -0.1983  0.6975
 1099SOL     OW14929   4.661   4.536   4.076  0.4878 -0.2437  0.2944
 1099SOL    HW114930   4.676   4.492   4.160  2.2845  1.3297  0.8033
 1099SOL    HW214931   4.733   4.598   4.086  0.0675  0.3559 -0.4895
 1100SOL     OW14932   4.493   1.576   3.812 -0.1782 -0.2821 -0.0813
 1100SOL    HW114933   4.532   1.556   3.897 -2.2887 -0.5617  0.8092
 1100SOL    HW214934   4.405   1.544   3.830 -0.6512  0.1248 -1.6776
 1101SOL     OW14935   2.389   1.221   6.585 -0.0682  0.0640 -0.3047
 1101SOL    HW114936   2.470   1.238   6.633 -0.3833 -3.9938  1.6516
 1101SOL    HW214937   2.403   1.134   6.547 -0.7789 -0.2096  0.0737
 1102SOL     OW14938   1.667   4.007   6.198  0.3091  0.0472  0.4322
 1102SOL    HW114939   1.595   3.964   6.244  1.6840 -0.0948  2.4518
 1102SOL    HW214940   1.726   3.932   6.193  2.0007  1.4484 -0.4672
 1103SOL     OW14941   4.726   4.131   9.966 -0.2939  0.1589  0.1702
 1103SOL    HW114942   0.045   4.088   9.900 -1.2564  0.2419 -0.6841
 1103SOL    HW214943   0.032   4.217   9.973  0.1793 -0.2254  2.0807
 1104SOL     OW14944   0.931   3.570   8.565 -0.3867 -0.1872  0.3020
 1104SOL    HW114945   0.877   3.644   8.592  0.5159  0.2755  0.8335
 1104SOL    HW214946   1.017   3.606   8.586 -1.5162  2.1869  0.9079
 1105SOL     OW14947   2.857   4.261   6.259 -0.1337  0.2167  0.8322
 1105SOL    HW114948   2.879   4.168   6.251  1.2810  0.4489  2.1047
 1105SOL    HW214949   2.899   4.285   6.176  0.8601 -1.0583  0.9676
 1106SOL     OW14950   2.181   2.030   8.455  0.5030  0.0576 -0.8605
 1106SOL    HW114951   2.170   1.952   8.510  0.4845  1.0940  0.6108
 1106SOL    HW214952   2.158   1.992   8.371 -0.1160  1.0981 -1.1621
 1107SOL     OW14953   2.732   1.290   5.502 -0.6972 -0.4821  0.0194
 1107SOL    HW114954   2.819   1.266   5.533 -0.7379 -0.0548  0.4501
 1107SOL    HW214955   2.695   1.347   5.569 -1.0136  1.1724 -1.5584
 1108SOL     OW14956   4.646   1.510   7.535 -0.4000 -0.3219 -0.4940
 1108SOL    HW114957   4.696   1.473   7.461  1.1171  0.8471 -0.0483
 1108SOL    HW214958   4.712   1.524   7.603 -0.2288  0.3025 -0.7920
 1109SOL     OW14959   3.756   4.414   4.562 -0.4384 -0.8577 -0.6873
 1109SOL    HW114960   3.803   4.352   4.618 -2.1646 -1.3574  0.2153
 1109SOL    HW214961   3.673   4.366   4.565 -1.6113  1.3488  2.0313
 1110SOL     OW14962   3.369   1.690   7.214 -0.4512  0.3785 -0.8954
 1110SOL    HW114963   3.315   1.746   7.159 -0.2911  1.4397  0.0179
 1110SOL    HW214964   3.322   1.705   7.296  0.3357 -3.6396  0.2824
 1111SOL     OW14965   3.566   1.558  12.756  0.4765  0.2381 -0.0540
 1111SOL    HW114966   3.554   1.504  12.833 -0.3659  1.6839  0.8218
 1111SOL    HW214967   3.620   1.629  12.792  1.0559 -0.3257  0.1889
 1112SOL     OW14968   4.434   0.495  10.013  0.2257  0.1084  0.6299
 1112SOL    HW114969   4.363   0.557  10.028 -0.0682 -0.7353  2.7069
 1112SOL    HW214970   4.414   0.422  10.071 -2.8050  0.7513  0.3698
 1113SOL     OW14971   2.787   0.948   9.631  0.0104  0.5242 -0.2082
 1113SOL    HW114972   2.811   0.856   9.634 -1.4087  0.1330 -0.9431
 1113SOL    HW214973   2.873   0.990   9.637  1.1000 -1.4680 -1.7134
 1114SOL     OW14974   1.085   1.698   0.105 -0.0706  0.2582  0.0451
 1114SOL    HW114975   0.991   1.697   0.086 -0.1243  0.2920  0.3101
 1114SOL    HW214976   1.121   1.675   0.019 -0.4574  0.2059 -0.1005
 1115SOL     OW14977   3.523   0.820   2.054 -0.1654 -0.1662 -0.7790
 1115SOL    HW114978   3.512   0.727   2.033  0.6040 -0.7561  1.4372
 1115SOL    HW214979   3.480   0.823   2.140  0.3815  0.6433 -0.5382
 1116SOL     OW14980   4.431   3.367  13.905 -0.1080 -0.1832  0.0502
 1116SOL    HW114981   4.516   3.411  13.901  0.3836 -1.1133  0.2702
 1116SOL    HW214982   4.455   3.275  13.901  0.4632  0.0511 -2.3102
 1117SOL     OW14983   4.535   2.939   9.172  0.0147 -0.5748  0.2827
 1117SOL    HW114984   4.553   2.856   9.127 -2.7647  0.3905 -2.5665
 1117SOL    HW214985   4.595   3.000   9.129  0.8425 -1.5827 -0.0150
 1118SOL     OW14986   3.093   0.349   8.869 -0.0998  0.0502 -0.3157
 1118SOL    HW114987   3.013   0.299   8.853  0.8384 -1.2362 -0.9372
 1118SOL    HW214988   3.153   0.333   8.797 -0.8520 -3.9526 -0.0487
 1119SOL     OW14989   2.997   3.056   9.303  0.3468  0.4690  0.4945
 1119SOL    HW114990   2.913   3.092   9.277 -0.7685 -1.2100  1.8100
 1119SOL    HW214991   2.987   3.043   9.397 -1.5097  0.7465  0.3299
 1120SOL     OW14992   2.274   0.088  16.734  0.5209  0.2721  0.2135
 1120SOL    HW114993   2.219   0.164  16.752  0.5194  0.6089 -1.2522
 1120SOL    HW214994   2.302   0.098  16.643 -0.0085  2.3074  0.2849
 1121SOL     OW14995   1.620   2.364  11.111 -0.0359  0.5484 -0.4850
 1121SOL    HW114996   1.580   2.284  11.078  1.3647  0.3629 -1.7495
 1121SOL    HW214997   1.707   2.367  11.069  0.0994 -1.0119 -0.2982
 1122SOL     OW14998   4.296   2.629  11.556 -0.3893 -0.0630 -0.1451
 1122SOL    HW114999   4.272   2.720  11.573 -0.1594  0.0365 -0.3527
 1122SOL    HW215000   4.224   2.605  11.498  1.0558  1.0516 -2.3983
 1123SOL     OW15001   2.203   1.086   7.107  0.8710 -0.1024 -0.0075
 1123SOL    HW115002   2.285   1.041   7.130  1.1556  1.3599  1.8899
 1123SOL    HW215003   2.240   1.141   7.038 -1.3798  0.4873 -0.7273
 1124SOL     OW15004   1.344   4.498   2.202  0.2149 -0.4751  0.6232
 1124SOL    HW115005   1.357   4.473   2.294  1.3769  2.3277  1.2170
 1124SOL    HW215006   1.436   4.516   2.183 -0.2842  1.2722 -0.1396
 1125SOL     OW15007   4.075   1.452   7.413 -0.4836 -0.1971 -0.2640
 1125SOL    HW115008   3.985   1.419   7.411 -0.5495 -0.0144 -0.3045
 1125SOL    HW215009   4.072   1.527   7.353  1.3697  0.3666  0.3684
 1126SOL     OW15010   4.197   2.174  15.877  0.1332 -0.5841  0.6240
 1126SOL    HW115011   4.144   2.174  15.797 -0.1611 -1.6920  0.8239
 1126SOL    HW215012   4.208   2.269  15.876  2.8280 -0.9407 -1.2074
 1127SOL     OW15013   4.179   4.063   8.247 -0.2300 -0.2946  0.5214
 1127SOL    HW115014   4.084   4.075   8.249 -0.2564 -0.0686 -1.5936
 1127SOL    HW215015   4.190   3.980   8.201 -0.2427 -1.2917  2.3153
 1128SOL     OW15016   3.599   1.898   9.123  0.2612 -0.4023 -0.4168
 1128SOL    HW115017   3.671   1.899   9.187 -0.8604 -0.7529  0.8531
 1128SOL    HW215018   3.592   1.990   9.098  0.4690 -0.1971  0.2914
 1129SOL     OW15019   3.256   2.351  15.747 -0.3406 -0.0626 -0.0835
 1129SOL    HW115020   3.176   2.371  15.796 -0.7950 -0.1720 -0.7755
 1129SOL    HW215021   3.234   2.389  15.663  0.9465 -1.7190 -1.1810
 1130SOL     OW15022   3.451   3.046   6.102 -0.1423 -0.0970  0.2528
 1130SOL    HW115023   3.496   3.129   6.118 -3.2901  1.9164 -1.2654
 1130SOL    HW215024   3.407   3.028   6.185 -1.7772  1.3856 -0.2955
 1131SOL     OW15025   1.849   1.666   6.363 -0.7945  0.5834 -0.5541
 1131SOL    HW115026   1.754   1.676   6.360 -0.9804 -0.3809  2.4993
 1131SOL    HW215027   1.862   1.571   6.363 -0.7442  0.5859 -2.2615
 1132SOL     OW15028   3.036   0.580   1.486  0.1398 -0.0270 -0.1733
 1132SOL    HW115029   2.984   0.512   1.444 -0.7154 -0.4320  1.5654
 1132SOL    HW215030   2.979   0.585   1.563  0.5309 -2.2203  0.2419
 1133SOL     OW15031   0.882   0.391   3.298 -0.0294 -0.0426 -0.2659
 1133SOL    HW115032   0.933   0.386   3.217  0.3211  2.1694 -0.1678
 1133SOL    HW215033   0.919   0.467   3.341 -1.1836 -0.3756  1.3101
 1134SOL     OW15034   4.428   0.504   8.880 -0.4683 -0.2328 -0.0468
 1134SOL    HW115035   4.395   0.439   8.943 -0.8340 -0.4207 -0.4366
 1134SOL    HW215036   4.467   0.567   8.942  3.3782 -0.9644 -1.7398
 1135SOL     OW15037   2.935   0.270   3.535  0.2263  0.2705  0.9333
 1135SOL    HW115038   3.017   0.265   3.485 -0.2933 -0.6088  0.1695
 1135SOL    HW215039   2.937   0.354   3.581 -0.5185  2.4783 -3.0199
 1136SOL     OW15040   2.390   0.493  14.125  0.1001  0.2290  0.1846
 1136SOL    HW115041   2.437   0.441  14.060  0.0498 -0.0077  0.3377
 1136SOL    HW215042   2.464   0.518  14.180 -0.9351 -0.3918  1.8548
 1137SOL     OW15043   2.412   2.150   0.704  0.4552 -0.6864 -0.5514
 1137SOL    HW115044   2.393   2.212   0.634 -0.3938  0.0730  0.3529
 1137SOL    HW215045   2.381   2.067   0.670  1.9939 -2.0313  1.3167
 1138SOL     OW15046   4.026   1.401  16.175  0.3632 -0.4239 -0.3412
 1138SOL    HW115047   4.069   1.480  16.142 -0.3717 -0.1304 -0.5915
 1138SOL    HW215048   4.103   1.347  16.157 -1.6327 -2.9942 -1.0504
 1139SOL     OW15049   0.709   3.335   3.138 -0.2925  0.0656  0.5870
 1139SOL    HW115050   0.632   3.377   3.101 -0.0217  1.6533  1.8587
 1139SOL    HW215051   0.763   3.412   3.156 -2.2957  1.4044  0.8514
 1140SOL     OW15052   2.159   3.887  13.588 -0.7200  0.1063 -0.1649
 1140SOL    HW115053   2.241   3.896  13.635 -0.1761 -0.1806 -1.0528
 1140SOL    HW215054   2.146   3.798  13.555  0.4229 -0.2699  0.4019
 1141SOL     OW15055   1.890   0.713  16.689 -0.0454  0.3346  0.0749
 1141SOL    HW115056   1.884   0.619  16.672 -1.0388  0.1537  1.3798
 1141SOL    HW215057   1.963   0.743  16.635  0.5525 -3.4564 -1.2160
 1142SOL     OW15058   1.965   0.124  10.714 -0.1438  0.2442 -0.3679
 1142SOL    HW115059   1.977   0.090  10.803  0.9000 -0.6631 -0.8625
 1142SOL    HW215060   2.011   0.208  10.721 -0.7807  0.6205 -0.6336
 1143SOL     OW15061   2.223   1.600   5.172 -0.2203 -0.0084 -0.0984
 1143SOL    HW115062   2.185   1.515   5.148 -0.1872 -0.6468  2.0729
 1143SOL    HW215063   2.143   1.640   5.206 -0.9546 -2.6699  1.3582
 1144SOL     OW15064   2.958   4.283  12.600  0.2517 -0.1125  0.2941
 1144SOL    HW115065   3.029   4.220  12.586 -0.2077 -0.5269 -0.1493
 1144SOL    HW215066   2.953   4.286  12.695 -0.2631 -0.0931  0.2662
 1145SOL     OW15067   1.426   0.459   3.916 -0.4013  0.3619 -0.0081
 1145SOL    HW115068   1.485   0.395   3.878 -1.2245 -0.5888  0.3161
 1145SOL    HW215069   1.357   0.399   3.943  0.1875 -0.1483  0.3493
 1146SOL     OW15070   2.812   1.156   7.265 -0.7903 -0.0213 -0.4879
 1146SOL    HW115071   2.876   1.211   7.309 -0.4940 -0.9923  0.2841
 1146SOL    HW215072   2.836   1.179   7.175  0.9217 -0.6848 -0.1948
 1147SOL     OW15073   1.733   1.973  12.324 -0.2172  0.0543 -0.3841
 1147SOL    HW115074   1.711   2.026  12.248  0.4380  1.0832  0.1473
 1147SOL    HW215075   1.786   2.037  12.372  0.4282 -0.2382 -0.7130
 1148SOL     OW15076   2.189   2.127   6.161 -0.4882 -0.0616  0.8371
 1148SOL    HW115077   2.150   2.203   6.118 -0.0638 -0.3762 -0.0936
 1148SOL    HW215078   2.171   2.145   6.254  0.5616  2.3755  0.5671
 1149SOL     OW15079   3.861   2.269  16.421 -0.1383 -0.8851  0.2217
 1149SOL    HW115080   3.854   2.201  16.354 -2.2370  0.3913 -0.8622
 1149SOL    HW215081   3.789   2.241  16.478 -0.8468  1.5948  0.5420
 1150SOL     OW15082   2.618   2.636   4.786 -0.3808 -0.0289  0.0909
 1150SOL    HW115083   2.691   2.665   4.732 -0.3478 -1.9535 -0.9045
 1150SOL    HW215084   2.574   2.717   4.811 -0.0352 -0.5277  2.3430
 1151SOL     OW15085   0.650   4.359  13.502  0.9997 -0.2714 -0.1224
 1151SOL    HW115086   0.681   4.330  13.587  1.8201 -2.1341 -1.0696
 1151SOL    HW215087   0.727   4.387  13.453  1.0183  0.5631  0.3867
 1152SOL     OW15088   2.257   3.127   6.743 -0.0205 -0.2637  0.1180
 1152SOL    HW115089   2.276   3.155   6.833 -2.8820  2.2746 -0.0869
 1152SOL    HW215090   2.332   3.167   6.700  1.3777  0.1711  2.9315
 1153SOL     OW15091   4.341   3.439   1.726  0.3853  0.3559  0.4394
 1153SOL    HW115092   4.377   3.519   1.764 -1.5892  1.9912 -1.0669
 1153SOL    HW215093   4.355   3.451   1.632  0.4793  1.7414  0.6286
 1154SOL     OW15094   4.647   2.923   7.502 -0.5836  0.1992  0.4842
 1154SOL    HW115095   4.672   2.951   7.414 -1.1338 -0.4361  0.1240
 1154SOL    HW215096   4.553   2.911   7.490 -0.3717  0.3859 -1.2510
 1155SOL     OW15097   4.238   1.601  13.223 -0.1701 -0.3464  0.5962
 1155SOL    HW115098   4.244   1.553  13.305  0.1044  1.3618  1.5587
 1155SOL    HW215099   4.281   1.531  13.173 -2.6596 -0.5619 -1.2973
 1156SOL     OW15100   2.985   2.627   4.442 -0.4026 -0.2253 -0.8825
 1156SOL    HW115101   3.057   2.689   4.428  2.0129 -2.9765 -0.7246
 1156SOL    HW215102   2.994   2.562   4.372  0.2164 -0.3817 -0.6542
 1157SOL     OW15103   4.683   2.311   3.908 -0.2615  0.2695 -0.2520
 1157SOL    HW115104   0.033   2.328   3.948 -0.1945 -0.4997 -0.0647
 1157SOL    HW215105   4.715   2.268   3.828 -0.1832 -2.2645  1.1315
 1158SOL     OW15106   0.273   2.332  10.187  0.8251 -0.2284 -0.1237
 1158SOL    HW115107   0.223   2.403  10.146  2.1413  0.3051 -0.8292
 1158SOL    HW215108   0.199   2.272  10.193  2.0086 -1.7804 -0.9148
 1159SOL     OW15109   2.759   2.992  13.603 -0.1439 -0.0469 -0.4180
 1159SOL    HW115110   2.780   2.949  13.685  1.2133  1.3654 -0.0381
 1159SOL    HW215111   2.815   3.070  13.607  0.2628 -0.3535 -0.2079
 1160SOL     OW15112   0.840   1.436   2.336 -0.4484  0.6671 -0.9389
 1160SOL    HW115113   0.901   1.369   2.366 -1.1303  0.4685 -0.0217
 1160SOL    HW215114   0.755   1.393   2.335 -0.0298 -0.1979  0.8932
 1161SOL     OW15115   0.550   1.603  13.085 -0.0020 -0.0974  0.5388
 1161SOL    HW115116   0.567   1.601  13.179  0.5440 -0.7994  0.4265
 1161SOL    HW215117   0.465   1.645  13.073  1.0503  1.9335  0.0879
 1162SOL     OW15118   2.294   2.466   1.514 -0.3359 -0.4329 -0.0507
 1162SOL    HW115119   2.224   2.416   1.472 -0.3519 -1.1036  0.7634
 1162SOL    HW215120   2.259   2.555   1.519 -1.3193 -0.8485  0.3660
 1163SOL     OW15121   2.903   0.900   2.421 -0.3476  0.3463  0.1129
 1163SOL    HW115122   2.973   0.916   2.357  1.1954  0.6182  1.8827
 1163SOL    HW215123   2.839   0.954   2.375  0.0412  1.1272  0.4812
 1164SOL     OW15124   2.716   1.332  14.196  0.2185 -0.0664  0.2530
 1164SOL    HW115125   2.811   1.325  14.188  0.4047 -0.2393  2.8046
 1164SOL    HW215126   2.689   1.325  14.104 -1.4536 -1.0258  0.8139
 1165SOL     OW15127   1.432   2.640   4.337 -0.5362  0.0575  0.5155
 1165SOL    HW115128   1.407   2.548   4.341 -1.7701  0.3675  0.1650
 1165SOL    HW215129   1.469   2.651   4.425  1.1281  0.7396 -0.2824
 1166SOL     OW15130   4.048   0.559   1.128 -0.4986  0.2146 -0.1618
 1166SOL    HW115131   4.055   0.567   1.223  1.1308 -0.9110 -0.1889
 1166SOL    HW215132   4.091   0.474   1.121  3.0956  2.0292  0.0501
 1167SOL     OW15133   4.335   3.762   7.903  0.1096 -0.0784  0.0639
 1167SOL    HW115134   4.347   3.802   7.989 -0.1681 -2.1703  1.0821
 1167SOL    HW215135   4.396   3.805   7.843 -1.3045 -0.5793 -1.7310
 1168SOL     OW15136   1.352   0.104   9.970  0.4938 -0.6977  0.1254
 1168SOL    HW115137   1.297   0.126  10.045  1.9750  0.7091  0.7902
 1168SOL    HW215138   1.398   0.035  10.017 -0.2716 -2.3666 -1.5605
 1169SOL     OW15139   4.113   1.728   7.699 -0.4615  0.0761 -0.0336
 1169SOL    HW115140   4.023   1.735   7.670  0.0871  0.4414 -1.6536
 1169SOL    HW215141   4.167   1.753   7.623  2.0633 -1.3505  1.2906
 1170SOL     OW15142   1.143   0.902   8.532  0.3099  0.1720  0.0386
 1170SOL    HW115143   1.223   0.875   8.486  1.1099  3.2572 -0.4091
 1170SOL    HW215144   1.178   0.986   8.562 -0.2854  0.1215  0.8754
 1171SOL     OW15145   0.537   3.872   7.678 -0.3035  0.4890  0.3749
 1171SOL    HW115146   0.625   3.852   7.647 -0.1655  2.0589 -0.2786
 1171SOL    HW215147   0.554   3.858   7.772  0.0373  0.1398  0.2625
 1172SOL     OW15148   3.346   2.780   7.096  0.6366  0.1220  0.1969
 1172SOL    HW115149   3.378   2.867   7.116  1.5810 -0.4836  1.3156
 1172SOL    HW215150   3.253   2.786   7.116  0.4831 -2.4064  0.2931
 1173SOL     OW15151   3.965   3.490   9.809  0.1280 -0.7596 -0.3408
 1173SOL    HW115152   4.036   3.492   9.745  2.0203  0.3557  1.7579
 1173SOL    HW215153   3.971   3.399   9.840 -1.1133 -0.2845  1.2887
 1174SOL     OW15154   1.256   2.900  15.656 -0.0796  0.8248 -0.4919
 1174SOL    HW115155   1.270   2.941  15.742  0.2778 -1.8033  0.7127
 1174SOL    HW215156   1.161   2.899  15.646 -0.1989  2.8899  0.3453
 1175SOL     OW15157   0.420   2.522   3.849 -0.3556  0.4035  0.7812
 1175SOL    HW115158   0.358   2.586   3.812  0.8873  0.9159 -0.4292
 1175SOL    HW215159   0.482   2.525   3.776 -0.0148  0.1791  1.0659
 1176SOL     OW15160   2.347   3.486  12.042  0.1440 -0.6243  0.2858
 1176SOL    HW115161   2.396   3.536  11.977  0.4022 -3.4774 -1.7103
 1176SOL    HW215162   2.372   3.527  12.125  0.9782 -1.8013  0.6150
 1177SOL     OW15163   1.997   0.830   6.210  0.1679  0.0019  0.4234
 1177SOL    HW115164   1.950   0.882   6.276 -2.5301 -1.2302 -0.5423
 1177SOL    HW215165   1.977   0.743   6.244  0.6261 -0.7522 -1.2939
 1178SOL     OW15166   2.854   3.182   2.697  0.0799 -0.2761 -0.4311
 1178SOL    HW115167   2.821   3.217   2.780 -0.5401 -2.1820  0.1327
 1178SOL    HW215168   2.772   3.190   2.649 -0.9631 -2.6824  0.9821
 1179SOL     OW15169   0.974   0.177   6.306  0.2093  0.0887  0.1671
 1179SOL    HW115170   0.944   0.264   6.333  5.0842  2.1506 -1.0393
 1179SOL    HW215171   1.040   0.153   6.370  3.0134 -0.8976 -3.0895
 1180SOL     OW15172   4.597   0.769  10.154 -0.6105 -0.2049  0.0188
 1180SOL    HW115173   4.630   0.851  10.192  0.1711  0.2819 -1.6689
 1180SOL    HW215174   4.681   0.722  10.156 -0.7204 -0.2795  2.0747
 1181SOL     OW15175   2.841   2.341  14.067  0.0316 -0.0084 -0.4632
 1181SOL    HW115176   2.892   2.279  14.016 -2.4614 -0.1729 -2.7596
 1181SOL    HW215177   2.759   2.293  14.080 -0.1216  0.3304 -0.1721
 1182SOL     OW15178   1.568   0.669   5.419 -0.0643  0.5606 -0.0689
 1182SOL    HW115179   1.511   0.730   5.465  0.7511  0.7154  0.7287
 1182SOL    HW215180   1.647   0.722   5.420  0.0947  0.3140  1.1208
 1183SOL     OW15181   0.058   1.743   0.650  0.1441  0.3741 -0.6010
 1183SOL    HW115182   0.013   1.658   0.654  1.2360 -0.2123 -0.6705
 1183SOL    HW215183   0.061   1.741   0.554 -0.7566 -0.1701 -0.6168
 1184SOL     OW15184   3.186   2.151   4.797 -0.1174 -0.2282  0.4662
 1184SOL    HW115185   3.141   2.234   4.811  0.9366  0.4129  0.0495
 1184SOL    HW215186   3.238   2.176   4.721 -1.6684 -0.0247 -0.5126
 1185SOL     OW15187   1.800   3.617   7.021 -0.1662 -0.3586  0.4151
 1185SOL    HW115188   1.873   3.579   6.973  0.8747 -0.8274  2.3951
 1185SOL    HW215189   1.832   3.704   7.045  0.6407 -0.1976 -1.2655
 1186SOL     OW15190   1.111   0.745   1.581 -0.5315 -0.6135  0.2888
 1186SOL    HW115191   1.114   0.781   1.669 -0.8341 -0.5413  0.2703
 1186SOL    HW215192   1.194   0.780   1.547 -0.0929 -2.3945 -0.4609
 1187SOL     OW15193   1.900   2.855  16.398 -0.1489 -0.4705 -0.4921
 1187SOL    HW115194   1.996   2.864  16.393 -0.1856  0.6628  0.9454
 1187SOL    HW215195   1.884   2.874  16.305 -0.4954  2.6075  0.1999
 1188SOL     OW15196   1.324   4.617   6.027 -0.0137  0.0558 -0.3231
 1188SOL    HW115197   1.264   4.662   6.086  0.9052  0.3248  0.4169
 1188SOL    HW215198   1.398   4.616   6.089  1.3620 -0.3808 -1.9669
 1189SOL     OW15199   1.688   4.341   3.726  0.3955 -0.1892 -0.0080
 1189SOL    HW115200   1.717   4.343   3.634  1.2741 -1.3095  0.2365
 1189SOL    HW215201   1.689   4.246   3.736  1.1703 -0.3055 -1.1136
 1190SOL     OW15202   1.531   3.672   9.368  0.1618  0.1069  0.0413
 1190SOL    HW115203   1.498   3.593   9.325  1.8279 -1.5168  1.7392
 1190SOL    HW215204   1.504   3.724   9.292 -1.5321 -1.8878 -0.7277
 1191SOL     OW15205   2.018   3.366   7.769  0.2122  0.0463  0.1265
 1191SOL    HW115206   2.077   3.334   7.701 -0.7206  0.7394 -0.9988
 1191SOL    HW215207   2.028   3.459   7.747 -0.1760  0.5061  1.8552
 1192SOL     OW15208   3.123   3.431   8.363  0.3527 -0.0229 -0.3626
 1192SOL    HW115209   3.039   3.475   8.373 -0.0199 -0.7584 -0.2480
 1192SOL    HW215210   3.168   3.475   8.291  1.6044  2.3528  1.8555
 1193SOL     OW15211   3.707   0.149  15.780  0.5437  0.3877  0.2309
 1193SOL    HW115212   3.654   0.182  15.853 -0.2739  0.3422 -0.3373
 1193SOL    HW215213   3.681   0.200  15.703  0.4715  1.9711  1.2963
 1194SOL     OW15214   1.732   1.851   0.544  0.3132  0.4155  0.1501
 1194SOL    HW115215   1.812   1.856   0.598  0.9389  0.8339 -0.8081
 1194SOL    HW215216   1.661   1.866   0.607  1.5723  1.9508  1.2291
 1195SOL     OW15217   0.003   3.546  11.492  0.7246  0.0684  0.0795
 1195SOL    HW115218   4.703   3.469  11.446 -0.4858  1.8185 -1.9033
 1195SOL    HW215219   4.686   3.531  11.572 -2.3414  0.6268 -1.8288
 1196SOL     OW15220   0.023   1.074  11.413  0.3620 -0.4237  0.3739
 1196SOL    HW115221   0.054   1.110  11.330  0.0774 -0.2469  0.3447
 1196SOL    HW215222   0.011   1.159  11.455 -0.9867  0.0405 -0.9552
 1197SOL     OW15223   2.529   2.053   9.048 -0.0540  0.0006 -0.4340
 1197SOL    HW115224   2.508   1.960   9.050  0.3413 -0.1129 -1.5512
 1197SOL    HW215225   2.532   2.052   8.952 -1.0649 -1.0804 -0.4447
 1198SOL     OW15226   0.721   0.286   2.866 -0.1030 -0.4211 -0.2586
 1198SOL    HW115227   0.749   0.343   2.794 -0.3701 -1.1884 -0.9699
 1198SOL    HW215228   0.714   0.364   2.922 -0.5696 -0.7817  0.1862
 1199SOL     OW15229   3.413   4.604   6.437  0.0217  0.3828 -0.1436
 1199SOL    HW115230   3.501   4.586   6.404 -0.2175 -1.8098  0.4097
 1199SOL    HW215231   3.423   4.683   6.490 -1.1085  0.8298 -0.6099
 1200SOL     OW15232   1.244   3.422   3.908 -0.2077 -0.0498  0.6867
 1200SOL    HW115233   1.200   3.440   3.991  0.3936  1.2242  0.7365
 1200SOL    HW215234   1.331   3.396   3.939 -0.3637 -0.3530  0.8741
 1201SOL     OW15235   1.644   2.123   9.862 -0.3989 -0.2285  0.2131
 1201SOL    HW115236   1.667   2.215   9.854  1.3850 -0.6277  0.9437
 1201SOL    HW215237   1.657   2.099   9.770  0.9457  0.8065  0.1332
 1202SOL     OW15238   3.982   1.132   8.101 -0.2827  0.5413 -0.7636
 1202SOL    HW115239   3.992   1.209   8.045  0.2563  2.0951  1.4392
 1202SOL    HW215240   3.929   1.075   8.046 -0.8092 -0.4325  0.7312
 1203SOL     OW15241   1.611   0.960   8.245  0.8044 -0.0307 -0.1829
 1203SOL    HW115242   1.536   0.995   8.292  2.2022  0.5732  1.5946
 1203SOL    HW215243   1.603   0.864   8.243  0.0402  0.0043  1.5624
 1204SOL     OW15244   3.944   2.913  12.565 -0.1051 -0.0780  0.8703
 1204SOL    HW115245   3.926   2.854  12.638 -1.2027  0.4429  1.0211
 1204SOL    HW215246   3.997   2.988  12.592 -0.3561 -0.5169  2.5189
 1205SOL     OW15247   1.236   0.636   6.225  0.0895  0.1086  0.3716
 1205SOL    HW115248   1.168   0.597   6.170  1.0519 -1.6463  0.4029
 1205SOL    HW215249   1.173   0.692   6.271 -1.2056  1.1429 -2.6710
 1206SOL     OW15250   4.581   3.157   1.397 -0.1454  0.0180 -0.3298
 1206SOL    HW115251   4.610   3.169   1.488 -0.5924 -0.4289 -0.1260
 1206SOL    HW215252   4.645   3.094   1.364 -0.9450 -1.1049  0.2524
 1207SOL     OW15253   2.554   3.114   4.832 -0.1193  0.1620  0.9959
 1207SOL    HW115254   2.502   3.035   4.845 -0.1942 -0.0733 -0.6956
 1207SOL    HW215255   2.579   3.144   4.919  3.4103  0.4351 -0.0687
 1208SOL     OW15256   1.602   0.198   1.608 -0.6467  0.6304 -0.1651
 1208SOL    HW115257   1.584   0.292   1.603  0.0607  0.7504 -0.5355
 1208SOL    HW215258   1.588   0.174   1.516 -1.9315 -0.9178  0.4440
 1209SOL     OW15259   1.612   1.882   7.221  0.1966  0.2120  0.3720
 1209SOL    HW115260   1.681   1.874   7.154 -0.9270 -0.1690 -0.7369
 1209SOL    HW215261   1.644   1.953   7.277  0.7327  0.2973 -0.0392
 1210SOL     OW15262   2.780   0.830   5.881 -0.4995  0.6505 -0.5733
 1210SOL    HW115263   2.697   0.828   5.929 -0.5443  3.8286 -0.4904
 1210SOL    HW215264   2.756   0.881   5.803 -0.9177  0.8692 -0.3066
 1211SOL     OW15265   4.025   2.716   6.909 -0.1852 -0.0993 -0.3993
 1211SOL    HW115266   4.036   2.809   6.888  2.3362 -0.1276  0.8148
 1211SOL    HW215267   4.111   2.679   6.889 -0.0153 -0.0379  0.2316
 1212SOL     OW15268   3.884   4.579  12.443  0.9185  0.6247  0.4016
 1212SOL    HW115269   3.942   4.551  12.372 -0.0898 -1.5708  0.4458
 1212SOL    HW215270   3.799   4.570  12.400  0.3656  1.1918  1.3922
 1213SOL     OW15271   3.206   2.560   5.766  0.2500  0.7878 -0.4255
 1213SOL    HW115272   3.257   2.640   5.780  3.7475 -1.3632 -0.9433
 1213SOL    HW215273   3.271   2.497   5.797 -0.0089  1.2818  1.1182
 1214SOL     OW15274   1.404   3.805   5.170 -0.2388 -0.8659  0.9713
 1214SOL    HW115275   1.398   3.829   5.262 -0.3373 -0.1545  0.7831
 1214SOL    HW215276   1.339   3.861   5.126 -1.5081 -4.0892 -1.2592
 1215SOL     OW15277   2.182   0.826   7.914  0.1507  1.0142 -0.7070
 1215SOL    HW115278   2.184   0.750   7.856  1.0186 -0.0651  0.7368
 1215SOL    HW215279   2.245   0.887   7.877  0.9616 -0.4329 -1.7121
 1216SOL     OW15280   3.062   0.772   6.182 -0.3141 -0.6094 -0.3920
 1216SOL    HW115281   3.088   0.794   6.092 -3.2373 -3.5276 -1.9501
 1216SOL    HW215282   2.972   0.806   6.184  0.0546  0.4079 -0.9403
 1217SOL     OW15283   2.986   2.464  14.646  0.0443 -0.2307 -0.3638
 1217SOL    HW115284   3.081   2.474  14.643 -0.0640  1.2775  1.0220
 1217SOL    HW215285   2.965   2.411  14.569 -0.8493  0.1775 -0.4043
 1218SOL     OW15286   1.030   4.077  14.266 -0.2861 -0.1695  0.3566
 1218SOL    HW115287   0.966   4.081  14.195 -0.8449  0.1388  0.8784
 1218SOL    HW215288   1.007   4.161  14.307 -3.9589 -0.3682 -1.2892
 1219SOL     OW15289   4.282   2.829   9.634  0.1931 -0.2805  0.7055
 1219SOL    HW115290   4.194   2.798   9.610  0.7323 -0.1546 -1.3798
 1219SOL    HW215291   4.285   2.914   9.590 -0.1597  0.6876  2.5410
 1220SOL     OW15292   1.732   0.747   7.230 -0.6466  0.1062  0.0577
 1220SOL    HW115293   1.780   0.790   7.301  2.1734 -0.5219 -1.4876
 1220SOL    HW215294   1.694   0.671   7.275  0.0071 -1.2926 -1.7459
 1221SOL     OW15295   4.098   1.504   0.074  0.1937 -0.0486 -0.0602
 1221SOL    HW115296   4.048   1.572   0.029 -1.9104 -0.6408  1.3521
 1221SOL    HW215297   4.067   1.423   0.033 -1.3322  0.6811 -0.3595
 1222SOL     OW15298   3.873   4.542   6.095  0.2952 -0.4704  0.3798
 1222SOL    HW115299   3.880   4.637   6.093 -0.2668 -0.4636 -1.4482
 1222SOL    HW215300   3.939   4.520   6.029  2.7598  0.0749  2.6859
 1223SOL     OW15301   0.094   0.179  16.223 -0.3535 -0.0769 -0.1141
 1223SOL    HW115302   0.097   0.165  16.317  0.4581 -1.8339 -0.4068
 1223SOL    HW215303   0.070   0.092  16.190  2.3864 -0.9720  0.3165
 1224SOL     OW15304   0.566   2.347   8.207 -0.3608 -0.1597  0.2573
 1224SOL    HW115305   0.601   2.271   8.160  3.2530  0.4681  1.9557
 1224SOL    HW215306   0.633   2.414   8.192 -0.5435 -0.2339 -0.8880
 1225SOL     OW15307   4.524   4.422  11.176  0.1980  0.0705 -0.6032
 1225SOL    HW115308   4.459   4.355  11.200 -1.8344  2.1933 -0.1634
 1225SOL    HW215309   4.561   4.391  11.094  0.8360  0.0948 -0.3269
 1226SOL     OW15310   1.025   2.937   7.560  0.1324  0.1672 -0.6704
 1226SOL    HW115311   1.018   2.860   7.617 -1.9035 -0.2501 -1.4714
 1226SOL    HW215312   1.083   2.990   7.614 -2.4119  2.7901 -0.5579
 1227SOL     OW15313   2.065   1.827   7.422 -0.3214 -0.1175  0.5082
 1227SOL    HW115314   2.086   1.919   7.434 -1.2203 -0.3980  4.0808
 1227SOL    HW215315   2.016   1.813   7.503  1.5586  1.9601  2.0182
 1228SOL     OW15316   2.080   4.713   8.968 -0.3252 -0.0418 -0.2234
 1228SOL    HW115317   2.043   4.645   8.912 -0.7878 -0.3650  0.4705
 1228SOL    HW215318   2.044   0.056   8.926 -0.1129  0.2828  0.1944
 1229SOL     OW15319   0.630   3.820   4.827 -0.1429 -0.1860 -0.7205
 1229SOL    HW115320   0.724   3.836   4.814 -0.1739  0.6862  0.1357
 1229SOL    HW215321   0.606   3.771   4.748 -0.9774 -0.8866 -0.0274
 1230SOL     OW15322   1.423   2.560  11.704 -0.0165  0.5534 -0.4127
 1230SOL    HW115323   1.494   2.592  11.760 -0.1872 -1.7371  1.1331
 1230SOL    HW215324   1.442   2.615  11.629 -1.7036  4.1295  1.7795
 1231SOL     OW15325   2.705   4.556   9.158  0.2788  0.1777  0.4839
 1231SOL    HW115326   2.656   4.639   9.154  2.0021  1.0627 -2.0960
 1231SOL    HW215327   2.795   4.590   9.155 -0.2407  1.5049  0.0034
 1232SOL     OW15328   3.478   1.146   7.997 -0.0982 -0.1691  0.0880
 1232SOL    HW115329   3.456   1.209   8.065  1.1821  0.3442  0.0300
 1232SOL    HW215330   3.569   1.127   8.022  0.0523 -0.4738 -0.6785
 1233SOL     OW15331   0.581   2.334   4.341  0.1979  0.0955  0.2678
 1233SOL    HW115332   0.646   2.297   4.282  0.5854  1.3460 -0.0971
 1233SOL    HW215333   0.530   2.394   4.286 -1.1837  0.7459  2.2405
 1234SOL     OW15334   0.731   2.776   4.858 -0.1294  0.1304  0.1962
 1234SOL    HW115335   0.686   2.795   4.776  1.0018  0.2707 -0.3958
 1234SOL    HW215336   0.741   2.681   4.850  0.5772  0.1727  0.5793
 1235SOL     OW15337   3.238   0.458   1.335 -1.0075 -0.2848 -0.0402
 1235SOL    HW115338   3.242   0.518   1.260  2.6030 -0.6256 -0.1304
 1235SOL    HW215339   3.185   0.512   1.393  1.4869 -0.8770  2.7860
 1236SOL     OW15340   0.012   3.784   1.364  0.0839  0.1688 -0.2058
 1236SOL    HW115341   0.019   3.714   1.299 -0.1086  0.1057 -0.1588
 1236SOL    HW215342   0.080   3.757   1.426 -1.3648 -0.1538  1.2614
 1237SOL     OW15343   2.788   2.507   7.092 -0.4684 -0.8468  0.5986
 1237SOL    HW115344   2.693   2.495   7.091 -0.7321  1.2063  0.7687
 1237SOL    HW215345   2.816   2.438   7.154 -1.7997 -1.8763  0.0438
 1238SOL     OW15346   4.661   1.119   5.735  0.2026  0.3791  0.1401
 1238SOL    HW115347   4.591   1.176   5.768  0.9221  0.7383  1.0332
 1238SOL    HW215348   4.634   1.035   5.772  0.5913  0.7737  1.3063
 1239SOL     OW15349   2.287   4.683  15.031  0.0051 -0.3085 -0.0984
 1239SOL    HW115350   2.314   4.619  15.097 -0.7737  0.2562  0.7753
 1239SOL    HW215351   2.357   0.011  15.047 -0.3717 -0.7904  3.4494
 1240SOL     OW15352   0.703   3.959  16.898 -0.4897  0.6024  0.2237
 1240SOL    HW115353   0.738   3.984  16.983  1.8781 -0.7332 -0.3411
 1240SOL    HW215354   0.628   3.907  16.926 -0.1376 -0.3190 -0.4906
 1241SOL     OW15355   3.320   2.459   4.388  0.6139  0.2313 -0.3647
 1241SOL    HW115356   3.312   2.394   4.318 -0.6178  0.5506 -0.5109
 1241SOL    HW215357   3.412   2.436   4.402  0.4830  0.8969  1.6198
 1242SOL     OW15358   2.589   0.925   8.031  0.3914  0.5724  0.0003
 1242SOL    HW115359   2.546   0.935   8.116 -1.1823 -1.8506 -0.5331
 1242SOL    HW215360   2.536   0.971   7.967 -0.1532 -0.8289 -0.5434
 1243SOL     OW15361   2.553   4.591   8.019 -0.2787  0.0762 -0.2870
 1243SOL    HW115362   2.646   4.569   8.027 -0.5474 -0.9149  0.2077
 1243SOL    HW215363   2.514   4.614   8.103 -2.1157  0.9222 -1.3892
 1244SOL     OW15364   0.011   4.434   4.300  0.5244  0.3356  0.1917
 1244SOL    HW115365   0.001   4.379   4.378 -0.8390  1.0772  0.5317
 1244SOL    HW215366   0.059   4.512   4.328  0.3502  1.0180 -1.4030
 1245SOL     OW15367   3.277   3.053   4.927  0.2606  0.0976 -0.2948
 1245SOL    HW115368   3.201   3.064   4.984  1.4686  1.9831  0.9796
 1245SOL    HW215369   3.269   2.963   4.896 -0.4244  0.3043 -0.7065
 1246SOL     OW15370   1.428   1.557   5.950  0.0624 -0.3533  0.2724
 1246SOL    HW115371   1.367   1.616   5.905  1.4042  4.1686  4.4363
 1246SOL    HW215372   1.510   1.598   5.924  0.5523 -0.6473  1.3745
 1247SOL     OW15373   2.920   2.730   6.297 -0.0694 -0.0224  0.1742
 1247SOL    HW115374   2.850   2.748   6.360 -1.4017  1.4981 -1.7256
 1247SOL    HW215375   2.971   2.811   6.304 -0.8298  0.5913 -1.5333
 1248SOL     OW15376   2.911   1.702   4.768  0.7457  0.2133  1.0369
 1248SOL    HW115377   3.000   1.717   4.800  1.5100  0.7208 -1.3214
 1248SOL    HW215378   2.864   1.688   4.850  1.1934 -0.2118  1.2183
 1249SOL     OW15379   4.233   4.631   5.904  0.7995 -0.0129  0.2026
 1249SOL    HW115380   4.322   4.618   5.872  1.4131  3.0899  0.5839
 1249SOL    HW215381   4.181   4.572   5.850  0.5104 -3.5803  4.4663
 1250SOL     OW15382   0.046   3.556   8.060 -0.9980 -0.4013 -0.1491
 1250SOL    HW115383   0.041   3.479   8.116  0.2856 -0.1867  0.2699
 1250SOL    HW215384   0.139   3.576   8.072 -0.7545 -2.1016  0.7266
 1251SOL     OW15385   0.133   3.749  14.011  0.3520 -0.3104 -0.1513
 1251SOL    HW115386   0.052   3.728  14.058  1.3392 -0.0994  1.6471
 1251SOL    HW215387   0.144   3.843  14.027 -0.1185 -0.2953  0.0650
 1252SOL     OW15388   1.081   2.391   8.214  0.4584 -0.0627 -0.2998
 1252SOL    HW115389   1.062   2.373   8.121  0.2516 -2.5754  0.2416
 1252SOL    HW215390   1.078   2.487   8.204 -0.2418  0.0444  0.9658
 1253SOL     OW15391   3.143   1.077   6.080 -0.0366 -0.5087  0.4447
 1253SOL    HW115392   3.101   1.151   6.124  0.3707  0.5356 -0.9020
 1253SOL    HW215393   3.167   1.031   6.160 -1.1322 -1.2025  0.3823
 1254SOL     OW15394   2.371   0.985   0.253 -0.0949 -0.1526  0.2128
 1254SOL    HW115395   2.295   0.986   0.311  0.8169  0.1762  1.4111
 1254SOL    HW215396   2.432   1.040   0.302  1.3025 -3.2824  1.9948
 1255SOL     OW15397   1.848   1.378   2.045 -0.1438 -0.3486 -0.1019
 1255SOL    HW115398   1.778   1.421   1.996 -0.4581 -1.2128 -0.3998
 1255SOL    HW215399   1.884   1.322   1.977  0.8802  0.1491  0.0254
 1256SOL     OW15400   3.906   4.725  15.884  0.1982 -0.6200  0.8033
 1256SOL    HW115401   3.857   0.056  15.836 -0.9070 -3.0466 -1.4293
 1256SOL    HW215402   3.919   0.041  15.964 -3.2479 -3.1895  3.0190
 1257SOL     OW15403   1.529   1.881   9.990 -0.2107 -0.0418 -0.4554
 1257SOL    HW115404   1.551   1.821   9.918  0.1530 -0.5821  0.1078
 1257SOL    HW215405   1.578   1.956   9.958  0.1376  1.4602  3.6501
 1258SOL     OW15406   1.793   1.398   8.219  0.1977 -0.1849  0.0167
 1258SOL    HW115407   1.726   1.349   8.172  0.2149 -0.6635  0.5071
 1258SOL    HW215408   1.864   1.336   8.202 -0.7075 -1.6125  1.5964
 1259SOL     OW15409   3.366   3.011   8.289  0.7808  0.2031 -0.3900
 1259SOL    HW115410   3.299   3.064   8.246 -0.8313 -0.1705  1.6754
 1259SOL    HW215411   3.443   3.066   8.303  1.6123 -0.8336 -0.8438
 1260SOL     OW15412   1.344   2.060   7.049  0.2841  0.3416  0.5588
 1260SOL    HW115413   1.390   1.997   6.994  0.2224  0.3624  0.4834
 1260SOL    HW215414   1.252   2.037   7.033 -0.4210  2.9117  0.8186
 1261SOL     OW15415   1.820   3.129   8.869  0.5824 -0.3118 -0.3735
 1261SOL    HW115416   1.753   3.092   8.812  1.2572  0.6161 -1.7633
 1261SOL    HW215417   1.899   3.096   8.825  0.6080  1.5802 -1.7816
 1262SOL     OW15418   1.165   0.459   1.542  0.0784  0.0649  0.3172
 1262SOL    HW115419   1.150   0.552   1.556  2.7032  0.8586 -1.9558
 1262SOL    HW215420   1.120   0.427   1.620  1.2485 -0.9970  0.5679
 1263SOL     OW15421   3.048   0.683   8.481 -0.0863 -0.3593 -0.1580
 1263SOL    HW115422   3.050   0.660   8.574 -2.6548  1.5235  0.3641
 1263SOL    HW215423   3.093   0.767   8.489  3.4941 -2.3144  0.4032
 1264SOL     OW15424   1.579   2.913  15.855 -0.5290  0.8272  0.3215
 1264SOL    HW115425   1.573   2.928  15.761 -1.1703 -1.1483  0.0368
 1264SOL    HW215426   1.504   2.964  15.886  1.0062  1.4298  3.0855
 1265SOL     OW15427   1.200   3.241  12.759 -0.3736 -0.5040  0.2698
 1265SOL    HW115428   1.229   3.297  12.831 -0.2392 -0.0367 -0.1450
 1265SOL    HW215429   1.121   3.206  12.799 -1.1394 -0.5311 -1.2357
 1266SOL     OW15430   1.041   2.471   7.574  0.2396  0.1709 -0.0937
 1266SOL    HW115431   1.098   2.395   7.560  1.1526  1.2540 -2.2158
 1266SOL    HW215432   1.091   2.529   7.631 -0.6294 -0.6598  1.5306
 1267SOL     OW15433   0.976   2.264  15.471 -0.4895  0.2730  0.3896
 1267SOL    HW115434   1.065   2.244  15.500 -0.6542  1.5739  1.8185
 1267SOL    HW215435   0.981   2.360  15.470 -0.7450  0.3224  3.0791
 1268SOL     OW15436   4.645   1.235   3.949 -0.6884  0.0867 -0.3335
 1268SOL    HW115437   4.670   1.265   3.862 -1.0048 -3.3217 -1.5889
 1268SOL    HW215438   4.576   1.172   3.928 -1.1617  0.4249  0.1960
 1269SOL     OW15439   3.926   2.668   5.371 -0.3838 -0.3165 -0.0664
 1269SOL    HW115440   3.857   2.639   5.431 -0.4877 -0.8708 -0.4642
 1269SOL    HW215441   3.888   2.700   5.289  2.8245  2.0201 -0.6428
 1270SOL     OW15442   1.255   2.151   4.000 -0.3626 -0.2890  0.0607
 1270SOL    HW115443   1.281   2.092   4.071 -1.6768 -0.6996  0.2008
 1270SOL    HW215444   1.232   2.094   3.927 -0.4489  0.6537 -0.6322
 1271SOL     OW15445   0.264   1.151   8.208  0.1192 -0.4334  0.0931
 1271SOL    HW115446   0.255   1.061   8.177 -0.8289 -1.4044  3.2250
 1271SOL    HW215447   0.199   1.202   8.158 -0.0165  0.3196  1.0283
 1272SOL     OW15448   0.102   4.561   0.507  0.0926  0.1451  0.1802
 1272SOL    HW115449   0.067   4.524   0.426 -0.2041 -0.0347  0.3907
 1272SOL    HW215450   0.068   4.650   0.498  1.9104  0.8612  0.4213
 1273SOL     OW15451   0.199   2.481   8.643  0.2405 -0.3637  0.4157
 1273SOL    HW115452   0.184   2.387   8.629 -1.4301  0.2693 -1.9917
 1273SOL    HW215453   0.166   2.512   8.559 -0.6463  0.7754  1.1870
 1274SOL     OW15454   0.701   2.219  11.101 -0.0674  0.1954 -0.0860
 1274SOL    HW115455   0.666   2.157  11.036  0.1532 -0.7723  0.7203
 1274SOL    HW215456   0.644   2.297  11.101 -0.5689 -0.1645  0.8026
 1275SOL     OW15457   2.399   0.511   2.823  0.7089 -0.1828 -1.0220
 1275SOL    HW115458   2.333   0.441   2.826  0.8123 -0.3569 -3.1372
 1275SOL    HW215459   2.387   0.537   2.914  0.1313 -3.6886 -0.0776
 1276SOL     OW15460   0.246   3.412   4.550  0.0909  0.0322 -0.4682
 1276SOL    HW115461   0.259   3.483   4.612 -2.1310 -0.4486  0.5486
 1276SOL    HW215462   0.270   3.338   4.606  1.4869  0.7094 -0.1659
 1277SOL     OW15463   4.397   1.976  12.019  0.1818 -0.2262 -0.1515
 1277SOL    HW115464   4.328   1.986  11.953 -1.2033 -0.1073  1.3310
 1277SOL    HW215465   4.479   2.002  11.975  0.8479 -0.2728  1.0576
 1278SOL     OW15466   4.601   2.740   9.020  0.6168 -0.9045 -0.7251
 1278SOL    HW115467   4.690   2.719   9.048  0.5720  0.9602  0.8227
 1278SOL    HW215468   4.623   2.792   8.942 -0.0608  0.7024  0.1473
 1279SOL     OW15469   2.065   3.184   5.805  0.3186  0.0815 -0.1702
 1279SOL    HW115470   2.052   3.266   5.758  0.4594  0.6704  0.8338
 1279SOL    HW215471   1.975   3.157   5.820 -0.3485  1.3494 -1.9035
 1280SOL     OW15472   1.582   1.068  11.580 -0.1437 -0.0600  0.2281
 1280SOL    HW115473   1.555   1.047  11.670  1.7116 -0.8707  0.5960
 1280SOL    HW215474   1.658   1.013  11.563 -1.6015 -2.2639  0.7808
 1281SOL     OW15475   1.007   3.200   1.099 -0.0247  0.0236 -0.1825
 1281SOL    HW115476   0.976   3.272   1.154 -2.5234 -1.8810  0.9298
 1281SOL    HW215477   1.097   3.197   1.132 -0.5373  0.1077  1.2490
 1282SOL     OW15478   4.213   1.164  14.089 -0.9777  0.3256  0.3667
 1282SOL    HW115479   4.202   1.128  14.001 -0.0416  2.2044 -0.5145
 1282SOL    HW215480   4.144   1.121  14.141  0.0702 -1.0504  0.5981
 1283SOL     OW15481   4.401   0.284  13.172 -0.0430  0.2354  0.8300
 1283SOL    HW115482   4.399   0.188  13.176 -0.9610  0.1131 -2.4138
 1283SOL    HW215483   4.485   0.306  13.210  0.8850 -0.2982 -0.9152
 1284SOL     OW15484   1.287   1.370  10.756 -0.3500  0.3983  0.2296
 1284SOL    HW115485   1.206   1.323  10.779 -0.0970  0.3444  1.0303
 1284SOL    HW215486   1.350   1.308  10.793 -1.3460 -0.1714  1.0011
 1285SOL     OW15487   4.505   3.109  13.892  0.1860 -0.8338  0.2668
 1285SOL    HW115488   4.531   3.119  13.800  0.7259 -2.2933  0.2477
 1285SOL    HW215489   4.556   3.030  13.913 -0.9172 -2.1117 -1.8177
 1286SOL     OW15490   0.053   4.561   5.180  0.3102 -0.7581  0.1273
 1286SOL    HW115491   0.006   4.480   5.198 -0.5698 -0.3204 -0.2254
 1286SOL    HW215492   0.072   4.594   5.268 -1.6464  0.5983  0.0264
 1287SOL     OW15493   0.419   3.619   7.521  0.2640 -0.6255 -0.1671
 1287SOL    HW115494   0.433   3.586   7.610  0.2671  0.8901  0.3978
 1287SOL    HW215495   0.359   3.689   7.546 -0.3670 -1.5281  0.8365
 1288SOL     OW15496   2.115   3.197   4.163  0.4004  0.1552 -0.3227
 1288SOL    HW115497   2.206   3.224   4.157 -0.6397  3.2884 -2.5044
 1288SOL    HW215498   2.064   3.250   4.101 -1.1502 -2.4768 -1.3033
 1289SOL     OW15499   4.165   2.494  15.370 -0.1628 -0.1129  0.1555
 1289SOL    HW115500   4.244   2.544  15.348 -0.0082 -0.0949  0.7538
 1289SOL    HW215501   4.166   2.514  15.464  0.3925  0.7176 -0.0212
 1290SOL     OW15502   1.668   3.117   6.428  0.0269 -0.2526 -0.1540
 1290SOL    HW115503   1.601   3.074   6.374 -0.1390  1.4783 -1.3078
 1290SOL    HW215504   1.621   3.195   6.457 -0.5010 -0.8448  0.5834
 1291SOL     OW15505   0.092   1.294  14.618 -0.3587  0.0614 -0.6000
 1291SOL    HW115506   0.034   1.347  14.564  2.0992  1.6124 -1.7247
 1291SOL    HW215507   0.035   1.217  14.614 -0.9964  0.5733 -1.2101
 1292SOL     OW15508   2.844   4.296   2.261  0.3798  0.1152  0.2444
 1292SOL    HW115509   2.768   4.352   2.277  0.0529  0.2223 -1.7319
 1292SOL    HW215510   2.814   4.217   2.306 -0.7344  0.0765 -0.5613
 1293SOL     OW15511   2.746   1.845   3.243  0.7724  0.4275  0.1160
 1293SOL    HW115512   2.670   1.791   3.221  0.9159  0.1977  0.1798
 1293SOL    HW215513   2.820   1.805   3.197  1.9483 -0.2173  2.5249
 1294SOL     OW15514   0.844   3.930   5.817  0.1782  0.0850  0.1400
 1294SOL    HW115515   0.816   3.886   5.897  0.4647 -2.4457 -1.1541
 1294SOL    HW215516   0.761   3.929   5.769  0.9675  0.0222 -1.2235
 1295SOL     OW15517   0.933   2.821  14.322 -0.0713  0.6261  0.0456
 1295SOL    HW115518   0.890   2.785  14.399 -1.3889 -1.2552 -1.6017
 1295SOL    HW215519   1.027   2.801  14.331  0.4555  2.1148 -2.1206
 1296SOL     OW15520   4.299   0.989  17.177  0.0489  0.1314 -0.0980
 1296SOL    HW115521   4.248   1.034  17.110 -0.5066  0.0066  0.2415
 1296SOL    HW215522   4.364   1.059  17.189 -0.4190  0.6826 -0.7727
 1297SOL     OW15523   0.115   4.605   3.154 -0.4128 -0.0279  0.0208
 1297SOL    HW115524   0.080   4.601   3.065  0.7140  0.4956 -0.4408
 1297SOL    HW215525   0.089   4.515   3.175  1.6358 -0.7601 -0.5036
 1298SOL     OW15526   4.408   1.409  15.949  0.1683  0.3070 -0.3456
 1298SOL    HW115527   4.423   1.314  15.947 -2.0474 -0.0359 -1.5337
 1298SOL    HW215528   4.491   1.434  15.989  0.0459  0.0701  0.0582
 1299SOL     OW15529   0.041   3.068   2.984 -1.2511  0.1153  0.2248
 1299SOL    HW115530   0.095   3.138   3.019  0.1565 -1.0766  0.4292
 1299SOL    HW215531   0.032   3.083   2.890  1.2311 -0.4434 -0.1098
 1300SOL     OW15532   4.176   0.368   2.665 -0.0528 -0.1449  0.0946
 1300SOL    HW115533   4.180   0.449   2.613 -1.1550  0.2690  0.6697
 1300SOL    HW215534   4.229   0.300   2.623  0.2117 -0.2704  0.6332
 1301SOL     OW15535   4.153   0.705   0.930  0.0682 -0.2474 -0.2017
 1301SOL    HW115536   4.151   0.647   1.006  1.1752 -2.0005 -1.5181
 1301SOL    HW215537   4.075   0.758   0.949  1.2720  0.6341  2.1567
 1302SOL     OW15538   4.681   1.746   3.161 -0.2722 -0.1252  0.0396
 1302SOL    HW115539   4.715   1.832   3.134  1.4948 -0.8180  0.0469
 1302SOL    HW215540   0.024   1.692   3.162 -1.2489 -1.4995  1.7458
 1303SOL     OW15541   2.955   2.664  13.203  0.5181  0.1298  0.3448
 1303SOL    HW115542   2.922   2.626  13.122  0.9533 -0.4302  0.4352
 1303SOL    HW215543   2.875   2.708  13.231  0.6935  0.4342  0.3623
 1304SOL     OW15544   4.272   2.549   4.145 -0.1236  0.4894 -0.6471
 1304SOL    HW115545   4.338   2.492   4.185 -1.3034 -0.8079 -0.5397
 1304SOL    HW215546   4.260   2.505   4.062 -1.3661 -0.4008  0.0072
 1305SOL     OW15547   1.420   0.674  14.357  0.1463 -0.3430  0.6476
 1305SOL    HW115548   1.437   0.734  14.430 -2.4542 -0.5005  1.3849
 1305SOL    HW215549   1.494   0.697  14.302  0.1547 -0.9031  0.4327
 1306SOL     OW15550   2.761   1.867   6.286  0.7028 -0.3547  0.4524
 1306SOL    HW115551   2.793   1.854   6.197  0.6559  0.3239  0.3379
 1306SOL    HW215552   2.671   1.839   6.274 -0.0458  1.4574  1.8935
 1307SOL     OW15553   4.270   1.639   9.741 -0.0295  0.2993 -0.3375
 1307SOL    HW115554   4.175   1.635   9.727 -0.2458  2.1326  0.5682
 1307SOL    HW215555   4.261   1.671   9.831  1.3776  2.2270 -0.8724
 1308SOL     OW15556   3.965   0.490   5.279 -0.2961  0.0546 -0.2507
 1308SOL    HW115557   3.940   0.405   5.316 -0.1986  0.5269  0.8833
 1308SOL    HW215558   3.973   0.462   5.188 -1.7312 -0.5733 -0.1950
 1309SOL     OW15559   1.915   1.816  14.250  0.5454  0.2421 -0.0523
 1309SOL    HW115560   1.852   1.867  14.198 -1.5696 -0.1827  2.1106
 1309SOL    HW215561   1.983   1.881  14.267  1.2698 -0.2439 -1.0772
 1310SOL     OW15562   4.489   0.566  10.289 -0.5065 -0.3706 -0.0230
 1310SOL    HW115563   4.577   0.531  10.281  0.2006  1.3588  0.1197
 1310SOL    HW215564   4.482   0.637  10.225 -2.5843 -0.3105  0.2534
 1311SOL     OW15565   3.918   3.624  16.719 -0.0156 -0.3417 -0.3963
 1311SOL    HW115566   3.824   3.623  16.700 -0.1377 -1.5361  0.2890
 1311SOL    HW215567   3.923   3.538  16.761 -0.6197 -0.4382 -0.5254
 1312SOL     OW15568   3.450   4.004   8.076 -0.2628  0.2409 -0.4213
 1312SOL    HW115569   3.374   4.058   8.096  1.4525  2.1289  1.0538
 1312SOL    HW215570   3.413   3.929   8.121  0.9792  0.5710  1.1717
 1313SOL     OW15571   2.170   2.979   6.292  0.0065 -0.1224  0.6886
 1313SOL    HW115572   2.085   3.019   6.310  0.0352  0.7161 -1.0595
 1313SOL    HW215573   2.153   2.943   6.205 -0.3136  0.0330  0.6890
 1314SOL     OW15574   4.509   3.401  15.136 -0.7836  0.8139  0.0522
 1314SOL    HW115575   4.513   3.378  15.044 -2.5047 -1.7950  0.6296
 1314SOL    HW215576   4.453   3.479  15.131  3.0712  3.6588  0.8292
 1315SOL     OW15577   4.168   3.087   7.453 -0.2056  0.4005  0.1416
 1315SOL    HW115578   4.105   3.157   7.469  0.7597  1.0538  1.1335
 1315SOL    HW215579   4.109   3.016   7.430 -0.2114 -0.0064  1.3984
 1316SOL     OW15580   4.523   1.649   6.542 -0.6147  0.2031  0.0130
 1316SOL    HW115581   4.444   1.696   6.516 -0.6332 -0.0586 -0.4165
 1316SOL    HW215582   4.561   1.705   6.609 -0.0514  0.6771 -0.6993
 1317SOL     OW15583   1.504   0.633   6.138  0.2347 -0.4258 -0.9226
 1317SOL    HW115584   1.412   0.620   6.162  0.4246 -1.0101 -0.5113
 1317SOL    HW215585   1.542   0.555   6.177 -0.7050 -0.5240 -0.1809
 1318SOL     OW15586   3.499   1.750   2.154  0.0020  0.3761  0.1612
 1318SOL    HW115587   3.440   1.745   2.229  2.3230  0.3314  1.9966
 1318SOL    HW215588   3.574   1.794   2.196  0.4651 -0.1045 -0.1542
 1319SOL     OW15589   1.949   0.224  16.534  0.3856  0.7849  0.6155
 1319SOL    HW115590   2.024   0.179  16.495 -1.3727 -0.9242 -0.7693
 1319SOL    HW215591   1.985   0.233  16.622  0.0733 -1.4382  0.9557
 1320SOL     OW15592   0.148   3.841   8.425  0.2043 -0.1025 -0.0556
 1320SOL    HW115593   0.191   3.760   8.451 -0.3427 -0.5073 -0.4180
 1320SOL    HW215594   0.155   3.893   8.505 -0.8535  1.1693 -0.7761
 1321SOL     OW15595   0.089   2.235   3.688 -0.4088  0.0460 -0.2693
 1321SOL    HW115596   0.049   2.186   3.617 -0.1410 -0.8338  0.1803
 1321SOL    HW215597   0.156   2.170   3.711  0.1730  0.4602 -0.8077
 1322SOL     OW15598   0.926   3.383  12.964  0.1661 -0.2839 -0.7085
 1322SOL    HW115599   0.957   3.341  13.044 -0.1833  0.6471 -0.0755
 1322SOL    HW215600   0.915   3.313  12.899  2.6216 -0.2839 -1.1505
 1323SOL     OW15601   2.328   3.802   5.259  0.4883  0.1448 -0.3640
 1323SOL    HW115602   2.391   3.794   5.330 -0.5928  0.1217  0.5975
 1323SOL    HW215603   2.346   3.717   5.218  0.2989  0.0838 -0.3224
 1324SOL     OW15604   2.905   3.620  14.239  0.1770  0.1387  0.3358
 1324SOL    HW115605   2.943   3.697  14.197 -0.3795  0.1756 -0.0979
 1324SOL    HW215606   2.985   3.568  14.247 -1.1444 -1.6847  1.6130
 1325SOL     OW15607   3.471   2.579   5.609  0.1418 -0.0060 -0.5235
 1325SOL    HW115608   3.518   2.662   5.605  0.6341 -0.2274  0.4568
 1325SOL    HW215609   3.536   2.521   5.649 -1.7525 -0.4790  1.8700
 1326SOL     OW15610   3.287   1.078   1.866  0.3794 -0.3164 -0.7161
 1326SOL    HW115611   3.225   1.054   1.936  2.8222 -1.7977  0.9406
 1326SOL    HW215612   3.242   1.131   1.800  2.1509  2.0955  0.0166
 1327SOL     OW15613   3.469   3.569   0.527 -0.3166  0.6776 -0.6773
 1327SOL    HW115614   3.396   3.542   0.582  0.6952  0.0459  0.3524
 1327SOL    HW215615   3.498   3.485   0.492 -0.2609  0.3477  0.1694
 1328SOL     OW15616   1.766   4.480   5.709  0.3987 -0.1194 -1.0528
 1328SOL    HW115617   1.760   4.388   5.733  0.6366  0.2164  0.3120
 1328SOL    HW215618   1.803   4.473   5.621 -0.0795 -3.9531 -0.9228
 1329SOL     OW15619   3.856   3.340  10.578  0.0493 -0.6097 -0.3911
 1329SOL    HW115620   3.853   3.330  10.673 -1.3266  1.9985 -0.1682
 1329SOL    HW215621   3.944   3.379  10.574 -0.5660  0.8671  0.9357
 1330SOL     OW15622   1.862   2.915  15.099  0.2587  0.1811  0.1045
 1330SOL    HW115623   1.884   2.837  15.048  0.9559  0.9882 -0.8270
 1330SOL    HW215624   1.776   2.895  15.135  1.4642 -0.7358  2.4810
 1331SOL     OW15625   3.085   4.686  10.032  0.2910  0.6461  0.1631
 1331SOL    HW115626   3.135   0.007  10.091  0.5960 -0.9930  1.4722
 1331SOL    HW215627   3.126   4.708   9.949 -3.0251  4.3543 -0.4804
 1332SOL     OW15628   1.295   4.414   8.390 -0.1378 -0.4103  0.3921
 1332SOL    HW115629   1.299   4.489   8.331  1.2097  0.0280  1.0461
 1332SOL    HW215630   1.375   4.424   8.441  0.8480  0.1688 -1.2789
 1333SOL     OW15631   0.330   2.084  10.957 -0.1137  0.0843 -0.5897
 1333SOL    HW115632   0.272   2.120  11.024 -1.3433  0.2998 -1.7605
 1333SOL    HW215633   0.395   2.153  10.947  1.7499 -1.6651 -0.5634
 1334SOL     OW15634   0.233   1.728   4.711  0.3676 -0.1835  0.1420
 1334SOL    HW115635   0.314   1.760   4.671  1.4760 -0.4542  2.1869
 1334SOL    HW215636   0.169   1.784   4.666  0.8104 -0.7060 -1.1536
 1335SOL     OW15637   0.433   1.363  11.962  0.2969 -0.3130 -0.1063
 1335SOL    HW115638   0.412   1.270  11.953 -1.9608  0.0926  0.9718
 1335SOL    HW215639   0.524   1.370  11.991 -0.1249 -0.8259  1.2906
 1336SOL     OW15640   2.728   1.359   2.370 -0.4738  0.1383 -0.0729
 1336SOL    HW115641   2.639   1.394   2.361 -0.3671 -0.5984 -4.1292
 1336SOL    HW215642   2.765   1.418   2.305  0.5508 -1.4159 -0.8897
 1337SOL     OW15643   2.271   2.196   2.722 -0.5524  0.5844  0.4979
 1337SOL    HW115644   2.357   2.202   2.766  0.5203 -5.2047 -0.9050
 1337SOL    HW215645   2.257   2.102   2.720 -2.5096  0.9156 -0.9785
 1338SOL     OW15646   1.927   3.288   4.706  0.0647  0.2968 -0.4846
 1338SOL    HW115647   1.947   3.208   4.755 -0.3668 -0.1388 -1.0007
 1338SOL    HW215648   1.971   3.264   4.624 -0.8401 -1.7559 -0.3917
 1339SOL     OW15649   2.044   1.422   7.903  0.1806 -0.4782  0.4984
 1339SOL    HW115650   1.951   1.443   7.892 -0.0422 -0.9494  1.5068
 1339SOL    HW215651   2.042   1.348   7.964 -0.2579  0.7764  1.9997
 1340SOL     OW15652   2.098   0.725  15.813  0.1398 -0.0764 -0.0035
 1340SOL    HW115653   2.033   0.686  15.872 -0.2137  0.7847  0.1749
 1340SOL    HW215654   2.055   0.786  15.754  1.1762  1.0880  0.4416
 1341SOL     OW15655   1.676   0.557   7.615 -0.0874  0.4622  0.1978
 1341SOL    HW115656   1.687   0.462   7.626 -0.4110  0.2221 -1.6513
 1341SOL    HW215657   1.584   0.580   7.628 -0.2158  0.7285 -1.2142
 1342SOL     OW15658   1.189   1.260   5.741  0.1536  0.0101  0.3376
 1342SOL    HW115659   1.180   1.241   5.647 -3.8462  0.9853  0.5266
 1342SOL    HW215660   1.268   1.314   5.741  0.2793 -0.1584 -2.7894
 1343SOL     OW15661   0.403   1.969   0.260 -0.8421 -0.1980  0.1581
 1343SOL    HW115662   0.371   2.059   0.261  0.1120  0.1166  2.1370
 1343SOL    HW215663   0.424   1.947   0.169  0.9268  0.5599  0.3937
 1344SOL     OW15664   4.524   4.357  15.079 -0.1863  0.4738  0.0100
 1344SOL    HW115665   4.501   4.449  15.072 -1.7119  0.0899 -0.0895
 1344SOL    HW215666   4.620   4.364  15.076 -0.2493  2.2899  2.0100
 1345SOL     OW15667   1.267   3.153   4.209  0.2304  0.0817  0.0222
 1345SOL    HW115668   1.221   3.212   4.268  1.1657  0.8581 -0.0308
 1345SOL    HW215669   1.335   3.122   4.269  1.1284  0.6191 -0.7182
 1346SOL     OW15670   2.181   2.784   3.425  0.7624  0.2095 -0.5521
 1346SOL    HW115671   2.249   2.717   3.432  1.0024  0.3151 -1.9499
 1346SOL    HW215672   2.217   2.827   3.348  0.9674  0.1612 -0.4832
 1347SOL     OW15673   2.157   1.463  12.042 -0.7565 -0.0401 -0.8439
 1347SOL    HW115674   2.163   1.397  12.111 -0.0476 -2.4924 -3.2437
 1347SOL    HW215675   2.167   1.541  12.096 -2.2029 -0.0628 -0.5361
 1348SOL     OW15676   4.041   2.216   2.703 -0.1741 -0.1067  0.2091
 1348SOL    HW115677   4.046   2.219   2.608  0.0864  1.8954  0.2894
 1348SOL    HW215678   4.128   2.199   2.738 -0.0119 -1.1695 -0.7216
 1349SOL     OW15679   2.435   2.117   7.999 -0.1279  0.0324  0.5105
 1349SOL    HW115680   2.489   2.170   8.057  2.8083  0.3810 -2.5490
 1349SOL    HW215681   2.345   2.139   8.025  0.2588 -1.0748  2.7832
 1350SOL     OW15682   0.847   1.919   6.579 -0.1412 -0.0460  0.2086
 1350SOL    HW115683   0.919   1.860   6.602 -0.8797 -1.6127 -1.4977
 1350SOL    HW215684   0.779   1.865   6.539  1.5905  0.1811 -3.0081
 1351SOL     OW15685   4.138   2.705   4.735 -0.2294 -0.3939 -0.1254
 1351SOL    HW115686   4.204   2.657   4.785 -1.0897 -1.9670 -0.4920
 1351SOL    HW215687   4.135   2.790   4.779  2.3641 -1.1238  1.4804
 1352SOL     OW15688   4.585   2.802   3.516  0.5764  0.9477  0.1517
 1352SOL    HW115689   4.577   2.734   3.450 -0.3492 -0.0031  1.2549
 1352SOL    HW215690   4.543   2.874   3.468 -0.3775  0.0844 -0.2912
 1353SOL     OW15691   3.869   1.085   5.270  0.5381 -0.3393  0.2284
 1353SOL    HW115692   3.811   1.114   5.199  1.7192  1.3318 -0.0338
 1353SOL    HW215693   3.948   1.135   5.255  1.4019 -2.2734 -1.7227
 1354SOL     OW15694   4.416   3.782   3.644 -0.4024 -0.0292  0.2351
 1354SOL    HW115695   4.499   3.752   3.608  0.2730  1.0898  0.8626
 1354SOL    HW215696   4.430   3.751   3.733  1.9315  0.8610  0.1933
 1355SOL     OW15697   2.955   1.216   6.467  0.3922  0.4225 -0.3634
 1355SOL    HW115698   2.980   1.253   6.382  3.0839 -1.2293 -0.3022
 1355SOL    HW215699   2.880   1.165   6.439  0.2659 -0.2133  1.1256
 1356SOL     OW15700   3.042   3.444   5.251  0.0185 -0.6289 -0.1658
 1356SOL    HW115701   3.049   3.450   5.156 -0.6783 -0.7115 -0.2247
 1356SOL    HW215702   3.122   3.396   5.274 -0.2918 -1.6474 -1.1659
 1357SOL     OW15703   0.764   3.787   5.433  0.4841  0.2668  0.5501
 1357SOL    HW115704   0.825   3.815   5.365 -0.4906  1.6298  0.2467
 1357SOL    HW215705   0.689   3.759   5.380  0.7612  1.3738 -0.4098
 1358SOL     OW15706   0.733   3.887  16.446  0.3099 -0.1087  0.1021
 1358SOL    HW115707   0.665   3.828  16.479 -0.1159 -0.2969 -1.1129
 1358SOL    HW215708   0.787   3.823  16.400  2.7736 -0.0654  2.9390
 1359SOL     OW15709   0.660   2.559   6.842 -0.6923 -0.2712  0.5008
 1359SOL    HW115710   0.646   2.547   6.936  1.1224 -1.3204  0.6419
 1359SOL    HW215711   0.571   2.558   6.809 -0.1462  0.0733 -0.9793
 1360SOL     OW15712   3.057   2.992   2.664  0.4890  0.0862 -0.2203
 1360SOL    HW115713   3.030   2.908   2.700 -3.3862  0.4605 -2.2601
 1360SOL    HW215714   2.984   3.051   2.681  1.2349  1.0658 -0.3509
 1361SOL     OW15715   0.040   2.071   2.703  0.0847 -0.0041 -0.1367
 1361SOL    HW115716   0.005   2.070   2.614 -0.8452  0.1347  0.2285
 1361SOL    HW215717   0.005   1.986   2.731  1.7636 -1.5249 -2.5987
 1362SOL     OW15718   1.718   0.902   7.015  0.2775  0.0271  0.0339
 1362SOL    HW115719   1.748   0.867   7.100 -0.0561 -0.1140  0.0969
 1362SOL    HW215720   1.625   0.882   7.004  0.4403 -1.4658  1.2784
 1363SOL     OW15721   1.144   3.994   2.942  0.4743  0.1893 -0.2108
 1363SOL    HW115722   1.219   4.000   3.001 -0.9666 -0.6805  1.7052
 1363SOL    HW215723   1.179   4.034   2.862 -0.5483  2.2371  0.3645
 1364SOL     OW15724   0.503   0.951   6.189  0.5930 -0.7250  0.6417
 1364SOL    HW115725   0.569   1.021   6.186 -0.6111  0.2508 -2.9486
 1364SOL    HW215726   0.428   1.006   6.209  1.3844 -0.4258  2.8515
 1365SOL     OW15727   4.437   2.511   8.993  0.1812 -0.0454  0.0739
 1365SOL    HW115728   4.469   2.597   9.020  1.4601 -0.6275  0.4206
 1365SOL    HW215729   4.471   2.505   8.904  0.9500 -2.1039  0.5012
 1366SOL     OW15730   0.772   4.397   5.562  0.0097  0.6978 -0.1813
 1366SOL    HW115731   0.687   4.357   5.581  0.4647  1.2015  2.8608
 1366SOL    HW215732   0.752   4.458   5.491 -1.9921  2.3248  1.8051
 1367SOL     OW15733   2.178   2.211   6.599 -0.2664  1.0553  0.7289
 1367SOL    HW115734   2.168   2.239   6.690  1.5681  1.4257  0.8180
 1367SOL    HW215735   2.210   2.122   6.614 -2.6140 -0.2234 -1.8651
 1368SOL     OW15736   2.927   2.192   2.159  0.6158  0.1355 -0.0215
 1368SOL    HW115737   2.973   2.108   2.160  0.0875 -0.1295  1.1576
 1368SOL    HW215738   2.839   2.162   2.137  0.8481 -0.2118 -0.4858
 1369SOL     OW15739   1.377   3.642   2.874  0.2070  0.3591  0.3902
 1369SOL    HW115740   1.367   3.707   2.804 -0.6555  0.3525  0.5061
 1369SOL    HW215741   1.440   3.684   2.931  1.0418  0.2031 -0.4182
 1370SOL     OW15742   0.957   3.321  15.315  0.1715  0.1184  0.4350
 1370SOL    HW115743   0.992   3.332  15.226 -0.8503 -0.2263 -0.0135
 1370SOL    HW215744   0.975   3.404  15.359  1.5630 -0.8018  1.6348
 1371SOL     OW15745   4.276   0.947   4.505 -0.3616 -0.2768  0.4317
 1371SOL    HW115746   4.294   0.861   4.541  0.9917  0.4397  1.4564
 1371SOL    HW215747   4.181   0.956   4.508 -0.1742  2.3600 -1.4985
 1372SOL     OW15748   0.823   1.102   5.601  0.0396  0.0452 -0.2713
 1372SOL    HW115749   0.912   1.066   5.605  0.5636  1.5410  1.4047
 1372SOL    HW215750   0.776   1.044   5.662 -1.3030 -0.5211 -1.8596
 1373SOL     OW15751   0.292   0.998   4.924  0.6200 -0.3146  0.0897
 1373SOL    HW115752   0.376   1.021   4.886 -0.1629  0.1602 -1.3503
 1373SOL    HW215753   0.272   1.085   4.956 -2.1303 -0.6557 -0.6652
 1374SOL     OW15754   0.318   4.360   4.572  0.0052  0.1266  0.2791
 1374SOL    HW115755   0.295   4.422   4.642 -0.7014  1.2075 -0.9130
 1374SOL    HW215756   0.335   4.430   4.509 -0.0302  0.3807  0.5478
 1375SOL     OW15757   0.036   0.625  15.625 -0.3276  0.3091 -0.3451
 1375SOL    HW115758   0.007   0.607  15.715  0.0359 -3.0225 -0.9002
 1375SOL    HW215759   4.704   0.583  15.572 -1.0445  0.0550  0.7675
 1376SOL     OW15760   3.709   2.452   9.658 -0.7099 -0.7660 -0.4590
 1376SOL    HW115761   3.694   2.463   9.564  1.6745  0.9596 -0.6456
 1376SOL    HW215762   3.622   2.463   9.695 -1.2446  1.6478 -2.4675
 1377SOL     OW15763   0.635   0.784   1.549 -0.2996 -0.7385 -0.0391
 1377SOL    HW115764   0.594   0.863   1.584 -0.4818 -0.9279  0.1705
 1377SOL    HW215765   0.672   0.815   1.466 -0.9867  3.2989  1.1489
 1378SOL     OW15766   2.732   3.918   3.531  0.3465 -0.2375 -0.3052
 1378SOL    HW115767   2.643   3.953   3.531 -0.0513 -1.2142 -1.9446
 1378SOL    HW215768   2.767   3.968   3.457 -1.8867  1.1294 -0.4232
 1379SOL     OW15769   3.664   3.737   6.452 -0.0982  0.2441  0.2459
 1379SOL    HW115770   3.638   3.787   6.529 -4.6996  0.8067 -1.6581
 1379SOL    HW215771   3.624   3.788   6.381 -0.6468  0.4587  0.7152
 1380SOL     OW15772   2.514   3.271   1.807 -0.0274 -0.2212 -0.3994
 1380SOL    HW115773   2.444   3.303   1.864 -0.7131  0.2325 -1.5037
 1380SOL    HW215774   2.576   3.344   1.803  1.0889 -1.1700 -0.3940
 1381SOL     OW15775   0.394   3.008   5.907 -0.4366  0.5638  0.8181
 1381SOL    HW115776   0.380   3.058   5.988  1.0930  2.2487  0.0431
 1381SOL    HW215777   0.484   2.975   5.914 -0.0803  1.2180 -0.7729
 1382SOL     OW15778   2.957   3.613  14.720 -0.1780 -0.0386 -0.3841
 1382SOL    HW115779   2.891   3.598  14.787  1.2241 -0.5365  0.8925
 1382SOL    HW215780   2.902   3.626  14.643 -0.1036 -3.3348 -1.0057
 1383SOL     OW15781   1.679   4.428   3.997  0.0129 -0.0007 -0.1061
 1383SOL    HW115782   1.672   4.400   3.905  1.8685  2.1994 -0.9119
 1383SOL    HW215783   1.615   4.365   4.032  1.3457 -1.2065  0.1393
 1384SOL     OW15784   0.144   0.300   6.981  0.2468 -0.3242  0.3648
 1384SOL    HW115785   0.186   0.298   7.067 -1.5160  0.6802  1.2431
 1384SOL    HW215786   0.112   0.211   6.990  0.0682 -0.4793 -1.8686
 1385SOL     OW15787   4.261   1.041   2.261  0.3454  0.3880  0.0075
 1385SOL    HW115788   4.268   1.134   2.238  0.8093  0.0354 -1.2784
 1385SOL    HW215789   4.241   1.007   2.174 -0.0317  1.3203 -0.2631
 1386SOL     OW15790   2.428   0.018   5.069  0.5825 -0.2995  0.3281
 1386SOL    HW115791   2.427   4.694   5.144 -0.1037  0.0464  0.5978
 1386SOL    HW215792   2.464   4.698   5.001  0.0052 -1.7616  1.2170
 1387SOL     OW15793   4.486   0.643   2.307 -0.0576  0.0146  0.2559
 1387SOL    HW115794   4.534   0.674   2.231 -0.8232  0.0550 -0.2083
 1387SOL    HW215795   4.494   0.548   2.294  2.2819  0.2802 -0.0756
 1388SOL     OW15796   3.343   2.030  16.379  0.9770  0.1679 -0.4270
 1388SOL    HW115797   3.412   2.096  16.373  0.4131  0.7436 -0.6183
 1388SOL    HW215798   3.388   1.955  16.339  0.9048  1.1284 -2.3137
 1389SOL     OW15799   2.584   2.528   3.633 -0.5874 -0.3150  0.0851
 1389SOL    HW115800   2.619   2.589   3.569 -1.6424 -0.0005 -0.1868
 1389SOL    HW215801   2.578   2.574   3.717  0.8597  0.8685 -0.4542
 1390SOL     OW15802   2.890   1.658  12.684  0.6798 -0.0029  0.4063
 1390SOL    HW115803   2.908   1.565  12.668  0.2430  0.0262 -0.2763
 1390SOL    HW215804   2.916   1.700  12.602  0.6621 -1.0818 -0.1519
 1391SOL     OW15805   0.165   1.071   9.272  0.3749  0.0760 -0.2205
 1391SOL    HW115806   0.201   1.138   9.214  2.0055 -0.4954  0.1409
 1391SOL    HW215807   0.226   1.058   9.345 -1.0167  2.4582  1.3637
 1392SOL     OW15808   3.338   0.763   8.692 -0.1543 -0.4431 -0.2629
 1392SOL    HW115809   3.323   0.851   8.657 -0.7476 -0.8684 -1.0858
 1392SOL    HW215810   3.283   0.768   8.771  2.0233  1.0016  1.1547
 1393SOL     OW15811   3.816   1.542   5.406 -0.0027  0.0949 -0.6962
 1393SOL    HW115812   3.791   1.524   5.496  0.2899  1.6452 -0.2871
 1393SOL    HW215813   3.754   1.492   5.354  0.7938 -0.3947 -1.1782
 1394SOL     OW15814   0.058   4.096   9.258 -0.3294 -0.3280  0.4458
 1394SOL    HW115815   0.016   4.132   9.180  0.5321 -2.7322 -1.1553
 1394SOL    HW215816   0.021   4.150   9.327  2.3619  2.0192  0.0378
 1395SOL     OW15817   2.127   1.696  14.904  0.3215  0.5997  0.0016
 1395SOL    HW115818   2.096   1.717  14.816 -1.3649 -0.2490  0.4078
 1395SOL    HW215819   2.192   1.764  14.920  2.0649 -1.0383 -0.0486
 1396SOL     OW15820   1.752   4.613  15.958  0.1676 -0.0981  0.8195
 1396SOL    HW115821   1.712   4.614  16.045 -0.0610 -0.0203  0.7133
 1396SOL    HW215822   1.690   4.659  15.901  2.6167  0.0934 -1.6739
 1397SOL     OW15823   1.166   1.755   2.968  0.5783  0.0603 -0.0960
 1397SOL    HW115824   1.189   1.662   2.964  1.4831  0.1732  2.3329
 1397SOL    HW215825   1.190   1.792   2.883  2.1788  1.3425  0.9201
 1398SOL     OW15826   2.389   4.143   2.395  0.4229 -0.8342  0.0892
 1398SOL    HW115827   2.344   4.081   2.453 -3.3467  1.6401 -0.2111
 1398SOL    HW215828   2.310   4.187   2.363  1.0356 -1.3275 -2.0980
 1399SOL     OW15829   0.889   4.305   6.858  0.1663 -0.5786 -0.3587
 1399SOL    HW115830   0.804   4.347   6.846 -1.3767 -3.2842  0.9256
 1399SOL    HW215831   0.864   4.219   6.824  0.8975 -1.5072  1.4605
 1400SOL     OW15832   4.603   3.568   9.282 -0.3120 -0.5620 -0.6512
 1400SOL    HW115833   4.567   3.485   9.252 -0.2565 -1.1809  0.9722
 1400SOL    HW215834   4.647   3.543   9.364 -0.8242  2.1538  0.4699
 1401SOL     OW15835   2.416   3.449   5.997 -0.0907  0.5274  0.8466
 1401SOL    HW115836   2.479   3.485   5.935 -1.4552  0.4101 -0.6040
 1401SOL    HW215837   2.334   3.470   5.951  0.6758 -0.3700 -0.9356
 1402SOL     OW15838   2.744   0.472   8.153  0.2769 -0.4206  0.4498
 1402SOL    HW115839   2.731   0.566   8.168 -0.6323 -0.0943 -2.2257
 1402SOL    HW215840   2.713   0.439   8.237 -2.8571  1.2509 -0.0418
 1403SOL     OW15841   2.012   1.432   9.705 -0.0352  0.7699  0.0187
 1403SOL    HW115842   1.947   1.476   9.760 -2.0679 -1.2377 -0.7707
 1403SOL    HW215843   1.956   1.386   9.642 -0.8551  0.5980  0.8817
 1404SOL     OW15844   1.739   1.012   6.188  0.2815  0.7531  0.1458
 1404SOL    HW115845   1.687   0.956   6.130  2.3392  0.1381 -1.0942
 1404SOL    HW215846   1.678   1.030   6.260 -0.8545 -1.2783 -0.3214
 1405SOL     OW15847   3.898   1.528   4.580 -0.5722  0.1216  0.4796
 1405SOL    HW115848   3.820   1.537   4.526 -2.3535  2.0785  3.3972
 1405SOL    HW215849   3.866   1.579   4.654  0.1918  0.4174  0.6080
 1406SOL     OW15850   2.901   3.357  12.985 -0.1875 -0.1344 -0.5655
 1406SOL    HW115851   2.860   3.403  12.912  0.8823  0.6148 -0.6893
 1406SOL    HW215852   2.983   3.402  13.006 -0.1575 -1.6268  2.6138
 1407SOL     OW15853   3.835   4.149  17.706  0.3499  0.0652  0.2992
 1407SOL    HW115854   3.884   4.068  17.690  1.8642  0.8984  0.7672
 1407SOL    HW215855   3.893   4.209  17.659 -1.1410  0.7233 -0.6848
 1408SOL     OW15856   0.190   3.697   3.864  0.1597 -0.0286 -0.3337
 1408SOL    HW115857   0.263   3.684   3.802  0.3744  2.7053 -0.6255
 1408SOL    HW215858   0.235   3.705   3.948  0.1909  1.0917 -0.4644
 1409SOL     OW15859   2.564   0.033   7.285 -0.1679 -0.2329  0.7094
 1409SOL    HW115860   2.651   0.021   7.323  0.0749  0.1673  0.2775
 1409SOL    HW215861   2.539   0.106   7.341  0.8310  0.9984 -0.4580
 1410SOL     OW15862   2.219   3.575  16.181  0.0803  1.0000  0.0038
 1410SOL    HW115863   2.305   3.617  16.171  1.4180 -1.8338 -0.2723
 1410SOL    HW215864   2.166   3.643  16.140 -1.1921  0.5248  0.8768
 1411SOL     OW15865   2.717   3.820   8.324 -0.3309  0.2395  1.1011
 1411SOL    HW115866   2.749   3.773   8.401  3.1823 -0.7076 -0.9391
 1411SOL    HW215867   2.646   3.869   8.365 -0.4119 -1.1983  2.6910
 1412SOL     OW15868   1.076   1.088   1.078  0.1546  0.4020 -0.6567
 1412SOL    HW115869   1.022   1.010   1.063  0.3840 -0.1715  1.5022
 1412SOL    HW215870   1.068   1.131   0.993 -1.4854  0.3486 -0.5392
 1413SOL     OW15871   3.823   0.502   0.959 -0.0545  0.1461  0.0215
 1413SOL    HW115872   3.884   0.527   1.028  2.3350 -2.5918 -1.1415
 1413SOL    HW215873   3.750   0.562   0.977 -1.2594  0.0290 -4.6326
 1414SOL     OW15874   3.912   1.087  12.134 -0.5488  0.1687  0.2727
 1414SOL    HW115875   3.872   1.085  12.047 -1.9302  0.5037  0.9031
 1414SOL    HW215876   3.982   1.148  12.111 -0.2735  0.0256  0.7304
 1415SOL     OW15877   3.000   3.084   2.231 -0.1753 -0.1955  0.6283
 1415SOL    HW115878   2.916   3.104   2.272 -0.4103  3.7271 -1.7301
 1415SOL    HW215879   3.009   2.994   2.261  2.2054 -0.4269 -0.8228
 1416SOL     OW15880   2.083   3.021   2.290  0.2696  0.0902 -0.6067
 1416SOL    HW115881   2.097   3.062   2.375 -0.4430 -0.7369 -0.0784
 1416SOL    HW215882   1.989   3.004   2.296  0.3550  0.1688  0.8336
 1417SOL     OW15883   3.838   0.710   7.122  0.3370 -0.4102 -0.2642
 1417SOL    HW115884   3.913   0.655   7.102  0.7518 -0.8974  2.7745
 1417SOL    HW215885   3.869   0.757   7.199  0.5212 -2.0108  0.6200
 1418SOL     OW15886   2.613   3.214   5.069  0.4046 -0.0574 -0.3350
 1418SOL    HW115887   2.644   3.304   5.057 -0.1072  0.5019  2.7060
 1418SOL    HW215888   2.561   3.219   5.149  1.3357 -0.1207  0.2748
 1419SOL     OW15889   1.051   1.827   2.526  0.3768 -0.4030 -0.2245
 1419SOL    HW115890   1.022   1.819   2.616 -0.8260 -1.5136 -0.7270
 1419SOL    HW215891   1.086   1.739   2.512  0.5946 -0.3535  0.0160
 1420SOL     OW15892   0.542   3.467   0.743 -0.6167  0.0927  0.0881
 1420SOL    HW115893   0.613   3.487   0.682 -0.4236  0.9351  0.5813
 1420SOL    HW215894   0.474   3.529   0.715 -1.2963 -0.1526  1.1849
 1421SOL     OW15895   4.497   4.434  13.474  0.8282  0.2099  1.0183
 1421SOL    HW115896   4.547   4.378  13.414 -1.4771 -0.3080 -0.4301
 1421SOL    HW215897   4.554   4.510  13.485  0.2075  0.7327  0.5711
 1422SOL     OW15898   0.240   4.453   2.451  0.0407 -0.1880  0.4451
 1422SOL    HW115899   0.249   4.365   2.488  1.8386  0.2655  1.0925
 1422SOL    HW215900   0.320   4.460   2.399  0.7087  3.5437  1.9311
 1423SOL     OW15901   3.822   0.031   1.165  0.0155 -0.0735 -0.4572
 1423SOL    HW115902   3.742   0.064   1.124 -1.1603  1.2221  2.8858
 1423SOL    HW215903   3.854   0.100   1.223  0.9901 -1.5761  0.7887
 1424SOL     OW15904   4.587   1.018   1.192  0.5312 -0.1567 -0.2137
 1424SOL    HW115905   4.612   0.960   1.263 -0.5541  0.9550  1.0748
 1424SOL    HW215906   4.581   1.102   1.237  2.0737 -0.1130 -0.0702
 1425SOL     OW15907   4.455   2.102   1.843  0.3877  0.1105  0.1427
 1425SOL    HW115908   4.438   2.140   1.929  0.9153  0.3264  0.1534
 1425SOL    HW215909   4.379   2.045   1.831  0.4661  0.0343 -0.0042
 1426SOL     OW15910   3.344   1.418   1.598  0.3808 -0.0143 -0.4790
 1426SOL    HW115911   3.357   1.331   1.561 -0.8622 -0.4245  0.0546
 1426SOL    HW215912   3.421   1.422   1.654 -0.8853 -1.1391  1.3240
 1427SOL     OW15913   2.447   2.608   6.478 -0.1055  0.4121  0.0280
 1427SOL    HW115914   2.395   2.532   6.457 -2.4401  2.3859 -1.3014
 1427SOL    HW215915   2.530   2.574   6.445 -0.2095 -1.6385  1.8545
 1428SOL     OW15916   1.093   0.385   1.795 -0.0526  0.3525 -0.1144
 1428SOL    HW115917   1.039   0.312   1.827 -0.9248  0.9782 -0.1569
 1428SOL    HW215918   1.089   0.451   1.864  1.4718 -0.0968  0.4100
 1429SOL     OW15919   1.248   2.140   0.773  0.7024 -0.4684  0.0116
 1429SOL    HW115920   1.178   2.075   0.766  1.1171 -1.0299  1.0654
 1429SOL    HW215921   1.230   2.194   0.696  3.8161  0.2987 -0.1634
 1430SOL     OW15922   3.544   2.125   4.391  0.0775  0.5148 -0.1874
 1430SOL    HW115923   3.520   2.128   4.298 -0.6587 -0.8163 -0.0492
 1430SOL    HW215924   3.596   2.205   4.399  2.3869 -1.0412  0.4521
 1431SOL     OW15925   2.377   1.480   6.471 -0.0123  0.3468 -0.1357
 1431SOL    HW115926   2.472   1.487   6.460  0.0224 -2.7029 -1.9123
 1431SOL    HW215927   2.378   1.385   6.486  1.0852 -0.2591 -3.9420
 1432SOL     OW15928   0.105   0.088   1.824  0.7199  0.0391 -0.0589
 1432SOL    HW115929   0.017   0.087   1.863  1.5068 -0.2292  1.7344
 1432SOL    HW215930   0.078   0.056   1.738  1.6866 -0.9461  0.0060
 1433SOL     OW15931   0.033   2.858  12.868 -0.1372  0.0434  0.3939
 1433SOL    HW115932   0.053   2.818  12.784 -0.4545 -0.1423  0.4062
 1433SOL    HW215933   0.123   2.876  12.897  0.9675 -2.3748 -1.6207
 1434SOL     OW15934   3.289   0.041   8.878  0.1014  0.6408  0.0225
 1434SOL    HW115935   3.360   0.083   8.830  0.4223  0.3221  0.2163
 1434SOL    HW215936   3.306   0.084   8.962 -0.3007  2.1374 -0.6660
 1435SOL     OW15937   0.379   2.766   8.691 -0.0557 -0.2159 -0.5050
 1435SOL    HW115938   0.389   2.697   8.757 -1.7807  1.5109  1.5469
 1435SOL    HW215939   0.284   2.770   8.700 -0.0987  1.7064 -1.9064
 1436SOL     OW15940   1.088   2.581  14.670 -0.2429  0.3741  0.0626
 1436SOL    HW115941   1.124   2.580  14.758  2.9895 -0.5202 -1.2571
 1436SOL    HW215942   1.061   2.493  14.647  1.1800 -0.0456  0.0213
 1437SOL     OW15943   2.742   3.460   5.085 -0.2329  0.1825 -0.2511
 1437SOL    HW115944   2.748   3.497   5.173  1.1049 -1.5977  0.4003
 1437SOL    HW215945   2.829   3.433   5.058  0.4593  0.5195  1.6185
 1438SOL     OW15946   2.067   2.143   3.095  0.4049 -0.8514  0.1748
 1438SOL    HW115947   2.051   2.125   3.002 -0.4141 -0.9039  0.3273
 1438SOL    HW215948   2.139   2.081   3.109 -0.3635 -2.2921 -2.0736
 1439SOL     OW15949   3.410   2.485   8.269  0.1097  0.3065 -0.0579
 1439SOL    HW115950   3.336   2.437   8.233 -0.0355 -0.9632  1.9903
 1439SOL    HW215951   3.368   2.560   8.312 -1.8070 -0.8701  0.1233
 1440SOL     OW15952   0.134   2.695   9.053  0.2519 -0.5193 -0.1578
 1440SOL    HW115953   0.093   2.639   8.988  2.4787 -0.2521 -1.7933
 1440SOL    HW215954   0.225   2.668   9.054  0.6573  0.8510  0.1037
 1441SOL     OW15955   2.455   4.158   2.897  0.4847 -0.2379 -0.2554
 1441SOL    HW115956   2.471   4.121   2.983 -0.1446  0.9759  0.3801
 1441SOL    HW215957   2.545   4.139   2.872 -0.0392 -1.4582 -1.2591
 1442SOL     OW15958   0.243   2.345   7.298  0.6083  0.9313 -0.0858
 1442SOL    HW115959   0.294   2.323   7.220 -0.8788  3.8786 -1.8869
 1442SOL    HW215960   0.272   2.275   7.357 -1.7781  0.3575  0.4115
 1443SOL     OW15961   4.220   2.751   3.746  0.0694 -0.5410  0.1269
 1443SOL    HW115962   4.172   2.737   3.827 -1.2559  1.2688 -0.3284
 1443SOL    HW215963   4.243   2.661   3.722  0.4569  0.5692 -3.7092
 1444SOL     OW15964   4.123   0.879   3.119 -0.1187 -0.7182  0.0288
 1444SOL    HW115965   4.153   0.788   3.116 -0.1169 -0.6201 -2.7510
 1444SOL    HW215966   4.036   0.864   3.157 -1.3129  2.0808 -1.5916
 1445SOL     OW15967   0.816   4.362   1.454 -0.1992 -0.0542 -0.2134
 1445SOL    HW115968   0.838   4.415   1.378  0.9468  1.0243  0.8660
 1445SOL    HW215969   0.769   4.425   1.509 -0.3276 -3.9500  4.1148
 1446SOL     OW15970   1.262   0.789   4.442 -0.6315  0.6544  0.8641
 1446SOL    HW115971   1.222   0.704   4.428  0.0505  0.6527 -1.1180
 1446SOL    HW215972   1.340   0.784   4.387 -1.7662 -0.2547 -0.6736
 1447SOL     OW15973   1.640   1.948   7.722  0.4655 -0.4923 -0.9366
 1447SOL    HW115974   1.680   1.864   7.747  0.6142 -0.3385 -0.6563
 1447SOL    HW215975   1.545   1.939   7.727  0.6554 -2.1841 -0.1801
 1448SOL     OW15976   3.672   3.868   4.286  0.3323  0.3504 -0.2483
 1448SOL    HW115977   3.642   3.954   4.256 -1.2492 -0.1242 -0.0402
 1448SOL    HW215978   3.721   3.840   4.209  0.8986 -1.4052  0.7733
 1449SOL     OW15979   4.350   1.859  11.487  0.2408  0.1002  0.1043
 1449SOL    HW115980   4.261   1.824  11.476  0.1675  1.5835 -4.1256
 1449SOL    HW215981   4.369   1.868  11.394  0.2192 -0.8769 -0.0043
 1450SOL     OW15982   4.408   3.235   4.258  0.5656 -0.1855 -0.0357
 1450SOL    HW115983   4.447   3.151   4.235  0.2116 -0.2274 -0.5135
 1450SOL    HW215984   4.314   3.223   4.241  0.5689  2.4679 -1.9029
 1451SOL     OW15985   2.795   4.053   8.205  0.3081  0.4201  0.1244
 1451SOL    HW115986   2.764   3.993   8.273 -0.9743  1.1747  0.1999
 1451SOL    HW215987   2.772   4.002   8.127  3.5402 -0.9618  0.0887
 1452SOL     OW15988   3.411   0.012   5.319 -0.0455 -0.7596 -0.2763
 1452SOL    HW115989   3.326   0.055   5.329  0.5305  0.7710 -1.8138
 1452SOL    HW215990   3.459   0.044   5.395 -1.9481  0.7492  0.2976
 1453SOL     OW15991   2.754   4.245   4.199  0.7006 -0.2289  0.1496
 1453SOL    HW115992   2.726   4.193   4.275 -1.5485  1.3054  0.3584
 1453SOL    HW215993   2.706   4.205   4.126  2.5827  0.2451 -1.3243
 1454SOL     OW15994   0.331   0.186   5.510  0.7107  0.0633 -0.3586
 1454SOL    HW115995   0.329   0.275   5.547  2.7821  0.4919 -1.3081
 1454SOL    HW215996   0.347   0.134   5.588 -0.3744 -2.3872 -1.7772
 1455SOL     OW15997   4.494   0.925   6.574 -0.1872 -0.8729 -0.7675
 1455SOL    HW115998   4.589   0.920   6.571 -0.0332  0.8657  1.0451
 1455SOL    HW215999   4.480   1.020   6.577 -0.4599 -0.9837  1.6914
 1456SOL     OW16000   3.831   4.357   5.054 -0.2871  0.0948 -0.0628
 1456SOL    HW116001   3.858   4.386   5.141 -0.4794  1.8004 -0.5552
 1456SOL    HW216002   3.877   4.422   4.999  0.5327  0.5455  1.1657
 1457SOL     OW16003   2.002   4.140   1.925 -0.4055 -0.7103  0.4106
 1457SOL    HW116004   2.028   4.115   1.837 -1.9776  0.1540 -0.2979
 1457SOL    HW216005   2.052   4.221   1.937 -2.3968  0.4151  1.1541
 1458SOL     OW16006   4.460   3.879   7.210 -0.0845  0.1796 -0.2450
 1458SOL    HW116007   4.435   3.929   7.288 -0.5012 -0.1061 -0.1993
 1458SOL    HW216008   4.542   3.843   7.244 -0.7873  0.8005  2.0882
 1459SOL     OW16009   1.327   0.139   9.474 -0.6269  0.5353 -0.6781
 1459SOL    HW116010   1.401   0.084   9.448  0.9097  2.3836 -0.1928
 1459SOL    HW216011   1.345   0.172   9.562 -1.8948  0.6092 -0.4393
 1460SOL     OW16012   2.694   2.993   5.322 -0.2679  0.2972  0.5471
 1460SOL    HW116013   2.750   2.920   5.347 -2.0559 -1.5114 -0.7022
 1460SOL    HW216014   2.717   3.005   5.230  1.8370 -0.0997  1.0168
 1461SOL     OW16015   3.309   2.619  13.540 -0.1044 -0.0491  0.6192
 1461SOL    HW116016   3.364   2.640  13.465 -2.1587  0.6194 -0.6954
 1461SOL    HW216017   3.236   2.674  13.512  0.6167  0.8043  0.4343
 1462SOL     OW16018   3.205   4.029   1.621  0.3258 -0.9357  0.1807
 1462SOL    HW116019   3.163   3.958   1.670  0.9802 -2.0675 -0.9192
 1462SOL    HW216020   3.276   4.046   1.683 -0.5073 -0.3609  0.9941
 1463SOL     OW16021   1.679   0.092   6.637 -0.3019 -0.3857  0.7644
 1463SOL    HW116022   1.651   0.184   6.639 -0.1432 -0.3672  1.8544
 1463SOL    HW216023   1.602   0.037   6.650  0.0630 -0.9983  0.2878
 1464SOL     OW16024   1.213   0.134  16.278 -0.3602  0.6784  0.0281
 1464SOL    HW116025   1.275   0.183  16.223 -0.9893 -1.1693 -2.2853
 1464SOL    HW216026   1.132   0.182  16.260 -2.4686 -2.6919  0.6666
 1465SOL     OW16027   1.565   1.832   3.346 -0.0893 -0.2319 -0.3660
 1465SOL    HW116028   1.576   1.913   3.296  1.5262  0.5272  1.2245
 1465SOL    HW216029   1.621   1.848   3.422  0.5858 -0.4286 -0.8284
 1466SOL     OW16030   1.434   0.292   4.967  0.3326  0.4359  0.1414
 1466SOL    HW116031   1.387   0.354   4.912 -0.4460 -0.4780 -0.2133
 1466SOL    HW216032   1.512   0.344   4.986  1.5764 -1.1999 -0.5841
 1467SOL     OW16033   1.300   1.536   1.381 -0.1596 -0.3080  0.5124
 1467SOL    HW116034   1.254   1.507   1.302  1.1138  2.0092 -1.0766
 1467SOL    HW216035   1.258   1.494   1.456 -1.5799 -1.4065 -0.8909
 1468SOL     OW16036   2.207   3.945   2.014  0.3059  0.1101 -0.2079
 1468SOL    HW116037   2.299   3.943   1.989  0.3615  0.0899 -0.0042
 1468SOL    HW216038   2.167   4.031   2.000 -0.7685 -0.4187 -0.4015
 1469SOL     OW16039   1.335   0.060   5.080 -0.0181  0.2296  0.1701
 1469SOL    HW116040   1.362   0.147   5.051  1.6740  0.3013  1.9299
 1469SOL    HW216041   1.276   0.087   5.151  0.5239 -0.3619  0.8426
 1470SOL     OW16042   0.108   2.427   4.623  0.0108  0.0097 -0.1378
 1470SOL    HW116043   0.166   2.358   4.590  2.7144  2.3449 -0.3631
 1470SOL    HW216044   0.117   2.430   4.718  1.2759  0.2703 -0.2601
 1471SOL     OW16045   4.226   3.576   4.238  0.0757 -0.4066 -0.5104
 1471SOL    HW116046   4.207   3.482   4.250  1.6505 -1.0815 -3.3561
 1471SOL    HW216047   4.264   3.587   4.325 -2.8823 -1.9542  0.9681
 1472SOL     OW16048   1.169   2.202   3.695  0.0553  0.2599 -0.2423
 1472SOL    HW116049   1.123   2.133   3.743  0.8265  0.6654  1.0752
 1472SOL    HW216050   1.241   2.152   3.657 -0.1350  0.6545 -1.1287
 1473SOL     OW16051   4.215   3.977   3.947 -0.7327  0.3364 -0.1490
 1473SOL    HW116052   4.217   3.930   4.030 -1.6679 -1.8093 -1.3427
 1473SOL    HW216053   4.205   4.064   3.987 -0.5706  0.6402 -0.7629
 1474SOL     OW16054   1.774   0.505   3.491  0.1083 -0.4083  0.0903
 1474SOL    HW116055   1.777   0.444   3.417 -0.0693  0.7262 -0.8623
 1474SOL    HW216056   1.816   0.582   3.452 -1.6053 -0.4836 -1.9458
 1475SOL     OW16057   1.290   3.996  14.346  0.6236 -0.0453 -0.1010
 1475SOL    HW116058   1.201   4.015  14.316  1.0224  1.6585 -0.1948
 1475SOL    HW216059   1.273   3.913  14.390  3.1568 -0.1661  0.6717
 1476SOL     OW16060   4.597   1.618   4.078  0.2995 -0.1478  0.1929
 1476SOL    HW116061   4.644   1.558   4.136  1.0316 -0.1617 -0.4068
 1476SOL    HW216062   4.656   1.692   4.065 -1.3067  1.0145 -0.4644
 1477SOL     OW16063   4.610   3.794   7.729 -0.7145  0.3061 -0.4700
 1477SOL    HW116064   4.672   3.772   7.659 -1.2142  0.0586 -0.8315
 1477SOL    HW216065   4.524   3.805   7.689 -0.0394  1.6918 -1.5460
 1478SOL     OW16066   2.069   3.886   9.165  0.0619  0.1279  0.3466
 1478SOL    HW116067   2.006   3.855   9.100 -0.0870  1.1098  0.0191
 1478SOL    HW216068   2.112   3.948   9.105 -0.4352 -1.7074 -1.9315
 1479SOL     OW16069   4.384   2.802   2.522  0.3659 -0.0881  0.1227
 1479SOL    HW116070   4.345   2.889   2.511  0.6061 -0.3670 -2.8630
 1479SOL    HW216071   4.309   2.750   2.551  0.8177  0.2548  1.9245
 1480SOL     OW16072   0.874   3.909   2.910 -0.1442  0.2237  0.0912
 1480SOL    HW116073   0.870   3.945   2.821 -0.9794  1.1452  0.5062
 1480SOL    HW216074   0.965   3.917   2.938  0.3251 -2.6583 -0.5789
 1481SOL     OW16075   2.079   1.961   5.986 -0.1470 -0.0584 -0.4336
 1481SOL    HW116076   2.018   1.912   6.042 -1.2176  1.6497 -0.0966
 1481SOL    HW216077   2.112   2.030   6.044 -2.8388  1.4036 -0.6204
 1482SOL     OW16078   3.156   4.041   7.892  0.1671 -0.1092 -0.1213
 1482SOL    HW116079   3.067   4.061   7.864  0.6540 -0.1675 -1.7541
 1482SOL    HW216080   3.149   3.949   7.915  2.1206 -0.4274 -0.7866
 1483SOL     OW16081   4.590   2.925   6.380 -0.4097  0.2301 -0.2011
 1483SOL    HW116082   4.581   2.987   6.452 -0.6604  0.8336 -0.7487
 1483SOL    HW216083   4.515   2.871   6.402  1.1363 -2.0236 -0.4074
 1484SOL     OW16084   4.669   2.468  16.647  0.8208  0.4857 -0.2594
 1484SOL    HW116085   4.617   2.535  16.691  0.2582  0.3149 -0.6570
 1484SOL    HW216086   4.724   2.444  16.721 -1.1678 -0.7477  0.8166
 1485SOL     OW16087   2.499   0.694   7.900  0.4090 -0.3549  0.2331
 1485SOL    HW116088   2.588   0.673   7.872  0.8701 -0.0956  1.5239
 1485SOL    HW216089   2.516   0.783   7.931 -0.5976  0.0646 -0.4041
 1486SOL     OW16090   2.032   4.509   8.765  0.1167 -0.7176  0.0023
 1486SOL    HW116091   2.116   4.468   8.782  0.0531 -0.9661 -0.2892
 1486SOL    HW216092   2.004   4.478   8.679 -0.4544 -1.4485  0.4502
 1487SOL     OW16093   0.800   4.010   3.985  0.0605 -0.6074 -0.0982
 1487SOL    HW116094   0.759   3.983   4.067  3.5739  0.3695  1.9543
 1487SOL    HW216095   0.865   4.075   4.012  0.0044  0.8393 -3.3807
 1488SOL     OW16096   1.303   3.181   6.512 -0.1117  0.0787 -0.0185
 1488SOL    HW116097   1.335   3.102   6.466 -1.8723 -0.0423 -1.0365
 1488SOL    HW216098   1.222   3.139   6.541  1.1784 -1.5920  1.1680
 1489SOL     OW16099   0.446   1.550   2.189 -0.1986  0.5717  0.7001
 1489SOL    HW116100   0.424   1.459   2.167 -2.2800  1.3912 -0.6031
 1489SOL    HW216101   0.518   1.552   2.126 -0.4752 -1.1851  0.3269
 1490SOL     OW16102   3.429   0.727   7.237 -0.4139  0.0434  0.4174
 1490SOL    HW116103   3.478   0.805   7.262  1.3431 -0.9393  0.0527
 1490SOL    HW216104   3.495   0.661   7.257 -1.1584 -0.1851  2.1080
 1491SOL     OW16105   0.783   3.681   8.220 -0.1354  0.2835  0.2500
 1491SOL    HW116106   0.748   3.749   8.277 -1.4463  0.5255 -0.8287
 1491SOL    HW216107   0.739   3.601   8.250 -0.3556  0.5885  0.7270
 1492SOL     OW16108   4.630   0.606   9.829  0.1258 -0.5472 -0.2032
 1492SOL    HW116109   4.564   0.665   9.865  1.2774  0.7536 -0.2610
 1492SOL    HW216110   4.580   0.524   9.829  1.9001 -1.6200  4.1172
 1493SOL     OW16111   3.080   0.456  11.786  0.1833  0.0923  0.0490
 1493SOL    HW116112   3.151   0.504  11.830 -0.8938  1.0784  0.6870
 1493SOL    HW216113   3.128   0.407  11.720  0.6656 -0.8883  1.1278
 1494SOL     OW16114   0.963   0.330  12.290  0.0638 -0.1461  0.1414
 1494SOL    HW116115   0.900   0.280  12.342  0.1809  0.0416  0.4707
 1494SOL    HW216116   1.018   0.361  12.363  1.0489 -0.3805 -0.5093
 1495SOL     OW16117   1.446   0.191  15.696  0.4454 -0.5280 -0.2617
 1495SOL    HW116118   1.495   0.254  15.643 -2.9925  0.8933 -1.7242
 1495SOL    HW216119   1.419   0.253  15.763 -3.2154 -2.7843  0.3470
 1496SOL     OW16120   0.885   2.687   1.488 -0.3152 -0.0673  0.7834
 1496SOL    HW116121   0.810   2.653   1.538 -0.4621  1.0151  1.2905
 1496SOL    HW216122   0.847   2.687   1.401  0.5217  0.1021  0.4147
 1497SOL     OW16123   4.230   0.062   1.744 -0.5892  0.2120  0.3196
 1497SOL    HW116124   4.298   4.735   1.721  0.5165  1.5091  0.0260
 1497SOL    HW216125   4.161   0.026   1.689 -0.4387 -2.4331  1.8627
 1498SOL     OW16126   0.182   0.845   3.386  0.4396  0.3207 -0.1660
 1498SOL    HW116127   0.139   0.778   3.333  0.2915  1.8592 -1.9873
 1498SOL    HW216128   0.122   0.869   3.456 -1.2906  0.8087 -1.8012
 1499SOL     OW16129   4.117   4.630  10.259  0.1745  0.5569  0.2871
 1499SOL    HW116130   4.198   4.579  10.251  0.5800  1.1009  0.9187
 1499SOL    HW216131   4.127   4.668  10.347 -0.9462  0.6986  0.3466
 1500SOL     OW16132   2.825   4.697   4.500 -0.0268 -0.1803 -0.6145
 1500SOL    HW116133   2.907   4.651   4.483  0.5744 -0.3187  2.5928
 1500SOL    HW216134   2.855   0.039   4.549 -1.6345 -0.3663  0.6653
 1501SOL     OW16135   2.960   0.458   7.632 -0.1300 -0.0499  0.0347
 1501SOL    HW116136   2.925   0.545   7.614  1.2893  0.5972  0.4651
 1501SOL    HW216137   3.022   0.472   7.703  0.1042  0.0100 -0.1814
 1502SOL     OW16138   1.020   4.136  10.354  0.6241 -0.3004  0.5135
 1502SOL    HW116139   0.992   4.223  10.380 -0.3841 -0.6559  0.6217
 1502SOL    HW216140   1.008   4.085  10.434  2.7771  0.5465  1.3559
 1503SOL     OW16141   3.759   1.136   1.653  0.0106 -0.7775 -0.1722
 1503SOL    HW116142   3.840   1.169   1.614  0.1386  1.6269  2.1688
 1503SOL    HW216143   3.767   1.041   1.643 -0.4408 -1.0713  2.3095
 1504SOL     OW16144   0.819   1.492  12.017  0.6290 -0.8079  0.3007
 1504SOL    HW116145   0.776   1.406  12.011 -2.2909  0.6411  0.2860
 1504SOL    HW216146   0.895   1.474  11.962  0.1961 -1.9323  0.0688
 1505SOL     OW16147   4.442   4.148   7.797 -0.0535  0.3553 -0.3965
 1505SOL    HW116148   4.461   4.143   7.890  1.1753 -1.1714 -0.7267
 1505SOL    HW216149   4.497   4.213   7.755 -0.1326 -0.2801 -1.4896
 1506SOL     OW16150   4.335   4.181   6.822  0.0120 -0.1935 -0.1739
 1506SOL    HW116151   4.419   4.207   6.783  0.4180 -0.5399  0.4646
 1506SOL    HW216152   4.368   4.102   6.865  0.9299 -0.6141 -1.6503
 1507SOL     OW16153   1.291   3.874   6.164  0.5089  0.0159  0.3075
 1507SOL    HW116154   1.305   3.937   6.093 -0.2571 -3.1052 -2.6736
 1507SOL    HW216155   1.301   3.791   6.116 -1.8118  0.0544 -0.2343
 1508SOL     OW16156   1.552   0.253   5.783 -0.0698  0.0244 -0.1824
 1508SOL    HW116157   1.609   0.179   5.763 -1.0884 -0.7191 -0.2868
 1508SOL    HW216158   1.581   0.331   5.735  0.4519  0.2340  0.4584
 1509SOL     OW16159   0.483   0.275  16.876 -0.1204  0.0343 -0.2389
 1509SOL    HW116160   0.480   0.369  16.896  0.4791 -0.3429  1.6269
 1509SOL    HW216161   0.466   0.238  16.962  0.5502 -3.6446 -1.6900
 1510SOL     OW16162   1.591   1.791   2.056  0.3778  0.5041 -0.6861
 1510SOL    HW116163   1.534   1.858   2.095 -1.3343 -2.1381  1.3015
 1510SOL    HW216164   1.589   1.814   1.962 -1.2763 -1.0992 -1.0252
 1511SOL     OW16165   0.555   4.685   8.657  0.0555 -0.5221 -0.2550
 1511SOL    HW116166   0.535   4.665   8.565  0.2097 -0.4226 -0.3085
 1511SOL    HW216167   0.482   4.636   8.694  0.5311 -2.5562 -2.0143
 1512SOL     OW16168   2.909   3.205  13.516 -0.5319  0.0755 -0.1310
 1512SOL    HW116169   2.987   3.242  13.559  0.0674  1.3616 -2.3414
 1512SOL    HW216170   2.936   3.219  13.426  1.7857 -2.0559  0.2538
 1513SOL     OW16171   2.616   4.006  15.118 -0.2434 -0.0490 -0.3910
 1513SOL    HW116172   2.535   4.052  15.097 -0.4726  0.2908  1.1923
 1513SOL    HW216173   2.579   3.919  15.106  0.1999 -0.5613  1.8088
 1514SOL     OW16174   1.330   1.639  14.644 -0.6326  0.7649  0.1542
 1514SOL    HW116175   1.244   1.679  14.657  0.0914  2.7209 -1.1083
 1514SOL    HW216176   1.370   1.654  14.730 -0.1504  0.4708 -0.0201
 1515SOL     OW16177   2.621   3.395   8.992 -0.3564  0.3312  0.0668
 1515SOL    HW116178   2.554   3.460   9.017 -1.2563  0.2298 -2.0946
 1515SOL    HW216179   2.640   3.402   8.899  0.8088  0.1434  0.2979
 1516SOL     OW16180   1.760   2.434   2.653 -0.1471 -0.1076  0.2617
 1516SOL    HW116181   1.786   2.523   2.677  1.0928 -1.1201  2.5866
 1516SOL    HW216182   1.797   2.369   2.712 -0.5179  0.9662  1.6622
 1517SOL     OW16183   2.588   1.412  11.565  0.0732 -0.8346  0.2050
 1517SOL    HW116184   2.604   1.329  11.521  0.3759 -1.5617  1.6803
 1517SOL    HW216185   2.634   1.478  11.513 -2.2112  1.2195  0.7679
 1518SOL     OW16186   0.717   1.091  13.935 -0.3280 -0.2188  0.3644
 1518SOL    HW116187   0.762   1.169  13.902  1.6178  0.0123  3.6041
 1518SOL    HW216188   0.792   1.064  13.989 -1.1599  0.5864  1.9074
 1519SOL     OW16189   0.647   4.396   6.838  0.3683 -0.0816  0.1157
 1519SOL    HW116190   0.628   4.478   6.791 -1.9614 -0.7201 -0.0813
 1519SOL    HW216191   0.579   4.341   6.799  0.6604 -1.0636  0.9977
 1520SOL     OW16192   4.614   1.087  17.201  0.5157 -0.1376 -0.2519
 1520SOL    HW116193   4.685   1.071  17.138  1.8085  0.0937  1.1450
 1520SOL    HW216194   4.603   0.998  17.233 -0.7898  0.2213  0.2965
 1521SOL     OW16195   4.103   1.773   0.769 -0.1951  0.3604 -0.3485
 1521SOL    HW116196   4.137   1.836   0.833 -0.2989 -0.9301  0.9540
 1521SOL    HW216197   4.034   1.735   0.822 -0.4608  2.1054  0.5696
 1522SOL     OW16198   1.930   3.855   6.749 -0.1699  0.2355 -0.4888
 1522SOL    HW116199   1.899   3.922   6.810 -0.7894 -0.0027 -0.5496
 1522SOL    HW216200   2.017   3.835   6.784  1.6279  2.3929 -3.6110
 1523SOL     OW16201   2.687   3.392   4.258  0.1921  0.1208 -0.1439
 1523SOL    HW116202   2.780   3.368   4.253  0.3047  0.8234 -1.3953
 1523SOL    HW216203   2.663   3.338   4.333 -0.1545  0.9414  0.3343
 1524SOL     OW16204   2.050   1.707  10.471 -0.1976 -0.9045 -0.3485
 1524SOL    HW116205   2.051   1.799  10.445  0.5380 -1.0084 -0.6703
 1524SOL    HW216206   1.955   1.704  10.455 -0.5124  0.3870  1.2319
 1525SOL     OW16207   4.413   4.010   3.016  0.3263 -0.1342  0.1288
 1525SOL    HW116208   4.485   4.051   3.064  1.5968 -0.7813 -1.2329
 1525SOL    HW216209   4.448   3.942   2.959 -1.4447 -1.4014  0.5503
 1526SOL     OW16210   2.259   2.566   6.179  0.2830 -0.1974 -0.2637
 1526SOL    HW116211   2.207   2.548   6.258 -2.0175 -0.7432 -1.8938
 1526SOL    HW216212   2.186   2.593   6.123 -0.2744 -1.4381 -0.1409
 1527SOL     OW16213   0.992   4.283   3.031 -0.0334 -0.2064  0.0631
 1527SOL    HW116214   0.956   4.210   2.981  0.4192  0.0906 -0.6943
 1527SOL    HW216215   0.962   4.356   2.976  1.7728  0.3764 -0.1323
 1528SOL     OW16216   3.457   1.790  16.273 -0.2348 -0.3290  0.0923
 1528SOL    HW116217   3.539   1.787  16.323  0.9836 -0.1218 -1.9011
 1528SOL    HW216218   3.443   1.702  16.238  1.7484 -0.7442  0.3294
 1529SOL     OW16219   0.768   1.653   4.545 -0.0589  0.4030  0.2193
 1529SOL    HW116220   0.831   1.710   4.588 -0.1684  0.1643  0.6940
 1529SOL    HW216221   0.796   1.673   4.456 -0.9822 -0.1789 -0.2019
 1530SOL     OW16222   2.979   4.713   4.106 -0.0094  0.3987 -0.0685
 1530SOL    HW116223   2.967   4.618   4.118  1.0920  0.3422  0.5919
 1530SOL    HW216224   2.890   4.726   4.074 -0.8314  1.8015  2.8437
 1531SOL     OW16225   3.519   0.461   1.413  0.0363 -0.2566  0.5305
 1531SOL    HW116226   3.525   0.432   1.322  2.3767  0.3822  0.4884
 1531SOL    HW216227   3.424   0.471   1.421  0.0311  0.4714 -0.3906
 1532SOL     OW16228   2.405   2.301   9.881  0.3647 -0.1845 -0.6298
 1532SOL    HW116229   2.444   2.264   9.801 -1.7349  0.1920 -1.8213
 1532SOL    HW216230   2.432   2.234   9.944  0.4763  0.9429  0.4965
 1533SOL     OW16231   2.009   0.059   8.045  0.7527 -0.4730  0.0352
 1533SOL    HW116232   2.000   0.054   7.950 -0.9480 -1.2461  0.2361
 1533SOL    HW216233   2.040   4.706   8.064  0.2158 -0.9861 -1.4246
 1534SOL     OW16234   2.267   0.017   1.287  0.1120  0.1908 -0.2092
 1534SOL    HW116235   2.290   0.081   1.219 -2.2865  0.8555 -0.3922
 1534SOL    HW216236   2.322   4.680   1.259 -0.1168  0.0014 -0.1643
 1535SOL     OW16237   0.738   0.597   7.039  0.1074  0.2313  0.5182
 1535SOL    HW116238   0.706   0.598   7.129 -1.1485  2.6829  0.0459
 1535SOL    HW216239   0.734   0.692   7.025  2.2266  0.2117 -0.2888
 1536SOL     OW16240   0.184   2.167   3.143  0.1133 -0.1709 -0.0098
 1536SOL    HW116241   0.133   2.234   3.189 -0.5471  0.6479 -1.9391
 1536SOL    HW216242   0.254   2.214   3.099  1.3473 -0.2522  1.8811
 1537SOL     OW16243   2.184   2.943   2.952  0.2235 -0.0667 -0.2345
 1537SOL    HW116244   2.104   2.926   2.904  2.2367 -3.8421 -2.3045
 1537SOL    HW216245   2.183   3.038   2.964 -0.8125 -0.5176  3.2348
 1538SOL     OW16246   2.235   4.303  15.606  0.3664 -0.6685 -0.2082
 1538SOL    HW116247   2.202   4.264  15.524 -0.2516 -0.4646 -0.0620
 1538SOL    HW216248   2.239   4.396  15.587  0.2171 -0.6247 -0.0226
 1539SOL     OW16249   2.501   2.104  10.338 -0.4585  0.3196 -0.4374
 1539SOL    HW116250   2.593   2.118  10.360 -0.7804  0.6368  0.7547
 1539SOL    HW216251   2.464   2.192  10.330  2.3758  1.4685 -0.7758
 1540SOL     OW16252   0.742   4.434   4.990 -0.0983 -0.2741 -0.6843
 1540SOL    HW116253   0.775   4.345   5.002  2.3087  0.5936 -0.7948
 1540SOL    HW216254   0.652   4.425   5.020  0.1169  2.7382  0.8432
 1541SOL     OW16255   1.771   2.292   5.006 -0.4328  0.4530 -0.0384
 1541SOL    HW116256   1.864   2.270   5.001 -0.5646  0.1088 -0.8426
 1541SOL    HW216257   1.735   2.241   4.933  0.1396  2.2540 -1.5837
 1542SOL     OW16258   1.050   0.199   5.933 -0.0964  0.6491  0.2675
 1542SOL    HW116259   1.106   0.227   5.861 -1.5476 -1.0628 -1.5396
 1542SOL    HW216260   1.057   0.104   5.924  2.1111  0.9651 -1.2068
 1543SOL     OW16261   0.849   3.620  10.745  0.1129 -0.1027  0.1419
 1543SOL    HW116262   0.809   3.665  10.820 -1.3870 -1.8930  0.3944
 1543SOL    HW216263   0.887   3.542  10.787 -0.1888 -0.8026 -0.8976
 1544SOL     OW16264   4.437   3.189  15.642  0.0184  0.0907 -0.6100
 1544SOL    HW116265   4.445   3.116  15.581  0.7772  1.9190 -2.7141
 1544SOL    HW216266   4.429   3.143  15.725 -1.0422  1.5074  0.0851
 1545SOL     OW16267   4.523   0.675   2.647 -0.3838  0.7302  0.0572
 1545SOL    HW116268   4.491   0.758   2.610 -1.0799  0.8022  0.8138
 1545SOL    HW216269   4.555   0.707   2.731 -0.9241  1.4310  0.0025
 1546SOL     OW16270   2.920   3.894   5.905  0.9455  0.9294  0.8938
 1546SOL    HW116271   2.957   3.807   5.892 -1.7344 -0.0135 -0.5916
 1546SOL    HW216272   2.992   3.956   5.891  1.7502 -0.0943  0.5542
 1547SOL     OW16273   0.428   3.492   7.776  0.1107  0.0018 -0.2632
 1547SOL    HW116274   0.376   3.531   7.846 -2.0181  0.3860 -2.0373
 1547SOL    HW216275   0.386   3.407   7.762  0.2380 -0.4138  1.9943
 1548SOL     OW16276   2.887   4.556   3.470  0.0965 -0.3281 -0.3027
 1548SOL    HW116277   2.895   4.589   3.560 -0.5381 -0.6855 -0.1099
 1548SOL    HW216278   2.907   4.630   3.413 -1.8367 -0.6903 -1.4713
 1549SOL     OW16279   0.899   3.311   1.891  0.0004 -0.7376 -0.0489
 1549SOL    HW116280   0.855   3.315   1.807  0.6241  0.3965 -0.3154
 1549SOL    HW216281   0.890   3.219   1.917 -0.6616 -0.6338  0.0977
 1550SOL     OW16282   0.972   3.687   5.034 -0.1197 -0.3315  0.3832
 1550SOL    HW116283   0.984   3.762   5.092 -2.9758  0.7574 -0.3942
 1550SOL    HW216284   0.876   3.681   5.040 -0.1414  0.8336  1.2123
 1551SOL     OW16285   0.628   1.472  11.334 -0.1491  0.1788  0.1399
 1551SOL    HW116286   0.559   1.484  11.399 -0.3940 -2.2450  0.3430
 1551SOL    HW216287   0.708   1.459  11.385  0.6293 -1.6562 -1.5270
 1552SOL     OW16288   3.984   2.055   6.770 -0.2030  0.1129 -0.3113
 1552SOL    HW116289   3.909   2.115   6.772 -0.5520 -0.3919  1.6333
 1552SOL    HW216290   4.009   2.060   6.862 -0.7276 -0.0705 -0.1568
 1553SOL     OW16291   3.051   1.449   3.314  0.2972 -0.1920  0.8149
 1553SOL    HW116292   2.972   1.414   3.355  0.6895 -0.6499  1.1720
 1553SOL    HW216293   3.120   1.452   3.380 -2.8066 -0.9735  4.1039
 1554SOL     OW16294   1.768   2.876  11.141 -1.1026  0.1207 -0.3287
 1554SOL    HW116295   1.770   2.791  11.185 -0.5302  1.0323  1.4455
 1554SOL    HW216296   1.751   2.839  11.055  1.9532  0.8217 -1.2554
 1555SOL     OW16297   0.711   4.347   3.377  0.2989 -0.0466 -0.5045
 1555SOL    HW116298   0.728   4.409   3.306  1.7931  0.5845  0.3996
 1555SOL    HW216299   0.724   4.267   3.326  1.4140 -1.4599  2.0028
 1556SOL     OW16300   1.361   2.626   7.401 -0.8619  0.1435  0.0213
 1556SOL    HW116301   1.319   2.608   7.485 -2.2302  0.0100 -0.6942
 1556SOL    HW216302   1.342   2.544   7.355 -1.7086  1.3818 -1.8424
 1557SOL     OW16303   1.425   0.347  14.705 -0.2475  0.4932  0.4401
 1557SOL    HW116304   1.389   0.351  14.616  0.5548 -0.9669  0.0569
 1557SOL    HW216305   1.439   0.441  14.718  0.1834  0.3905  0.7199
 1558SOL     OW16306   4.188   4.658  10.631 -0.1119 -0.5019  0.1872
 1558SOL    HW116307   4.279   4.634  10.652 -1.2192 -2.3179  2.9803
 1558SOL    HW216308   4.155   4.571  10.611  0.2352 -0.0630 -2.2866
 1559SOL     OW16309   2.387   0.492   7.527 -0.0670  0.4161 -0.2230
 1559SOL    HW116310   2.331   0.449   7.462  1.6971  0.7391 -1.9311
 1559SOL    HW216311   2.322   0.551   7.565 -0.6369  0.9640 -2.1041
 1560SOL     OW16312   0.420   3.222  14.055 -0.3347 -0.5263 -0.2886
 1560SOL    HW116313   0.376   3.197  13.974 -1.4289 -1.0009  0.4541
 1560SOL    HW216314   0.426   3.315  14.035  0.1381 -0.1680  1.4858
 1561SOL     OW16315   0.639   3.419  16.545 -0.3875 -0.0845  0.5526
 1561SOL    HW116316   0.572   3.403  16.478  0.2623  0.4106 -0.2163
 1561SOL    HW216317   0.724   3.411  16.501 -0.2227 -1.3910  1.1071
 1562SOL     OW16318   1.327   3.082   7.457 -0.0434  0.3909  0.5763
 1562SOL    HW116319   1.397   3.041   7.405 -0.4788  0.0866  0.2349
 1562SOL    HW216320   1.260   3.113   7.397 -1.5150 -1.0066  1.4959
 1563SOL     OW16321   1.107   1.036   7.428  0.0744  0.2389  0.5083
 1563SOL    HW116322   1.081   0.949   7.397 -1.4691  1.3044 -1.1408
 1563SOL    HW216323   1.200   1.024   7.447  0.5803  0.9744 -1.5500
 1564SOL     OW16324   3.038   3.962   3.989  0.3869 -0.5857 -0.4695
 1564SOL    HW116325   3.099   4.033   3.973 -0.4525 -0.0529 -1.3372
 1564SOL    HW216326   3.057   3.902   3.917  1.4053  0.7697 -1.3236
 1565SOL     OW16327   1.682   3.929   2.219 -0.3107 -0.7588  0.0678
 1565SOL    HW116328   1.710   3.908   2.308  0.0776 -1.1657 -0.1545
 1565SOL    HW216329   1.631   3.850   2.203 -0.1551 -0.9363  0.4590
 1566SOL     OW16330   0.039   2.716   7.923  0.0136  0.3277 -0.4302
 1566SOL    HW116331   4.694   2.766   7.912 -0.1293 -0.0921 -1.3138
 1566SOL    HW216332   0.102   2.788   7.923 -0.4089  0.6965 -0.3469
 1567SOL     OW16333   3.505   3.921   5.590 -0.4367 -0.1727 -0.3421
 1567SOL    HW116334   3.442   3.897   5.522 -0.0522 -2.3323  0.0499
 1567SOL    HW216335   3.580   3.938   5.533 -0.5051 -1.1673 -0.7329
 1568SOL     OW16336   4.708   3.366   2.250 -0.7187  0.0638  0.0485
 1568SOL    HW116337   4.641   3.428   2.222  0.1688  1.6155  1.3978
 1568SOL    HW216338   0.057   3.407   2.228 -1.1125  0.7030 -0.2686
 1569SOL     OW16339   3.110   0.569   4.683  0.3190  0.8121  0.3140
 1569SOL    HW116340   3.095   0.535   4.595  1.1054  1.5270 -0.0978
 1569SOL    HW216341   3.176   0.636   4.666  0.1119  0.6578 -1.0755
 1570SOL     OW16342   1.584   0.038   8.262 -0.0423  0.0278  0.8003
 1570SOL    HW116343   1.599   4.707   8.329  1.4253 -1.1114 -0.6580
 1570SOL    HW216344   1.574   4.721   8.183 -0.5264  0.7343  0.3913
 1571SOL     OW16345   3.541   2.671   2.713  0.2697  0.4947  0.1584
 1571SOL    HW116346   3.597   2.621   2.653  0.6904 -0.3042  1.2129
 1571SOL    HW216347   3.471   2.703   2.657 -1.0433 -0.3436  1.3411
 1572SOL     OW16348   0.253   2.124   0.454 -0.4289  0.2298 -0.0601
 1572SOL    HW116349   0.203   2.092   0.379 -0.1663  1.7777 -0.9183
 1572SOL    HW216350   0.243   2.219   0.444 -0.3355  0.5444  2.9861
 1573SOL     OW16351   1.961   4.086   9.334  0.2515  0.0599  0.2776
 1573SOL    HW116352   2.040   4.130   9.305 -1.5418  1.2775 -2.7100
 1573SOL    HW216353   1.964   4.007   9.280 -1.8717 -0.8242  1.4135
 1574SOL     OW16354   3.628   4.252   4.903  0.6095  0.4526 -0.3100
 1574SOL    HW116355   3.701   4.295   4.946  0.1820  1.5731 -0.6974
 1574SOL    HW216356   3.565   4.323   4.886  1.9341  1.9323  1.0042
 1575SOL     OW16357   2.156   3.551   8.441 -0.7693 -0.2651  0.2988
 1575SOL    HW116358   2.191   3.467   8.469  5.4055  1.7467 -1.3819
 1575SOL    HW216359   2.165   3.591   8.528 -2.5708 -2.1194  1.3375
 1576SOL     OW16360   2.067   3.605   5.929 -0.1576 -0.0025 -0.3121
 1576SOL    HW116361   1.977   3.640   5.929  0.4976  1.7065 -3.0188
 1576SOL    HW216362   2.064   3.534   5.993  0.1985  0.3304  0.0754
 1577SOL     OW16363   2.281   4.555  15.534  0.2926  0.2112  0.2944
 1577SOL    HW116364   2.352   4.590  15.481 -0.6466 -0.6134 -1.4915
 1577SOL    HW216365   2.208   4.617  15.525 -0.3414 -0.4840  0.6457
 1578SOL     OW16366   3.637   2.472   6.592  0.2095  0.3906 -0.6762
 1578SOL    HW116367   3.555   2.500   6.633  1.4114 -0.8203  2.5561
 1578SOL    HW216368   3.699   2.528   6.640 -0.4046 -0.2278  0.8111
 1579SOL     OW16369   3.541   0.782   9.379  0.0277 -0.5257  0.3105
 1579SOL    HW116370   3.625   0.737   9.390  0.7373  0.7403  0.1326
 1579SOL    HW216371   3.486   0.724   9.325  2.0293 -1.9111 -0.2331
 1580SOL     OW16372   2.111   3.508   5.382 -0.6075  0.0324 -0.5196
 1580SOL    HW116373   2.109   3.516   5.286 -0.4615 -4.3220 -0.8625
 1580SOL    HW216374   2.058   3.588   5.393 -1.3970 -0.2931 -1.9291
 1581SOL     OW16375   1.984   1.686  16.780  0.0139  0.2259 -0.0292
 1581SOL    HW116376   1.948   1.627  16.845 -0.1602  1.0715  0.6402
 1581SOL    HW216377   2.050   1.626  16.746 -1.9425 -0.7786 -2.0661
 1582SOL     OW16378   3.389   3.671   2.704  0.2645 -0.2228  0.0409
 1582SOL    HW116379   3.453   3.715   2.648 -0.3615  1.8987  0.9862
 1582SOL    HW216380   3.429   3.584   2.709  0.5866  0.0794  2.6591
 1583SOL     OW16381   2.107   2.410   2.043 -0.6623 -0.7263  0.0900
 1583SOL    HW116382   2.117   2.395   1.949  0.9977  3.1267 -0.3351
 1583SOL    HW216383   2.198   2.417   2.069 -0.0965 -4.3960 -0.7947
 1584SOL     OW16384   3.076   2.257  16.881 -0.6415 -0.0215  0.4360
 1584SOL    HW116385   3.078   2.332  16.941 -2.1592  0.7841 -0.5511
 1584SOL    HW216386   2.990   2.263  16.840 -0.6053  3.1834  0.8739
 1585SOL     OW16387   0.193   3.445   6.664  0.4705  0.2477  0.2581
 1585SOL    HW116388   0.176   3.539   6.672 -0.6176  0.2233 -1.7036
 1585SOL    HW216389   0.287   3.450   6.649  0.1193 -0.6009 -2.1463
 1586SOL     OW16390   3.091   2.524   5.497 -0.2084 -0.1406  0.0929
 1586SOL    HW116391   3.002   2.548   5.473  0.0048  0.8672  0.3190
 1586SOL    HW216392   3.095   2.555   5.587 -2.7329  1.4983 -0.3784
 1587SOL     OW16393   3.103   2.497   6.656  0.2179  0.3122  0.1868
 1587SOL    HW116394   3.140   2.531   6.575  0.1614 -1.5899 -0.6459
 1587SOL    HW216395   3.017   2.539   6.660  0.0663  0.0498 -0.3339
 1588SOL     OW16396   2.119   1.218   3.449  0.5958 -0.3655  0.7255
 1588SOL    HW116397   2.167   1.265   3.381  0.2554 -1.2757 -0.1409
 1588SOL    HW216398   2.035   1.259   3.427  0.4654 -0.3254  1.3025
 1589SOL     OW16399   2.957   4.399   8.502  0.0006  0.1695 -0.4224
 1589SOL    HW116400   2.983   4.351   8.423 -0.6120 -0.6500 -0.1088
 1589SOL    HW216401   2.885   4.445   8.459  0.1248 -0.7444 -1.6044
 1590SOL     OW16402   3.385   3.075   3.326  0.0295 -0.7825 -0.1697
 1590SOL    HW116403   3.341   3.150   3.365  0.9665  0.7990 -2.1605
 1590SOL    HW216404   3.389   3.012   3.398 -1.4768  1.6874  2.0602
 1591SOL     OW16405   2.472   1.293  16.389 -0.3889  0.0694  0.2632
 1591SOL    HW116406   2.536   1.296  16.461  0.3806 -0.2857 -0.4032
 1591SOL    HW216407   2.508   1.220  16.339  0.6483  0.0035  1.1041
 1592SOL     OW16408   1.353   4.689   1.664  0.4666  0.2795  0.0813
 1592SOL    HW116409   1.368   0.045   1.691 -1.2855  0.2287  1.2131
 1592SOL    HW216410   1.308   4.711   1.583  0.1634  0.9175  0.4191
 1593SOL     OW16411   1.868   0.980  15.877 -0.2536 -0.1396  0.2886
 1593SOL    HW116412   1.871   0.943  15.789  0.7751 -0.2365  0.3642
 1593SOL    HW216413   1.778   0.959  15.904  0.4781 -1.6086  1.6111
 1594SOL     OW16414   4.180   2.652  10.642 -0.3556  0.3071 -0.3950
 1594SOL    HW116415   4.267   2.674  10.609  0.5347 -1.4332  0.7853
 1594SOL    HW216416   4.181   2.679  10.734 -0.1548  0.3332 -0.4047
 1595SOL     OW16417   2.046   2.782   6.657 -0.2686 -0.8783  0.0099
 1595SOL    HW116418   2.024   2.874   6.673  0.2468 -0.7678  0.0546
 1595SOL    HW216419   2.141   2.777   6.664 -0.3594 -0.6248  1.3363
 1596SOL     OW16420   1.402   3.836  13.737  0.9161 -0.1838 -0.1087
 1596SOL    HW116421   1.459   3.864  13.808  0.8200 -0.7154  0.1798
 1596SOL    HW216422   1.369   3.755  13.775 -2.6101  0.6111 -1.4572
 1597SOL     OW16423   2.649   0.694   8.382 -0.3336  0.0735  0.3473
 1597SOL    HW116424   2.561   0.697   8.418 -0.0271  0.6354  1.0434
 1597SOL    HW216425   2.681   0.615   8.425  0.9139  0.9845  1.0904
 1598SOL     OW16426   1.510   2.958   3.746 -0.5630  0.3418  0.5383
 1598SOL    HW116427   1.577   3.027   3.745 -0.3423  0.1047 -0.6909
 1598SOL    HW216428   1.479   2.974   3.835 -1.7401  0.2176  0.1527
 1599SOL     OW16429   1.286   1.970  17.673 -0.3097 -0.1023 -0.5651
 1599SOL    HW116430   1.273   1.929   0.018  0.7276 -3.2069 -1.8996
 1599SOL    HW216431   1.382   1.972  17.670 -0.3506 -0.2220 -1.8274
 1600SOL     OW16432   3.687   1.299   8.442  0.3948  0.0633  0.3346
 1600SOL    HW116433   3.725   1.227   8.392  0.2310 -0.4174  0.9139
 1600SOL    HW216434   3.595   1.276   8.453 -0.0506  0.3566 -2.7201
 1601SOL     OW16435   1.540   0.016   2.172 -0.1390 -0.6225 -0.6642
 1601SOL    HW116436   1.525   0.065   2.091 -1.1238  2.1127  1.1995
 1601SOL    HW216437   1.556   4.665   2.133  1.3857  0.0468 -1.5141
 1602SOL     OW16438   0.021   2.977  13.408  0.3448  0.4151 -0.6057
 1602SOL    HW116439   4.677   3.028  13.394 -0.5399 -0.8379 -0.2545
 1602SOL    HW216440   0.037   2.930  13.326  0.4153 -0.0100 -0.3523
 1603SOL     OW16441   3.325   3.147   7.884 -0.1739  0.1624  0.3859
 1603SOL    HW116442   3.272   3.136   7.805  0.8124  0.4479 -0.3091
 1603SOL    HW216443   3.345   3.055   7.902  0.2508  0.6617  2.5523
 1604SOL     OW16444   3.224   1.716  16.427 -0.3864  0.5086 -0.1186
 1604SOL    HW116445   3.295   1.765  16.385  0.0877 -1.8621 -2.0693
 1604SOL    HW216446   3.274   1.704  16.508 -1.7417  0.9546  0.7734
 1605SOL     OW16447   1.518   4.035  14.778 -0.4505  0.0391 -0.0285
 1605SOL    HW116448   1.457   3.978  14.824 -1.3368  0.6696 -0.4210
 1605SOL    HW216449   1.599   3.993  14.807 -1.0260 -1.9900 -1.3542
 1606SOL     OW16450   3.713   2.055  12.135  0.1542  0.0336  0.1511
 1606SOL    HW116451   3.695   1.973  12.182 -1.2523  0.4669  0.3679
 1606SOL    HW216452   3.750   2.104  12.208 -0.5276  0.9659 -0.1422
 1607SOL     OW16453   1.116   1.428   4.128 -0.2031  0.2150 -0.2374
 1607SOL    HW116454   1.096   1.343   4.167 -0.1090 -0.0426 -0.7535
 1607SOL    HW216455   1.209   1.418   4.107 -0.1330 -3.1004  1.5975
 1608SOL     OW16456   2.148   0.625  15.181 -0.2052  0.3918 -0.1171
 1608SOL    HW116457   2.225   0.568  15.181  0.7026  1.6489 -2.3491
 1608SOL    HW216458   2.126   0.613  15.089  0.4414 -1.1020 -0.0859
 1609SOL     OW16459   1.683   4.023   1.363 -0.0264  0.3010  0.4924
 1609SOL    HW116460   1.635   4.061   1.437 -0.1796  1.0467  0.0082
 1609SOL    HW216461   1.692   4.096   1.302  1.3006 -0.1828  0.0973
 1610SOL     OW16462   2.469   0.046   3.330 -0.7885 -0.0065  0.9996
 1610SOL    HW116463   2.410   0.053   3.405  0.7922  2.4531  2.0133
 1610SOL    HW216464   2.542   0.051   3.392 -0.4703  0.3536  0.5951
 1611SOL     OW16465   1.263   3.532   5.705 -0.3508 -0.1548 -0.1844
 1611SOL    HW116466   1.219   3.601   5.754 -1.6927 -0.6489 -0.7055
 1611SOL    HW216467   1.254   3.556   5.613  0.1347  1.3850  0.1721
 1612SOL     OW16468   3.652   1.666   3.158  0.5792  0.1312  0.0983
 1612SOL    HW116469   3.661   1.761   3.148 -2.0456  0.3171 -0.5223
 1612SOL    HW216470   3.576   1.643   3.104  0.4174  0.6925  0.0865
 1613SOL     OW16471   0.088   2.612   5.828 -0.3500  0.5920 -0.7467
 1613SOL    HW116472   0.114   2.695   5.869 -0.6997  0.3441 -0.0429
 1613SOL    HW216473   0.070   2.549   5.897  3.0502  1.4703  0.9555
 1614SOL     OW16474   1.318   1.098   0.087  0.1306 -0.5834 -0.3754
 1614SOL    HW116475   1.322   1.192   0.068 -1.2227 -0.2856  0.8516
 1614SOL    HW216476   1.232   1.073   0.055 -0.4709  0.4133  0.4769
 1615SOL     OW16477   4.172   2.589   8.872  0.1306  0.8266  0.1591
 1615SOL    HW116478   4.142   2.543   8.951  0.0554  1.8833  0.7503
 1615SOL    HW216479   4.214   2.521   8.820 -5.1292 -2.0542 -0.2827
 1616SOL     OW16480   2.662   3.104  10.775  0.3217 -0.4963  0.2104
 1616SOL    HW116481   2.747   3.107  10.818  0.3418 -2.5157  0.3157
 1616SOL    HW216482   2.597   3.114  10.845  0.8970  0.1714  0.6513
 1617SOL     OW16483   0.251   3.200   4.744 -0.0205 -1.1992 -0.0305
 1617SOL    HW116484   0.199   3.199   4.825  0.6933 -0.5513  0.4379
 1617SOL    HW216485   0.322   3.147   4.778 -0.0294 -0.8529  0.5388
 1618SOL     OW16486   1.345   1.427   3.491 -0.1768  0.9043  0.2944
 1618SOL    HW116487   1.395   1.472   3.558 -1.5061  0.7428  1.4073
 1618SOL    HW216488   1.312   1.503   3.443  1.6047  1.4155 -0.1171
 1619SOL     OW16489   4.006   3.096   7.993 -0.0157 -0.0906  0.5507
 1619SOL    HW116490   4.089   3.048   7.987 -0.8229 -1.4403  0.3098
 1619SOL    HW216491   4.025   3.177   8.040  0.5154  0.2422 -0.2434
 1620SOL     OW16492   0.890   4.464  10.190 -0.0579 -0.1900 -0.4784
 1620SOL    HW116493   0.804   4.501  10.212 -1.1717 -3.4753  0.6232
 1620SOL    HW216494   0.864   4.406  10.119  0.4523 -0.4594 -0.4413
 1621SOL     OW16495   3.132   0.555   6.575  0.1581 -0.2422  0.5250
 1621SOL    HW116496   3.052   0.526   6.617 -1.2508  2.2066 -0.4727
 1621SOL    HW216497   3.173   0.613   6.640 -1.4129  0.3639  0.9701
 1622SOL     OW16498   1.070   0.604  10.587  0.2316  0.0978 -0.0178
 1622SOL    HW116499   1.061   0.666  10.659  1.5627 -0.0193  0.2494
 1622SOL    HW216500   1.058   0.655  10.507  0.2039  2.2657  1.3540
 1623SOL     OW16501   2.957   3.437   1.382 -0.6603  0.2158  0.2855
 1623SOL    HW116502   2.991   3.527   1.382  2.2638 -0.8946 -1.1474
 1623SOL    HW216503   3.011   3.421   1.304  0.0527 -1.1442  1.0543
 1624SOL     OW16504   4.026   1.801  11.271 -0.2605  0.5297 -0.0812
 1624SOL    HW116505   4.074   1.785  11.190  1.6540  1.8960  0.8003
 1624SOL    HW216506   4.040   1.894  11.289  1.0335  0.3629 -0.2518
 1625SOL     OW16507   0.356   1.372   1.667 -0.1812 -0.2290  0.1740
 1625SOL    HW116508   0.328   1.325   1.746 -2.1369 -2.3066 -1.7462
 1625SOL    HW216509   0.270   1.410   1.649  0.2175  1.2114  1.2845
 1626SOL     OW16510   3.577   3.967   6.593  0.1431 -0.1030 -0.5084
 1626SOL    HW116511   3.536   4.032   6.650 -0.5101  0.2128 -1.3412
 1626SOL    HW216512   3.503   3.936   6.541 -0.5692  1.4866 -0.4433
 1627SOL     OW16513   0.054   3.914   6.198 -0.2742  0.1597 -0.4061
 1627SOL    HW116514   0.080   3.851   6.265 -2.1305 -0.8692 -0.6614
 1627SOL    HW216515   4.695   3.900   6.193 -0.1738 -1.0123  1.0380
 1628SOL     OW16516   4.148   1.053   1.773  0.1045  0.6260  0.0151
 1628SOL    HW116517   4.154   1.073   1.866 -1.6314  1.1854 -0.0026
 1628SOL    HW216518   4.075   0.992   1.763 -0.6328  0.9805  3.3820
 1629SOL     OW16519   3.445   0.672   9.135 -0.3783  0.3685  0.5637
 1629SOL    HW116520   3.502   0.632   9.069  0.8306 -0.8456  2.3575
 1629SOL    HW216521   3.455   0.757   9.092 -0.0534  0.3806  0.6614
 1630SOL     OW16522   0.843   0.286   2.612  0.1516 -0.2136 -0.4836
 1630SOL    HW116523   0.793   0.326   2.541 -2.8942  0.3663  2.0253
 1630SOL    HW216524   0.884   0.214   2.565  0.3073  0.7433 -1.8116
 1631SOL     OW16525   3.381   0.592   3.718 -0.3969 -0.1211  0.0029
 1631SOL    HW116526   3.337   0.507   3.720  0.2686 -0.4504  0.8337
 1631SOL    HW216527   3.356   0.621   3.631  0.0176  0.9346  0.2376
 1632SOL     OW16528   2.230   2.774   1.494  0.1253  0.2012 -0.2540
 1632SOL    HW116529   2.225   2.808   1.405 -2.6137  0.4617  0.0002
 1632SOL    HW216530   2.233   2.861   1.533  0.2804  1.1942 -2.5235
 1633SOL     OW16531   2.426   3.006   9.609  0.3136 -0.2182 -0.5601
 1633SOL    HW116532   2.429   3.065   9.685  1.4447 -0.7945 -0.1611
 1633SOL    HW216533   2.516   2.975   9.597  1.6342  3.1964  0.2744
 1634SOL     OW16534   0.562   4.596   6.687 -0.0504 -0.3318 -0.7171
 1634SOL    HW116535   0.564   4.623   6.595  0.8296 -1.4164 -1.0151
 1634SOL    HW216536   0.468   4.582   6.698 -0.1418 -0.4774 -1.7359
 1635SOL     OW16537   2.724   1.957   4.910  0.1077  0.1176  0.0739
 1635SOL    HW116538   2.778   1.908   4.972 -1.6224 -2.0887 -0.1656
 1635SOL    HW216539   2.658   1.999   4.965  0.9546  0.3318  0.9265
 1636SOL     OW16540   1.435   4.687   3.932  0.3145 -0.5794 -0.6417
 1636SOL    HW116541   1.361   4.634   3.902 -1.9471  2.1532  0.0945
 1636SOL    HW216542   1.509   4.652   3.881  2.4157  0.6756  1.5492
 1637SOL     OW16543   3.586   1.781  12.932 -0.4835  0.4301  0.4469
 1637SOL    HW116544   3.531   1.766  13.009  1.6354  1.9186  2.2325
 1637SOL    HW216545   3.664   1.814  12.976  0.7884 -1.3253 -0.4503
 1638SOL     OW16546   3.776   3.098   2.773  0.6465  0.4892  0.4530
 1638SOL    HW116547   3.707   3.042   2.737 -0.7446  2.6051 -0.1512
 1638SOL    HW216548   3.721   3.166   2.811  2.2223  1.5657  0.8008
 1639SOL     OW16549   0.231   2.518   1.974 -0.0702  0.6897 -0.4807
 1639SOL    HW116550   0.161   2.455   1.954 -0.8240  1.7595 -1.1947
 1639SOL    HW216551   0.276   2.485   2.051  1.2247  1.6013 -0.8502
 1640SOL     OW16552   2.601   3.824   4.972  0.2156 -0.3226  0.2871
 1640SOL    HW116553   2.538   3.894   4.991 -0.2235 -0.6320 -0.0368
 1640SOL    HW216554   2.655   3.826   5.051  0.0093  3.3283  0.3479
 1641SOL     OW16555   3.546   2.163   8.963  0.2516 -0.5208 -0.0397
 1641SOL    HW116556   3.458   2.171   8.998  0.7147 -1.1547  1.2614
 1641SOL    HW216557   3.541   2.206   8.878 -1.8640 -1.1051 -0.2106
 1642SOL     OW16558   3.872   2.248   9.443  0.2628  0.0246 -0.4597
 1642SOL    HW116559   3.841   2.335   9.418  0.8074  0.7369  1.3967
 1642SOL    HW216560   3.965   2.268   9.453  0.1137 -1.5763  4.3100
 1643SOL     OW16561   3.584   4.104  12.310 -0.0481  0.1414  0.0739
 1643SOL    HW116562   3.643   4.129  12.239 -0.2166  0.3536  0.0073
 1643SOL    HW216563   3.591   4.009  12.310 -1.2498  0.0493  0.1594
 1644SOL     OW16564   0.853   4.206  14.057  0.0408 -0.5058  0.0355
 1644SOL    HW116565   0.789   4.182  14.124  2.9622 -1.5229  2.5222
 1644SOL    HW216566   0.829   4.297  14.042 -0.1141 -0.6323 -0.4840
 1645SOL     OW16567   2.591   4.368   5.558  0.5410  0.4943  0.1676
 1645SOL    HW116568   2.588   4.365   5.654 -0.4591  0.3119  0.1300
 1645SOL    HW216569   2.498   4.376   5.537  0.5312  0.6159  0.2541
 1646SOL     OW16570   3.547   2.178   6.141  0.0938 -0.0504 -0.4313
 1646SOL    HW116571   3.617   2.135   6.092  0.2542 -1.4089  0.9983
 1646SOL    HW216572   3.479   2.111   6.153 -0.7327  0.6985 -0.9290
 1647SOL     OW16573   2.572   3.638   4.191  0.1224 -0.2373  0.3017
 1647SOL    HW116574   2.609   3.549   4.194 -0.7958 -0.6186  0.3410
 1647SOL    HW216575   2.656   3.678   4.168 -1.1145  1.4872 -1.1505
 1648SOL     OW16576   1.833   0.067   8.531 -0.3059  0.5170  1.0573
 1648SOL    HW116577   1.904   0.078   8.467  1.7980  2.4811  3.7622
 1648SOL    HW216578   1.872   4.732   8.582  0.9500 -0.6130 -1.4497
 1649SOL     OW16579   1.637   1.094   7.528 -0.0170  0.0202  0.6333
 1649SOL    HW116580   1.644   1.123   7.619 -2.4502  0.8400  0.5777
 1649SOL    HW216581   1.631   1.176   7.479  0.6629 -1.1027 -1.3643
 1650SOL     OW16582   3.901   3.332   4.040  0.1368 -0.1954 -0.1524
 1650SOL    HW116583   3.949   3.411   4.014  0.4889 -0.1730  0.5691
 1650SOL    HW216584   3.875   3.352   4.130 -1.4931 -1.3097 -0.3845
 1651SOL     OW16585   1.134   0.864  17.351 -0.0463  0.1534  0.3351
 1651SOL    HW116586   1.048   0.869  17.393  0.1908  1.9387  0.5931
 1651SOL    HW216587   1.164   0.778  17.382  0.0316  0.2319  0.4745
 1652SOL     OW16588   4.426   0.096   9.555  0.4845  0.2430  0.5968
 1652SOL    HW116589   4.509   0.109   9.599  0.4066 -0.1672  0.8685
 1652SOL    HW216590   4.462   0.101   9.467 -0.1224  2.9995  0.5032
 1653SOL     OW16591   3.422   2.608   3.829 -0.1836 -0.1961 -0.0172
 1653SOL    HW116592   3.390   2.683   3.879  0.6709 -0.5821  1.1095
 1653SOL    HW216593   3.513   2.614   3.857 -1.0825  1.2974  2.6101
 1654SOL     OW16594   1.193   0.095  16.902  0.1004  0.5163 -0.3321
 1654SOL    HW116595   1.237   0.171  16.940 -1.9634  0.1941  2.7523
 1654SOL    HW216596   1.222   0.015  16.947  0.8667  2.9384  3.5278
 1655SOL     OW16597   1.128   2.753   0.705 -0.1878  0.3087  0.0692
 1655SOL    HW116598   1.093   2.831   0.663  1.9768 -0.1073 -2.5005
 1655SOL    HW216599   1.048   2.700   0.709 -0.5293  0.7779 -0.5388
 1656SOL     OW16600   2.849   1.202   1.864  0.0225 -0.3076  0.2823
 1656SOL    HW116601   2.774   1.142   1.864 -0.1852 -0.0312 -0.7963
 1656SOL    HW216602   2.898   1.165   1.791  0.1244  0.8339 -0.2135
 1657SOL     OW16603   2.816   4.566   8.086 -0.0900  1.0128  0.3341
 1657SOL    HW116604   2.890   4.543   8.143  0.1254  1.7202  0.3406
 1657SOL    HW216605   2.846   4.525   8.005 -1.3534  0.6192  0.0746
 1658SOL     OW16606   1.347   0.320   6.238 -0.0734  0.0052  0.1792
 1658SOL    HW116607   1.403   0.273   6.177  0.4700 -1.3743  1.7308
 1658SOL    HW216608   1.261   0.300   6.200  0.2409  0.6174 -0.8321
 1659SOL     OW16609   1.332   4.627  16.245  0.1317  0.0637 -0.6714
 1659SOL    HW116610   1.374   4.620  16.159 -1.7197 -0.3682 -1.5392
 1659SOL    HW216611   1.271   4.699  16.232 -0.0364 -0.2128 -1.4281
 1660SOL     OW16612   1.058   2.593   7.921  0.1175  0.3639 -0.0342
 1660SOL    HW116613   1.084   2.504   7.942 -1.3793 -0.0912 -0.1311
 1660SOL    HW216614   1.054   2.636   8.006  1.1513 -1.2872  0.8354
 1661SOL     OW16615   1.197   4.698   6.255  0.4197  0.0897  0.3693
 1661SOL    HW116616   1.185   4.633   6.325  1.1090  1.0960  1.4202
 1661SOL    HW216617   1.216   0.036   6.313 -0.2634  2.1871 -2.0961
 1662SOL     OW16618   4.340   4.049   9.353 -0.2850  0.7761  0.3861
 1662SOL    HW116619   4.404   3.993   9.397  1.2870  3.1230  1.1293
 1662SOL    HW216620   4.266   4.055   9.413  1.2268 -1.5635  2.4843
 1663SOL     OW16621   2.479   0.264   7.475 -0.3457 -0.3553 -0.5890
 1663SOL    HW116622   2.543   0.248   7.545  1.1605 -0.6835 -2.0308
 1663SOL    HW216623   2.473   0.356   7.501  3.2092 -0.8432  2.1111
 1664SOL     OW16624   3.614   2.542  17.260  0.2867 -0.0425  0.4299
 1664SOL    HW116625   3.527   2.581  17.268  0.2539 -0.1131  0.4200
 1664SOL    HW216626   3.645   2.554  17.350 -0.4020 -1.1647  0.8231
 1665SOL     OW16627   1.744   3.387   8.394  0.6852  0.0550 -0.4324
 1665SOL    HW116628   1.663   3.415   8.351 -0.1636 -2.5803 -0.5705
 1665SOL    HW216629   1.716   3.305   8.435  1.5541  0.3403  0.7522
 1666SOL     OW16630   2.688   3.119   7.166  0.1761 -0.0389  0.5943
 1666SOL    HW116631   2.673   3.052   7.232  0.9621 -0.5576  0.2379
 1666SOL    HW216632   2.711   3.065   7.091  0.4915  1.7972 -0.6305
 1667SOL     OW16633   0.770   4.235   5.328 -0.4410 -0.2285  0.4849
 1667SOL    HW116634   0.787   4.274   5.413 -2.2522 -0.2071  0.8337
 1667SOL    HW216635   0.846   4.266   5.278  1.1611 -0.0399  3.0873
 1668SOL     OW16636   4.249   0.096   2.589  0.1557 -0.6109 -0.1259
 1668SOL    HW116637   4.331   0.051   2.570  0.6169 -0.0779  0.5687
 1668SOL    HW216638   4.229   0.090   2.683  1.0180 -0.6275  0.0530
 1669SOL     OW16639   2.870   1.626   3.712  0.0002  0.3877 -0.4338
 1669SOL    HW116640   2.851   1.692   3.645 -0.7887  2.2506  1.6368
 1669SOL    HW216641   2.932   1.571   3.662 -0.3334  1.0300 -1.5580
 1670SOL     OW16642   0.554   3.703   4.594  0.1996 -0.0173 -0.3349
 1670SOL    HW116643   0.484   3.736   4.536 -1.2603 -1.2024  0.7436
 1670SOL    HW216644   0.575   3.621   4.550  2.0488 -0.6819  1.8040
 1671SOL     OW16645   4.612   1.834   3.415 -0.0426 -0.4610 -0.3815
 1671SOL    HW116646   4.690   1.814   3.467  2.0999 -0.0698 -3.4320
 1671SOL    HW216647   4.644   1.784   3.340 -1.8259 -1.0796 -0.7242
 1672SOL     OW16648   3.468   2.748   9.789 -0.0698 -0.1831  0.3205
 1672SOL    HW116649   3.488   2.770   9.698  0.7986  0.0561  0.5715
 1672SOL    HW216650   3.481   2.838   9.820  1.0381  0.0192 -0.7723
 1673SOL     OW16651   2.093   0.552   3.067  0.2681 -0.5196 -0.1469
 1673SOL    HW116652   2.097   0.554   2.971 -1.8929  1.4256 -0.2006
 1673SOL    HW216653   2.012   0.503   3.079  1.9855 -3.0727  0.8323
 1674SOL     OW16654   4.364   0.816   6.257  0.0526 -0.1810 -0.4357
 1674SOL    HW116655   4.436   0.752   6.257  1.0701  0.9573 -1.2610
 1674SOL    HW216656   4.313   0.796   6.335  2.9515  0.2641  1.5745
 1675SOL     OW16657   1.487   0.115   7.731 -0.0206  0.2806  0.1318
 1675SOL    HW116658   1.395   0.101   7.754 -0.3851  1.1846 -0.7677
 1675SOL    HW216659   1.501   0.160   7.815 -0.3614  0.3128  0.1708
 1676SOL     OW16660   0.407   3.965   4.673  0.5500 -0.4702  0.7890
 1676SOL    HW116661   0.441   3.912   4.601  0.3596 -0.4846  0.7096
 1676SOL    HW216662   0.489   3.998   4.710  1.7182 -0.8282 -1.4633
 1677SOL     OW16663   4.465   3.989   0.725 -0.2038 -0.1688 -0.3427
 1677SOL    HW116664   4.458   4.083   0.744  3.5631  0.3054 -1.2550
 1677SOL    HW216665   4.394   3.946   0.773 -1.4420  1.8332 -0.3410
 1678SOL     OW16666   1.550   1.745   8.231  0.2939  0.4361  0.6598
 1678SOL    HW116667   1.591   1.661   8.251 -0.3448  0.2261  1.0809
 1678SOL    HW216668   1.567   1.794   8.312  1.6165  0.8309  0.1334
 1679SOL     OW16669   1.042   1.860   2.154 -0.2272 -0.1801  0.2878
 1679SOL    HW116670   1.051   1.851   2.249  0.2426 -0.4144  0.2255
 1679SOL    HW216671   0.993   1.783   2.124 -0.2111  0.5129 -1.5398
 1680SOL     OW16672   2.706   0.092   5.919 -0.0451 -0.8319 -0.3156
 1680SOL    HW116673   2.697   0.093   6.014  1.0369 -0.1525 -0.2199
 1680SOL    HW216674   2.676   0.004   5.896 -1.3475 -0.6027  0.5531
 1681SOL     OW16675   0.716   1.472  14.760  0.2928  0.1390 -0.1352
 1681SOL    HW116676   0.663   1.393  14.770  1.8787 -0.8377  0.7390
 1681SOL    HW216677   0.682   1.518  14.683 -0.3130 -0.1630 -0.0468
 1682SOL     OW16678   4.155   3.468   1.335  0.4792 -0.0654 -0.1663
 1682SOL    HW116679   4.114   3.520   1.266 -2.3357 -0.5343  1.1198
 1682SOL    HW216680   4.147   3.376   1.309  1.0037 -0.6643  1.7337
 1683SOL     OW16681   1.645   4.093   4.366  0.2744  0.3900 -0.0840
 1683SOL    HW116682   1.582   4.050   4.424  1.5840 -2.8795 -1.0950
 1683SOL    HW216683   1.642   4.181   4.404  1.3716  0.2790  0.2691
 1684SOL     OW16684   0.887   0.441   8.585  0.5060  0.2715 -0.1338
 1684SOL    HW116685   0.833   0.433   8.664  1.6770 -1.1313  0.5067
 1684SOL    HW216686   0.964   0.489   8.614 -0.2344  1.5068 -0.1704
 1685SOL     OW16687   2.253   3.837  11.358 -0.0481 -0.5001 -0.0649
 1685SOL    HW116688   2.270   3.930  11.343 -1.5209 -0.0197  1.2427
 1685SOL    HW216689   2.161   3.835  11.382  0.6972  0.0356  2.8670
 1686SOL     OW16690   0.194   4.321   2.986 -0.7188  0.7177 -0.0066
 1686SOL    HW116691   0.150   4.308   3.070  1.7215  0.8384  1.3021
 1686SOL    HW216692   0.283   4.337   3.016 -0.3216 -1.2218 -0.1829
 1687SOL     OW16693   4.462   3.409  15.793  0.2490 -0.4724  0.0071
 1687SOL    HW116694   4.552   3.384  15.815  0.4904  1.5914  1.3192
 1687SOL    HW216695   4.449   3.350  15.718  0.2545  0.1450 -0.4777
 1688SOL     OW16696   4.451   0.752  16.950  0.9872  0.2574 -0.5343
 1688SOL    HW116697   4.356   0.747  16.940  0.8666 -0.5336  1.0019
 1688SOL    HW216698   4.455   0.830  17.006  0.3399 -1.1034  1.4077
 1689SOL     OW16699   3.866   3.313   8.900 -0.3142 -0.2361  0.8633
 1689SOL    HW116700   3.940   3.373   8.898 -1.5453  1.2620 -0.8265
 1689SOL    HW216701   3.907   3.233   8.867  1.9490  0.7309  1.3607
 1690SOL     OW16702   3.214   4.428  16.017 -0.2998 -0.0944 -0.0063
 1690SOL    HW116703   3.233   4.415  16.110 -0.3570  1.5290  0.2205
 1690SOL    HW216704   3.284   4.488  15.989  0.1086 -1.2680 -1.4925
 1691SOL     OW16705   2.766   0.952  12.844  0.2058  0.0806  0.0838
 1691SOL    HW116706   2.838   1.015  12.846  2.5238 -2.5736  0.3528
 1691SOL    HW216707   2.741   0.955  12.752  2.1378 -0.2468 -0.4394
 1692SOL     OW16708   1.208   0.512   7.049 -0.3147 -0.0502  0.0344
 1692SOL    HW116709   1.139   0.446   7.062  0.5810 -1.2899 -1.5032
 1692SOL    HW216710   1.172   0.571   7.116 -2.5512 -1.0255 -0.2939
 1693SOL     OW16711   0.191   4.265   6.382 -0.3857 -0.4816  0.3218
 1693SOL    HW116712   0.161   4.356   6.381  1.3772  0.1293  1.9641
 1693SOL    HW216713   0.157   4.225   6.302 -1.3032  0.7717  0.0890
 1694SOL     OW16714   4.316   3.287  10.745  0.7887 -0.0028 -0.7067
 1694SOL    HW116715   4.385   3.322  10.802  0.6721 -1.8674  0.6018
 1694SOL    HW216716   4.260   3.365  10.753  0.4621 -0.3777  0.6310
 1695SOL     OW16717   4.208   0.270   4.756 -0.0990 -0.4042 -0.0155
 1695SOL    HW116718   4.115   0.276   4.735  0.3697 -0.0335 -2.0000
 1695SOL    HW216719   4.242   0.194   4.710 -0.7076 -1.3448  1.0826
 1696SOL     OW16720   2.231   1.604   1.090  0.3310  0.3660 -0.2309
 1696SOL    HW116721   2.286   1.681   1.102  1.5246 -0.8140  1.9059
 1696SOL    HW216722   2.165   1.618   1.158 -0.2369 -2.8419 -0.0946
 1697SOL     OW16723   0.854   0.648   2.574 -0.1873  0.0777  0.3774
 1697SOL    HW116724   0.820   0.736   2.560  1.8276  0.6312 -1.0227
 1697SOL    HW216725   0.824   0.625   2.662  3.2957  0.5169  1.7164
 1698SOL     OW16726   4.642   3.260  11.853 -0.3526  0.1889 -0.0534
 1698SOL    HW116727   4.602   3.211  11.924  2.7733 -2.7185 -0.2923
 1698SOL    HW216728   4.674   3.187  11.800 -1.7689 -1.5148  1.4919
 1699SOL     OW16729   3.625   1.311   0.708  0.1545  0.3391 -0.0837
 1699SOL    HW116730   3.654   1.298   0.618  0.0412  2.0633 -0.3635
 1699SOL    HW216731   3.530   1.308   0.704  0.0882  2.0363  0.0235
 1700SOL     OW16732   0.324   2.099   8.542  0.1118  0.0615  0.4470
 1700SOL    HW116733   0.352   2.188   8.519  1.6664 -0.0687  1.8665
 1700SOL    HW216734   0.236   2.117   8.575 -0.2521  0.0536 -0.5116
 1701SOL     OW16735   3.227   1.444   4.690  0.7551 -0.2226  0.6168
 1701SOL    HW116736   3.190   1.458   4.603  1.6116  0.1890  0.3203
 1701SOL    HW216737   3.170   1.379   4.732 -0.8240  0.2730 -0.7719
 1702SOL     OW16738   1.539   4.227   4.866 -0.2944 -0.1596 -0.2985
 1702SOL    HW116739   1.446   4.206   4.853  0.3665 -0.9368 -3.9388
 1702SOL    HW216740   1.543   4.320   4.841  0.3604 -0.3379 -0.8394
 1703SOL     OW16741   2.703   3.092   2.181  0.2620  0.3761 -0.2532
 1703SOL    HW116742   2.664   3.004   2.181 -2.5081  1.6043  1.1284
 1703SOL    HW216743   2.623   3.144   2.185  0.9057  1.3038  0.3926
 1704SOL     OW16744   1.336   3.062   8.116 -0.1993  0.0483  0.3335
 1704SOL    HW116745   1.425   3.094   8.098 -0.3745  0.2754 -0.1147
 1704SOL    HW216746   1.296   3.096   8.037  0.2810 -2.0837 -0.8411
 1705SOL     OW16747   3.271   0.751  10.097 -0.0926 -0.1402 -0.1547
 1705SOL    HW116748   3.267   0.679  10.034  3.9413 -1.2825  0.9017
 1705SOL    HW216749   3.223   0.812  10.041 -1.9625 -1.5822 -0.1576
 1706SOL     OW16750   0.787   0.581   2.863 -0.3971  0.3539 -0.0178
 1706SOL    HW116751   0.759   0.550   2.948 -0.7221 -0.1290 -0.2995
 1706SOL    HW216752   0.821   0.666   2.892  0.9941 -0.6074  1.1917
 1707SOL     OW16753   2.387   4.224  17.295 -0.0399  0.2964 -0.6371
 1707SOL    HW116754   2.402   4.298  17.236  1.7995  0.6309  0.2597
 1707SOL    HW216755   2.394   4.157  17.227  2.5517  0.2981 -0.3643
 1708SOL     OW16756   0.321   0.907   1.849  0.2962 -0.2307 -0.1709
 1708SOL    HW116757   0.368   0.935   1.770 -0.3244  0.0211 -0.4564
 1708SOL    HW216758   0.380   0.839   1.879  0.2164  0.0119  0.5296
 1709SOL     OW16759   1.436   2.230  15.739 -0.1022 -0.7795 -0.7207
 1709SOL    HW116760   1.512   2.261  15.789 -1.0671  1.2888 -0.5094
 1709SOL    HW216761   1.472   2.147  15.708 -1.4739 -1.5993 -0.1229
 1710SOL     OW16762   1.956   0.788   2.400  0.2704  0.0478 -0.1756
 1710SOL    HW116763   2.021   0.720   2.384  0.2311  0.3576 -1.6087
 1710SOL    HW216764   1.876   0.745   2.428 -1.6880  3.4468 -0.5085
 1711SOL     OW16765   3.488   0.154   0.853  0.2031 -0.7524 -0.2153
 1711SOL    HW116766   3.457   0.148   0.763  1.8292  1.0809 -0.9055
 1711SOL    HW216767   3.477   0.248   0.868 -0.5277 -1.0830  1.3165
 1712SOL     OW16768   0.460   0.229   4.046  0.3254 -0.2026 -0.1576
 1712SOL    HW116769   0.548   0.226   4.010  0.9349  0.8342  1.2837
 1712SOL    HW216770   0.468   0.158   4.109  0.4571 -0.9076 -0.9632
 1713SOL     OW16771   1.701   2.618  11.163 -0.0035 -0.4215  0.0363
 1713SOL    HW116772   1.661   2.639  11.079  1.5472 -0.4469 -0.7114
 1713SOL    HW216773   1.650   2.541  11.186  0.9908 -0.6280  1.5891
 1714SOL     OW16774   2.552   3.906  10.408  0.4895  0.0567 -0.0437
 1714SOL    HW116775   2.517   3.860  10.484 -0.2477  0.2848 -0.2486
 1714SOL    HW216776   2.501   3.987  10.408 -0.1212 -0.3383  1.4233
 1715SOL     OW16777   2.169   1.354   5.427  0.4961 -0.1540 -0.1182
 1715SOL    HW116778   2.252   1.327   5.465 -1.2573 -2.2526  2.2058
 1715SOL    HW216779   2.183   1.449   5.420  0.1360 -0.0710  0.2871
 1716SOL     OW16780   1.285   2.564   5.041 -0.1463 -0.6273 -0.2994
 1716SOL    HW116781   1.353   2.503   5.013  0.5388 -1.3594  3.0412
 1716SOL    HW216782   1.334   2.642   5.066 -0.3026 -0.5378 -0.2702
 1717SOL     OW16783   1.164   1.597  17.625 -0.3107  0.0811 -0.0609
 1717SOL    HW116784   1.160   1.659  17.552 -2.3218  0.2809  0.2020
 1717SOL    HW216785   1.111   1.530  17.582 -0.5790  0.5742 -0.5010
 1718SOL     OW16786   3.517   0.208  12.379 -0.1683  0.1410  0.0977
 1718SOL    HW116787   3.585   0.275  12.366  0.0139  0.0793  0.7503
 1718SOL    HW216788   3.529   0.146  12.307  3.0643  0.7838  0.0667
 1719SOL     OW16789   2.895   3.103   6.169  0.1327 -0.1518  0.5120
 1719SOL    HW116790   2.964   3.133   6.110 -1.1268 -0.6655 -1.2314
 1719SOL    HW216791   2.942   3.051   6.234  0.8673  1.8395  1.5892
 1720SOL     OW16792   1.367   3.425   3.657 -0.4440 -1.0342  0.6977
 1720SOL    HW116793   1.395   3.509   3.620  1.0897 -1.8086  0.0905
 1720SOL    HW216794   1.310   3.458   3.727 -1.3126 -2.3076  0.5937
 1721SOL     OW16795   2.923   0.490   6.759  0.1411 -0.4539 -0.4070
 1721SOL    HW116796   2.900   0.467   6.849 -0.5374  0.1202 -0.4332
 1721SOL    HW216797   2.868   0.567   6.742  1.1717  0.3051 -0.2878
 1722SOL     OW16798   1.750   4.084   5.946  0.0219 -0.3085 -0.0047
 1722SOL    HW116799   1.664   4.075   5.905  0.0602 -1.1351  0.0921
 1722SOL    HW216800   1.713   4.093   6.034  0.8817 -3.4433  0.6851
 1723SOL     OW16801   2.862   3.214   1.219 -0.2539 -0.4975 -0.2151
 1723SOL    HW116802   2.849   3.280   1.286  0.9844 -0.1316 -0.3367
 1723SOL    HW216803   2.906   3.151   1.276  1.7227  0.4158 -0.7491
 1724SOL     OW16804   4.608   3.988   3.353 -0.3525 -0.3732  0.1637
 1724SOL    HW116805   4.534   3.932   3.331  0.0086 -0.0397 -1.9120
 1724SOL    HW216806   4.559   4.067   3.373 -0.5093 -0.3855 -0.1725
 1725SOL     OW16807   0.307   1.338  11.084  0.0172 -0.0950  0.0833
 1725SOL    HW116808   0.323   1.257  11.035 -2.5935 -0.4308 -0.1907
 1725SOL    HW216809   0.353   1.403  11.032 -1.4564  0.4589 -0.5172
 1726SOL     OW16810   4.449   2.100   6.403  0.2770 -0.2131  0.2102
 1726SOL    HW116811   4.447   2.019   6.352  2.1650 -0.5383  0.6590
 1726SOL    HW216812   4.531   2.093   6.452  0.6421  3.8768  0.1354
 1727SOL     OW16813   3.499   2.513   6.847 -0.3138  0.2930 -0.3210
 1727SOL    HW116814   3.413   2.498   6.885  0.0954  1.5623  1.1009
 1727SOL    HW216815   3.527   2.590   6.897  1.0784 -1.1763  1.1579
 1728SOL     OW16816   0.902   3.178  12.785  0.2243  0.5031  0.6339
 1728SOL    HW116817   0.844   3.105  12.807  0.5618  0.4397  1.3131
 1728SOL    HW216818   0.897   3.180  12.690  0.4046 -0.6984  0.6024
 1729SOL     OW16819   1.897   1.162  17.721  0.2984  0.2004  0.6712
 1729SOL    HW116820   1.826   1.223   0.001 -1.4168 -1.5209 -0.2772
 1729SOL    HW216821   1.892   1.096   0.050 -3.2779 -0.0839  0.1515
 1730SOL     OW16822   2.948   4.001   2.771 -0.0368 -0.1878 -0.1282
 1730SOL    HW116823   3.021   3.944   2.793 -0.2271 -0.2822  0.2473
 1730SOL    HW216824   2.884   3.956   2.716  1.7868 -1.9519 -0.7882
 1731SOL     OW16825   3.125   4.278   4.979  0.0340  1.1755 -0.6120
 1731SOL    HW116826   3.067   4.212   5.018  0.6753  0.6636 -0.5293
 1731SOL    HW216827   3.063   4.340   4.941 -2.2579 -1.6733 -1.5498
 1732SOL     OW16828   4.658   1.284   7.913  0.0505  0.0894  0.7460
 1732SOL    HW116829   4.693   1.200   7.943 -1.4759 -0.8356 -0.0988
 1732SOL    HW216830   4.663   1.276   7.818 -0.0572 -2.6301  0.9695
 1733SOL     OW16831   2.774   2.705   9.129  0.1398  0.1212  0.0100
 1733SOL    HW116832   2.868   2.710   9.116 -0.1275  0.5127 -1.7534
 1733SOL    HW216833   2.737   2.776   9.077 -0.6846 -0.1428  0.2321
 1734SOL     OW16834   4.488   1.334   8.367 -0.5725 -0.0034  0.0634
 1734SOL    HW116835   4.499   1.381   8.284 -3.9898 -1.0044 -0.9729
 1734SOL    HW216836   4.465   1.250   8.327 -1.1441  0.2113 -0.0613
 1735SOL     OW16837   0.283   4.191   8.454  0.2418  0.0183  0.1039
 1735SOL    HW116838   0.239   4.113   8.488  0.8784 -0.3464  0.1018
 1735SOL    HW216839   0.216   4.217   8.391  0.4532  1.2739  0.4042
 1736SOL     OW16840   4.317   1.400   7.511  0.3262 -0.7620 -0.4764
 1736SOL    HW116841   4.357   1.481   7.479  1.7431  0.2077  3.6809
 1736SOL    HW216842   4.229   1.426   7.484  0.2043 -1.2884 -0.5944
 1737SOL     OW16843   4.297   4.273   4.532  0.1351  0.5773 -0.5939
 1737SOL    HW116844   4.289   4.293   4.625 -0.6433 -0.0195 -0.5350
 1737SOL    HW216845   4.263   4.184   4.525  3.4972 -0.7813  0.5434
 1738SOL     OW16846   3.830   2.612   2.760  0.0692  0.6171  0.0432
 1738SOL    HW116847   3.809   2.699   2.794  1.3165  0.9888 -0.1398
 1738SOL    HW216848   3.858   2.639   2.672 -0.7143  1.9820  0.2015
 1739SOL     OW16849   2.729   1.861   8.312 -0.5302  0.5342 -0.1026
 1739SOL    HW116850   2.679   1.902   8.383  2.8277  1.4342  1.7050
 1739SOL    HW216851   2.677   1.894   8.238  0.4935 -0.3815 -1.2311
 1740SOL     OW16852   1.757   3.275   5.019 -0.1632  0.0827  0.2774
 1740SOL    HW116853   1.779   3.333   5.093  1.8971  2.2551 -2.0546
 1740SOL    HW216854   1.847   3.245   5.007 -0.4847 -0.7686 -0.0031
 1741SOL     OW16855   0.448   1.571   6.351 -0.1894  0.5949  0.0177
 1741SOL    HW116856   0.517   1.606   6.296 -0.0995  0.8222  0.2755
 1741SOL    HW216857   0.488   1.565   6.438 -1.0171  0.2324  0.3788
 1742SOL     OW16858   1.671   0.280   5.496  0.1426 -0.2370 -0.1629
 1742SOL    HW116859   1.710   0.363   5.469 -2.1320  0.4100 -1.4321
 1742SOL    HW216860   1.634   0.235   5.420 -1.0636 -1.7122  1.2924
 1743SOL     OW16861   0.300   1.049   2.381 -0.4832 -0.1515 -0.2706
 1743SOL    HW116862   0.230   1.079   2.323 -0.4733 -1.1158 -0.7784
 1743SOL    HW216863   0.371   1.060   2.318  1.5641  1.8830  2.4217
 1744SOL     OW16864   2.749   4.060   9.225 -0.5211  0.3962  0.3732
 1744SOL    HW116865   2.806   4.030   9.296 -1.0943 -2.0485 -0.2357
 1744SOL    HW216866   2.693   4.116   9.279 -1.2030 -0.1310  0.2019
 1745SOL     OW16867   2.234   4.000   2.924 -0.7350 -0.3186 -0.8124
 1745SOL    HW116868   2.284   4.072   2.884  2.0388 -0.4358  2.4956
 1745SOL    HW216869   2.190   4.056   2.988 -0.3814  1.7760 -2.4073
 1746SOL     OW16870   3.228   2.454  17.257  0.2967  0.1430 -0.3789
 1746SOL    HW116871   3.151   2.507  17.279  3.1119  3.6023  1.1469
 1746SOL    HW216872   3.256   2.441  17.348 -1.4389 -1.9268 -0.1456
 1747SOL     OW16873   2.734   4.498  12.674 -0.4197  0.2456 -0.6712
 1747SOL    HW116874   2.701   4.443  12.745  1.8371 -1.8322 -1.2636
 1747SOL    HW216875   2.674   4.466  12.607 -0.0935 -0.9471 -0.4025
 1748SOL     OW16876   3.125   0.411   3.820 -0.1637 -0.1842 -0.7519
 1748SOL    HW116877   3.144   0.342   3.757  1.4646 -0.9840  0.6205
 1748SOL    HW216878   3.101   0.365   3.900  1.5932 -1.5513 -1.0279
 1749SOL     OW16879   2.461   1.521   2.318 -0.2062  0.1442 -0.2895
 1749SOL    HW116880   2.494   1.607   2.344 -1.6001  0.7122 -0.3459
 1749SOL    HW216881   2.402   1.503   2.392  0.4130 -1.1724 -0.1243
 1750SOL     OW16882   0.855   0.376   1.275  0.1125  0.4600 -0.3276
 1750SOL    HW116883   0.789   0.307   1.282  0.5475 -0.0129 -0.9017
 1750SOL    HW216884   0.830   0.419   1.193  1.5984 -0.4991 -1.2952
 1751SOL     OW16885   1.961   1.004   2.549 -0.4172  0.1293  0.5206
 1751SOL    HW116886   1.981   0.921   2.505 -0.4621  1.1943 -1.5400
 1751SOL    HW216887   1.972   0.979   2.640 -1.3682  0.2727  0.6766
 1752SOL     OW16888   2.973   0.773   3.661  0.3894 -0.1237  0.2331
 1752SOL    HW116889   3.037   0.806   3.598  0.0330  0.1715  0.0278
 1752SOL    HW216890   3.004   0.802   3.747  0.1149 -3.1178  1.3578
 1753SOL     OW16891   1.750   0.590   6.952 -0.1952 -0.1046 -0.2751
 1753SOL    HW116892   1.657   0.601   6.970 -0.0901  1.2761 -0.5717
 1753SOL    HW216893   1.788   0.666   6.997 -2.8571 -0.4673  2.5793
 1754SOL     OW16894   2.112   4.062   7.965  0.3513 -0.5110  0.4796
 1754SOL    HW116895   2.028   4.016   7.970  0.1252  0.1456  2.5609
 1754SOL    HW216896   2.124   4.068   7.870 -0.3905 -1.1931  0.3428
 1755SOL     OW16897   2.667   3.742   7.029 -0.1785  0.4480  0.3717
 1755SOL    HW116898   2.588   3.785   6.996  0.3575 -0.2884 -1.8791
 1755SOL    HW216899   2.737   3.786   6.980 -0.5445  1.8001  1.0658
 1756SOL     OW16900   3.622   4.395   6.064  0.0336  0.0877  0.0199
 1756SOL    HW116901   3.632   4.328   6.130 -1.5012  1.4312  1.6202
 1756SOL    HW216902   3.683   4.457   6.105 -1.0153  1.2186 -0.1196
 1757SOL     OW16903   0.597   2.711   3.214  0.1325 -0.0558  0.2543
 1757SOL    HW116904   0.550   2.790   3.240  2.2556  0.8319  1.4790
 1757SOL    HW216905   0.529   2.645   3.200 -0.4150  0.2899  1.2446
 1758SOL     OW16906   3.466   2.789   1.859  0.0279  0.6459 -0.2546
 1758SOL    HW116907   3.379   2.827   1.871 -0.3138 -0.5404  1.0360
 1758SOL    HW216908   3.532   2.854   1.885  2.2836 -2.8439  2.7555
 1759SOL     OW16909   2.200   0.152   1.524 -0.9184  0.1080  0.1048
 1759SOL    HW116910   2.286   0.110   1.537 -0.3968  1.6285  1.4910
 1759SOL    HW216911   2.175   0.118   1.438 -3.5386  0.8063  0.5907
 1760SOL     OW16912   2.165   1.629   3.117  0.5637  0.3655 -0.1254
 1760SOL    HW116913   2.193   1.704   3.063  0.7594  0.1426 -0.3322
 1760SOL    HW216914   2.243   1.575   3.109 -0.1964 -0.7972  0.3002
 1761SOL     OW16915   2.407   3.549   8.980 -0.1451  0.1396 -0.1973
 1761SOL    HW116916   2.330   3.520   9.028 -0.9548  1.6960 -0.5534
 1761SOL    HW216917   2.415   3.636   9.021 -0.6186  0.1948 -0.2266
 1762SOL     OW16918   4.533   3.229   0.648  0.1578  0.5448  0.1003
 1762SOL    HW116919   4.574   3.211   0.733  0.1840  0.8097  0.1440
 1762SOL    HW216920   4.558   3.321   0.645  0.0886  0.5482 -0.3477
 1763SOL     OW16921   3.618   1.266   4.586  0.4695  0.1367 -0.1988
 1763SOL    HW116922   3.637   1.338   4.647 -0.0103  1.3416 -1.4786
 1763SOL    HW216923   3.522   1.263   4.585  0.4493  0.4913  0.4106
 1764SOL     OW16924   0.255   0.700  14.712  0.2967 -0.0231  0.3618
 1764SOL    HW116925   0.304   0.723  14.633 -0.5913  1.0462  0.1193
 1764SOL    HW216926   0.169   0.729  14.682  0.9388  0.1597 -1.3160
 1765SOL     OW16927   2.102   3.547   5.114  0.1291  0.0194  0.4313
 1765SOL    HW116928   2.055   3.556   5.031 -2.0928  1.0426  1.8054
 1765SOL    HW216929   2.156   3.470   5.094 -1.3864 -1.1070  0.7577
 1766SOL     OW16930   1.490   2.324   9.096 -0.7997  0.3593  0.3937
 1766SOL    HW116931   1.519   2.296   9.183  1.4595 -1.8969 -1.0815
 1766SOL    HW216932   1.431   2.250   9.083  0.0210 -0.4804  1.4532
 1767SOL     OW16933   3.127   2.532  16.431  0.0006 -0.3792  0.0810
 1767SOL    HW116934   3.203   2.578  16.396 -0.8610  1.9100  1.2370
 1767SOL    HW216935   3.156   2.496  16.515  0.1505 -0.4969 -0.0215
 1768SOL     OW16936   0.376   2.844   7.377 -0.2146  0.6006 -0.0209
 1768SOL    HW116937   0.445   2.809   7.322  0.1597  0.0566  0.7815
 1768SOL    HW216938   0.365   2.778   7.446 -0.1730  0.3242 -0.2810
 1769SOL     OW16939   2.421   1.028   2.203 -0.0737  0.0842 -0.6029
 1769SOL    HW116940   2.505   1.071   2.222  0.3650 -0.9221 -0.2633
 1769SOL    HW216941   2.455   0.951   2.158  1.4030 -1.1783  2.6468
 1770SOL     OW16942   2.858   0.925   6.564 -0.3809 -0.1825  0.1656
 1770SOL    HW116943   2.839   1.012   6.528 -1.6957 -1.5194 -2.3560
 1770SOL    HW216944   2.935   0.904   6.511 -0.9138  1.0685 -1.0917
 1771SOL     OW16945   2.227   1.901  17.300  0.7588  0.5696 -0.5475
 1771SOL    HW116946   2.273   1.838  17.355  0.7814  1.6372  0.6349
 1771SOL    HW216947   2.290   1.931  17.234 -1.2401  2.5780 -1.5160
 1772SOL     OW16948   4.089   2.452   5.433  0.3183 -0.0424  0.2638
 1772SOL    HW116949   4.024   2.521   5.420  1.8541  1.6811  1.7266
 1772SOL    HW216950   4.117   2.446   5.342  0.9636 -1.1893  0.5360
 1773SOL     OW16951   0.036   1.049  14.165 -0.2365 -0.2916  0.5044
 1773SOL    HW116952   0.102   1.103  14.122  0.7222 -2.1876 -0.3905
 1773SOL    HW216953   0.074   0.963  14.149  1.1946  0.6094 -0.9525
 1774SOL     OW16954   2.625   2.306   8.112  0.1557 -0.1906  0.0216
 1774SOL    HW116955   2.693   2.372   8.098  0.9290 -1.1935 -0.9264
 1774SOL    HW216956   2.562   2.349   8.170  0.6423 -1.3323  1.4121
 1775SOL     OW16957   0.062   1.598   7.989  0.0877  0.0005 -0.5616
 1775SOL    HW116958   0.096   1.607   7.900 -2.4407  2.1675 -1.3349
 1775SOL    HW216959   4.702   1.613   7.984 -0.0542 -0.3546  1.1682
 1776SOL     OW16960   4.140   0.054   3.729 -0.0308 -0.0127  0.0193
 1776SOL    HW116961   4.215   0.005   3.763 -0.2851 -0.0773  0.4865
 1776SOL    HW216962   4.175   0.092   3.649 -1.3425  0.0498 -0.5240
 1777SOL     OW16963   4.168   0.645   5.621 -0.2086  0.5319  0.1041
 1777SOL    HW116964   4.157   0.711   5.553 -4.2474 -0.3553 -0.0885
 1777SOL    HW216965   4.200   0.574   5.565  0.6603  0.5547  0.5785
 1778SOL     OW16966   4.685   2.823  10.679  0.2810  0.5769 -0.2413
 1778SOL    HW116967   4.604   2.773  10.678  0.3384  0.4844 -0.4524
 1778SOL    HW216968   4.662   2.891  10.742  0.3808  1.0678 -0.7305
 1779SOL     OW16969   2.518   2.916  16.295 -0.1121 -0.2220  0.6260
 1779SOL    HW116970   2.438   2.962  16.270  0.2994  1.5670  2.6384
 1779SOL    HW216971   2.486   2.828  16.278 -1.0377  0.4944 -1.3210
 1780SOL     OW16972   0.450   0.184   3.510  0.1690 -0.7314  0.0435
 1780SOL    HW116973   0.502   0.224   3.580  1.2284 -0.5126 -0.8716
 1780SOL    HW216974   0.484   0.094   3.511  0.6946 -0.5150  1.9506
 1781SOL     OW16975   0.513   1.712   1.335  0.7382  0.8704 -0.8059
 1781SOL    HW116976   0.593   1.666   1.356 -0.4538 -1.2701 -0.9467
 1781SOL    HW216977   0.469   1.706   1.420  1.1159 -0.4499 -0.7091
 1782SOL     OW16978   3.618   1.905   8.016  0.1818  0.4289  0.1028
 1782SOL    HW116979   3.565   1.932   8.091 -0.5285 -1.0594  0.1472
 1782SOL    HW216980   3.563   1.837   7.977 -0.8504  2.5644 -2.1585
 1783SOL     OW16981   2.753   2.151  16.355  0.1124  0.3327 -0.8428
 1783SOL    HW116982   2.815   2.214  16.319  0.5656  0.3838  0.0471
 1783SOL    HW216983   2.701   2.191  16.424  2.7832 -0.2778  1.5145
 1784SOL     OW16984   3.495   3.866   5.156 -0.5392 -0.1567 -0.2980
 1784SOL    HW116985   3.415   3.835   5.115 -0.0183 -0.4521 -1.0782
 1784SOL    HW216986   3.446   3.913   5.224  1.2576  0.5544  0.5165
 1785SOL     OW16987   3.663   0.194   4.419  0.0186  0.1739 -0.1360
 1785SOL    HW116988   3.668   0.270   4.362 -1.1757  0.0215 -0.4431
 1785SOL    HW216989   3.581   0.210   4.466  0.5038 -0.5050  0.9499
 1786SOL     OW16990   1.015   4.531   1.764  0.9935 -0.0139 -0.0757
 1786SOL    HW116991   1.014   4.625   1.748  1.3712  0.1837  1.0568
 1786SOL    HW216992   0.981   4.532   1.853 -0.2283 -0.3145 -0.5383
 1787SOL     OW16993   0.615   2.489   2.969 -0.5106  0.8034  0.2083
 1787SOL    HW116994   0.697   2.479   3.017  0.4529  2.7857 -1.0578
 1787SOL    HW216995   0.601   2.408   2.920  1.2748  0.6044  0.0431
 1788SOL     OW16996   4.721   3.828   6.794 -0.0655 -0.1598 -0.1723
 1788SOL    HW116997   4.690   3.914   6.821 -0.8731 -0.0365 -1.4904
 1788SOL    HW216998   4.641   3.775   6.798  1.3694 -2.3146  0.3409
 1789SOL     OW16999   0.075   0.789   4.070  0.2738  0.1569  0.1734
 1789SOL    HW117000   0.069   0.767   4.163  0.1179 -0.0938  0.1036
 1789SOL    HW217001   0.090   0.883   4.079  2.5675 -0.2513  0.7373
 1790SOL     OW17002   3.760   0.185   9.200  0.2838  0.2153  0.2821
 1790SOL    HW117003   3.824   0.221   9.261 -0.1011 -0.1909  0.9275
 1790SOL    HW217004   3.710   0.264   9.179 -0.4951 -0.6945 -1.3682
 1791SOL     OW17005   0.433   0.182   5.820 -0.5122 -0.1436 -0.0837
 1791SOL    HW117006   0.508   0.241   5.810 -0.6532  0.5752  3.2654
 1791SOL    HW217007   0.409   0.191   5.912 -1.6743 -1.1873 -0.2881
 1792SOL     OW17008   4.437   1.461  15.674 -0.3917  0.2429 -0.4059
 1792SOL    HW117009   4.527   1.446  15.703 -0.5292 -0.9084 -0.5774
 1792SOL    HW217010   4.408   1.461  15.765  0.7118 -1.7219 -0.0408
 1793SOL     OW17011   3.294   1.930   7.729  0.0381  0.6827 -0.2781
 1793SOL    HW117012   3.222   1.992   7.737 -1.4205 -1.0991  0.3079
 1793SOL    HW217013   3.363   1.987   7.764 -0.0653  1.6500 -1.6642
 1794SOL     OW17014   4.530   3.664   6.512 -0.2584  0.2997  0.5438
 1794SOL    HW117015   4.529   3.760   6.502  0.6536  0.3115  0.5447
 1794SOL    HW217016   4.451   3.648   6.562 -1.3946 -1.9459 -1.9621
 1795SOL     OW17017   0.842   0.139   2.365 -0.7421  0.6647  0.2998
 1795SOL    HW117018   0.883   0.216   2.325  0.2278 -0.2451 -0.4843
 1795SOL    HW217019   0.793   0.109   2.288 -0.9573 -0.2526  0.7968
 1796SOL     OW17020   2.252   2.501   2.665 -0.1251  0.3578 -0.5252
 1796SOL    HW117021   2.226   2.475   2.576  1.7093  2.0556 -1.5449
 1796SOL    HW217022   2.270   2.412   2.696 -0.7267 -0.4501 -2.4833
 1797SOL     OW17023   3.429   1.613   7.621 -0.2025 -0.0612  0.3053
 1797SOL    HW117024   3.372   1.681   7.584  0.9291 -0.0489 -1.4122
 1797SOL    HW217025   3.380   1.533   7.602 -0.0633 -0.2763  0.8467
 1798SOL     OW17026   0.692   1.345   1.296 -0.1215  0.0605 -0.4635
 1798SOL    HW117027   0.772   1.305   1.261 -0.4914 -0.8913 -0.2289
 1798SOL    HW217028   0.633   1.314   1.227  0.6674 -1.0964 -0.6178
 1799SOL     OW17029   3.948   0.826   6.271 -0.4988 -0.2972  0.4550
 1799SOL    HW117030   4.034   0.785   6.277 -0.8960 -1.0642  0.8361
 1799SOL    HW217031   3.924   0.848   6.361  1.4622  0.6724  0.7402
 1800SOL     OW17032   0.617   3.281   4.627 -0.4077 -0.0811 -0.0882
 1800SOL    HW117033   0.587   3.357   4.577 -0.4179 -0.6969 -1.0273
 1800SOL    HW217034   0.576   3.302   4.711  1.9019 -3.0021  1.7825
 1801SOL     OW17035   2.844   4.714   2.380 -0.7425  0.2067 -0.8456
 1801SOL    HW117036   2.896   4.634   2.381 -2.3449 -0.8227  0.1168
 1801SOL    HW217037   2.783   4.697   2.452  0.1852  3.3458  0.6596
 1802SOL     OW17038   0.735   2.967   7.510 -0.5115 -0.5349 -0.0897
 1802SOL    HW117039   0.829   2.969   7.492 -0.6355 -1.5459 -0.8430
 1802SOL    HW217040   0.721   2.873   7.504  2.1362 -0.8038 -1.8026
 1803SOL     OW17041   1.385   1.504   4.233 -0.4108 -0.1213 -0.0110
 1803SOL    HW117042   1.473   1.533   4.258 -0.3869 -0.2392  0.0395
 1803SOL    HW217043   1.401   1.410   4.221 -1.3963 -0.2413 -0.3301
 1804SOL     OW17044   1.453   1.392   1.765  0.4390 -0.1280  0.3120
 1804SOL    HW117045   1.397   1.319   1.739 -0.7148  1.0236 -0.3547
 1804SOL    HW217046   1.466   1.443   1.686  4.5840 -0.0249  1.0491
 1805SOL     OW17047   2.928   2.085  11.947 -0.0346  0.0040 -0.0401
 1805SOL    HW117048   2.881   2.002  11.959 -0.5639 -0.1037 -2.8190
 1805SOL    HW217049   2.979   2.083  12.028 -2.0495  2.3896  1.2553
 1806SOL     OW17050   4.630   4.475   9.416 -0.3380  0.1076 -0.5337
 1806SOL    HW117051   4.604   4.425   9.338 -0.2233 -0.9758  0.1245
 1806SOL    HW217052   4.693   4.532   9.371 -0.8205  0.3340 -0.9227
 1807SOL     OW17053   2.823   0.440   3.229  0.2355  0.7440  0.3635
 1807SOL    HW117054   2.752   0.470   3.173 -0.2334  0.2373  0.6916
 1807SOL    HW217055   2.875   0.379   3.176  1.5584 -1.0201  3.6763
 1808SOL     OW17056   4.224   1.278   5.939  0.2054 -0.0661  0.1239
 1808SOL    HW117057   4.213   1.307   6.030 -0.9362 -2.0877  0.6207
 1808SOL    HW217058   4.143   1.227   5.928  0.1722 -0.0904  0.4736
 1809SOL     OW17059   2.844   3.664   8.548  0.3575 -0.1635 -0.1676
 1809SOL    HW117060   2.920   3.720   8.535 -0.0940 -0.2159 -3.0392
 1809SOL    HW217061   2.835   3.669   8.643 -0.2597  0.5256 -0.2635
 1810SOL     OW17062   2.074   2.298   6.841  0.0612  0.5411  0.7624
 1810SOL    HW117063   2.122   2.373   6.877 -0.5117  1.1233  0.3231
 1810SOL    HW217064   2.011   2.339   6.782 -0.2613 -1.1038 -0.0412
 1811SOL     OW17065   2.881   0.269  17.259  0.2786  0.3591 -0.1727
 1811SOL    HW117066   2.862   0.332  17.329 -0.2302  0.0187 -0.0025
 1811SOL    HW217067   2.933   0.327  17.204  0.8489  1.3474  1.3939
 1812SOL     OW17068   3.766   0.522   2.195 -0.0978 -0.0996  0.5767
 1812SOL    HW117069   3.779   0.427   2.203 -0.1514 -0.1088  0.5539
 1812SOL    HW217070   3.683   0.527   2.147  0.0746  1.9805  0.5146
 1813SOL     OW17071   3.198   3.429   9.132  0.0534  0.2953 -0.3053
 1813SOL    HW117072   3.143   3.403   9.058  2.5848 -0.3124 -1.9594
 1813SOL    HW217073   3.149   3.510   9.149 -2.5382 -1.3528  0.1059
 1814SOL     OW17074   2.492   0.033   2.733 -0.3372 -0.4851 -0.2514
 1814SOL    HW117075   2.556   0.024   2.804 -1.3696 -0.1496  0.7207
 1814SOL    HW217076   2.407   0.003   2.767 -2.7342  3.2242 -2.9925
 1815SOL     OW17077   2.009   3.135   8.664 -0.3517 -0.3452 -0.3317
 1815SOL    HW117078   1.985   3.061   8.608 -0.5771  0.0605 -0.7761
 1815SOL    HW217079   2.074   3.179   8.610  0.4556 -0.8280  0.2480
 1816SOL     OW17080   0.667   1.848   2.229  0.2354 -0.3845  0.2946
 1816SOL    HW117081   0.677   1.943   2.220  1.2668 -0.6209 -1.1045
 1816SOL    HW217082   0.703   1.846   2.317  0.0603  0.6252  0.3977
 1817SOL     OW17083   4.261   3.603   2.215  0.0368  0.5430  0.6204
 1817SOL    HW117084   4.242   3.579   2.305 -1.8269  0.0731  0.1075
 1817SOL    HW217085   4.200   3.544   2.171 -0.7613  1.2723  0.7464
 1818SOL     OW17086   2.842   3.162   3.956 -0.4954 -0.8935  0.2570
 1818SOL    HW117087   2.780   3.186   4.026  1.7341  0.6368  1.7077
 1818SOL    HW217088   2.791   3.094   3.912 -0.5822 -0.3560 -0.4706
 1819SOL     OW17089   1.140   3.769   7.858 -0.2306 -0.3563  0.3895
 1819SOL    HW117090   1.135   3.815   7.774 -1.3795 -0.2338  0.5224
 1819SOL    HW217091   1.170   3.682   7.833 -1.7084 -0.8364  0.3245
 1820SOL     OW17092   0.632   0.790   3.581 -0.3914  0.3293  0.3592
 1820SOL    HW117093   0.635   0.872   3.629  1.1321  0.4902 -0.0141
 1820SOL    HW217094   0.539   0.768   3.578 -0.4570  0.9837 -3.7852
 1821SOL     OW17095   1.596   1.462   5.495 -0.3823  0.1488 -0.3144
 1821SOL    HW117096   1.648   1.393   5.536 -0.5013 -0.2094 -0.7713
 1821SOL    HW217097   1.651   1.480   5.419 -1.4276  2.9356 -0.4445
 1822SOL     OW17098   3.245   3.653   4.083  0.1612  0.3411 -0.3434
 1822SOL    HW117099   3.167   3.634   4.031 -0.1957  1.6584 -0.2804
 1822SOL    HW217100   3.218   3.725   4.140 -2.4191 -0.2957 -0.7858
 1823SOL     OW17101   2.373   0.080  14.281 -0.3500  0.5245  0.1141
 1823SOL    HW117102   2.417   0.100  14.199  1.3194  0.7961  1.0642
 1823SOL    HW217103   2.296   0.040  14.242 -0.1629  0.5778 -0.3088
 1824SOL     OW17104   3.930   3.288   3.429  0.0610 -0.4789  0.2314
 1824SOL    HW117105   3.921   3.325   3.517 -2.0856  0.3164 -0.3268
 1824SOL    HW217106   3.838   3.286   3.404 -0.3199 -2.9081  1.7521
 1825SOL     OW17107   1.006   2.757   2.032  0.2367  0.3932 -0.4497
 1825SOL    HW117108   0.981   2.738   2.123  0.0454 -0.4272 -0.6755
 1825SOL    HW217109   0.933   2.815   2.009 -0.7153 -1.1140 -1.1844
 1826SOL     OW17110   4.245   2.918   2.185  0.8301  0.6385  0.3753
 1826SOL    HW117111   4.331   2.935   2.145  0.4526 -0.2941 -0.8419
 1826SOL    HW217112   4.250   2.948   2.276 -0.9610  0.0621  0.6547
 1827SOL     OW17113   1.014   3.698   2.636  0.4152  0.0950  0.8209
 1827SOL    HW117114   1.042   3.686   2.727 -0.3466 -1.7906  0.8040
 1827SOL    HW217115   0.920   3.684   2.643  0.0524  1.3651 -1.7828
 1828SOL     OW17116   3.459   0.726   5.306  0.1781 -0.1251 -0.4054
 1828SOL    HW117117   3.399   0.738   5.232 -1.2997 -1.7794  0.5366
 1828SOL    HW217118   3.487   0.814   5.330 -1.8434 -0.4135  3.0918
 1829SOL     OW17119   2.262   3.316   8.515  0.1165 -0.2190  0.0346
 1829SOL    HW117120   2.335   3.304   8.454 -0.1060 -0.3173 -0.2102
 1829SOL    HW217121   2.316   3.306   8.593 -0.1213  0.3773  0.2750
 1830SOL     OW17122   3.077   2.134  15.577  0.0140  0.0674 -0.2285
 1830SOL    HW117123   3.133   2.146  15.500  0.4291  0.9305  0.2045
 1830SOL    HW217124   3.048   2.225  15.587  0.0436 -0.1663  2.1826
 1831SOL     OW17125   3.078   2.525   1.187 -0.0671  0.3039  0.3366
 1831SOL    HW117126   3.065   2.507   1.094 -1.3059 -0.8484  0.7370
 1831SOL    HW217127   3.095   2.442   1.232 -0.2141  0.8627  1.4310
 1832SOL     OW17128   2.545   2.879   8.970 -0.6270 -0.0713  0.8248
 1832SOL    HW117129   2.536   2.969   9.003 -0.8649 -0.0957  0.8238
 1832SOL    HW217130   2.493   2.890   8.890 -0.6075  3.4109  1.2722
 1833SOL     OW17131   4.248   4.661   2.258  0.2918 -0.6964  0.3346
 1833SOL    HW117132   4.213   4.608   2.187  0.3185 -1.8077  1.1558
 1833SOL    HW217133   4.307   4.605   2.308 -0.1612 -0.7184  0.8574
 1834SOL     OW17134   0.189   1.129   7.251  0.1255 -0.1143  0.4690
 1834SOL    HW117135   0.242   1.049   7.257  0.6591  0.0680 -1.8800
 1834SOL    HW217136   0.260   1.185   7.219  0.4783 -1.6935 -1.5161
 1835SOL     OW17137   1.395   2.894   5.521 -0.1140 -0.1779 -0.1121
 1835SOL    HW117138   1.328   2.924   5.583  1.4009  0.0956  1.3690
 1835SOL    HW217139   1.471   2.926   5.569 -0.7894  2.3350 -0.6833
 1836SOL     OW17140   2.807   1.840   6.554 -0.6074 -0.2357 -0.0792
 1836SOL    HW117141   2.759   1.833   6.471  0.8748 -1.0592 -0.8668
 1836SOL    HW217142   2.736   1.855   6.617 -0.4850  1.1989 -0.2717
 1837SOL     OW17143   2.371   4.108   6.047  0.0275 -0.5265  0.6189
 1837SOL    HW117144   2.393   4.200   6.028 -1.6479 -0.3814 -0.6727
 1837SOL    HW217145   2.442   4.087   6.107  0.8857 -0.6707 -0.4392
 1838SOL     OW17146   4.275   1.066   3.032  0.2478 -0.4608 -0.8295
 1838SOL    HW117147   4.266   1.086   2.939 -2.5319 -1.2963 -0.7298
 1838SOL    HW217148   4.217   0.992   3.049 -0.1188 -0.0508 -0.2920
 1839SOL     OW17149   0.239   3.811   2.662 -0.0320  0.4720 -0.1392
 1839SOL    HW117150   0.289   3.854   2.732  0.7936 -1.0792  0.2074
 1839SOL    HW217151   0.311   3.787   2.604  2.0506  2.6183  1.5378
 1840SOL     OW17152   0.386   2.692   1.409 -0.3620  0.4293 -0.5910
 1840SOL    HW117153   0.303   2.735   1.388 -0.8240 -0.4331 -0.5523
 1840SOL    HW217154   0.344   2.631   1.470  0.1537 -1.2083 -1.8646
 1841SOL     OW17155   0.511   1.278  14.827  0.6435 -0.2479 -0.3455
 1841SOL    HW117156   0.507   1.338  14.902  1.9382  1.3848 -1.5857
 1841SOL    HW217157   0.418   1.270  14.810  0.2199 -1.3739  2.4698
 1842SOL     OW17158   4.117   3.436   8.493  0.1097  0.2663  0.5888
 1842SOL    HW117159   4.057   3.462   8.562  0.9202 -0.5976  1.6131
 1842SOL    HW217160   4.171   3.512   8.470  0.0080 -0.3438 -1.7239
 1843SOL     OW17161   2.281   3.314  10.950 -0.6268 -0.8455 -0.3022
 1843SOL    HW117162   2.287   3.221  10.968  0.9621 -0.8191 -0.7165
 1843SOL    HW217163   2.278   3.356  11.036 -1.2627  0.6623 -1.0501
 1844SOL     OW17164   2.270   3.178  13.229 -0.2881 -0.1939 -0.2199
 1844SOL    HW117165   2.196   3.154  13.284  0.4200 -2.6068 -0.3064
 1844SOL    HW217166   2.253   3.124  13.152 -2.2038  0.2291 -0.0912
 1845SOL     OW17167   2.746   3.882   2.663 -0.4185 -0.2242  0.5126
 1845SOL    HW117168   2.673   3.939   2.641 -0.0813 -0.4350 -1.1305
 1845SOL    HW217169   2.697   3.801   2.681  0.2389 -0.6015  0.6051
 1846SOL     OW17170   4.146   2.731   8.633  0.2513  0.2764  0.6932
 1846SOL    HW117171   4.055   2.760   8.629  0.0599 -0.6235 -1.1114
 1846SOL    HW217172   4.148   2.709   8.726  0.5943 -1.4480  0.2675
 1847SOL     OW17173   3.126   1.315   3.914 -0.4678 -0.2122  0.0107
 1847SOL    HW117174   3.109   1.250   3.846 -0.4466  0.3457 -0.5237
 1847SOL    HW217175   3.096   1.266   3.991  0.6099 -0.4399  0.2969
 1848SOL     OW17176   3.211   2.597  13.235  0.5877 -0.1559 -0.4598
 1848SOL    HW117177   3.216   2.544  13.155  0.0768 -0.1759 -0.4771
 1848SOL    HW217178   3.121   2.630  13.233  0.4012 -0.6538 -0.2508
 1849SOL     OW17179   4.258   4.356   4.797  0.0509  0.1579 -0.7312
 1849SOL    HW117180   4.172   4.393   4.780  0.5303  0.5538 -2.3438
 1849SOL    HW217181   4.295   4.424   4.853  1.1066 -0.5355 -0.5776
 1850SOL     OW17182   2.262   0.366  15.429 -0.0969 -0.4171  0.1675
 1850SOL    HW117183   2.174   0.379  15.395 -1.0263 -0.2569  2.6986
 1850SOL    HW217184   2.260   0.271  15.417  0.4787 -0.2853 -1.0223
 1851SOL     OW17185   2.674   2.980   3.866  0.4368  0.2810  0.1575
 1851SOL    HW117186   2.636   2.997   3.781  0.7180 -2.2554 -0.4901
 1851SOL    HW217187   2.598   2.952   3.917 -1.7422  0.5664 -3.0183
 1852SOL     OW17188   3.377   3.660  10.160 -0.1429 -0.0760  0.0236
 1852SOL    HW117189   3.424   3.630  10.238 -2.6349 -0.7309  1.2720
 1852SOL    HW217190   3.451   3.655  10.099 -1.4842 -0.2326 -1.5984
 1853SOL     OW17191   1.491   2.436   6.604 -0.2644  0.0068  0.0835
 1853SOL    HW117192   1.447   2.352   6.593  1.8005 -0.9905 -0.5871
 1853SOL    HW217193   1.455   2.470   6.686  0.3876 -2.8282  1.5442
 1854SOL     OW17194   0.019   3.128   2.719  0.0017  0.1713 -0.0744
 1854SOL    HW117195   4.684   3.076   2.680  1.8890 -1.2216 -1.5998
 1854SOL    HW217196   0.003   3.218   2.689 -0.6129 -0.6708 -2.2780
 1855SOL     OW17197   2.264   0.828   0.758  0.0896 -0.3613  0.5247
 1855SOL    HW117198   2.248   0.902   0.817  3.2570  0.9106 -0.1874
 1855SOL    HW217199   2.358   0.815   0.770  0.3092 -0.1124 -0.9264
 1856SOL     OW17200   0.751   4.468   4.684  0.0065 -0.6714  0.4425
 1856SOL    HW117201   0.837   4.502   4.662 -0.0544 -0.6202  0.2827
 1856SOL    HW217202   0.744   4.486   4.778  0.6232  1.4326  0.0952
 1857SOL     OW17203   3.546   3.494   4.255 -0.8463 -1.1510 -0.1005
 1857SOL    HW117204   3.498   3.485   4.337 -0.3414 -0.2641  0.2934
 1857SOL    HW217205   3.475   3.484   4.192  0.0079 -0.3456 -1.1891
 1858SOL     OW17206   0.885   3.006   2.728  0.7019 -0.0631 -0.6919
 1858SOL    HW117207   0.826   2.944   2.770 -0.5530  1.4487 -0.2094
 1858SOL    HW217208   0.941   3.017   2.804  0.5800  1.3073 -0.7891
 1859SOL     OW17209   0.911   3.377  10.518 -0.2723  0.0458  0.3497
 1859SOL    HW117210   0.959   3.414  10.444  0.0862 -1.8558 -0.3693
 1859SOL    HW217211   0.978   3.391  10.586  0.9932  0.5979 -1.0054
 1860SOL     OW17212   3.369   1.183  16.738 -0.0587  0.3160  0.2984
 1860SOL    HW117213   3.279   1.151  16.747  0.1618 -0.3142  0.2717
 1860SOL    HW217214   3.350   1.277  16.746  1.9999  0.8372 -1.1160
 1861SOL     OW17215   1.157   0.207   9.259  0.2093 -0.1225  0.3553
 1861SOL    HW117216   1.216   0.185   9.331  0.2639 -2.0808 -0.2726
 1861SOL    HW217217   1.073   0.169   9.284 -0.6172  0.8711 -0.8687
 1862SOL     OW17218   2.782   0.933  13.155 -0.2248  0.1128 -0.3646
 1862SOL    HW117219   2.771   1.014  13.106 -2.0640 -1.1267 -2.0003
 1862SOL    HW217220   2.850   0.891  13.102 -0.0858 -0.0433 -0.0630
 1863SOL     OW17221   1.008   4.284   1.192  0.7571 -0.0405 -0.2190
 1863SOL    HW117222   1.023   4.218   1.125 -0.9315 -1.3671  0.6828
 1863SOL    HW217223   1.029   4.363   1.142  0.3563  0.1056 -0.1593
 1864SOL     OW17224   0.733   1.389   4.764  0.0110  0.5452  0.7536
 1864SOL    HW117225   0.641   1.408   4.783  0.0635  0.5129  1.0443
 1864SOL    HW217226   0.781   1.461   4.805 -0.2861  0.6614  0.8944
 1865SOL     OW17227   2.329   0.477   7.988  0.2879 -0.5604 -0.2932
 1865SOL    HW117228   2.363   0.563   7.962 -1.0243 -0.2503 -1.0083
 1865SOL    HW217229   2.409   0.425   7.988 -0.1249 -1.1961 -3.6608
 1866SOL     OW17230   1.452   3.450   4.107 -0.5157  0.2281  0.3007
 1866SOL    HW117231   1.515   3.378   4.096 -1.7634 -0.9236  0.6686
 1866SOL    HW217232   1.450   3.444   4.202  1.0294 -1.7027  0.2006
 1867SOL     OW17233   0.285   0.805   7.850  0.0354 -0.5135  0.2053
 1867SOL    HW117234   0.337   0.729   7.823  0.9623  0.7365 -1.5949
 1867SOL    HW217235   0.226   0.802   7.774 -0.4792 -4.3091  0.7521
 1868SOL     OW17236   2.268   4.031   7.710 -0.3677 -0.1695  0.3853
 1868SOL    HW117237   2.327   4.088   7.661 -0.3454  0.1339  0.7618
 1868SOL    HW217238   2.189   4.036   7.656 -0.0080  2.2882  0.0771
 1869SOL     OW17239   0.438   0.684   9.052 -0.0027  0.2889  0.0282
 1869SOL    HW117240   0.356   0.671   9.099 -1.2449 -0.5681 -2.3947
 1869SOL    HW217241   0.413   0.748   8.985 -0.8572  1.6557  1.6291
 1870SOL     OW17242   1.115   4.664   7.264 -0.1696 -0.0800 -0.1422
 1870SOL    HW117243   1.061   0.008   7.262  2.1373  1.4378 -1.8384
 1870SOL    HW217244   1.136   4.677   7.172  2.2209 -0.2129  0.3882
 1871SOL     OW17245   4.077   3.311   6.942  0.8800  0.4649  0.3335
 1871SOL    HW117246   4.015   3.358   6.997  1.8571  1.5327  0.5172
 1871SOL    HW217247   4.076   3.228   6.989 -1.9535  0.0538 -0.3997
 1872SOL     OW17248   1.181   2.732   6.479  0.2555  0.2728  0.2079
 1872SOL    HW117249   1.166   2.792   6.553 -0.6077 -2.3509  2.1752
 1872SOL    HW217250   1.218   2.652   6.517 -1.3648 -1.3186 -1.5872
 1873SOL     OW17251   3.988   3.977   1.046  0.3564  0.4667 -0.0190
 1873SOL    HW117252   4.011   3.924   1.122 -0.7031 -1.2981 -0.9386
 1873SOL    HW217253   3.970   4.059   1.093 -1.4063  1.0360 -1.7165
 1874SOL     OW17254   0.937   0.442   6.294  0.9857 -0.1405  0.0646
 1874SOL    HW117255   0.855   0.460   6.248  1.2442  1.6127  0.2885
 1874SOL    HW217256   0.925   0.493   6.374 -1.8222 -1.1142  0.2399
 1875SOL     OW17257   1.806   2.239   8.957  1.0570 -0.6799  0.0463
 1875SOL    HW117258   1.899   2.260   8.958  0.0540  3.9439 -0.4105
 1875SOL    HW217259   1.767   2.322   8.928 -0.2126 -1.1631  0.3524
 1876SOL     OW17260   1.731   1.457   3.037 -0.9776  1.0861 -0.3421
 1876SOL    HW117261   1.807   1.438   2.981 -0.1374 -2.4495  1.9989
 1876SOL    HW217262   1.692   1.527   2.984 -0.9556  0.3934 -1.2756
 1877SOL     OW17263   0.529   2.843   4.221  0.4964  0.0925 -0.2091
 1877SOL    HW117264   0.542   2.758   4.179 -0.1313 -0.4672  0.7403
 1877SOL    HW217265   0.618   2.873   4.239  0.7822 -0.0316 -1.4392
 1878SOL     OW17266   0.043   2.732   6.398 -0.0543  0.4516 -0.1050
 1878SOL    HW117267   0.061   2.717   6.491  1.5973 -3.4730 -1.0244
 1878SOL    HW217268   4.727   2.811   6.385 -1.8242 -0.7534 -0.4285
 1879SOL     OW17269   2.343   2.558   3.423 -0.5843 -0.3639  0.2846
 1879SOL    HW117270   2.390   2.584   3.502  3.1266 -0.6903 -1.7972
 1879SOL    HW217271   2.302   2.474   3.444 -0.0453 -1.0592 -1.4438
 1880SOL     OW17272   4.439   3.186   2.694  0.1405  0.2728 -0.0447
 1880SOL    HW117273   4.446   3.233   2.611  0.5002  1.1998  0.5207
 1880SOL    HW217274   4.388   3.252   2.741  0.9359 -0.5528  1.9320
 1881SOL     OW17275   0.914   1.172   2.492 -0.1021  0.2448  0.1187
 1881SOL    HW117276   0.893   1.237   2.559  2.7801  0.3442  0.9541
 1881SOL    HW217277   1.010   1.176   2.491 -0.0819 -0.2245 -0.1728
 1882SOL     OW17278   1.680   1.624   4.512 -0.3262  0.1837  0.7993
 1882SOL    HW117279   1.679   1.536   4.549  0.9977  0.1678  0.7857
 1882SOL    HW217280   1.746   1.603   4.446 -0.1067 -0.1234  1.1148
 1883SOL     OW17281   2.699   0.302   2.058 -0.2485 -0.2707  0.3761
 1883SOL    HW117282   2.652   0.278   2.138 -0.0709  0.3534  0.6698
 1883SOL    HW217283   2.629   0.312   1.994 -1.5343 -0.5862  1.7230
 1884SOL     OW17284   1.241   4.306   2.024 -0.7391  0.1588 -0.1238
 1884SOL    HW117285   1.266   4.362   2.097 -0.7061  1.3048 -1.0154
 1884SOL    HW217286   1.257   4.371   1.956  0.5294 -0.7456 -0.6833
 1885SOL     OW17287   3.204   2.910   1.913 -0.8079 -0.0412 -0.2539
 1885SOL    HW117288   3.222   2.848   1.983 -2.2852 -1.2727 -0.9671
 1885SOL    HW217289   3.115   2.884   1.890 -1.1448  0.8885  0.0073
 1886SOL     OW17290   0.244   4.258   3.543 -0.1495  0.3456 -0.1873
 1886SOL    HW117291   0.206   4.345   3.558  3.0705  1.8096 -0.4474
 1886SOL    HW217292   0.339   4.272   3.543 -0.2417  0.9565 -0.7737
 1887SOL     OW17293   1.188   3.702   7.212 -0.3925 -0.0975 -0.3326
 1887SOL    HW117294   1.112   3.688   7.156 -0.0013 -0.1171 -0.8544
 1887SOL    HW217295   1.156   3.652   7.288  1.4840 -1.3255 -0.3514
 1888SOL     OW17296   1.998   4.441  13.389  0.6178 -0.2759  0.4495
 1888SOL    HW117297   1.939   4.379  13.346 -1.4184  0.3237  2.3936
 1888SOL    HW217298   2.050   4.458  13.311 -1.5088 -0.0276 -0.9090
 1889SOL     OW17299   4.277   2.505   3.681 -0.0149 -0.0073  0.3512
 1889SOL    HW117300   4.357   2.460   3.707 -1.4067 -1.3909  2.1809
 1889SOL    HW217301   4.261   2.486   3.589  0.1512 -1.4657  0.6272
 1890SOL     OW17302   2.085   2.641   5.997  0.2598  0.5545 -0.2339
 1890SOL    HW117303   2.072   2.667   5.906  1.2687  0.5547 -0.3870
 1890SOL    HW217304   2.044   2.555   5.994  1.3268  0.0387  0.0004
 1891SOL     OW17305   4.266   4.168  11.975 -0.0142 -0.4249 -0.0766
 1891SOL    HW117306   4.295   4.244  11.925 -1.6608  0.0525 -0.3319
 1891SOL    HW217307   4.352   4.130  11.988  0.2071  0.1577  0.1362
 1892SOL     OW17308   1.842   3.917  12.843 -0.0763  0.0738 -0.3853
 1892SOL    HW117309   1.840   3.958  12.929 -1.9652  0.2238 -0.4946
 1892SOL    HW217310   1.752   3.922  12.811  0.0453 -2.1736 -1.0661
 1893SOL     OW17311   2.079   0.523  10.335  0.3875  0.7657 -0.3059
 1893SOL    HW117312   2.111   0.455  10.395  2.8373  1.9025 -0.3210
 1893SOL    HW217313   1.995   0.483  10.313 -0.1371  0.4447  2.2709
 1894SOL     OW17314   1.284   0.097  14.782 -0.6294  0.1826  1.0208
 1894SOL    HW117315   1.249   0.078  14.696 -0.3916  1.2612  0.6861
 1894SOL    HW217316   1.324   0.182  14.764  0.5390 -0.3288  1.2239
 1895SOL     OW17317   1.869   3.755   4.361  0.1253 -0.5534 -0.0221
 1895SOL    HW117318   1.877   3.749   4.265  1.3374  1.4827 -0.0516
 1895SOL    HW217319   1.816   3.835   4.366  2.2351  0.6638  2.6915
 1896SOL     OW17320   2.720   3.036   5.721 -0.5920  0.1516  0.3002
 1896SOL    HW117321   2.755   2.962   5.772  1.5593  0.1341 -1.1799
 1896SOL    HW217322   2.675   3.095   5.781  0.1337  1.4115 -0.4061
 1897SOL     OW17323   2.829   2.493  12.617  0.3656  0.1715  0.9338
 1897SOL    HW117324   2.764   2.469  12.682  0.2608  1.1863  1.2060
 1897SOL    HW217325   2.905   2.480  12.674  0.5355 -0.1667  0.6337
 1898SOL     OW17326   2.616   1.554   6.029 -0.1121  0.2403 -0.1844
 1898SOL    HW117327   2.698   1.577   5.985 -0.0225  0.4259  0.0737
 1898SOL    HW217328   2.550   1.546   5.961  0.5538  0.9172 -0.9107
 1899SOL     OW17329   1.374   1.843   7.410 -0.2297 -0.6073  0.1305
 1899SOL    HW117330   1.448   1.847   7.349 -0.2366  0.6348  0.2170
 1899SOL    HW217331   1.308   1.843   7.341  1.0917 -0.2776 -1.1483
 1900SOL     OW17332   0.876   0.132   9.851 -0.1280  0.1704  0.4843
 1900SOL    HW117333   0.943   0.119   9.784  0.2966  1.8053  0.5915
 1900SOL    HW217334   0.930   0.181   9.913 -0.5792  0.4203  0.6772
 1901SOL     OW17335   0.271   4.534   5.436  0.2064  0.5435 -0.1313
 1901SOL    HW117336   0.295   4.545   5.528  0.4867  0.6432 -0.2142
 1901SOL    HW217337   0.354   4.570   5.403 -0.6213  1.7960 -0.8269
 1902SOL     OW17338   2.861   3.370  10.500 -0.2187 -0.1864  0.1435
 1902SOL    HW117339   2.784   3.391  10.552 -1.0012  0.7316 -1.3776
 1902SOL    HW217340   2.932   3.382  10.563 -0.4568  0.0233  0.3678
 1903SOL     OW17341   3.620   2.379   7.102  0.4827 -0.1524 -0.4847
 1903SOL    HW117342   3.532   2.390   7.136  0.6557  1.6015 -0.6208
 1903SOL    HW217343   3.634   2.473   7.091 -0.6247  0.2147  1.2343
 1904SOL     OW17344   2.580   4.715  13.741  0.2485 -0.5777 -0.3311
 1904SOL    HW117345   2.532   0.046  13.691  1.4902 -1.6360 -2.8703
 1904SOL    HW217346   2.656   0.026  13.778 -0.6734 -1.2437  2.4130
 1905SOL     OW17347   3.521   1.898   6.747 -0.2471  0.0901  0.5698
 1905SOL    HW117348   3.433   1.933   6.759  0.1942  1.1182  0.8058
 1905SOL    HW217349   3.510   1.804   6.730  0.4713  0.1099  0.0205
 1906SOL     OW17350   3.182   1.862   9.107  0.6188  0.8006  0.7103
 1906SOL    HW117351   3.132   1.781   9.123  2.2693 -0.7492 -1.9139
 1906SOL    HW217352   3.144   1.934   9.158  2.7189  1.9462  0.6554
 1907SOL     OW17353   3.507   0.262   2.033 -0.0642  0.9772 -0.1741
 1907SOL    HW117354   3.575   0.233   1.972 -0.2933  3.1071 -1.4697
 1907SOL    HW217355   3.524   0.195   2.099 -2.4754  2.4916  1.9930
 1908SOL     OW17356   1.770   0.937   1.521 -0.5346  0.2802  0.0949
 1908SOL    HW117357   1.843   0.985   1.561 -0.9559 -0.0292  1.2580
 1908SOL    HW217358   1.752   0.961   1.430  0.2825 -2.7298 -0.8608
 1909SOL     OW17359   1.174   2.741   4.265 -0.2515  0.1154  0.3556
 1909SOL    HW117360   1.142   2.702   4.184 -0.2198  0.9850 -0.0739
 1909SOL    HW217361   1.269   2.756   4.256  0.0606 -3.4722 -2.0627
 1910SOL     OW17362   2.472   3.940   7.873 -0.2621  0.3412  0.2066
 1910SOL    HW117363   2.477   3.894   7.790 -0.6628 -1.2359  1.0483
 1910SOL    HW217364   2.403   4.003   7.853  0.9770  2.1608  1.6358
 1911SOL     OW17365   3.752   4.512   2.897 -0.1678  0.1432  0.2576
 1911SOL    HW117366   3.753   4.497   2.803 -0.1574  1.7411  0.0078
 1911SOL    HW217367   3.846   4.529   2.907  0.1276 -0.8646 -0.9027
 1912SOL     OW17368   2.978   2.205  15.148 -0.0713 -0.2032 -0.6774
 1912SOL    HW117369   2.969   2.221  15.054 -2.9832 -0.6171 -0.4786
 1912SOL    HW217370   3.073   2.215  15.153 -0.0422 -1.8200  1.9046
 1913SOL     OW17371   2.280   0.119   8.118  0.8526 -0.5985 -0.4484
 1913SOL    HW117372   2.209   0.100   8.057 -1.1712  3.4691  0.6310
 1913SOL    HW217373   2.281   0.033   8.160 -0.2560 -1.0159 -1.2808
 1914SOL     OW17374   0.840   2.650  14.534 -0.1763 -0.0535 -0.3040
 1914SOL    HW117375   0.923   2.651  14.581 -0.7411 -2.0491  0.7625
 1914SOL    HW217376   0.790   2.593  14.593  2.0323  0.2663  1.8839
 1915SOL     OW17377   2.295   1.420   3.584 -0.3083  0.0962 -0.1254
 1915SOL    HW117378   2.347   1.405   3.506 -0.5120  1.5956 -0.5577
 1915SOL    HW217379   2.272   1.513   3.574 -0.1422 -0.0481 -1.8990
 1916SOL     OW17380   2.151   2.463   5.330 -0.2929  0.4370  0.0998
 1916SOL    HW117381   2.200   2.447   5.411 -1.1073 -1.2701  0.2597
 1916SOL    HW217382   2.187   2.550   5.318  0.3565 -0.1434 -2.1549
 1917SOL     OW17383   2.418   2.087   3.427  0.4407  0.3799 -0.5545
 1917SOL    HW117384   2.473   2.077   3.505  2.4322  2.5394 -1.6817
 1917SOL    HW217385   2.429   1.997   3.395 -2.6023 -0.5306  0.9302
 1918SOL     OW17386   0.153   1.351   6.906  0.4018  0.9600 -0.0244
 1918SOL    HW117387   0.113   1.300   6.836 -1.7546 -0.8473  2.5220
 1918SOL    HW217388   0.234   1.302   6.922  0.9666  1.0657 -2.6281
 1919SOL     OW17389   4.615   0.831  15.381  0.6560  0.6116 -0.8350
 1919SOL    HW117390   4.579   0.751  15.420 -0.1533  0.9996 -0.7745
 1919SOL    HW217391   4.688   0.814  15.322  1.7210 -2.8475  1.4573
 1920SOL     OW17392   0.536   0.640   8.375 -0.1575 -0.0216  0.2240
 1920SOL    HW117393   0.531   0.592   8.293  1.2769  1.1062 -0.5193
 1920SOL    HW217394   0.522   0.730   8.344 -2.0519 -0.4023 -0.0064
 1921SOL     OW17395   3.066   1.306   7.361 -0.0927 -0.4726  0.3369
 1921SOL    HW117396   3.057   1.335   7.452  1.5401 -1.1279  0.6999
 1921SOL    HW217397   3.131   1.237   7.374  0.2828 -0.0079  0.9024
 1922SOL     OW17398   3.437   0.123   3.281  0.0606 -0.0929 -0.4022
 1922SOL    HW117399   3.471   0.046   3.236 -0.1117 -1.7413  2.2624
 1922SOL    HW217400   3.389   0.077   3.351  1.4746  0.7696  1.1325
 1923SOL     OW17401   2.821   1.797   5.708  0.1829  0.4808  0.7207
 1923SOL    HW117402   2.859   1.872   5.661  2.0296  0.4566  2.1900
 1923SOL    HW217403   2.733   1.793   5.669  1.6628  2.8964 -2.9166
 1924SOL     OW17404   2.792   3.224   9.283 -0.0587 -0.1883 -0.2818
 1924SOL    HW117405   2.824   3.255   9.198 -0.1362  0.2722 -0.1447
 1924SOL    HW217406   2.789   3.301   9.340 -0.6796  1.1079 -2.0779
 1925SOL     OW17407   2.964   0.264  10.687  0.1675 -0.2114  0.7808
 1925SOL    HW117408   2.912   0.341  10.711 -0.4767 -0.8987  1.5932
 1925SOL    HW217409   2.902   0.192  10.691 -1.0289  0.7880  0.3880
 1926SOL     OW17410   0.946   2.730  11.706  0.1666  0.5294  0.1847
 1926SOL    HW117411   1.041   2.717  11.706  0.2857  1.4282 -0.9430
 1926SOL    HW217412   0.935   2.758  11.797 -1.2121 -2.5751  0.9685
 1927SOL     OW17413   2.562   0.760  13.297 -0.1574  0.1694  0.1856
 1927SOL    HW117414   2.545   0.852  13.315  0.2396  0.3752 -0.5380
 1927SOL    HW217415   2.654   0.771  13.273 -0.1819 -0.1398 -0.0518
 1928SOL     OW17416   4.111   4.051   9.002 -0.0505 -0.3356 -0.3064
 1928SOL    HW117417   4.056   4.105   9.059  0.4509  1.2614 -1.3438
 1928SOL    HW217418   4.181   4.115   8.993 -0.8441  0.6521  0.4848
 1929SOL     OW17419   4.561   0.557  15.433 -0.0857 -0.3996  0.3332
 1929SOL    HW117420   4.483   0.503  15.429 -2.2099  2.5813  1.6572
 1929SOL    HW217421   4.608   0.515  15.361 -0.7928  0.1695 -0.4609
 1930SOL     OW17422   3.181   4.002   9.262 -0.2732 -0.9208 -0.1112
 1930SOL    HW117423   3.238   4.069   9.299 -0.6504 -0.0570 -1.1230
 1930SOL    HW217424   3.176   4.035   9.173  2.6430  0.7468  0.3416
 1931SOL     OW17425   2.102   1.603  10.723 -0.3601 -0.1134 -0.3660
 1931SOL    HW117426   2.141   1.674  10.774 -1.3646  0.1481  0.0343
 1931SOL    HW217427   2.074   1.645  10.641 -0.9206 -1.6147 -0.9507
 1932SOL     OW17428   1.908   2.277   2.819  0.5353 -0.2721  0.1221
 1932SOL    HW117429   2.003   2.292   2.822  0.2427  1.7903 -0.8403
 1932SOL    HW217430   1.902   2.188   2.785  2.8985  0.1139 -1.3227
 1933SOL     OW17431   3.215   0.067   3.047  0.3798 -0.0185  0.6555
 1933SOL    HW117432   3.259   0.099   2.968  0.4931 -0.9400  0.3381
 1933SOL    HW217433   3.261   4.718   3.050 -0.8401 -0.7158 -0.0087
 1934SOL     OW17434   2.822   1.757   8.653 -0.2212 -0.0221 -0.1147
 1934SOL    HW117435   2.912   1.787   8.664 -1.0941  2.2467  0.9338
 1934SOL    HW217436   2.828   1.707   8.571 -2.7142  0.8216 -0.8157
 1935SOL     OW17437   0.619   3.748   5.219  0.4070  0.1910  0.2747
 1935SOL    HW117438   0.641   3.686   5.149  0.1841 -0.1961  0.5502
 1935SOL    HW217439   0.526   3.760   5.198 -0.0972 -1.9609  1.2696
 1936SOL     OW17440   0.411   1.749  17.508 -0.5393 -0.8042 -0.2757
 1936SOL    HW117441   0.441   1.758  17.418  0.0282  1.5862  0.1544
 1936SOL    HW217442   0.358   1.669  17.508 -0.8297 -0.6263 -2.1167
 1937SOL     OW17443   0.154   3.984   8.654  0.4612  0.3467 -0.4426
 1937SOL    HW117444   0.146   3.975   8.749 -3.2692 -0.5071 -0.8160
 1937SOL    HW217445   0.094   4.057   8.641 -1.7873 -1.1257  1.6724
 1938SOL     OW17446   0.763   3.022  16.111 -0.0044 -0.4916 -0.5730
 1938SOL    HW117447   0.730   3.098  16.063 -0.0056  0.1496  0.4300
 1938SOL    HW217448   0.683   2.979  16.140  0.6598 -0.9170  0.6514
 1939SOL     OW17449   2.304   3.281  12.964 -0.0142  0.0821 -0.1272
 1939SOL    HW117450   2.217   3.283  12.925  1.0413 -0.4778 -2.5182
 1939SOL    HW217451   2.281   3.316  13.050 -1.2667 -0.3017 -0.3128
 1940SOL     OW17452   0.833   2.067   2.881  0.1455  0.3915 -0.0108
 1940SOL    HW117453   0.908   2.124   2.863  2.0087 -1.5997  1.4941
 1940SOL    HW217454   0.790   2.074   2.796 -0.2178  2.9078  0.3685
 1941SOL     OW17455   0.748   2.451   5.576  0.6135  0.5063 -0.4251
 1941SOL    HW117456   0.661   2.484   5.602 -0.3162 -2.4217  0.1236
 1941SOL    HW217457   0.736   2.445   5.481  0.4785  0.0962 -0.3803
 1942SOL     OW17458   0.727   2.694   7.526  0.2256  0.2863 -0.0498
 1942SOL    HW117459   0.772   2.683   7.610 -0.0061  0.4743  0.0981
 1942SOL    HW217460   0.651   2.639   7.546 -0.3943  1.3890  0.6687
 1943SOL     OW17461   2.370   0.857   5.828  0.4619 -0.3099  0.3341
 1943SOL    HW117462   2.385   0.763   5.818  1.7898 -0.3134  2.1829
 1943SOL    HW217463   2.275   0.849   5.826  0.4888 -1.1893  2.0193
 1944SOL     OW17464   3.335   1.129   4.296 -0.1202  0.5011 -0.4416
 1944SOL    HW117465   3.244   1.106   4.280 -0.2833  0.6768  0.2189
 1944SOL    HW217466   3.380   1.083   4.225 -0.4061 -0.0851 -0.2446
 1945SOL     OW17467   1.942   2.098   0.393 -0.1205  0.3154 -0.4400
 1945SOL    HW117468   1.887   2.150   0.335 -0.1954  1.0480  0.2829
 1945SOL    HW217469   1.920   2.127   0.481  2.1247 -0.3013  0.3393
 1946SOL     OW17470   4.576   4.213  11.620 -0.3085  0.2118  0.6142
 1946SOL    HW117471   4.583   4.303  11.587  0.2594 -0.9512 -2.4932
 1946SOL    HW217472   4.481   4.206  11.622 -0.3403  0.6236  0.6294
 1947SOL     OW17473   2.716   4.733  16.275 -0.1761 -0.1694 -0.4826
 1947SOL    HW117474   2.687   0.008  16.184 -1.2948  0.3888 -0.0682
 1947SOL    HW217475   2.729   4.639  16.285 -1.6421 -0.7885 -4.4732
 1948SOL     OW17476   3.091   1.445   3.030  0.5271  0.4621 -0.4385
 1948SOL    HW117477   3.101   1.426   3.124 -0.4963 -1.0187 -0.6310
 1948SOL    HW217478   3.014   1.393   3.009  0.0959  1.5193 -1.4682
 1949SOL     OW17479   4.287   0.685   5.181 -0.0059  0.4149 -0.4360
 1949SOL    HW117480   4.207   0.634   5.176 -0.4407  1.2436 -1.8693
 1949SOL    HW217481   4.262   0.778   5.184 -0.2214  0.4030 -2.2109
 1950SOL     OW17482   0.621   1.073   8.009  0.1090 -0.2212 -0.0528
 1950SOL    HW117483   0.649   1.125   7.934  1.5411  0.9931  1.3255
 1950SOL    HW217484   0.613   0.984   7.974  2.2576  0.0150 -1.1212
 1951SOL     OW17485   3.397   1.804   5.759  0.1113  0.2203 -0.6738
 1951SOL    HW117486   3.465   1.839   5.817  0.4914 -0.7709 -0.5185
 1951SOL    HW217487   3.413   1.710   5.766  0.1384  0.2630 -0.1679
 1952SOL     OW17488   4.703   4.531   8.466 -0.1810 -0.1234  0.1584
 1952SOL    HW117489   4.609   4.549   8.455  0.9681  4.1390 -2.5502
 1952SOL    HW217490   4.732   4.578   8.544 -0.9937  0.8166 -0.1057
 1953SOL     OW17491   0.796   3.199   8.117  0.0997 -0.3325  0.1039
 1953SOL    HW117492   0.775   3.167   8.205 -1.3592 -1.4044 -0.6316
 1953SOL    HW217493   0.859   3.130   8.095  1.5456  0.2147  2.4821
 1954SOL     OW17494   4.427   3.046   2.372  0.3363 -0.1829 -0.4771
 1954SOL    HW117495   4.432   3.074   2.281 -1.5676  0.0222 -0.5295
 1954SOL    HW217496   4.363   3.109   2.406  0.2541  0.2494 -1.4347
 1955SOL     OW17497   3.897   2.631   4.642  0.3639  0.5044  1.0507
 1955SOL    HW117498   3.853   2.711   4.614  1.4449  0.0443 -1.8878
 1955SOL    HW217499   3.976   2.660   4.688  1.5775  0.2514 -0.9123
 1956SOL     OW17500   2.774   2.783  17.733 -0.2711 -0.3437  0.5880
 1956SOL    HW117501   2.759   2.865  17.687  0.0765 -1.1555 -1.0020
 1956SOL    HW217502   2.684   2.756   0.010 -1.7014  2.9066 -1.8841
 1957SOL     OW17503   0.820   2.711   4.395  0.0886  0.2930  0.2780
 1957SOL    HW117504   0.817   2.651   4.321  1.2084  0.4946  0.0789
 1957SOL    HW217505   0.803   2.796   4.357  1.6477  0.5082  0.0716
 1958SOL     OW17506   3.095   4.393   3.024  0.2873  0.0122 -0.2383
 1958SOL    HW117507   3.151   4.319   2.999  3.0331  1.5111  1.5121
 1958SOL    HW217508   3.081   4.425   2.935 -0.1377 -1.8988 -0.8739
 1959SOL     OW17509   4.147   1.408   6.215 -0.1508 -0.3601 -0.1675
 1959SOL    HW117510   4.074   1.349   6.195 -1.5873  1.0235  1.0400
 1959SOL    HW217511   4.145   1.403   6.310  2.5987  3.2623  0.1002
 1960SOL     OW17512   1.092   3.684   2.907 -0.1544  0.2062  0.8808
 1960SOL    HW117513   1.112   3.762   2.959  0.4973  0.0420  0.8730
 1960SOL    HW217514   1.182   3.654   2.897 -1.2532 -2.2093 -1.7343
 1961SOL     OW17515   3.161   2.710   8.318  0.4424 -0.8184 -0.8032
 1961SOL    HW117516   3.154   2.623   8.358 -0.0736 -0.6486 -0.5175
 1961SOL    HW217517   3.192   2.761   8.393 -0.5396 -2.6451  0.8433
 1962SOL     OW17518   0.655   1.148   6.648  0.0261  1.1371 -0.2670
 1962SOL    HW117519   0.622   1.094   6.577  1.1375 -1.3998  1.1305
 1962SOL    HW217520   0.751   1.146   6.643  0.0921 -3.2323  2.8080
 1963SOL     OW17521   2.834   0.148   7.193 -0.6895  0.0443  0.4422
 1963SOL    HW117522   2.791   0.111   7.116  1.4328  1.6222 -1.5228
 1963SOL    HW217523   2.838   0.074   7.254 -0.2838 -1.0959 -0.9460
 1964SOL     OW17524   3.658   1.194   4.166  0.1150 -0.4017 -0.8605
 1964SOL    HW117525   3.631   1.157   4.082 -2.6475 -0.2843 -0.0429
 1964SOL    HW217526   3.643   1.117   4.222 -0.3593 -0.1432 -0.6285
 1965SOL     OW17527   3.647   1.606   7.441  0.0201  0.0993  0.2673
 1965SOL    HW117528   3.574   1.574   7.494  1.5434 -1.2495  1.5712
 1965SOL    HW217529   3.618   1.693   7.413  0.5426  0.1163 -0.2288
 1966SOL     OW17530   0.074   0.095   2.376  0.4969 -0.3297 -0.4750
 1966SOL    HW117531   0.022   0.047   2.312 -2.5125  0.5551  1.3258
 1966SOL    HW217532   0.071   0.186   2.347 -2.7436 -0.0595  0.6637
 1967SOL     OW17533   4.398   1.849   8.498 -0.1977  0.3665 -0.1551
 1967SOL    HW117534   4.474   1.791   8.493  0.3113  1.1178 -1.1539
 1967SOL    HW217535   4.409   1.893   8.414 -1.2356  3.0057  1.0954
 1968SOL     OW17536   2.140   3.201   2.497  0.2490 -0.1211  0.4607
 1968SOL    HW117537   2.154   3.185   2.590  1.9621 -0.5881  0.1312
 1968SOL    HW217538   2.232   3.186   2.471 -0.1792 -0.3274 -0.9625
 1969SOL     OW17539   1.878   0.525   1.800  0.8396 -0.3047  0.1338
 1969SOL    HW117540   1.950   0.588   1.794  0.7607 -0.1510  0.8566
 1969SOL    HW217541   1.920   0.444   1.771  0.2032  0.0544 -1.8388
 1970SOL     OW17542   4.557   4.461  11.515 -0.1129  0.3830 -0.4675
 1970SOL    HW117543   4.463   4.451  11.503 -0.4465 -0.5026  2.7681
 1970SOL    HW217544   4.590   4.501  11.435 -1.0047  0.2691 -0.8943
 1971SOL     OW17545   2.396   2.254  16.369 -0.1248  0.1160 -0.4288
 1971SOL    HW117546   2.354   2.168  16.376  1.6051 -0.7075 -0.3000
 1971SOL    HW217547   2.416   2.266  16.277 -1.5724 -1.0125 -0.8924
 1972SOL     OW17548   1.054   4.219   1.487  0.7427 -0.0857 -0.6339
 1972SOL    HW117549   1.059   4.225   1.391 -0.4550  0.3658 -0.6671
 1972SOL    HW217550   0.980   4.274   1.515  0.0260 -1.0632 -0.5832
 1973SOL     OW17551   0.547   2.432   2.588  0.2324 -0.4020 -0.0813
 1973SOL    HW117552   0.609   2.494   2.549  0.4753  0.1008  1.0991
 1973SOL    HW217553   0.574   2.357   2.535 -0.2769 -1.0476  0.5836
 1974SOL     OW17554   4.177   1.553  11.631  0.2500  0.3525 -0.3915
 1974SOL    HW117555   4.091   1.524  11.601  1.2556 -2.0698 -0.9783
 1974SOL    HW217556   4.173   1.508  11.715 -1.0619  0.8841 -0.1679
 1975SOL     OW17557   3.886   0.152   5.672 -0.0673 -0.0819  0.5415
 1975SOL    HW117558   3.958   0.140   5.733  1.0962  1.0978 -0.6024
 1975SOL    HW217559   3.852   0.235   5.706  0.7998  0.0276  1.1177
 1976SOL     OW17560   0.291   4.390  17.441  0.3697  0.0960 -0.1442
 1976SOL    HW117561   0.220   4.415  17.501 -1.2480 -0.8049 -1.6944
 1976SOL    HW217562   0.249   4.369  17.358 -1.9717  4.4851 -0.0983
 1977SOL     OW17563   3.034   4.372   9.023 -0.8065 -0.2982  0.1155
 1977SOL    HW117564   3.106   4.408   9.075  0.1879 -3.7996  1.1945
 1977SOL    HW217565   2.983   4.442   8.982 -0.7056 -0.8243 -0.9017
 1978SOL     OW17566   2.778   4.694   3.890 -0.3653 -0.0790 -0.3387
 1978SOL    HW117567   2.703   0.017   3.901 -1.3328 -1.9249  2.6928
 1978SOL    HW217568   2.735   4.612   3.912 -1.3628  0.7575  0.8364
 1979SOL     OW17569   4.377   2.819   5.840  0.2304  1.2464  0.1998
 1979SOL    HW117570   4.465   2.846   5.866  0.9796 -2.4725  1.5742
 1979SOL    HW217571   4.391   2.726   5.824  3.2467  1.0031  4.1277
 1980SOL     OW17572   3.700   2.535   7.790  0.0063  0.0916  0.0484
 1980SOL    HW117573   3.760   2.462   7.773  0.3404  0.3019  0.3312
 1980SOL    HW217574   3.707   2.585   7.709 -2.0821  0.2203 -0.0382
 1981SOL     OW17575   0.826   2.526   4.889  0.5852  0.5378  0.1281
 1981SOL    HW117576   0.897   2.529   4.825  1.5025 -1.0743  1.0672
 1981SOL    HW217577   0.883   2.525   4.966  1.4184 -0.2032 -0.4980
 1982SOL     OW17578   1.074   2.114  15.105 -0.2663  0.1610 -0.5018
 1982SOL    HW117579   0.981   2.093  15.097 -0.1640 -0.7764  0.7534
 1982SOL    HW217580   1.109   2.030  15.075 -3.0555 -1.2645  0.3289
 1983SOL     OW17581   1.891   1.816  15.923  0.5540 -0.4075  0.1001
 1983SOL    HW117582   1.807   1.852  15.951 -0.0030 -0.4312 -1.5604
 1983SOL    HW217583   1.935   1.822  16.008 -0.7283  1.5200  0.6217
 1984SOL     OW17584   3.274   2.443   3.284 -0.2150 -0.0805 -0.3869
 1984SOL    HW117585   3.286   2.355   3.249 -0.6412  0.0389 -0.8205
 1984SOL    HW217586   3.202   2.444   3.347  0.5791 -1.0551  0.5579
 1985SOL     OW17587   3.015   1.726   7.810  0.2866  0.3488  0.0276
 1985SOL    HW117588   2.988   1.808   7.852  1.4145  0.5582  0.3549
 1985SOL    HW217589   3.098   1.752   7.771 -0.5552 -0.3010 -2.1908
 1986SOL     OW17590   0.386   3.678   4.183 -0.5920  1.1519  0.1249
 1986SOL    HW117591   0.430   3.676   4.099  0.3812 -1.9503  0.6768
 1986SOL    HW217592   0.367   3.585   4.201  1.1102  0.5763 -1.0595
 1987SOL     OW17593   0.526   4.055   3.622 -0.8314 -0.2901  0.2267
 1987SOL    HW117594   0.467   4.029   3.551  0.4181 -3.6820  0.4001
 1987SOL    HW217595   0.513   4.149   3.615 -0.2334 -0.2106  0.1796
 1988SOL     OW17596   2.515   1.527   4.057 -0.0938  0.6008  0.2351
 1988SOL    HW117597   2.489   1.575   4.135 -0.0654 -0.5739  0.9622
 1988SOL    HW217598   2.603   1.561   4.039  0.9535 -2.5829 -0.6884
 1989SOL     OW17599   3.152   1.383  16.714  0.1804  0.3289  0.0875
 1989SOL    HW117600   3.089   1.342  16.773 -1.4945  1.8747 -0.6094
 1989SOL    HW217601   3.111   1.356  16.633 -1.5431  0.9615  0.7540
 1990SOL     OW17602   1.210   0.269   5.711  0.4829  0.6741 -0.0893
 1990SOL    HW117603   1.253   0.326   5.647 -0.7294  1.7026  0.0070
 1990SOL    HW217604   1.272   0.200   5.733  0.0740  0.3303 -0.0301
 1991SOL     OW17605   3.709   1.879   5.128  0.0222  0.0810  0.0599
 1991SOL    HW117606   3.653   1.934   5.073  2.8007  2.3550 -0.5083
 1991SOL    HW217607   3.636   1.841   5.176  0.6332  0.5485  1.3926
 1992SOL     OW17608   3.327   0.800  13.168 -0.4355 -0.1854 -0.1234
 1992SOL    HW117609   3.415   0.765  13.156 -0.7558 -0.6383 -1.1918
 1992SOL    HW217610   3.279   0.717  13.174 -1.9279  0.6438 -0.4945
 1993SOL     OW17611   1.307   0.159   1.850  0.0158  0.1598  0.3364
 1993SOL    HW117612   1.393   0.198   1.862  0.2511 -1.1072  2.9199
 1993SOL    HW217613   1.254   0.222   1.900 -1.8826 -0.0698 -1.3973
 1994SOL     OW17614   4.419   1.022   4.010  0.1158 -0.0670  0.5670
 1994SOL    HW117615   4.368   0.978   4.079  2.4168 -2.5094  0.6967
 1994SOL    HW217616   4.492   0.965   3.988  0.5048 -0.2579  2.3438
 1995SOL     OW17617   2.274   0.008   7.823 -0.1330  0.3060  0.1961
 1995SOL    HW117618   2.217   0.039   7.753  1.4272 -0.0515 -1.2313
 1995SOL    HW217619   2.252   4.651   7.816 -1.0541  0.5719 -0.3397
 1996SOL     OW17620   3.506   1.879   7.349  0.8731 -0.4078  0.0818
 1996SOL    HW117621   3.539   1.942   7.285  2.2401 -1.5626 -0.3633
 1996SOL    HW217622   3.466   1.823   7.283 -0.9029 -0.4912  1.2413
 1997SOL     OW17623   1.879   3.603   8.493  0.4130 -0.0502  0.3863
 1997SOL    HW117624   1.960   3.559   8.467 -0.6236 -2.6377  1.5397
 1997SOL    HW217625   1.831   3.534   8.449  2.4029 -1.8644  1.0614
 1998SOL     OW17626   1.929   2.551   5.042 -0.1029 -0.4105  0.0279
 1998SOL    HW117627   1.970   2.469   5.072  1.6882  0.4698 -0.0115
 1998SOL    HW217628   1.990   2.613   5.081 -0.6710  0.4400 -0.4407
 1999SOL     OW17629   3.180   3.797   2.863 -0.4874 -0.3091 -0.1523
 1999SOL    HW117630   3.228   3.716   2.843  0.7669  1.1487 -2.9889
 1999SOL    HW217631   3.202   3.815   2.954 -2.5702 -0.8328  0.4401
 2000SOL     OW17632   0.437   1.455   8.878  0.4122 -0.2885 -0.4281
 2000SOL    HW117633   0.351   1.462   8.837 -0.0524 -2.3757  0.1835
 2000SOL    HW217634   0.497   1.500   8.819  3.0873 -0.9298  1.8234
 2001SOL     OW17635   1.381   1.325   3.830  0.1755  0.1258 -0.1289
 2001SOL    HW117636   1.467   1.350   3.795 -0.2852  0.4438 -1.0477
 2001SOL    HW217637   1.324   1.322   3.753  1.3763 -1.5542 -0.9509
 2002SOL     OW17638   4.400   4.681  10.077 -0.0468 -0.5880 -0.4390
 2002SOL    HW117639   4.464   4.724  10.020  0.3530 -0.1227  0.3585
 2002SOL    HW217640   4.349   4.625  10.019 -0.7049  0.0202 -0.4490
 2003SOL     OW17641   2.980   1.973   7.120  0.3071 -0.7032  0.1464
 2003SOL    HW117642   2.976   1.945   7.211  1.3025  1.5418  0.8919
 2003SOL    HW217643   2.911   2.038   7.134 -0.1704 -1.1097 -0.3238
 2004SOL     OW17644   1.481   2.211   1.735 -0.0887  0.4804  0.1036
 2004SOL    HW117645   1.504   2.222   1.828  2.4482 -0.8795 -0.3312
 2004SOL    HW217646   1.467   2.301   1.706 -0.7016  0.2028 -0.4407
 2005SOL     OW17647   0.990   1.681   6.696  0.1200 -0.6349  0.1996
 2005SOL    HW117648   1.046   1.690   6.773 -0.9324 -0.1235  0.8990
 2005SOL    HW217649   0.996   1.588   6.677 -0.6828 -0.7827  0.6876
 2006SOL     OW17650   1.193   0.630  17.450 -0.0226  0.0136 -0.5110
 2006SOL    HW117651   1.129   0.587  17.507 -0.7199 -0.8110 -1.9225
 2006SOL    HW217652   1.235   0.558  17.402 -0.0113 -0.8933  0.8496
 2007SOL     OW17653   0.182   1.284   3.040 -0.5345 -0.7109  0.0995
 2007SOL    HW117654   0.154   1.242   3.122 -0.0957 -0.8638  0.1729
 2007SOL    HW217655   0.107   1.344   3.035 -0.0495 -0.2289 -1.2591
 2008SOL     OW17656   0.220   4.542   8.105 -0.3200  0.5322 -0.1409
 2008SOL    HW117657   0.139   4.591   8.118  1.4572  3.4649 -0.1515
 2008SOL    HW217658   0.265   4.553   8.189  1.4754  0.3107 -1.0739
 2009SOL     OW17659   2.703   0.106   3.472  0.4546  0.3505 -0.3245
 2009SOL    HW117660   2.736   0.087   3.384  0.9914  2.4571 -0.5720
 2009SOL    HW217661   2.765   0.174   3.499  2.1821 -1.2424 -0.2885
 2010SOL     OW17662   1.874   4.063  13.054 -0.2574  0.3415  0.0282
 2010SOL    HW117663   1.969   4.052  13.052 -0.3313 -0.2968  0.1107
 2010SOL    HW217664   1.867   4.130  13.122 -0.1792 -0.0096  0.3778
 2011SOL     OW17665   0.559   2.865   5.053  0.4819  0.1837  0.3777
 2011SOL    HW117666   0.623   2.810   5.009 -1.2301 -1.2552 -0.3439
 2011SOL    HW217667   0.485   2.805   5.067  0.8885  0.1432  2.3451
 2012SOL     OW17668   1.521   2.899   7.710 -0.0755  0.5809  0.7964
 2012SOL    HW117669   1.539   2.829   7.773  1.1056  1.4854  1.4681
 2012SOL    HW217670   1.587   2.960   7.743  0.7720 -0.1695  0.5103
 2013SOL     OW17671   2.436   1.234  10.481  0.0411 -0.2174 -0.0979
 2013SOL    HW117672   2.405   1.196  10.564 -0.6919 -0.5214 -0.5170
 2013SOL    HW217673   2.501   1.171  10.450  1.9493  1.0630  1.3276
 2014SOL     OW17674   0.997   3.014   4.469  0.2813 -0.1037 -0.2170
 2014SOL    HW117675   0.962   3.103   4.458  0.8123  0.1066 -0.1731
 2014SOL    HW217676   0.930   2.970   4.416  0.7168  0.3985 -1.1754
 2015SOL     OW17677   4.189   1.616   7.937 -0.4748  0.5790 -0.1369
 2015SOL    HW117678   4.180   1.666   7.856 -2.2198  1.8276  0.8300
 2015SOL    HW217679   4.205   1.687   7.999 -2.0404  0.6080  0.2371
 2016SOL     OW17680   2.030   0.813   2.026 -0.0233 -0.4238  0.5864
 2016SOL    HW117681   2.068   0.874   1.962 -1.0715 -0.4835 -0.0849
 2016SOL    HW217682   2.108   0.798   2.079  0.1137  1.2545  0.8771
 2017SOL     OW17683   0.260   1.230  14.840 -0.0397  0.2590 -0.3338
 2017SOL    HW117684   0.219   1.226  14.754 -0.0681  0.3311 -0.3240
 2017SOL    HW217685   0.179   1.234  14.892  0.3731  2.0519  0.1743
 2018SOL     OW17686   1.278   3.333   8.486  0.4134 -0.3293  0.1503
 2018SOL    HW117687   1.210   3.389   8.448  1.9921  0.5851 -1.3180
 2018SOL    HW217688   1.363   3.357   8.451  0.2676 -1.4554 -0.9552
 2019SOL     OW17689   0.883   3.535   4.371  0.3404 -0.1869 -0.4099
 2019SOL    HW117690   0.925   3.594   4.434 -0.9743 -0.8864  1.1117
 2019SOL    HW217691   0.894   3.590   4.293  0.3579  1.6246  0.8639
 2020SOL     OW17692   2.894   1.659  16.218 -0.1538 -0.9055  0.4278
 2020SOL    HW117693   2.834   1.588  16.196  1.2338 -2.0949  0.5030
 2020SOL    HW217694   2.945   1.651  16.138  0.7870 -1.0254  1.0346
 2021SOL     OW17695   4.096   1.824  11.651 -0.0612  0.4098 -0.1928
 2021SOL    HW117696   4.133   1.736  11.644  0.2838  0.4477  1.2181
 2021SOL    HW217697   4.005   1.797  11.666  0.6724 -0.8389  1.9517
 2022SOL     OW17698   3.467   2.888   4.301  0.2089  0.0332  0.3194
 2022SOL    HW117699   3.521   2.966   4.285  1.7476 -0.9719  0.5182
 2022SOL    HW217700   3.433   2.907   4.388 -1.6106  0.6483 -0.5388
 2023SOL     OW17701   4.422   1.675   4.508  0.7371 -0.0319 -0.4091
 2023SOL    HW117702   4.439   1.751   4.451 -0.4734  0.0360 -0.6871
 2023SOL    HW217703   4.332   1.654   4.482 -0.0997  0.7138  1.8708
 2024SOL     OW17704   0.217   1.986   1.946 -0.4253  0.5530  0.2544
 2024SOL    HW117705   0.176   2.049   1.887 -1.5701 -0.3126  0.1209
 2024SOL    HW217706   0.205   2.022   2.035  0.2233  0.3946  0.4056
 2025SOL     OW17707   3.347   4.440   8.309  0.4457  0.9612  0.5834
 2025SOL    HW117708   3.302   4.383   8.247  1.0612  1.4363 -0.3014
 2025SOL    HW217709   3.276   4.498   8.338  0.7585  0.3926  2.5154
 2026SOL     OW17710   1.895   1.408   6.816 -0.5388  0.3940 -0.0360
 2026SOL    HW117711   1.841   1.342   6.860  1.6924 -1.1761  0.3447
 2026SOL    HW217712   1.920   1.462   6.891 -1.7034 -1.4399  1.6672
 2027SOL     OW17713   3.851   3.719  17.376 -0.5390  0.1057 -0.0298
 2027SOL    HW117714   3.868   3.785  17.308  0.8798 -1.5343 -1.2704
 2027SOL    HW217715   3.755   3.721  17.370 -0.5221 -2.0029 -1.1400
 2028SOL     OW17716   1.695   3.903  17.048  0.2855  0.7183  0.3437
 2028SOL    HW117717   1.617   3.848  17.061 -0.3012  1.8857  1.7150
 2028SOL    HW217718   1.655   3.983  17.014 -0.4487  1.2516  2.4396
 2029SOL     OW17719   0.694   1.163  14.659 -0.3025 -0.6274  0.1839
 2029SOL    HW117720   0.644   1.093  14.615  0.0970 -0.8417  0.0642
 2029SOL    HW217721   0.644   1.206  14.728 -0.4078 -0.8924  0.2725
 2030SOL     OW17722   0.347   2.092   6.200  0.1024 -0.4263  0.4865
 2030SOL    HW117723   0.254   2.101   6.179  0.6212 -0.9716 -2.0311
 2030SOL    HW217724   0.357   2.172   6.251  0.5866  0.2888 -0.7178
 2031SOL     OW17725   0.247   3.466   7.068  0.6786  0.5777 -0.1204
 2031SOL    HW117726   0.177   3.527   7.046  2.1099  1.9886 -0.8265
 2031SOL    HW217727   0.267   3.497   7.157 -0.8829 -3.2528  1.5723
 2032SOL     OW17728   3.970   1.983   7.591  0.1039  0.2270  0.0466
 2032SOL    HW117729   3.875   1.983   7.607 -0.1862 -2.8944 -1.6149
 2032SOL    HW217730   3.988   1.897   7.554  0.4237 -0.1566  1.1055
 2033SOL     OW17731   3.499   3.964  12.995  0.3756 -0.1964 -0.4419
 2033SOL    HW117732   3.544   3.910  13.060 -2.8415 -1.5793  0.6094
 2033SOL    HW217733   3.567   4.030  12.978  0.4949 -0.5433 -1.3196
 2034SOL     OW17734   1.088   1.231   4.309 -0.3057  0.1911 -0.3728
 2034SOL    HW117735   1.148   1.271   4.371 -1.4855 -0.2751  1.0665
 2034SOL    HW217736   1.005   1.255   4.352 -0.3341 -1.7859  0.6446
 2035SOL     OW17737   3.788   2.354   3.822 -0.1810  0.2194 -0.1795
 2035SOL    HW117738   3.721   2.371   3.756  1.5876  3.4338 -1.1422
 2035SOL    HW217739   3.868   2.402   3.801  0.1640  0.4588  1.6463
 2036SOL     OW17740   2.173   0.311   4.781 -0.2300 -0.3355  0.7778
 2036SOL    HW117741   2.216   0.226   4.773  2.3212  1.0351 -0.0364
 2036SOL    HW217742   2.137   0.317   4.692  1.1347  3.7942  0.4885
 2037SOL     OW17743   4.153   4.299  13.620  0.5911 -0.0443 -0.2707
 2037SOL    HW117744   4.064   4.319  13.649 -0.2837 -2.1010 -1.4953
 2037SOL    HW217745   4.152   4.270  13.528  0.1799 -1.6808  0.2450
 2038SOL     OW17746   4.226   0.161   8.690 -0.1360 -0.3282  0.8164
 2038SOL    HW117747   4.259   0.170   8.600  0.0440 -0.2250  0.8942
 2038SOL    HW217748   4.280   0.089   8.721  0.0978 -0.2017  0.7067
 2039SOL     OW17749   2.857   3.171   4.871  0.3285 -0.4002 -0.0846
 2039SOL    HW117750   2.762   3.182   4.874  0.3174  0.2731 -2.5321
 2039SOL    HW217751   2.868   3.089   4.823  0.3534 -0.1830 -0.4461
 2040SOL     OW17752   0.002   1.899   3.732  0.2976  0.4292 -0.2435
 2040SOL    HW117753   0.035   1.819   3.691  1.2664 -0.4123  2.1992
 2040SOL    HW217754   0.082   1.951   3.724  0.0484  0.9489  0.6385
 2041SOL     OW17755   3.358   0.940   6.843  0.5274 -0.3211 -0.2322
 2041SOL    HW117756   3.364   1.013   6.781  3.1799  0.1803  0.6249
 2041SOL    HW217757   3.423   0.972   6.906  1.5968 -2.7826 -0.0776
 2042SOL     OW17758   3.334   0.273  11.998  0.3901 -0.3661 -0.3714
 2042SOL    HW117759   3.373   0.327  12.067 -2.2352 -0.4117  1.1517
 2042SOL    HW217760   3.305   0.205  12.060 -0.1592  0.1884 -0.0265
 2043SOL     OW17761   2.419   3.162   2.196  0.4375 -0.1398  0.1145
 2043SOL    HW117762   2.407   3.255   2.218 -1.5110 -0.1295 -0.9468
 2043SOL    HW217763   2.380   3.112   2.268  3.8325 -0.3210  1.7874
 2044SOL     OW17764   4.020   2.428   6.935  0.2834 -0.4524  0.5128
 2044SOL    HW117765   4.014   2.522   6.915 -1.2887 -1.0226 -1.7155
 2044SOL    HW217766   4.053   2.408   6.848 -1.1455  2.1892 -0.6388
 2045SOL     OW17767   1.397   1.235   4.093 -0.2051 -0.3280  0.3045
 2045SOL    HW117768   1.472   1.175   4.091 -1.0841 -1.3957 -0.6365
 2045SOL    HW217769   1.406   1.285   4.012  2.6218 -0.3963  0.5809
 2046SOL     OW17770   0.182   0.422   6.192 -0.2123 -0.1527 -0.0842
 2046SOL    HW117771   0.097   0.435   6.149 -0.6848  1.6196  1.3909
 2046SOL    HW217772   0.156   0.459   6.276 -2.1322  1.5394 -1.4094
 2047SOL     OW17773   3.487   0.187   5.748 -0.6129 -0.5306  0.6432
 2047SOL    HW117774   3.482   0.096   5.716  1.0396 -1.4485  2.9616
 2047SOL    HW217775   3.403   0.229   5.730 -1.2924 -2.4966 -0.8210
 2048SOL     OW17776   1.870   2.981   7.275  0.0501  0.0210  0.2593
 2048SOL    HW117777   1.806   3.045   7.241  0.8306 -0.9307 -3.0002
 2048SOL    HW217778   1.809   2.910   7.295 -0.4183  0.1808 -0.5938
 2049SOL     OW17779   0.842   0.843  17.394 -0.1998 -0.0492 -0.5617
 2049SOL    HW117780   0.804   0.826  17.308  1.5120  0.4433 -1.4272
 2049SOL    HW217781   0.839   0.753  17.428  2.0973  0.1088  0.1232
 2050SOL     OW17782   3.505   1.776   4.147  0.4393  0.1752 -0.4073
 2050SOL    HW117783   3.512   1.777   4.242 -0.5799 -0.2238 -0.3329
 2050SOL    HW217784   3.596   1.750   4.133  0.7095  1.9030 -1.8678
 2051SOL     OW17785   4.437   0.286   4.360 -0.2373  0.1158 -0.0593
 2051SOL    HW117786   4.386   0.206   4.348  0.4593 -0.1729 -1.1084
 2051SOL    HW217787   4.434   0.305   4.454 -0.2344 -1.5823  0.2853
 2052SOL     OW17788   2.033   2.521   1.755  0.6903  0.7171  0.2129
 2052SOL    HW117789   2.008   2.433   1.729  1.3818  0.7811 -0.6770
 2052SOL    HW217790   1.954   2.575   1.752  0.8236  0.9761  1.6118
 2053SOL     OW17791   4.635   4.477   6.937  0.0236  0.0110 -0.6745
 2053SOL    HW117792   4.647   4.526   6.855 -1.3295  1.2318 -0.1329
 2053SOL    HW217793   4.661   4.388   6.912  1.7586  0.2019  0.4375
 2054SOL     OW17794   0.322   3.832  16.753  0.0672 -0.2638 -0.2578
 2054SOL    HW117795   0.320   3.924  16.726  0.9188 -0.4005 -0.8123
 2054SOL    HW217796   0.228   3.816  16.752  0.0271  0.0656 -2.0168
 2055SOL     OW17797   0.272   1.272   2.780  0.1270 -0.2932  0.7887
 2055SOL    HW117798   0.264   1.262   2.875 -1.1214 -0.4792  0.6615
 2055SOL    HW217799   0.275   1.183   2.746  1.6496 -0.1747  0.6393
 2056SOL     OW17800   0.345   2.492   3.505 -0.9403  0.4566 -0.3250
 2056SOL    HW117801   0.360   2.586   3.519 -0.7285  0.5871 -1.4314
 2056SOL    HW217802   0.250   2.500   3.495 -1.1903 -0.1618  1.5654
 2057SOL     OW17803   2.265   3.022   9.384  0.0938  0.2827 -0.3806
 2057SOL    HW117804   2.319   2.996   9.458 -0.4680 -0.2042 -0.1446
 2057SOL    HW217805   2.301   3.107   9.359  0.7486  0.4839  1.2503
 2058SOL     OW17806   3.682   2.456   8.947  0.7321  0.5531  0.2729
 2058SOL    HW117807   3.747   2.449   8.878 -0.4051 -0.5024 -0.7002
 2058SOL    HW217808   3.671   2.551   8.951 -0.8127  0.4089 -0.3411
 2059SOL     OW17809   3.565   3.850   8.461  0.2313 -0.5507  0.0348
 2059SOL    HW117810   3.654   3.816   8.460  0.4917  0.1446  0.6252
 2059SOL    HW217811   3.529   3.796   8.531  0.5045  0.1093  0.6727
 2060SOL     OW17812   0.604   0.505   1.532  0.0212  0.2698 -0.2110
 2060SOL    HW117813   0.700   0.500   1.530  0.2157  3.3784  2.3690
 2060SOL    HW217814   0.596   0.597   1.555 -1.6730 -0.0871  0.6156
 2061SOL     OW17815   3.805   1.374  11.101 -0.3298 -0.6444 -0.2815
 2061SOL    HW117816   3.722   1.328  11.092 -0.1405 -0.8869 -0.8612
 2061SOL    HW217817   3.848   1.313  11.161 -1.0051  0.3269  1.1822
 2062SOL     OW17818   2.251   2.576   8.361  0.6958 -1.2723 -0.6408
 2062SOL    HW117819   2.277   2.529   8.440  1.1297  0.4215  0.2307
 2062SOL    HW217820   2.214   2.659   8.392  1.1144  0.2660 -4.2054
 2063SOL     OW17821   4.141   2.574   3.064 -0.3005  0.2941 -0.4378
 2063SOL    HW117822   4.108   2.499   3.015  1.1107  0.0517 -1.0242
 2063SOL    HW217823   4.076   2.642   3.047 -0.6082 -0.1144 -0.9197
 2064SOL     OW17824   1.320   0.374   8.016  0.0683 -0.4923 -0.1135
 2064SOL    HW117825   1.303   0.467   8.002  1.9229 -0.2958 -1.0150
 2064SOL    HW217826   1.254   0.342   7.953  0.2566 -0.7898 -0.1610
 2065SOL     OW17827   3.336   4.704  12.121  0.2874  0.1389  0.3268
 2065SOL    HW117828   3.249   4.698  12.082  0.4005 -1.5244  0.3409
 2065SOL    HW217829   3.327   4.690  12.215  1.1838 -1.7719  0.1224
 2066SOL     OW17830   3.755   2.387   0.609 -0.1671 -0.2318 -0.4317
 2066SOL    HW117831   3.711   2.471   0.595 -0.2624  0.2872  2.8814
 2066SOL    HW217832   3.811   2.377   0.532  1.4602  2.4571  0.4104
 2067SOL     OW17833   1.877   3.764   4.095 -0.6967  0.5681  0.5775
 2067SOL    HW117834   1.969   3.745   4.113 -0.6678  1.8646  1.7804
 2067SOL    HW217835   1.832   3.680   4.100 -0.2842  0.4384  2.1273
 2068SOL     OW17836   0.160   0.029  11.708 -0.0468 -0.3027  0.0551
 2068SOL    HW117837   0.201   4.680  11.728  1.1641  0.7060  1.9002
 2068SOL    HW217838   0.083   0.028  11.765 -0.6885 -1.1006 -0.8357
 2069SOL     OW17839   1.485   3.215   4.580  0.1227 -0.2037  0.1200
 2069SOL    HW117840   1.407   3.234   4.632 -2.5748 -1.2800 -3.5553
 2069SOL    HW217841   1.558   3.254   4.628 -1.5222  1.0699  1.5835
 2070SOL     OW17842   1.174   3.391   6.687  0.5508  0.1122  0.6218
 2070SOL    HW117843   1.094   3.376   6.637  1.0108  0.4585 -0.2214
 2070SOL    HW217844   1.234   3.319   6.667  0.4227  0.3924 -0.7251
 2071SOL     OW17845   2.823   2.720   1.192  0.7184  0.4760 -0.1832
 2071SOL    HW117846   2.846   2.792   1.133  1.7580  0.6416  0.4308
 2071SOL    HW217847   2.906   2.674   1.187  0.4337  0.1184 -1.7729
 2072SOL     OW17848   2.350   2.369   6.430 -0.0093 -0.2492  0.3346
 2072SOL    HW117849   2.410   2.295   6.421  0.3293 -0.0680  1.1259
 2072SOL    HW217850   2.288   2.330   6.491 -0.7687 -2.1789 -1.6746
 2073SOL     OW17851   0.263   0.380  13.463  0.0555 -0.1825  0.5074
 2073SOL    HW117852   0.208   0.431  13.523 -1.1214 -0.4791 -0.3296
 2073SOL    HW217853   0.218   0.296  13.474 -1.5185  0.1180 -3.6356
 2074SOL     OW17854   0.306   4.278   3.938  0.5394  0.3765  0.6112
 2074SOL    HW117855   0.291   4.206   3.877  0.4479 -0.7802  1.9901
 2074SOL    HW217856   0.226   4.282   3.991 -0.0713  0.6460 -0.3446
 2075SOL     OW17857   1.241   3.006   2.858 -0.5466 -0.2489  1.1776
 2075SOL    HW117858   1.243   3.089   2.811 -0.3977  0.3697  2.2725
 2075SOL    HW217859   1.163   3.041   2.903  0.4051  0.2920  2.4028
 2076SOL     OW17860   2.113   2.798  12.709 -0.0614 -0.6735 -0.0907
 2076SOL    HW117861   2.088   2.881  12.750  0.8982  0.2149 -1.3177
 2076SOL    HW217862   2.095   2.813  12.616  0.4910  1.8101  0.2218
 2077SOL     OW17863   1.525   4.519   2.795  0.0865  0.4552 -0.8463
 2077SOL    HW117864   1.540   4.584   2.726 -1.0962 -0.4013 -1.9278
 2077SOL    HW217865   1.444   4.553   2.834  1.2938 -0.0940  2.1353
 2078SOL     OW17866   1.260   0.112   8.130 -0.9705 -0.0982  0.3695
 2078SOL    HW117867   1.209   0.093   8.052  0.1086 -1.0997 -0.0816
 2078SOL    HW217868   1.314   0.183   8.095 -3.4620  1.4144 -0.4071
 2079SOL     OW17869   3.321   0.521  16.410  0.4294 -0.0358  0.2287
 2079SOL    HW117870   3.245   0.467  16.434 -1.4861  2.0297 -1.1707
 2079SOL    HW217871   3.270   0.602  16.407  0.3728 -0.0127  1.9796
 2080SOL     OW17872   0.868   3.546   2.978 -0.2567  0.4574 -0.2296
 2080SOL    HW117873   0.938   3.596   2.937  1.4888 -2.1375 -0.4167
 2080SOL    HW217874   0.837   3.492   2.905  1.5781 -2.2413  0.9947
 2081SOL     OW17875   2.750   1.783   1.852 -0.3224 -0.0425 -0.0713
 2081SOL    HW117876   2.765   1.708   1.910  0.8394 -0.0014 -0.3154
 2081SOL    HW217877   2.728   1.742   1.768  1.5531 -1.3438  0.0729
 2082SOL     OW17878   4.291   1.805  14.091  0.3590  0.3412 -0.7393
 2082SOL    HW117879   4.297   1.810  14.187 -1.1880  0.7811 -0.6768
 2082SOL    HW217880   4.379   1.776  14.067 -0.4009  0.3593 -3.5713
 2083SOL     OW17881   2.891   4.519  10.280  0.3402  0.0950 -0.1282
 2083SOL    HW117882   2.933   4.437  10.253  2.2886  1.0819 -0.0961
 2083SOL    HW217883   2.934   4.548  10.360  1.4095  0.9435 -1.0010
 2084SOL     OW17884   2.981   4.233   7.606 -0.5922  0.5742 -0.4609
 2084SOL    HW117885   2.905   4.286   7.582  0.5601  0.8544 -3.5462
 2084SOL    HW217886   3.032   4.215   7.527  0.8753  1.0017  0.3916
 2085SOL     OW17887   4.275   2.298   0.223  0.0491  0.3050  0.0973
 2085SOL    HW117888   4.291   2.315   0.316  1.4725  1.0720 -0.2764
 2085SOL    HW217889   4.357   2.330   0.183  0.3604 -0.4043  0.1628
 2086SOL     OW17890   0.879   3.794  10.047  0.2511 -0.1492 -0.3916
 2086SOL    HW117891   0.933   3.778  10.124  0.4887 -0.1333 -0.5535
 2086SOL    HW217892   0.874   3.702  10.018  0.9772  0.0223 -1.0711
 2087SOL     OW17893   4.631   3.738   3.507 -0.2057  0.0436 -0.2341
 2087SOL    HW117894   4.706   3.680   3.496  0.0301 -0.1895  2.6289
 2087SOL    HW217895   4.663   3.821   3.472  0.0271  0.0640  0.0238
 2088SOL     OW17896   0.784   1.814  14.043 -0.6870  0.0212  0.4562
 2088SOL    HW117897   0.763   1.815  13.950 -0.2283 -0.4845  0.3456
 2088SOL    HW217898   0.875   1.782  14.047 -0.7208 -0.0461  0.7085
 2089SOL     OW17899   2.097   2.354   5.105  0.2436  0.3936  0.8289
 2089SOL    HW117900   2.125   2.384   5.192 -0.4530  0.3444  1.0693
 2089SOL    HW217901   2.182   2.345   5.063  0.5252 -0.4774  1.5639
 2090SOL     OW17902   3.524   2.271  10.967  0.4158 -0.7378  0.0983
 2090SOL    HW117903   3.488   2.272  11.055 -2.9125  1.4382 -1.2667
 2090SOL    HW217904   3.599   2.215  10.985  0.3713 -0.5516  0.8396
 2091SOL     OW17905   3.550   1.519   6.302  0.3158  0.6069 -0.1558
 2091SOL    HW117906   3.481   1.573   6.342 -0.3109  0.6738 -1.3378
 2091SOL    HW217907   3.496   1.459   6.251  1.3450  0.7156 -1.3658
 2092SOL     OW17908   2.545   1.759   6.928 -0.3584  0.2103 -0.3669
 2092SOL    HW117909   2.574   1.700   6.997 -0.2338  0.3599 -0.2909
 2092SOL    HW217910   2.473   1.804   6.973 -1.0890 -1.5278  0.1878
 2093SOL     OW17911   2.260   0.700   3.847 -0.3116 -0.0181 -0.6842
 2093SOL    HW117912   2.290   0.790   3.834  0.0839 -0.0466  0.0255
 2093SOL    HW217913   2.234   0.682   3.757 -1.2946 -2.2918  0.0742
 2094SOL     OW17914   2.291   3.127   7.289  0.1046 -0.1920 -0.5531
 2094SOL    HW117915   2.364   3.168   7.335  0.3760  0.3433 -1.4557
 2094SOL    HW217916   2.225   3.110   7.356  1.1841 -0.2339  0.4830
 2095SOL     OW17917   1.397   2.982   6.370  0.3908 -0.4753  0.4511
 2095SOL    HW117918   1.337   2.933   6.314  2.1248 -0.6454 -1.2457
 2095SOL    HW217919   1.455   2.917   6.410  1.1239 -0.2932 -0.3158
 2096SOL     OW17920   3.638   1.989  15.308 -0.2919  0.2201 -0.4951
 2096SOL    HW117921   3.553   2.001  15.267 -0.4482  0.8935  0.0273
 2096SOL    HW217922   3.633   2.067  15.364  0.0328  0.0683 -0.2551
 2097SOL     OW17923   3.477   0.606   4.245 -0.1620 -0.2326  0.2026
 2097SOL    HW117924   3.474   0.681   4.305 -1.2705 -1.0818  1.2150
 2097SOL    HW217925   3.415   0.640   4.180 -0.1688  0.5784  0.6353
 2098SOL     OW17926   0.728   1.319   2.842  0.3281 -0.0042 -0.2030
 2098SOL    HW117927   0.752   1.268   2.920 -0.4237  0.3155  0.2423
 2098SOL    HW217928   0.642   1.353   2.865  1.3376 -0.4644  4.3102
 2099SOL     OW17929   4.603   3.195  13.670  0.2159 -0.1829 -0.0012
 2099SOL    HW117930   4.607   3.290  13.676 -0.1526 -0.1398 -0.4512
 2099SOL    HW217931   4.552   3.186  13.589 -0.2302  0.8496  0.1649
 2100SOL     OW17932   4.529   0.133   3.583 -0.0650  0.1433 -0.2404
 2100SOL    HW117933   4.538   0.038   3.576 -1.2746 -0.1358  1.8512
 2100SOL    HW217934   4.434   0.144   3.574 -0.0512 -0.2174 -0.7947
 2101SOL     OW17935   3.283   1.626   4.130  0.3169 -0.3474  0.2041
 2101SOL    HW117936   3.363   1.678   4.133  0.5755 -0.6326 -1.4089
 2101SOL    HW217937   3.328   1.544   4.110 -1.3230 -0.6105 -2.4575
 2102SOL     OW17938   4.429   4.304   7.073  0.3598 -0.5291  0.0811
 2102SOL    HW117939   4.421   4.220   7.028  1.9494 -0.6697  0.0583
 2102SOL    HW217940   4.362   4.361   7.036 -0.0523 -0.4556  0.9380
 2103SOL     OW17941   4.102   0.342   4.357 -0.3429  0.1269 -0.3992
 2103SOL    HW117942   4.167   0.402   4.321 -0.4726  0.4264 -0.1263
 2103SOL    HW217943   4.077   0.391   4.435 -0.6697 -0.1538 -0.3286
 2104SOL     OW17944   1.203   2.009  15.782 -0.7593 -0.1914 -0.2300
 2104SOL    HW117945   1.293   1.977  15.792 -0.9150 -1.4512 -2.6287
 2104SOL    HW217946   1.212   2.081  15.720  0.4775  0.2520  0.4738
 2105SOL     OW17947   1.467   1.361   2.395  0.6725  0.5790  0.0376
 2105SOL    HW117948   1.506   1.432   2.345  1.8600 -0.0999 -0.0049
 2105SOL    HW217949   1.408   1.340   2.323 -0.8741 -0.2787  1.5362
 2106SOL     OW17950   1.555   4.365   7.419  0.3938  0.0011 -0.2658
 2106SOL    HW117951   1.576   4.281   7.377 -0.7831  0.3828 -1.6178
 2106SOL    HW217952   1.466   4.377   7.386  0.4527 -0.1170 -0.4689
 2107SOL     OW17953   2.022   3.326   0.048 -0.0898 -0.5964 -0.3846
 2107SOL    HW117954   2.017   3.385   0.123 -2.2886  0.3743 -1.3167
 2107SOL    HW217955   1.938   3.280   0.055 -0.7573  0.7506  0.4561
 2108SOL     OW17956   0.067   4.207  11.832  0.3236  0.3224  0.0272
 2108SOL    HW117957   0.140   4.202  11.771 -0.2374 -1.0283 -0.5510
 2108SOL    HW217958   0.069   4.118  11.866 -1.1311  1.0342  1.9614
 2109SOL     OW17959   4.178   2.628   8.128 -0.2622 -0.0138  0.2713
 2109SOL    HW117960   4.260   2.624   8.177  0.3164 -0.4699 -0.7356
 2109SOL    HW217961   4.152   2.536   8.133  2.7153 -0.8606  0.1763
 2110SOL     OW17962   1.982   3.514   2.136  0.0696 -0.6855  0.3426
 2110SOL    HW117963   1.911   3.543   2.079  1.3773 -0.1531 -1.0180
 2110SOL    HW217964   2.000   3.431   2.092 -2.7509 -0.4319 -1.2768
 2111SOL     OW17965   1.852   4.666  10.566  0.2076  0.0692  0.7194
 2111SOL    HW117966   1.799   4.650  10.644 -1.5279  0.0665 -0.4646
 2111SOL    HW217967   1.911   4.732  10.602  0.1333  1.7083 -2.2143
 2112SOL     OW17968   3.769   2.801   5.184 -0.0159 -0.4166  0.4666
 2112SOL    HW117969   3.739   2.859   5.255 -3.0112  0.0227 -1.1411
 2112SOL    HW217970   3.684   2.797   5.141  0.3190  0.0044 -0.2308
 2113SOL     OW17971   4.579   2.990   5.393  0.7418  0.0932 -0.0355
 2113SOL    HW117972   4.565   3.069   5.445  0.5061  0.0182  0.0116
 2113SOL    HW217973   4.518   2.926   5.428  1.0955 -0.6697 -0.8188
 2114SOL     OW17974   3.407   1.528   7.995  0.3796 -0.4071  0.0907
 2114SOL    HW117975   3.431   1.597   7.934  0.4629 -1.0752 -0.6377
 2114SOL    HW217976   3.489   1.481   8.010  0.6810  0.7333  1.9219
 2115SOL     OW17977   2.449   3.286   5.276 -0.1621  0.1789  0.0812
 2115SOL    HW117978   2.484   3.245   5.355  1.0295 -0.4979 -0.7862
 2115SOL    HW217979   2.362   3.297   5.313  0.2012  2.4764  0.2468
 2116SOL     OW17980   2.955   0.795   3.069 -0.0999  0.2801 -0.3912
 2116SOL    HW117981   2.899   0.872   3.079  0.4290  0.7558 -1.0585
 2116SOL    HW217982   2.966   0.772   3.161  3.8282 -2.1207 -1.4747
 2117SOL     OW17983   2.184   0.659   7.641  0.3057  0.1873 -0.5209
 2117SOL    HW117984   2.104   0.638   7.689  1.0442  0.1911  0.6986
 2117SOL    HW217985   2.152   0.711   7.567  0.9197 -1.7478 -2.1533
 2118SOL     OW17986   3.644   2.429   5.780 -0.0240  0.1575  0.6601
 2118SOL    HW117987   3.708   2.406   5.713 -2.6163 -0.1337 -1.7049
 2118SOL    HW217988   3.600   2.344   5.788  1.0318 -0.6388 -2.3076
 2119SOL     OW17989   3.939   4.231   1.178 -0.1513 -0.1285  0.1651
 2119SOL    HW117990   3.869   4.293   1.199 -1.3577 -2.7099  3.7444
 2119SOL    HW217991   4.009   4.242   1.242  1.1567 -3.6490 -0.6836
 2120SOL     OW17992   3.180   2.367   9.493 -0.1282  0.4590  0.1132
 2120SOL    HW117993   3.116   2.366   9.421 -0.6330  0.5032  0.5601
 2120SOL    HW217994   3.131   2.389   9.572 -2.7941  2.1018 -1.9921
 2121SOL     OW17995   1.557   4.324   1.767  0.3607 -0.0163 -0.3380
 2121SOL    HW117996   1.472   4.366   1.768 -0.6548 -2.0324 -1.2422
 2121SOL    HW217997   1.572   4.313   1.861  0.9693  0.1997 -0.4100
 2122SOL     OW17998   1.616   3.976   9.394 -0.0203 -0.1544  0.0058
 2122SOL    HW117999   1.644   3.896   9.438  1.5328  1.1428  1.3693
 2122SOL    HW218000   1.521   3.981   9.405  0.1434  0.0928  1.2587
 2123SOL     OW18001   3.822   3.908   4.042  0.4451 -0.0293 -0.3690
 2123SOL    HW118002   3.868   3.989   4.066 -1.2324 -0.1267  3.1439
 2123SOL    HW218003   3.850   3.901   3.951  2.6303  1.4051  0.1844
 2124SOL     OW18004   3.243   3.607   6.061 -0.8545  0.1158  0.1139
 2124SOL    HW118005   3.157   3.628   6.096 -1.7188 -0.8954 -1.4182
 2124SOL    HW218006   3.249   3.678   5.997 -0.4863 -0.3288 -0.3421
 2125SOL     OW18007   4.124   4.286  10.161  0.4292  0.1790  0.1135
 2125SOL    HW118008   4.218   4.287  10.175  0.9698 -1.3155 -3.5131
 2125SOL    HW218009   4.092   4.247  10.242  1.0022  0.5380  0.5086
 2126SOL     OW18010   2.002   3.717  12.964 -0.0285 -0.3861 -0.2789
 2126SOL    HW118011   2.087   3.757  12.944 -0.6309 -0.4367 -2.9170
 2126SOL    HW218012   1.954   3.772  12.902 -1.4495 -1.4928 -0.1554
 2127SOL     OW18013   1.120   0.485   7.337 -0.4540  0.0848  0.0278
 2127SOL    HW118014   1.179   0.552   7.373  0.7827  0.2959 -2.4428
 2127SOL    HW218015   1.190   0.422   7.325 -0.9029 -0.2843 -0.6280
 2128SOL     OW18016   2.803   2.022  15.262 -0.1376 -0.2893 -0.5416
 2128SOL    HW118017   2.822   2.094  15.202  3.5099 -0.1673  0.7261
 2128SOL    HW218018   2.893   2.021  15.296 -0.6404 -1.1836  0.7593
 2129SOL     OW18019   2.147   3.391  17.565 -0.1900 -0.1634  0.2632
 2129SOL    HW118020   2.236   3.426  17.558  0.2915 -1.1320  1.4986
 2129SOL    HW218021   2.134   3.388  17.659  2.7555  0.1528  0.6799
 2130SOL     OW18022   1.454   1.284   2.657 -0.9543  0.8500 -0.1024
 2130SOL    HW118023   1.462   1.324   2.571 -2.6735  0.2876 -0.5192
 2130SOL    HW218024   1.469   1.363   2.709  1.8246 -0.7350  1.5298
 2131SOL     OW18025   3.005   4.418   6.444 -0.2450  0.0231  0.1770
 2131SOL    HW118026   3.096   4.390   6.454  0.6345  2.6273 -0.4595
 2131SOL    HW218027   2.972   4.366   6.371  1.1565 -2.2744  1.1838
 2132SOL     OW18028   3.158   2.588   1.529 -0.5947 -0.2032 -0.2787
 2132SOL    HW118029   3.089   2.521   1.528 -0.2007 -0.6152  0.0218
 2132SOL    HW218030   3.159   2.586   1.625  2.3721 -1.4145 -0.3595
 2133SOL     OW18031   0.955   1.194  11.959  0.5252  0.5031 -0.1313
 2133SOL    HW118032   0.995   1.109  11.977 -1.1256 -0.4304 -0.8471
 2133SOL    HW218033   1.002   1.231  11.884  1.2086 -3.7009 -1.7529
 2134SOL     OW18034   0.658   2.958  13.927 -0.4995  0.2596  0.1473
 2134SOL    HW118035   0.620   2.975  14.013 -0.8513  0.9220 -0.1322
 2134SOL    HW218036   0.658   3.042  13.881  2.2901  0.3512  0.3253
 2135SOL     OW18037   1.939   2.919   9.830  0.2009 -0.0856  0.2049
 2135SOL    HW118038   2.000   2.986   9.798 -2.9767  3.3041  1.1980
 2135SOL    HW218039   1.902   2.903   9.742  0.5229 -0.8419  0.2076
 2136SOL     OW18040   4.661   1.500   3.573 -0.1921  0.2147 -0.2578
 2136SOL    HW118041   4.662   1.409   3.602 -1.2950  0.0571 -0.7106
 2136SOL    HW218042   4.588   1.533   3.626 -1.0731 -2.7044  0.2967
 2137SOL     OW18043   0.714   0.620   9.008 -0.1399 -0.5504 -0.6742
 2137SOL    HW118044   0.624   0.642   9.028  0.7174  1.0395  1.4201
 2137SOL    HW218045   0.722   0.667   8.925 -1.3841 -1.7588 -1.4797
 2138SOL     OW18046   2.017   1.061   2.821  0.5039  0.3807  0.0297
 2138SOL    HW118047   2.108   1.037   2.839 -0.2044 -1.8688  0.5232
 2138SOL    HW218048   2.035   1.150   2.788 -1.0774  0.7794  0.2381
 2139SOL     OW18049   0.884   2.830   3.817 -0.7159  0.1591  0.3726
 2139SOL    HW118050   0.975   2.838   3.788 -0.1823 -0.5039  1.8857
 2139SOL    HW218051   0.847   2.791   3.738 -0.1494 -0.3316  0.3446
 2140SOL     OW18052   3.745   2.781   6.023  0.0181  0.2904 -0.1135
 2140SOL    HW118053   3.784   2.852   6.074 -0.8454 -0.6669  1.8445
 2140SOL    HW218054   3.679   2.835   5.980 -0.4318 -2.3612 -2.7895
 2141SOL     OW18055   4.687   1.424   3.024  0.5362  0.0276  0.4246
 2141SOL    HW118056   4.677   1.435   3.119  2.0946 -1.1516  0.7224
 2141SOL    HW218057   4.603   1.447   2.983 -0.8900 -1.8438  2.2688
 2142SOL     OW18058   4.659   1.655  11.677  0.4111  0.1038 -0.1056
 2142SOL    HW118059   4.720   1.729  11.674 -1.6959  1.7962 -1.0917
 2142SOL    HW218060   4.699   1.621  11.597  0.3784 -0.2022  0.0077
 2143SOL     OW18061   3.896   2.308   1.958 -0.1864  0.9409  0.2629
 2143SOL    HW118062   3.901   2.403   1.956  1.5546  0.8124 -1.4374
 2143SOL    HW218063   3.906   2.292   1.864  3.0606 -0.6512  0.8881
 2144SOL     OW18064   1.556   4.122  11.035  0.4389  0.2949  0.5660
 2144SOL    HW118065   1.539   4.208  11.071  1.5144 -0.1840  2.2340
 2144SOL    HW218066   1.468   4.084  11.032  0.0739  1.3092 -1.2856
 2145SOL     OW18067   2.105   1.832   0.884 -1.1099 -0.2444 -0.4435
 2145SOL    HW118068   2.084   1.740   0.866 -0.6511 -0.4372  0.0047
 2145SOL    HW218069   2.200   1.838   0.899 -1.0914 -1.2864 -0.1739
 2146SOL     OW18070   4.122   0.970   6.751  0.6255 -0.5298 -0.1146
 2146SOL    HW118071   4.076   1.033   6.806 -1.4901 -1.1050 -1.2207
 2146SOL    HW218072   4.114   1.023   6.672  0.7245  1.0339  0.9300
 2147SOL     OW18073   2.485   3.845  13.405 -0.4573 -0.1177  0.0993
 2147SOL    HW118074   2.442   3.866  13.488  0.7753 -0.3994  0.8026
 2147SOL    HW218075   2.539   3.772  13.434 -1.1348 -0.3332  0.8047
 2148SOL     OW18076   1.879   4.470   8.225 -0.6303 -0.1076 -0.3249
 2148SOL    HW118077   1.937   4.414   8.173  1.4591  2.3622 -0.6841
 2148SOL    HW218078   1.828   4.510   8.155  0.1704 -0.4759 -1.1245
 2149SOL     OW18079   2.477   2.999   1.322 -0.0525  0.0281  0.2761
 2149SOL    HW118080   2.441   3.051   1.394 -1.6613 -1.0052  0.2088
 2149SOL    HW218081   2.568   3.024   1.308 -0.8271  1.8047 -1.5637
 2150SOL     OW18082   4.641   1.548   5.420 -0.1713 -0.5595 -0.1441
 2150SOL    HW118083   4.549   1.556   5.395  0.1054  0.5418 -0.8068
 2150SOL    HW218084   4.627   1.578   5.509  1.3129  1.2844 -0.5474
 2151SOL     OW18085   2.926   3.313   7.269 -0.2120 -0.3003  0.2115
 2151SOL    HW118086   2.888   3.390   7.226  1.1179 -0.9414 -2.1525
 2151SOL    HW218087   2.865   3.243   7.244 -0.3525 -1.0207  2.5525
 2152SOL     OW18088   3.731   0.247   0.621  0.3155  0.2666 -0.0622
 2152SOL    HW118089   3.745   0.224   0.529 -2.8115 -0.4899 -0.3582
 2152SOL    HW218090   3.637   0.233   0.612  0.4979 -1.6712  1.2511
 2153SOL     OW18091   3.234   3.914   6.940  0.3326  0.1659 -0.0718
 2153SOL    HW118092   3.276   3.939   7.023 -0.7026 -3.6817  1.5762
 2153SOL    HW218093   3.158   3.973   6.936  1.0677  1.0756 -0.6518
 2154SOL     OW18094   2.195   2.829   8.461 -0.3133 -0.3365  0.2977
 2154SOL    HW118095   2.187   2.832   8.556  1.6360  0.3880  0.4484
 2154SOL    HW218096   2.242   2.909   8.437  0.0873 -0.4034  0.8549
 2155SOL     OW18097   0.784   2.153   4.215 -0.5053  0.6720 -0.1543
 2155SOL    HW118098   0.869   2.197   4.227 -0.1970 -0.7819  2.9898
 2155SOL    HW218099   0.770   2.111   4.300 -0.9427 -2.0658 -1.6028
 2156SOL     OW18100   3.643   2.638   4.323 -0.0783  0.9769  0.4919
 2156SOL    HW118101   3.601   2.699   4.262 -0.4995  0.6653  0.4688
 2156SOL    HW218102   3.677   2.703   4.384 -0.1164  0.2798  1.2517
 2157SOL     OW18103   2.161   0.706   4.970  0.3206 -0.3335  0.1343
 2157SOL    HW118104   2.069   0.725   4.991  0.5800  0.7582  0.3124
 2157SOL    HW218105   2.206   0.787   4.996 -1.6960  0.1872  2.0483
 2158SOL     OW18106   1.651   4.706   2.628 -0.2181 -0.0954  0.4822
 2158SOL    HW118107   1.594   0.002   2.557 -0.9652  0.9455  1.5562
 2158SOL    HW218108   1.695   0.046   2.667 -0.3619  0.0284  0.4014
 2159SOL     OW18109   2.114   1.755   9.248 -0.2324  0.3040 -0.0613
 2159SOL    HW118110   2.025   1.789   9.238 -0.9530 -1.0914  1.5317
 2159SOL    HW218111   2.098   1.700   9.324 -1.1813  0.3317 -0.2387
 2160SOL     OW18112   1.178   1.068   4.110  0.5224 -0.0684 -0.0385
 2160SOL    HW118113   1.257   1.120   4.091  1.5515 -1.2512  0.9768
 2160SOL    HW218114   1.139   1.105   4.189 -2.2830 -1.0237 -1.0056
 2161SOL     OW18115   1.251   3.894   4.115  0.2943  0.0613 -0.4468
 2161SOL    HW118116   1.283   3.903   4.205  1.3309  0.3174 -0.8289
 2161SOL    HW218117   1.306   3.826   4.076  0.2397 -0.7183  0.8524
 2162SOL     OW18118   2.014   0.037   2.330 -0.6140 -0.0786  0.2712
 2162SOL    HW118119   1.957   4.724   2.272 -0.5243 -0.6356  0.6495
 2162SOL    HW218120   1.952   0.097   2.371  0.2972  0.6039  0.6550
 2163SOL     OW18121   0.096   0.005   9.844  0.1233  0.2638  0.0161
 2163SOL    HW118122   0.186   4.723   9.818  0.1409  2.8835 -1.6708
 2163SOL    HW218123   0.111   0.012   9.938  2.1886  0.8925 -0.3689
 2164SOL     OW18124   2.863   2.171   7.805 -0.3690 -0.1647 -0.2548
 2164SOL    HW118125   2.768   2.180   7.817 -0.0072  0.0767  2.3269
 2164SOL    HW218126   2.877   2.245   7.746  1.1689 -0.2107  0.0474
 2165SOL     OW18127   4.489   3.162  15.244 -0.1970  0.3978 -0.4855
 2165SOL    HW118128   4.415   3.136  15.189  1.4061  0.1887 -2.5672
 2165SOL    HW218129   4.504   3.252  15.213  2.9239 -0.0667 -0.3378
 2166SOL     OW18130   0.554   1.813   2.929 -0.4601 -0.3493  0.1466
 2166SOL    HW118131   0.518   1.865   3.001  0.8697  1.5974 -0.6023
 2166SOL    HW218132   0.476   1.762   2.903 -0.1307 -0.2737 -1.0068
 2167SOL     OW18133   4.607   2.865   9.458 -0.0862 -0.4372 -0.1718
 2167SOL    HW118134   4.521   2.834   9.431 -0.0368 -0.1291 -0.6831
 2167SOL    HW218135   4.662   2.817   9.396  2.9390  0.3594  1.8701
 2168SOL     OW18136   3.331   3.301   7.335  0.0143  0.1603  0.5297
 2168SOL    HW118137   3.282   3.371   7.376  0.1537 -0.3028  1.4747
 2168SOL    HW218138   3.353   3.242   7.406 -1.1134 -1.0851 -0.1435
 2169SOL     OW18139   1.686   0.326   4.313  0.3104 -0.2940 -0.4946
 2169SOL    HW118140   1.656   0.406   4.269 -1.7804 -1.7537 -1.7492
 2169SOL    HW218141   1.632   0.258   4.272 -1.0638 -0.8942  2.3467
 2170SOL     OW18142   2.278   0.060   7.472  0.4712  0.0755 -0.5913
 2170SOL    HW118143   2.256   0.073   7.379 -2.5380 -0.3684  0.0466
 2170SOL    HW218144   2.349   0.124   7.474  1.3621 -0.9821  1.2847
 2171SOL     OW18145   2.336   1.192   6.880 -0.2503 -0.6431  0.4301
 2171SOL    HW118146   2.364   1.126   6.816  2.3522  2.2516 -1.4758
 2171SOL    HW218147   2.418   1.195   6.929  0.4032  3.5798 -0.9335
 2172SOL     OW18148   2.632   2.286  16.937  0.0933 -0.1723 -0.3556
 2172SOL    HW118149   2.562   2.228  16.909 -1.5883  1.3106  0.7664
 2172SOL    HW218150   2.591   2.370  16.960  0.3373  0.1392 -1.0538
 2173SOL     OW18151   1.543   3.748   4.243  0.3644 -0.6063  0.0464
 2173SOL    HW118152   1.495   3.757   4.161  1.0823  1.2716 -0.1559
 2173SOL    HW218153   1.602   3.678   4.215  1.3783  0.1745  0.2610
 2174SOL     OW18154   3.659   0.981  13.122  0.4195  0.0751 -0.6307
 2174SOL    HW118155   3.635   0.890  13.100  0.0651  0.1910 -0.7264
 2174SOL    HW218156   3.737   0.968  13.175  0.0405 -1.8675 -0.5269
 2175SOL     OW18157   2.358   4.468  13.758 -0.0392 -0.2565 -0.3745
 2175SOL    HW118158   2.385   4.557  13.734  0.8692 -0.4903 -0.2486
 2175SOL    HW218159   2.439   4.418  13.773 -0.9287 -2.2734 -2.3265
 2176SOL     OW18160   0.190   0.604   5.979 -1.1215  0.5044 -0.1646
 2176SOL    HW118161   0.196   0.527   6.036  1.0955 -1.0039 -2.4024
 2176SOL    HW218162   0.279   0.639   5.990 -0.2278 -1.7911 -0.0135
 2177SOL     OW18163   0.206   2.179  11.185  0.2614 -0.2753  0.5554
 2177SOL    HW118164   0.212   2.135  11.270 -0.6403  2.2803  1.9432
 2177SOL    HW218165   0.202   2.273  11.204 -2.3646 -0.4627  0.9723
 2178SOL     OW18166   4.072   3.017   4.116  0.6577  0.1526  0.8905
 2178SOL    HW118167   4.049   3.034   4.025 -1.0263 -3.4516  0.6697
 2178SOL    HW218168   4.159   2.980   4.106 -0.2875 -1.8133 -0.0287
 2179SOL     OW18169   3.483   0.442   0.944 -0.0038  0.4779 -0.0026
 2179SOL    HW118170   3.547   0.513   0.943  1.3269 -0.7496 -1.4614
 2179SOL    HW218171   3.408   0.490   0.910  0.6817  2.0406  0.6983
 2180SOL     OW18172   0.497   1.085  12.447  0.3280 -0.3854  0.1792
 2180SOL    HW118173   0.497   1.130  12.532 -0.1923 -1.4673  0.7452
 2180SOL    HW218174   0.525   1.157  12.390  1.3809 -1.3669 -0.5414
 2181SOL     OW18175   3.151   1.366   2.532  0.2054  0.3396  0.1188
 2181SOL    HW118176   3.183   1.435   2.589  0.1149 -0.2444  0.8694
 2181SOL    HW218177   3.221   1.368   2.467  0.2637  3.8788  0.2606
 2182SOL     OW18178   1.176   0.001   6.988  0.0482 -0.4254  0.3299
 2182SOL    HW118179   1.223   4.684   6.924  1.3955  0.8103  0.3088
 2182SOL    HW218180   1.189   0.086   6.946  1.1519 -0.6157  0.2934
 2183SOL     OW18181   2.540   1.310  11.139  0.1079  0.0273 -0.0969
 2183SOL    HW118182   2.600   1.381  11.161 -0.4788  0.2393  0.8382
 2183SOL    HW218183   2.462   1.365  11.128 -0.1135  0.1182  2.0188
 2184SOL     OW18184   2.156   1.554   1.645  0.0760 -0.5614 -0.0368
 2184SOL    HW118185   2.136   1.583   1.734 -0.1300 -1.2511  0.1416
 2184SOL    HW218186   2.229   1.495   1.662  0.0051 -0.8302 -0.6734
 2185SOL     OW18187   0.686   1.999   8.724 -0.0567  0.2863 -0.1252
 2185SOL    HW118188   0.748   2.068   8.699 -0.6607  0.9065  0.0795
 2185SOL    HW218189   0.613   2.047   8.764 -1.9503 -1.0601 -1.9342
 2186SOL     OW18190   0.897   0.682   4.296 -0.0103 -0.0302  0.0473
 2186SOL    HW118191   0.951   0.684   4.217  0.8510 -0.6602  0.6258
 2186SOL    HW218192   0.824   0.736   4.266 -1.1756 -0.4194  2.1370
 2187SOL     OW18193   1.005   4.331   4.513 -0.4878  0.5435 -0.1002
 2187SOL    HW118194   0.955   4.255   4.543 -0.0083  0.8375  1.4157
 2187SOL    HW218195   1.033   4.371   4.595 -0.7704 -4.8965  2.5873
 2188SOL     OW18196   0.116   1.198  15.870  0.2030  0.2631  0.0895
 2188SOL    HW118197   0.159   1.147  15.801  1.8108  3.2785 -1.1211
 2188SOL    HW218198   0.188   1.249  15.907  0.0826  0.2134  0.3991
 2189SOL     OW18199   4.282   3.316   8.682  0.1417 -0.4380 -0.4122
 2189SOL    HW118200   4.223   3.326   8.757 -0.5588 -1.8881 -0.7632
 2189SOL    HW218201   4.220   3.290   8.614  0.0811  0.3523 -0.6620
 2190SOL     OW18202   3.531   2.190   8.568 -0.4640  0.2433  0.1221
 2190SOL    HW118203   3.536   2.277   8.608  1.0997  0.8657 -1.4297
 2190SOL    HW218204   3.577   2.142   8.636  1.4391  0.5621 -0.9463
 2191SOL     OW18205   3.747   1.562  12.445  0.2906  0.7067  0.2610
 2191SOL    HW118206   3.781   1.490  12.498  2.4279  1.2488 -0.3791
 2191SOL    HW218207   3.652   1.556  12.456  0.5285 -3.7430 -0.1518
 2192SOL     OW18208   2.109   0.621   5.279 -0.7991  0.5515 -0.3630
 2192SOL    HW118209   2.173   0.551   5.277 -1.2618  0.0906  1.2280
 2192SOL    HW218210   2.082   0.630   5.188  0.1797  0.7556 -0.6321
 2193SOL     OW18211   3.464   1.165   4.932  0.4890 -0.8765  0.3357
 2193SOL    HW118212   3.542   1.144   4.880 -1.7874 -1.3170 -2.8850
 2193SOL    HW218213   3.471   1.260   4.921  0.5987 -0.8690  0.4654
 2194SOL     OW18214   2.746   1.583   5.319 -0.3714 -0.4845  0.0619
 2194SOL    HW118215   2.682   1.514   5.305  2.1364 -2.8322  0.1488
 2194SOL    HW218216   2.822   1.526   5.331  1.3971  1.4716 -1.7353
 2195SOL     OW18217   1.223   2.128  17.388 -0.7064 -0.2902  0.3503
 2195SOL    HW118218   1.158   2.093  17.448 -1.0013 -1.4267 -0.6441
 2195SOL    HW218219   1.241   2.057  17.326  1.5986 -0.7794  1.5618
 2196SOL     OW18220   3.219   2.118   1.890  0.4515  0.2290 -0.4260
 2196SOL    HW118221   3.134   2.162   1.890  0.6544  0.6538 -2.9228
 2196SOL    HW218222   3.270   2.197   1.872  0.0968 -0.3062 -3.7960
 2197SOL     OW18223   0.513   4.443   5.773 -0.3447  0.2121  0.3789
 2197SOL    HW118224   0.495   4.412   5.861 -1.4294 -1.9632 -0.6007
 2197SOL    HW218225   0.509   4.362   5.721  0.8115  0.8006 -0.6170
 2198SOL     OW18226   4.418   4.598   6.316  0.1291 -0.1174  0.2981
 2198SOL    HW118227   4.484   4.588   6.248  0.9007 -0.4552  1.0845
 2198SOL    HW218228   4.369   4.516   6.307  1.5669 -0.8823 -0.5211
 2199SOL     OW18229   2.877   0.385   7.008 -0.3922  0.3026  0.6053
 2199SOL    HW118230   2.876   0.416   7.099  0.5312  0.5135  0.5425
 2199SOL    HW218231   2.929   0.305   7.014 -0.1418  0.6904  3.5635
 2200SOL     OW18232   4.536   3.251   5.523 -0.4936  0.2295 -0.3924
 2200SOL    HW118233   4.558   3.344   5.526 -0.7474  0.3051 -0.8184
 2200SOL    HW218234   4.534   3.227   5.615 -0.9093  1.8986  0.0234
 2201SOL     OW18235   3.413   2.282  13.112 -0.0926 -0.0964 -0.5900
 2201SOL    HW118236   3.393   2.188  13.107 -0.9883 -0.0659  2.6553
 2201SOL    HW218237   3.416   2.308  13.019 -1.7332 -0.9016 -0.8563
 2202SOL     OW18238   4.544   0.279  12.278  0.3757  0.2500  0.0169
 2202SOL    HW118239   4.562   0.365  12.241  0.6784  1.1921  2.3876
 2202SOL    HW218240   4.511   0.233  12.201 -0.5119  2.6885 -1.0403
 2203SOL     OW18241   3.602   4.498  14.276  0.3644 -0.5194  0.4498
 2203SOL    HW118242   3.639   4.461  14.196  1.8684  0.8125  0.5245
 2203SOL    HW218243   3.675   4.504  14.338  0.5528 -0.3613  0.2123
 2204SOL     OW18244   1.050   3.091   6.624 -0.1542 -0.6032 -0.0375
 2204SOL    HW118245   1.030   3.114   6.714  2.1161  1.7079 -0.1044
 2204SOL    HW218246   0.970   3.048   6.595 -1.2802  0.1212  1.9735
 2205SOL     OW18247   2.113   0.136  16.215 -0.3427 -0.4916 -0.0117
 2205SOL    HW118248   2.062   0.073  16.164 -1.1178  0.6884 -0.6940
 2205SOL    HW218249   2.127   0.205  16.150 -1.0220 -1.0963 -0.7861
 2206SOL     OW18250   1.962   0.955   3.545 -0.1116 -0.6343  0.5568
 2206SOL    HW118251   1.922   0.954   3.632  0.4513  0.7100  0.8412
 2206SOL    HW218252   2.041   1.007   3.564 -0.4725  0.4217 -0.7946
 2207SOL     OW18253   0.002   2.235   8.009 -0.2304  0.7367 -0.1508
 2207SOL    HW118254   0.048   2.308   8.051  1.4868  0.0886 -0.8832
 2207SOL    HW218255   4.660   2.216   8.062 -0.7788  2.0306 -0.4711
 2208SOL     OW18256   4.506   2.039   4.533  0.8242  0.2703  0.5321
 2208SOL    HW118257   4.599   2.018   4.538  0.4572 -1.5279 -0.2740
 2208SOL    HW218258   4.475   1.982   4.463  0.5223 -0.2165  1.0750
 2209SOL     OW18259   0.567   2.834   1.574 -0.1716  0.3808  0.0935
 2209SOL    HW118260   0.534   2.765   1.517  1.1144  0.6268 -0.9672
 2209SOL    HW218261   0.661   2.814   1.577 -0.0823  0.7945  0.1704
 2210SOL     OW18262   0.054   4.257   8.310  0.8366  1.1567 -0.2833
 2210SOL    HW118263   4.729   4.277   8.381  0.3447 -0.4304 -0.2641
 2210SOL    HW218264   0.014   4.313   8.242  0.9871  0.0947 -1.2519
 2211SOL     OW18265   2.858   3.766   3.296 -0.1973  0.4608 -0.3683
 2211SOL    HW118266   2.843   3.824   3.221 -0.8511  0.4415 -0.2579
 2211SOL    HW218267   2.933   3.815   3.330  0.1067 -1.4892  1.7623
 2212SOL     OW18268   0.920   2.285   4.611  0.3215 -0.6019  0.0322
 2212SOL    HW118269   0.996   2.316   4.562  0.0163 -0.6204 -0.4458
 2212SOL    HW218270   0.854   2.349   4.585 -0.3581 -0.8918  1.0528
 2213SOL     OW18271   1.133   0.698   5.328 -0.6679  0.1888  0.7669
 2213SOL    HW118272   1.062   0.635   5.315  0.5271 -0.7701 -0.9520
 2213SOL    HW218273   1.172   0.667   5.410  1.4490 -1.5616 -0.9050
 2214SOL     OW18274   4.271   0.898   4.211  0.1384 -0.2312 -0.1032
 2214SOL    HW118275   4.248   0.812   4.177 -1.1691  0.2977 -0.5773
 2214SOL    HW218276   4.243   0.892   4.302  0.1865 -1.6045 -0.1816
 2215SOL     OW18277   0.039   0.851   6.329  0.3029  0.5274 -0.1587
 2215SOL    HW118278   4.701   0.903   6.294  0.6806  1.8019  0.9656
 2215SOL    HW218279   0.047   0.879   6.420 -1.7069 -2.5753  0.9621
 2216SOL     OW18280   4.237   1.357   5.064 -0.1478 -0.2004 -0.4386
 2216SOL    HW118281   4.312   1.382   5.117  0.4752  1.2446 -2.0070
 2216SOL    HW218282   4.278   1.363   4.978 -0.9465  2.6350 -0.5908
 2217SOL     OW18283   0.638   0.836   5.174  0.1523  0.5004  1.1873
 2217SOL    HW118284   0.547   0.860   5.158 -0.4494 -2.5334  0.1492
 2217SOL    HW218285   0.668   0.910   5.228  1.1267  1.1518 -0.2495
 2218SOL     OW18286   0.646   0.584   6.741  0.3074  0.2898 -0.3175
 2218SOL    HW118287   0.570   0.526   6.748 -1.1903  2.4069  1.0006
 2218SOL    HW218288   0.678   0.588   6.831  0.7289  2.8107 -0.5955
 2219SOL     OW18289   2.101   0.317   5.245  0.4628  0.3994  0.1548
 2219SOL    HW118290   2.139   0.288   5.162  1.8710 -0.3331  1.0580
 2219SOL    HW218291   2.162   0.282   5.310 -0.7526 -0.6734  0.6958
 2220SOL     OW18292   1.011   2.765   3.313 -0.3114 -0.3714  0.6960
 2220SOL    HW118293   1.095   2.788   3.275 -1.4542  0.2149 -1.4759
 2220SOL    HW218294   1.033   2.694   3.373  0.7514 -2.3481 -2.0512
 2221SOL     OW18295   2.441   2.309  16.085  0.1860  0.1241 -0.4085
 2221SOL    HW118296   2.472   2.399  16.081  0.4962 -0.0560 -1.7131
 2221SOL    HW218297   2.495   2.263  16.021  0.7832 -1.9797  1.5562
 2222SOL     OW18298   2.278   0.896  13.080 -0.9568  0.0370 -0.4683
 2222SOL    HW118299   2.196   0.849  13.099 -1.0494  0.2777 -0.2787
 2222SOL    HW218300   2.330   0.858  13.151 -0.5833 -2.3796 -2.0122
 2223SOL     OW18301   0.259   3.066   7.546 -0.4934  0.6434  0.6203
 2223SOL    HW118302   0.203   2.989   7.558 -0.0671  0.1001 -0.8866
 2223SOL    HW218303   0.342   3.032   7.580  0.5027  2.8753  0.4145
 2224SOL     OW18304   0.440   1.224   4.515 -0.3534 -0.0762 -0.8794
 2224SOL    HW118305   0.403   1.136   4.508 -2.3721  0.7430 -0.7488
 2224SOL    HW218306   0.528   1.198   4.542  0.3752  0.5833 -2.6369
 2225SOL     OW18307   4.364   4.036   3.710  0.2555 -0.4894 -1.1957
 2225SOL    HW118308   4.321   4.013   3.792  0.9990  0.1972 -0.6211
 2225SOL    HW218309   4.395   3.949   3.685 -0.9855 -0.4890 -2.7618
 2226SOL     OW18310   0.773   0.016   3.146 -0.0062  0.2070  0.0375
 2226SOL    HW118311   0.694   0.045   3.192 -0.1045  0.8230 -0.5068
 2226SOL    HW218312   0.742   4.727   3.059  0.6062 -0.6582  0.0685
 2227SOL     OW18313   0.598   3.398   1.897  0.2315 -0.1025  0.3639
 2227SOL    HW118314   0.554   3.342   1.961 -0.4095  0.0926  0.1017
 2227SOL    HW218315   0.605   3.336   1.825 -2.2722 -0.6860  0.5998
 2228SOL     OW18316   3.011   2.686   8.076  0.1959  0.2372 -0.3627
 2228SOL    HW118317   3.062   2.614   8.039 -0.7042  0.0359 -1.2113
 2228SOL    HW218318   3.047   2.714   8.160  0.0095  2.8317 -1.1582
 2229SOL     OW18319   0.652   3.393  10.617  0.6720  1.1184  0.2803
 2229SOL    HW118320   0.739   3.413  10.583  0.6187 -0.6989 -0.9078
 2229SOL    HW218321   0.603   3.386  10.535  0.1619  0.7426  0.6188
 2230SOL     OW18322   4.710   1.071  15.303  0.0123 -0.8236  0.4964
 2230SOL    HW118323   4.673   0.996  15.350  2.3314 -1.0921  1.9248
 2230SOL    HW218324   4.624   1.103  15.276  0.9752  1.8518  0.6107
 2231SOL     OW18325   1.835   2.584   0.141  0.0268  0.5798 -1.2170
 2231SOL    HW118326   1.748   2.572   0.179 -0.0629  0.9207 -1.3128
 2231SOL    HW218327   1.852   2.675   0.167  3.8926 -0.0765 -1.4373
 2232SOL     OW18328   0.389   2.314   3.060 -0.2285 -0.2377  0.0277
 2232SOL    HW118329   0.449   2.260   3.009  1.1432  2.0719 -0.8022
 2232SOL    HW218330   0.421   2.401   3.038  0.6510 -0.9519 -1.5522
 2233SOL     OW18331   2.037   2.979   3.794  0.8283  0.3313  0.4880
 2233SOL    HW118332   2.034   2.921   3.870  0.2924 -0.8199 -0.4204
 2233SOL    HW218333   1.950   2.969   3.757  1.2868  1.3622 -0.8524
 2234SOL     OW18334   0.051   0.798   4.338  0.1016 -0.2077 -0.6233
 2234SOL    HW118335   0.117   0.800   4.407  0.2414 -1.1701 -0.7266
 2234SOL    HW218336   4.710   0.838   4.378  1.3225  1.3015  0.1733
 2235SOL     OW18337   4.580   4.510   6.102 -0.0881  0.1970  0.6770
 2235SOL    HW118338   4.547   4.422   6.082  1.1015 -0.4048  1.3049
 2235SOL    HW218339   4.579   4.549   6.014  0.5014 -2.1111 -0.3559
 2236SOL     OW18340   1.022   2.667   8.187  0.3915  0.1440 -0.6481
 2236SOL    HW118341   0.952   2.622   8.234  0.3007 -0.1434 -1.0654
 2236SOL    HW218342   1.039   2.730   8.258  0.0843  0.3901 -0.7916
 2237SOL     OW18343   3.468   3.133  15.361 -0.3363  0.5385 -0.0415
 2237SOL    HW118344   3.489   3.157  15.270 -0.2734 -1.2222 -0.4760
 2237SOL    HW218345   3.544   3.174  15.402 -1.8900  1.7555  1.6274
 2238SOL     OW18346   3.076   2.345  16.001  0.2280 -0.2265 -0.0849
 2238SOL    HW118347   3.032   2.392  16.073 -0.1095 -1.0137  0.2257
 2238SOL    HW218348   3.003   2.284  15.986  0.4387 -0.1169 -1.4926
 2239SOL     OW18349   0.666   2.916   2.454  0.2169  0.1042 -0.5012
 2239SOL    HW118350   0.677   2.852   2.525  0.6132  2.1829  1.3196
 2239SOL    HW218351   0.686   3.000   2.494 -0.7432  1.0974 -2.0952
 2240SOL     OW18352   4.193   2.362  16.097  0.2426 -0.0791  0.4097
 2240SOL    HW118353   4.248   2.404  16.162  0.7646 -0.6412  0.3252
 2240SOL    HW218354   4.218   2.275  16.128  0.0009 -0.8473 -1.5291
 2241SOL     OW18355   3.843   1.428  12.171 -0.6745 -0.5721  0.3785
 2241SOL    HW118356   3.755   1.392  12.164 -0.2925 -2.1647  3.6913
 2241SOL    HW218357   3.833   1.464  12.259  0.0924  1.2564 -0.2855
 2242SOL     OW18358   4.201   0.997   8.268 -0.2346 -0.1682 -0.1325
 2242SOL    HW118359   4.135   0.986   8.200  1.3930  0.4309 -1.8101
 2242SOL    HW218360   4.241   0.912   8.287  1.2824  0.5503 -0.1313
 2243SOL     OW18361   2.637   1.976  13.175 -0.0326 -0.1622  0.4558
 2243SOL    HW118362   2.617   1.885  13.152  1.1629 -0.2141 -0.3705
 2243SOL    HW218363   2.585   1.982  13.255 -1.8881  2.1748 -0.9457
 2244SOL     OW18364   3.404   2.006  13.038  0.1928  0.6811  0.1518
 2244SOL    HW118365   3.489   1.976  13.007 -0.6306 -1.2093 -0.2317
 2244SOL    HW218366   3.341   1.983  12.969 -0.1561  1.3876  0.2258
 2245SOL     OW18367   1.820   1.472   3.631  0.0050 -0.5633  0.5934
 2245SOL    HW118368   1.914   1.455   3.630 -0.6641 -4.5733  2.1075
 2245SOL    HW218369   1.801   1.502   3.542 -0.4708  1.1457  1.2727
 2246SOL     OW18370   3.519   4.012   3.908 -0.1279 -0.2883  0.1094
 2246SOL    HW118371   3.519   4.107   3.915  1.8110 -0.3095  0.4695
 2246SOL    HW218372   3.553   4.003   3.997 -2.6078 -0.8894  0.9984
 2247SOL     OW18373   1.999   1.130  11.337 -0.1260 -0.3939 -0.1733
 2247SOL    HW118374   2.052   1.188  11.392 -0.0473  0.7022 -1.3954
 2247SOL    HW218375   1.919   1.183  11.327 -0.5041 -0.9544 -0.0913
 2248SOL     OW18376   4.322   4.153   5.755 -0.3847 -0.0033  0.2034
 2248SOL    HW118377   4.384   4.090   5.718  0.1362 -0.3970  1.7634
 2248SOL    HW218378   4.259   4.104   5.808  0.7801 -1.4558  0.2719
 2249SOL     OW18379   2.603   3.652  14.030  0.5985 -0.3890  0.2823
 2249SOL    HW118380   2.520   3.631  13.986 -0.3578  2.4857  0.6819
 2249SOL    HW218381   2.592   3.628  14.122  1.4010 -1.8110  0.0091
 2250SOL     OW18382   3.131   3.791   7.290 -0.1906 -0.6663 -0.2210
 2250SOL    HW118383   3.054   3.832   7.329  2.2869  0.1834  3.8154
 2250SOL    HW218384   3.186   3.863   7.260  0.1118 -0.5759  0.5440
 2251SOL     OW18385   0.346   2.775   3.437  0.5393  0.7929 -0.2296
 2251SOL    HW118386   0.365   2.836   3.507  2.0085 -2.6374  2.3554
 2251SOL    HW218387   0.281   2.832   3.397 -0.4174  0.5435  0.9659
 2252SOL     OW18388   0.652   0.509   1.948  0.4911  0.1229  0.0276
 2252SOL    HW118389   0.700   0.483   1.869 -0.1857  1.3964 -0.7979
 2252SOL    HW218390   0.629   0.424   1.987 -1.3637  0.2330 -0.8304
 2253SOL     OW18391   2.744   2.745   8.041 -0.0784  0.1121 -0.6873
 2253SOL    HW118392   2.685   2.742   8.116  0.5115  1.6367 -0.1648
 2253SOL    HW218393   2.814   2.693   8.079  2.2271  2.0054 -2.3351
 2254SOL     OW18394   2.584   2.340   5.109 -0.2750  0.2904 -0.3222
 2254SOL    HW118395   2.499   2.341   5.065 -0.6269  2.3997  0.3799
 2254SOL    HW218396   2.552   2.389   5.185  2.2242 -0.1106  0.9956
 2255SOL     OW18397   2.998   1.571  12.438 -0.4227 -0.2153  0.1754
 2255SOL    HW118398   2.942   1.498  12.411 -0.3550 -0.2219  0.0530
 2255SOL    HW218399   2.967   1.631  12.370  1.8774  2.0210  1.0878
 2256SOL     OW18400   3.902   3.942   7.557 -0.1759 -0.5085 -0.2526
 2256SOL    HW118401   3.920   4.008   7.624  0.5288 -2.3532  1.3791
 2256SOL    HW218402   3.867   3.994   7.485 -0.1452 -3.6627 -2.5726
 2257SOL     OW18403   1.507   4.307  14.045  0.2577 -0.1601 -0.0104
 2257SOL    HW118404   1.423   4.333  14.008  2.0016  2.0542 -2.4221
 2257SOL    HW218405   1.482   4.279  14.133 -1.2458 -2.9082 -1.3324
 2258SOL     OW18406   2.815   4.397   8.781  0.4643  0.0867  0.3072
 2258SOL    HW118407   2.859   4.402   8.696 -0.1183  1.4065  0.0842
 2258SOL    HW218408   2.758   4.471   8.800  0.8760 -0.5182  3.9243
 2259SOL     OW18409   4.071   4.510   5.717 -0.0825 -0.2504 -0.1775
 2259SOL    HW118410   4.069   4.582   5.654 -0.4326 -0.9559 -0.9792
 2259SOL    HW218411   4.121   4.442   5.673  0.6523 -0.4737  0.9842
 2260SOL     OW18412   2.970   2.896  13.905  0.4796  0.1267  0.0009
 2260SOL    HW118413   2.934   2.844  13.833 -0.1821 -1.4672  1.4725
 2260SOL    HW218414   2.900   2.959  13.922 -0.0520 -0.1959 -1.0348
 2261SOL     OW18415   1.199   4.471   6.401 -0.2707  0.0730  0.6265
 2261SOL    HW118416   1.226   4.415   6.328 -0.0292  1.1256 -0.0860
 2261SOL    HW218417   1.255   4.435   6.469 -0.9906  1.0894  1.7546
 2262SOL     OW18418   2.543   3.495  11.168  0.3579 -0.5191 -0.4784
 2262SOL    HW118419   2.525   3.589  11.170  0.4770 -0.5190  0.6490
 2262SOL    HW218420   2.460   3.458  11.198  1.0211 -2.2622 -0.7976
 2263SOL     OW18421   4.504   3.341   2.497  0.0116  0.4900 -0.1174
 2263SOL    HW118422   4.417   3.372   2.473 -0.5003  0.0594  1.1903
 2263SOL    HW218423   4.542   3.319   2.412  0.2008  1.4210 -0.2764
 2264SOL     OW18424   2.297   2.713   4.409 -0.3140 -0.2940  0.0780
 2264SOL    HW118425   2.385   2.718   4.372  0.6927 -1.2884  2.3161
 2264SOL    HW218426   2.279   2.620   4.395  1.3817 -0.6729  0.4440
 2265SOL     OW18427   4.461   4.458   9.635  0.3689  0.3633  0.3034
 2265SOL    HW118428   4.535   4.456   9.695  1.1754  2.1743 -0.6502
 2265SOL    HW218429   4.511   4.456   9.554 -2.5925  0.2726 -1.5365
 2266SOL     OW18430   0.827   0.525   1.751  0.3651 -0.0370 -0.1969
 2266SOL    HW118431   0.865   0.535   1.664 -1.4000 -1.5992 -1.1338
 2266SOL    HW218432   0.896   0.563   1.805  0.4278 -2.8657  1.7203
 2267SOL     OW18433   1.719   3.071   0.133  0.7467  0.4854 -0.3836
 2267SOL    HW118434   1.654   3.001   0.136 -0.6386  1.7465 -1.0808
 2267SOL    HW218435   1.779   3.047   0.063  0.3613 -0.2490 -0.4564
 2268SOL     OW18436   2.158   3.584  13.281  0.1253  0.1472 -0.0511
 2268SOL    HW118437   2.186   3.588  13.372  0.4904  0.2240 -0.1664
 2268SOL    HW218438   2.230   3.532  13.244  1.9548  3.4584 -1.1843
 2269SOL     OW18439   3.906   0.903   6.535 -0.6388 -0.5561 -0.2565
 2269SOL    HW118440   3.867   0.864   6.613  0.8652 -0.1406  0.7218
 2269SOL    HW218441   3.872   0.991   6.546  0.4362 -0.1620 -0.0267
 2270SOL     OW18442   0.003   4.380  10.381 -0.3573  0.3592 -0.0544
 2270SOL    HW118443   4.642   4.377  10.383 -0.3818  1.1039 -0.2434
 2270SOL    HW218444   0.018   4.304  10.438  1.1094  0.1980 -0.6665
 2271SOL     OW18445   1.449   0.100   6.810 -0.1380 -0.7168 -0.1966
 2271SOL    HW118446   1.451   0.092   6.905 -1.4353 -0.3108 -0.1294
 2271SOL    HW218447   1.494   0.184   6.799 -0.2936 -0.6060  0.0237
 2272SOL     OW18448   1.269   2.849   4.869 -0.2777  0.2049  0.6797
 2272SOL    HW118449   1.198   2.813   4.922 -0.2316 -2.6629 -1.1938
 2272SOL    HW218450   1.231   2.921   4.819 -1.8496 -1.5755 -0.6894
 2273SOL     OW18451   1.324   1.398   2.169  0.4859  0.9904 -0.2004
 2273SOL    HW118452   1.348   1.321   2.118 -2.4227  1.5212 -2.3495
 2273SOL    HW218453   1.285   1.462   2.110 -2.3622  0.2990  0.8751
 2274SOL     OW18454   3.955   1.254   4.514  0.7978  0.1771  0.0442
 2274SOL    HW118455   3.970   1.302   4.432  0.9651  1.4183  0.7985
 2274SOL    HW218456   3.924   1.330   4.563 -0.5985 -0.9430  0.8999
 2275SOL     OW18457   1.578   1.005  17.717  0.4557  0.0911  0.0832
 2275SOL    HW118458   1.616   1.092  17.708 -0.9961  0.7036 -0.0114
 2275SOL    HW218459   1.492   1.036  17.692 -0.1127 -0.7936  0.9314
 2276SOL     OW18460   1.688   1.769   8.804  0.3176  0.1348 -0.0392
 2276SOL    HW118461   1.650   1.838   8.858 -1.2446 -1.3489  0.7694
 2276SOL    HW218462   1.781   1.791   8.811  0.2096  0.6928 -0.3235
 2277SOL     OW18463   2.793   2.554   5.478 -0.7411 -0.2720  0.5631
 2277SOL    HW118464   2.779   2.460   5.487 -1.4038 -0.2829 -0.5724
 2277SOL    HW218465   2.770   2.575   5.568 -0.3034  3.8297 -0.2792
 2278SOL     OW18466   1.316   3.163   3.528  0.4780 -0.0379 -0.1903
 2278SOL    HW118467   1.335   3.236   3.586  0.1954 -0.8679  0.9350
 2278SOL    HW218468   1.223   3.146   3.541  0.3429  0.3817 -0.5946
 2279SOL     OW18469   1.647   1.404   4.295  0.9163  0.4282  0.1009
 2279SOL    HW118470   1.630   1.319   4.335  0.5064  0.1646 -0.6297
 2279SOL    HW218471   1.703   1.375   4.223  0.0295 -0.5951 -0.1778
 2280SOL     OW18472   4.188   4.509   6.154  0.4612  0.8891 -0.6091
 2280SOL    HW118473   4.130   4.555   6.215  0.7169 -0.7262  0.8274
 2280SOL    HW218474   4.210   4.583   6.096  0.6735  0.1402 -1.4916
 2281SOL     OW18475   2.979   2.591  12.403  0.0009  0.3150 -0.8109
 2281SOL    HW118476   2.929   2.578  12.483  1.2112  0.5166 -0.0187
 2281SOL    HW218477   3.064   2.550  12.418 -0.6555 -1.3705 -1.6084
 2282SOL     OW18478   0.721   3.000   6.249 -0.0615 -0.2154 -0.2469
 2282SOL    HW118479   0.637   2.990   6.205  0.8642 -1.6531 -1.6913
 2282SOL    HW218480   0.760   2.934   6.192  3.0551 -0.2102  1.8639
 2283SOL     OW18481   3.559   4.382   8.458 -0.1133 -0.1259  0.1793
 2283SOL    HW118482   3.500   4.418   8.392 -0.6202  1.1185  1.3098
 2283SOL    HW218483   3.535   4.290   8.453 -0.1928 -0.0790 -0.3803
 2284SOL     OW18484   3.139   2.034  15.819  0.1197  0.2228  0.1322
 2284SOL    HW118485   3.140   2.068  15.729  3.1148 -0.0714  0.0322
 2284SOL    HW218486   3.072   2.087  15.861  0.8946  1.7259 -0.5144
 2285SOL     OW18487   0.576   1.582  14.110  0.2744 -0.6256  0.1044
 2285SOL    HW118488   0.615   1.648  14.166  1.2803 -1.6837  0.6617
 2285SOL    HW218489   0.627   1.506  14.139  1.0035  0.3873  1.4753
 2286SOL     OW18490   2.607   0.818   1.419 -0.2797 -0.1709 -0.0248
 2286SOL    HW118491   2.614   0.914   1.424 -1.1756 -0.0945 -0.2305
 2286SOL    HW218492   2.601   0.793   1.511  0.0656  1.8621  0.5686
 2287SOL     OW18493   2.695   3.548   9.681  0.6888  0.2996  0.6508
 2287SOL    HW118494   2.661   3.637   9.684 -1.3894 -0.5250  1.3309
 2287SOL    HW218495   2.779   3.560   9.725  0.7999 -1.2286  0.8819
 2288SOL     OW18496   2.703   3.585   6.737 -0.1545  0.1092  0.4959
 2288SOL    HW118497   2.772   3.651   6.727  1.2382 -1.6060 -1.2109
 2288SOL    HW218498   2.751   3.512   6.776  0.4984  1.1664  1.6780
 2289SOL     OW18499   4.571   0.104  16.639  0.3917 -0.4649 -0.0741
 2289SOL    HW118500   4.567   0.027  16.697 -3.0752 -0.3468 -0.1797
 2289SOL    HW218501   4.534   0.169  16.699 -0.3753 -0.9019 -0.0757
 2290SOL     OW18502   4.316   3.397  12.907  0.3896  0.0240 -0.1880
 2290SOL    HW118503   4.352   3.480  12.877 -0.5814 -0.3150 -2.2501
 2290SOL    HW218504   4.234   3.431  12.944 -0.3046  1.0562 -2.7202
 2291SOL     OW18505   3.133   4.507   3.316 -0.3307  0.3978  0.3769
 2291SOL    HW118506   3.128   4.602   3.311 -0.5524  0.2792 -1.7646
 2291SOL    HW218507   3.189   4.494   3.239 -0.0820  4.1755 -0.0642
 2292SOL     OW18508   1.911   0.984   8.094 -0.3748  0.3138 -0.2167
 2292SOL    HW118509   1.825   0.959   8.129  0.4261 -2.2317 -0.0874
 2292SOL    HW218510   1.954   0.899   8.087  0.9950  0.9309  0.8119
 2293SOL     OW18511   2.593   1.519  15.245  0.0253  0.4184 -0.4845
 2293SOL    HW118512   2.687   1.519  15.224  0.4299 -2.1170  1.3286
 2293SOL    HW218513   2.590   1.567  15.328  2.0195  1.8761 -1.2504
 2294SOL     OW18514   2.522   2.681  11.506  0.1560  0.4988 -0.0860
 2294SOL    HW118515   2.526   2.656  11.413 -1.9084  1.6393 -0.4740
 2294SOL    HW218516   2.578   2.759  11.512  2.0806 -0.5989 -3.4106
 2295SOL     OW18517   1.812   3.938   7.648 -0.3906  0.6144  0.0367
 2295SOL    HW118518   1.724   3.926   7.610  0.3372 -1.0807 -1.1281
 2295SOL    HW218519   1.858   3.859   7.618 -0.3504 -0.3122  2.5449
 2296SOL     OW18520   4.255   1.890   6.846 -0.4770  0.4554  0.6969
 2296SOL    HW118521   4.267   1.932   6.932 -0.2185  0.8039  0.4873
 2296SOL    HW218522   4.188   1.823   6.863 -1.5863  1.5982  0.8858
 2297SOL     OW18523   2.710   2.427   8.851  0.2650 -0.5718 -0.0373
 2297SOL    HW118524   2.767   2.369   8.801  0.1191 -0.4480 -0.3494
 2297SOL    HW218525   2.727   2.508   8.802 -0.0555 -0.9018 -0.6871
 2298SOL     OW18526   1.004   1.732  11.123 -0.4619 -0.1106  0.1463
 2298SOL    HW118527   0.995   1.826  11.107  1.2668  0.0287 -0.0890
 2298SOL    HW218528   1.091   1.725  11.162  0.6125  3.0196 -1.6499
 2299SOL     OW18529   0.585   1.692   6.978 -0.0940  0.3355  0.3152
 2299SOL    HW118530   0.544   1.652   6.901 -1.1062  2.7380 -0.3811
 2299SOL    HW218531   0.652   1.751   6.943  0.7082 -0.0371  1.2149
 2300SOL     OW18532   3.485   3.329   7.988  0.1585 -0.1561  0.1437
 2300SOL    HW118533   3.559   3.338   7.929 -0.7167 -4.0589 -1.5587
 2300SOL    HW218534   3.430   3.265   7.942 -0.7796  1.2563 -0.6882
 2301SOL     OW18535   3.382   1.911   6.453 -0.3732 -0.0390 -0.1647
 2301SOL    HW118536   3.464   1.960   6.450 -0.7360  0.5051 -1.1124
 2301SOL    HW218537   3.366   1.930   6.546 -0.9068  3.0478 -0.8749
 2302SOL     OW18538   3.228   1.007   9.422 -0.1394  0.2401  0.2554
 2302SOL    HW118539   3.209   1.083   9.367  0.7481  0.0632 -0.3128
 2302SOL    HW218540   3.324   1.015   9.426 -0.2660  1.3738  1.0025
 2303SOL     OW18541   0.098   4.544   6.417  0.0369  0.3329  0.3851
 2303SOL    HW118542   0.073   4.602   6.345  1.8686  0.1547 -0.3918
 2303SOL    HW218543   0.012   4.513   6.446 -0.4273 -1.6314 -3.1075
 2304SOL     OW18544   1.143   1.067   5.074 -0.2049  0.1625 -0.3771
 2304SOL    HW118545   1.139   0.972   5.070  0.5797  0.1111  0.1719
 2304SOL    HW218546   1.128   1.086   4.981  1.7705 -2.8880 -1.3065
 2305SOL     OW18547   0.360   3.940   5.493  0.3991 -0.1966  0.4471
 2305SOL    HW118548   0.355   3.844   5.489  0.7229 -0.1884 -0.2477
 2305SOL    HW218549   0.442   3.971   5.455  0.1621 -0.4037 -0.2417
 2306SOL     OW18550   0.457   3.226  10.830  0.2397  0.1693  0.1585
 2306SOL    HW118551   0.531   3.283  10.854 -0.1411  0.7400 -0.0276
 2306SOL    HW218552   0.387   3.285  10.856  1.1949  0.2498  2.5081
 2307SOL     OW18553   2.368   1.673   4.268  0.4230 -0.4434  0.4280
 2307SOL    HW118554   2.358   1.622   4.348 -1.1901 -1.4693 -0.4449
 2307SOL    HW218555   2.283   1.717   4.263  1.2026  1.1494  1.0381
 2308SOL     OW18556   2.318   4.525   5.542  0.3001 -0.5630  0.0745
 2308SOL    HW118557   2.289   4.583   5.612 -0.4477  1.7802 -2.1892
 2308SOL    HW218558   2.385   4.575   5.495 -0.8420  3.2036  2.5075
 2309SOL     OW18559   1.006   1.743  12.778  0.0453 -0.0619  0.4803
 2309SOL    HW118560   1.070   1.765  12.846  0.5710 -1.9848  0.5925
 2309SOL    HW218561   0.948   1.712  12.847 -2.7168  0.0420 -1.7986
 2310SOL     OW18562   4.634   0.522   2.992 -0.2648 -0.3540 -0.1169
 2310SOL    HW118563   4.582   0.602   2.996 -1.5870 -1.2665  1.1448
 2310SOL    HW218564   4.578   0.478   2.928  0.2743  0.3289 -1.0674
 2311SOL     OW18565   0.586   3.420  12.188  0.7733 -1.1074  0.6775
 2311SOL    HW118566   0.680   3.434  12.184  0.9410 -2.6084 -0.8299
 2311SOL    HW218567   0.543   3.499  12.221  0.7061 -1.3584  1.1929
 2312SOL     OW18568   2.959   3.712  11.929  0.2839  0.0522 -0.2832
 2312SOL    HW118569   2.874   3.753  11.946  0.6436  0.6096  0.1567
 2312SOL    HW218570   2.981   3.725  12.021  0.9526  2.8924 -0.8475
 2313SOL     OW18571   0.851   1.506  11.105  0.0366 -0.1712  0.2337
 2313SOL    HW118572   0.769   1.550  11.083  0.2864  0.4306  0.5239
 2313SOL    HW218573   0.907   1.583  11.100 -1.6616  1.0375 -0.2527
 2314SOL     OW18574   0.101   0.525  17.342  0.6201  0.0025 -0.3313
 2314SOL    HW118575   0.155   0.474  17.281  3.0763 -0.7894  2.5190
 2314SOL    HW218576   0.018   0.524  17.294  0.5005 -0.0251 -0.1185
 2315SOL     OW18577   2.645   1.718   9.225 -0.2975 -0.3758 -0.1077
 2315SOL    HW118578   2.602   1.774   9.290  0.4031 -0.1805  0.1878
 2315SOL    HW218579   2.734   1.752   9.222  0.0086 -1.4133 -2.3135
 2316SOL     OW18580   3.277   0.369  12.338 -0.8878  0.6594 -0.0636
 2316SOL    HW118581   3.351   0.403  12.287  0.4037  0.8159  1.9020
 2316SOL    HW218582   3.327   0.328  12.409  0.3043  0.5969 -0.9409
 2317SOL     OW18583   3.386   1.560  17.067 -0.2806 -0.0602 -0.3739
 2317SOL    HW118584   3.319   1.628  17.059  2.5382  2.9827  1.4170
 2317SOL    HW218585   3.332   1.485  17.091  1.4383  0.2071  4.5441
 2318SOL     OW18586   1.030   0.469  14.685  0.2535 -0.3029 -0.5841
 2318SOL    HW118587   1.085   0.538  14.721  0.3400 -0.1938 -0.9272
 2318SOL    HW218588   1.001   0.419  14.761 -0.5196 -2.1767 -2.1099
 2319SOL     OW18589   0.579   3.831   6.718 -0.0211 -0.3755 -0.3412
 2319SOL    HW118590   0.658   3.815   6.769  0.7139  1.3998 -0.9263
 2319SOL    HW218591   0.602   3.921   6.692 -0.7231 -0.6184 -1.7943
 2320SOL     OW18592   4.102   0.046   4.936 -0.1349  0.1895 -0.0428
 2320SOL    HW118593   4.171   4.719   4.957  1.0789  1.3818 -0.5021
 2320SOL    HW218594   4.156   0.098   4.876 -0.0129 -0.1623 -0.2397
 2321SOL     OW18595   2.461   3.759  16.153 -0.5583  0.1166  0.5223
 2321SOL    HW118596   2.374   3.794  16.134 -0.6438  0.4255  1.4883
 2321SOL    HW218597   2.486   3.746  16.061 -1.3767  2.8635 -0.0870
 2322SOL     OW18598   2.293   4.270   1.310 -0.1446 -0.4188 -0.0396
 2322SOL    HW118599   2.214   4.319   1.331  1.5490  1.5672  1.7598
 2322SOL    HW218600   2.312   4.290   1.218 -1.2490  0.1479 -0.1365
 2323SOL     OW18601   2.893   0.143   2.689 -0.8688 -0.2510 -0.0009
 2323SOL    HW118602   2.824   0.162   2.753  0.2030  0.7053  0.8845
 2323SOL    HW218603   2.880   0.212   2.623 -1.1056 -0.6786 -0.3960
 2324SOL     OW18604   3.910   4.687   3.822  0.0897 -0.0299  0.0405
 2324SOL    HW118605   3.944   4.694   3.911 -1.0199  1.4178  0.3556
 2324SOL    HW218606   3.982   4.725   3.772 -0.0064  1.6047  1.1434
 2325SOL     OW18607   4.566   0.619   4.168  0.5585 -0.4883 -0.1152
 2325SOL    HW118608   4.585   0.638   4.259  2.2003  2.9643 -1.1915
 2325SOL    HW218609   4.623   0.542   4.157 -1.1716 -1.6727 -0.9042
 2326SOL     OW18610   4.284   2.352   5.564  0.0823 -0.0905 -0.3482
 2326SOL    HW118611   4.202   2.382   5.525  0.7388 -0.5952 -2.0964
 2326SOL    HW218612   4.297   2.285   5.497  1.7980 -0.1343  0.0471
 2327SOL     OW18613   2.820   0.692   7.177 -0.2884  0.4347 -0.1532
 2327SOL    HW118614   2.780   0.646   7.250  0.3126  1.3868  0.7654
 2327SOL    HW218615   2.907   0.716   7.209 -0.7076  1.1112  0.4723
 2328SOL     OW18616   2.823   4.715  10.743 -0.7263 -0.6955  0.2533
 2328SOL    HW118617   2.780   4.652  10.685 -3.7314  0.6134  1.0612
 2328SOL    HW218618   2.860   4.655  10.806  1.9629  0.9523  0.2351
 2329SOL     OW18619   1.123   1.604  15.756 -0.0754  0.3312  0.0578
 2329SOL    HW118620   1.046   1.633  15.806  0.0685  0.8857 -0.0426
 2329SOL    HW218621   1.087   1.591  15.668 -0.1462 -0.5265  0.2140
 2330SOL     OW18622   0.799   3.859   6.101 -0.2760 -0.1200 -0.0837
 2330SOL    HW118623   0.860   3.914   6.152 -1.0515 -1.4374  2.2414
 2330SOL    HW218624   0.733   3.860   6.170 -0.7967  0.1037 -0.5827
 2331SOL     OW18625   0.648   1.435   6.523  0.5374 -0.1892  0.0848
 2331SOL    HW118626   0.631   1.356   6.573  1.7752 -0.8579 -0.5548
 2331SOL    HW218627   0.653   1.391   6.438  0.0247  0.7679 -0.4528
 2332SOL     OW18628   2.460   0.981   3.600  0.0805 -0.4545  0.1580
 2332SOL    HW118629   2.510   1.036   3.541 -0.9948 -0.0694 -0.4009
 2332SOL    HW218630   2.487   0.890   3.585 -0.9967 -0.9988  1.5666
 2333SOL     OW18631   0.144   1.417   4.277  0.1990  0.1383 -0.4758
 2333SOL    HW118632   0.143   1.324   4.299 -0.8877  0.5891  1.4189
 2333SOL    HW218633   0.056   1.416   4.240 -0.4205 -2.3897  1.1044
 2334SOL     OW18634   4.310   1.454  12.138  0.2497 -0.0125 -0.8953
 2334SOL    HW118635   4.344   1.451  12.228  0.7163  1.0054 -1.0431
 2334SOL    HW218636   4.335   1.542  12.111 -1.6865  1.0605  0.7605
 2335SOL     OW18637   3.716   1.443   5.653  0.2872  0.2073 -0.7216
 2335SOL    HW118638   3.700   1.349   5.648 -0.2477  0.1719  1.5000
 2335SOL    HW218639   3.789   1.462   5.712 -1.7477  1.7867  1.3016
 2336SOL     OW18640   1.702   3.564  14.784  0.0299 -1.3404  0.2038
 2336SOL    HW118641   1.658   3.488  14.746 -0.3344 -1.6579  1.2753
 2336SOL    HW218642   1.792   3.544  14.759  1.1247  2.3937  1.1540
 2337SOL     OW18643   2.883   0.030   8.573 -0.0716 -0.1455 -0.2644
 2337SOL    HW118644   2.919   0.016   8.661  1.1151 -2.1805 -1.0639
 2337SOL    HW218645   2.807   4.708   8.572 -0.7895  0.8076  0.1380
 2338SOL     OW18646   1.936   2.961   8.464 -0.0846  0.4096 -0.5396
 2338SOL    HW118647   2.014   2.907   8.475 -1.1293 -1.3817 -2.0599
 2338SOL    HW218648   1.882   2.896   8.418 -0.9440 -0.7548  2.1456
 2339SOL     OW18649   4.023   3.658   1.102 -0.1837 -0.5489  0.0973
 2339SOL    HW118650   4.004   3.730   1.163 -0.7488 -0.6616  0.0583
 2339SOL    HW218651   3.966   3.679   1.028 -0.9370  0.2914  0.9117
 2340SOL     OW18652   0.796   1.012   3.676 -0.0490 -0.3957 -0.3630
 2340SOL    HW118653   0.822   1.005   3.768  0.4841 -0.9739 -0.5614
 2340SOL    HW218654   0.881   1.050   3.652 -0.4238  0.5284 -0.2095
 2341SOL     OW18655   4.282   2.040   2.500  0.5125  0.2187  0.3868
 2341SOL    HW118656   4.335   1.969   2.465  1.0391  2.1924 -2.8781
 2341SOL    HW218657   4.260   2.014   2.589  0.2934 -0.2009  0.2105
 2342SOL     OW18658   3.286   2.425  17.538  0.0195  0.2307 -0.1128
 2342SOL    HW118659   3.335   2.406  17.618 -0.4793 -0.9621 -0.0869
 2342SOL    HW218660   3.288   2.520  17.542  3.1642  0.2477 -2.0907
 2343SOL     OW18661   0.571   1.563   5.838 -0.6334  0.1548 -0.1889
 2343SOL    HW118662   0.478   1.540   5.834 -0.3275 -1.1607  0.4118
 2343SOL    HW218663   0.582   1.645   5.887 -2.5794  1.1002 -1.3271
 2344SOL     OW18664   2.377   2.415  14.303  0.3817 -0.6861  0.0252
 2344SOL    HW118665   2.425   2.384  14.227  0.1892  1.4251 -0.9611
 2344SOL    HW218666   2.432   2.383  14.374 -0.1493  2.7705  2.0419
 2345SOL     OW18667   4.026   2.940  11.911  0.2962 -0.1297 -0.2071
 2345SOL    HW118668   4.091   2.873  11.893 -0.1898 -0.7114  0.2122
 2345SOL    HW218669   4.001   2.902  11.996  0.7845  1.5139  0.6825
 2346SOL     OW18670   2.790   1.909   3.834 -0.7992  0.0890 -0.1414
 2346SOL    HW118671   2.841   1.828   3.827 -2.6002 -1.1667  1.3302
 2346SOL    HW218672   2.864   1.969   3.824 -0.5706  0.4079  3.6561
 2347SOL     OW18673   2.499   0.842   9.279  0.0959  0.5601  0.5644
 2347SOL    HW118674   2.431   0.908   9.286  1.1500  1.4055  2.6569
 2347SOL    HW218675   2.508   0.836   9.183  1.3295  3.6676  0.5011
 2348SOL     OW18676   0.666   1.320   4.121  0.2261  0.1942  0.0656
 2348SOL    HW118677   0.586   1.359   4.155 -0.7909 -0.1798 -1.9300
 2348SOL    HW218678   0.718   1.396   4.148 -1.3095  1.9942 -2.0531
 2349SOL     OW18679   3.590   3.990  11.656  0.5834 -0.8247  0.4490
 2349SOL    HW118680   3.576   3.976  11.750  0.0079  0.9753  0.6311
 2349SOL    HW218681   3.662   3.929  11.637  2.2854  1.2226  0.3637
 2350SOL     OW18682   3.689   1.976   7.537 -0.0794 -0.4081 -0.3250
 2350SOL    HW118683   3.632   1.922   7.482 -3.4569  1.9304  0.8891
 2350SOL    HW218684   3.631   2.049   7.557 -0.8549 -1.1825  0.3059
 2351SOL     OW18685   0.703   0.076   7.416 -0.2243 -0.2276 -0.5168
 2351SOL    HW118686   0.753   0.059   7.336  2.0756 -1.4183  1.1887
 2351SOL    HW218687   0.643   0.003   7.406 -0.8375  0.5047 -2.2077
 2352SOL     OW18688   2.030   2.611   6.433 -0.5076 -0.2130 -0.4814
 2352SOL    HW118689   2.005   2.670   6.362  1.7173  1.3095 -0.0033
 2352SOL    HW218690   2.042   2.673   6.505 -3.1843 -2.2789  1.7538
 2353SOL     OW18691   3.959   1.030   4.191 -0.8902 -0.3929 -0.6075
 2353SOL    HW118692   3.941   0.940   4.165 -0.6605 -0.2023 -1.4192
 2353SOL    HW218693   3.889   1.052   4.252 -0.2029  1.9764 -0.6725
 2354SOL     OW18694   0.610   3.129   6.669  0.1608 -0.1315  0.2733
 2354SOL    HW118695   0.685   3.090   6.625 -0.4298 -2.5979  1.4568
 2354SOL    HW218696   0.543   3.062   6.655 -0.6329  0.8480 -0.6932
 2355SOL     OW18697   1.509   3.473   5.803 -0.2494 -0.3319 -0.1453
 2355SOL    HW118698   1.414   3.484   5.802  0.0938  2.4725 -2.5598
 2355SOL    HW218699   1.511   3.391   5.754  0.1400 -1.1744  1.2834
 2356SOL     OW18700   2.290   1.938   0.129 -0.1583 -0.1346 -0.2693
 2356SOL    HW118701   2.258   1.995   0.199 -0.4778 -1.0105  0.3063
 2356SOL    HW218702   2.320   2.003   0.066  0.3927  0.3613  0.5108
 2357SOL     OW18703   4.470   2.179   5.112  0.3703  0.0875  0.0860
 2357SOL    HW118704   4.476   2.098   5.062 -2.2332  0.2786 -0.5197
 2357SOL    HW218705   4.442   2.235   5.040 -1.4090 -0.4014  0.3977
 2358SOL     OW18706   1.202   0.829   9.072  0.6718 -0.0739 -0.0580
 2358SOL    HW118707   1.144   0.801   9.001  0.8064 -0.2659 -0.0897
 2358SOL    HW218708   1.210   0.750   9.126  2.0728  0.3154  0.2885
 2359SOL     OW18709   1.701   2.380   7.580  0.2949 -0.5776 -1.0218
 2359SOL    HW118710   1.671   2.332   7.502 -2.3904  2.7885 -2.0756
 2359SOL    HW218711   1.660   2.320   7.642  1.7636 -0.0136  0.5013
 2360SOL     OW18712   0.242   1.101   8.808 -0.7192 -0.7041 -0.3005
 2360SOL    HW118713   0.260   1.179   8.861 -0.7761 -1.1784  0.4169
 2360SOL    HW218714   0.304   1.114   8.736  0.4370 -2.4738  0.3667
 2361SOL     OW18715   1.054   2.449   1.635  0.3386  0.0486  0.2941
 2361SOL    HW118716   1.133   2.438   1.687  0.2266 -2.3577 -0.0595
 2361SOL    HW218717   0.999   2.491   1.701 -2.1124 -1.2565 -0.9278
 2362SOL     OW18718   1.810   2.007   3.915  0.0669  0.0122 -0.1862
 2362SOL    HW118719   1.761   2.037   3.838 -1.5392  0.4564  1.0125
 2362SOL    HW218720   1.900   2.027   3.889 -0.0997  0.8984 -0.0968
 2363SOL     OW18721   1.893   2.031   4.839 -0.0375 -0.1994  0.2309
 2363SOL    HW118722   1.799   2.045   4.851  0.2389  1.3972  0.5147
 2363SOL    HW218723   1.909   1.975   4.915 -2.4210 -0.6989  0.3442
 2364SOL     OW18724   2.504   4.208   8.189 -0.7712 -0.9141  0.3488
 2364SOL    HW118725   2.451   4.139   8.149 -2.0130  0.2230  0.0237
 2364SOL    HW218726   2.538   4.168   8.268  0.2262  0.6672  0.7163
 2365SOL     OW18727   2.108   2.221   9.848 -0.7128  0.0234  0.2478
 2365SOL    HW118728   2.080   2.277   9.920 -0.2631  0.4440  0.1010
 2365SOL    HW218729   2.198   2.249   9.830  0.0141 -1.7544  1.0669
 2366SOL     OW18730   4.666   4.397   7.565 -0.3194  0.2551 -0.4379
 2366SOL    HW118731   0.018   4.377   7.531 -0.0382 -0.7728  0.8830
 2366SOL    HW218732   4.624   4.360   7.487 -0.4882 -0.2709 -0.0980
 2367SOL     OW18733   3.930   2.507   9.116 -0.5054 -0.4604  0.0592
 2367SOL    HW118734   3.981   2.438   9.074  0.4756  0.0754  0.3532
 2367SOL    HW218735   3.853   2.510   9.060  1.1027 -0.4525 -2.1767
 2368SOL     OW18736   2.436   1.486  16.609 -0.1380  0.1123 -0.2494
 2368SOL    HW118737   2.453   1.451  16.522 -1.3389 -0.5214 -0.2383
 2368SOL    HW218738   2.494   1.443  16.671  2.7992  0.5586 -2.7197
 2369SOL     OW18739   1.881   4.197   7.197 -0.1731  0.4121  0.2978
 2369SOL    HW118740   1.946   4.167   7.261  1.5262  1.7923 -0.7891
 2369SOL    HW218741   1.796   4.183   7.240 -0.5364 -2.0923 -1.2074
 2370SOL     OW18742   1.805   1.191   5.135  0.0623 -0.0902  0.3202
 2370SOL    HW118743   1.880   1.164   5.082 -1.0789 -1.9464 -0.4009
 2370SOL    HW218744   1.803   1.120   5.199  0.0846  0.3371  0.7880
 2371SOL     OW18745   2.601   0.647  12.822 -0.0685  0.4236  0.1020
 2371SOL    HW118746   2.647   0.678  12.744  0.1557 -1.2523 -0.4291
 2371SOL    HW218747   2.667   0.624  12.887 -2.7767 -3.5581  1.4804
 2372SOL     OW18748   4.735   4.238   6.836 -0.5947  0.3179 -0.0226
 2372SOL    HW118749   0.040   4.169   6.889  2.0940  2.0316  0.1969
 2372SOL    HW218750   4.725   4.185   6.757  1.0295  0.3846 -0.2727
 2373SOL     OW18751   3.229   4.540   4.988 -0.0085 -0.2000  0.3045
 2373SOL    HW118752   3.186   4.455   4.994  1.3152 -0.8192  1.0542
 2373SOL    HW218753   3.285   4.530   5.065  0.1956  0.3130  0.2283
 2374SOL     OW18754   3.657   4.388   8.819  0.6496  0.0195 -0.5670
 2374SOL    HW118755   3.750   4.372   8.802  0.9670  0.1819  1.0208
 2374SOL    HW218756   3.637   4.459   8.758  2.0709  0.8623 -0.0657
 2375SOL     OW18757   4.049   3.739   1.932  0.3897 -0.2056 -0.1562
 2375SOL    HW118758   4.142   3.762   1.933 -0.0067  1.3540  0.5561
 2375SOL    HW218759   4.024   3.805   1.867  0.0059  1.8420  2.0435
 2376SOL     OW18760   3.772   2.380   6.191  0.4354  0.4265  0.4631
 2376SOL    HW118761   3.692   2.423   6.221 -0.6499 -0.6877 -0.8317
 2376SOL    HW218762   3.735   2.299   6.156  0.7728  0.0146  1.0783
 2377SOL     OW18763   0.282   0.662   2.185 -0.6630  0.0873  0.6264
 2377SOL    HW118764   0.292   0.690   2.094 -1.9269  0.3468  0.5719
 2377SOL    HW218765   0.371   0.630   2.201 -0.2038  0.9968 -0.0858
 2378SOL     OW18766   1.097   3.839   6.354  0.0447 -0.5342 -0.2018
 2378SOL    HW118767   1.121   3.751   6.384  1.5992  0.4416  1.4671
 2378SOL    HW218768   1.143   3.853   6.271 -0.4018 -0.4715 -0.4399
 2379SOL     OW18769   4.410   4.400   2.157  0.0505 -0.5555 -0.2331
 2379SOL    HW118770   4.473   4.381   2.227 -0.4854  1.1184  0.7176
 2379SOL    HW218771   4.433   4.333   2.093 -0.6873 -2.1615  1.1696
 2380SOL     OW18772   3.573   2.306  14.949  0.9788  0.2703  0.1090
 2380SOL    HW118773   3.523   2.385  14.929 -0.3530 -0.3127  1.1777
 2380SOL    HW218774   3.610   2.337  15.032  1.8548 -0.0315 -0.1632
 2381SOL     OW18775   0.051   4.035   4.230  0.4669  0.0996 -0.1143
 2381SOL    HW118776   0.050   4.073   4.142  1.7592 -0.8308 -0.5319
 2381SOL    HW218777   0.146   4.028   4.239  0.2833 -1.7409  0.2296
 2382SOL     OW18778   2.230   2.906  13.959  0.3410  0.3450  0.2064
 2382SOL    HW118779   2.176   2.907  13.880  1.6846 -3.7114 -0.7942
 2382SOL    HW218780   2.194   2.982  14.005 -1.5897 -0.5426  0.1749
 2383SOL     OW18781   0.314   2.205   5.617  0.2083  0.3666 -0.6685
 2383SOL    HW118782   0.323   2.124   5.666 -2.0932 -0.9554 -2.4352
 2383SOL    HW218783   0.279   2.256   5.690 -0.9807 -2.7932  0.9772
 2384SOL     OW18784   3.788   1.061   8.330  0.2389 -0.2144  0.1800
 2384SOL    HW118785   3.878   1.087   8.345 -0.1746  0.9600  0.5798
 2384SOL    HW218786   3.794   1.040   8.237 -2.0418 -0.6291  0.1253
 2385SOL     OW18787   0.638   0.989   5.802 -0.3330  0.4079  0.4034
 2385SOL    HW118788   0.610   0.932   5.731 -1.0779  2.2412 -0.7642
 2385SOL    HW218789   0.556   1.022   5.839 -0.5194  2.0398 -1.4229
 2386SOL     OW18790   4.684   0.728  14.199  0.1583 -0.1280 -0.0028
 2386SOL    HW118791   0.031   0.742  14.153  0.6933 -2.1927  0.3254
 2386SOL    HW218792   4.633   0.678  14.136 -0.2003  0.1015  0.1027
 2387SOL     OW18793   0.916   4.240   7.447  0.8095  0.0257 -1.0213
 2387SOL    HW118794   0.827   4.221   7.418 -0.1517  0.5151  1.6286
 2387SOL    HW218795   0.955   4.298   7.380 -1.8109  1.9594 -0.8596
 2388SOL     OW18796   1.068   2.990   4.154 -0.1298 -0.4011 -0.3667
 2388SOL    HW118797   1.147   3.038   4.177  0.1450  0.6765 -3.5605
 2388SOL    HW218798   1.097   2.901   4.177  1.0240  0.7833  2.7636
 2389SOL     OW18799   1.380   4.239   8.023 -0.6568 -0.0848  0.0829
 2389SOL    HW118800   1.322   4.236   7.947  0.7819 -0.7646 -0.9983
 2389SOL    HW218801   1.321   4.222   8.096 -0.9716  0.6861  0.0039
 2390SOL     OW18802   2.093   4.399  13.664 -0.4233  0.0402  0.0255
 2390SOL    HW118803   2.182   4.429  13.682 -1.3722  2.1894  1.1459
 2390SOL    HW218804   2.046   4.469  13.618  0.1270  0.0665 -0.4923
 2391SOL     OW18805   4.660   3.462  13.774  0.0864 -0.0371 -0.0137
 2391SOL    HW118806   4.709   3.528  13.724 -1.3261 -0.8946 -2.5533
 2391SOL    HW218807   4.733   3.427  13.824  0.7434 -0.0289 -0.9575
 2392SOL     OW18808   4.241   3.480   2.495  0.0308 -0.2503  0.0043
 2392SOL    HW118809   4.184   3.463   2.570  1.1691  1.7972  1.3522
 2392SOL    HW218810   4.250   3.574   2.513 -0.2925 -0.4534  1.2198
 2393SOL     OW18811   0.487   1.865   5.631 -0.4793 -0.4483 -0.1466
 2393SOL    HW118812   0.410   1.807   5.629  0.6584 -1.9803  1.0670
 2393SOL    HW218813   0.515   1.861   5.722 -2.5872  2.5600  0.6296
 2394SOL     OW18814   4.113   2.717   9.163  0.2378 -0.9175  0.0955
 2394SOL    HW118815   4.032   2.668   9.145  0.5325 -2.2087  2.3939
 2394SOL    HW218816   4.071   2.792   9.205  1.1292 -0.9922  1.1022
 2395SOL     OW18817   0.971   4.402   7.218  0.9028  0.2888  0.0161
 2395SOL    HW118818   1.035   4.356   7.164 -0.9916 -1.1691 -0.9680
 2395SOL    HW218819   1.020   4.480   7.244  1.9385 -0.7039  1.0022
 2396SOL     OW18820   0.412   0.947   4.513 -0.3001  0.5571 -0.4189
 2396SOL    HW118821   0.358   0.891   4.569  0.4268 -1.9591 -2.2105
 2396SOL    HW218822   0.491   0.951   4.566  0.4339  0.1833 -1.4868
 2397SOL     OW18823   2.043   0.629  11.668 -0.2235 -0.2270  0.4936
 2397SOL    HW118824   2.104   0.602  11.737  0.6802 -1.0018 -0.5891
 2397SOL    HW218825   2.047   0.723  11.682 -0.7507 -0.4265  1.8939
 2398SOL     OW18826   2.713   2.074   8.537 -0.1020  0.5162  0.0788
 2398SOL    HW118827   2.682   2.036   8.620  0.1145 -1.4962 -0.7465
 2398SOL    HW218828   2.807   2.058   8.537  0.2649  2.8040 -0.5655
 2399SOL     OW18829   2.469   4.699   5.362 -0.2313  0.8745 -0.2875
 2399SOL    HW118830   2.565   4.695   5.363 -0.3388 -1.3608  0.0891
 2399SOL    HW218831   2.456   0.050   5.402 -2.7081 -1.0405  3.0206
 2400SOL     OW18832   1.623   1.288  17.700 -0.6790  0.6743  0.7264
 2400SOL    HW118833   1.673   1.369  17.711  1.4302 -0.2258 -2.3158
 2400SOL    HW218834   1.529   1.310  17.699 -0.6409  0.7794 -0.9644
 2401SOL     OW18835   0.518   2.826   6.129 -0.4809  0.3772  0.2819
 2401SOL    HW118836   0.565   2.743   6.122 -1.5042 -0.3071  1.5874
 2401SOL    HW218837   0.431   2.795   6.152  1.0852 -2.0328  2.9541
 2402SOL     OW18838   0.331   0.405   2.353 -0.0690  0.0367 -0.3980
 2402SOL    HW118839   0.264   0.472   2.366  0.8752  0.3626  2.7032
 2402SOL    HW218840   0.405   0.444   2.308 -0.5930 -0.5067 -1.7554
 2403SOL     OW18841   0.096   0.069   4.799 -0.0299 -0.5177  0.2311
 2403SOL    HW118842   0.164   0.112   4.850 -0.4570 -1.4226  1.5881
 2403SOL    HW218843   0.023   0.043   4.856  0.2006  0.4008  0.9442
 2404SOL     OW18844   4.107   4.355   7.130  0.2175  0.0995  0.8443
 2404SOL    HW118845   4.177   4.408   7.092 -1.1184  1.3670  0.1335
 2404SOL    HW218846   4.071   4.315   7.051  0.0235  0.4657  0.7485
 2405SOL     OW18847   3.571   4.044   5.955 -0.6489  0.2778  0.1599
 2405SOL    HW118848   3.559   3.953   5.926 -1.8332  0.2802  0.6609
 2405SOL    HW218849   3.666   4.051   5.947 -0.6733 -2.1545 -2.0267
 2406SOL     OW18850   1.463   2.487   4.053  0.5018  0.4333 -0.3967
 2406SOL    HW118851   1.369   2.479   4.036  0.1507  0.3248  1.5445
 2406SOL    HW218852   1.491   2.565   4.005 -0.6621  1.1860  0.1471
 2407SOL     OW18853   2.765   4.135   5.587 -0.1493  0.1109  0.2382
 2407SOL    HW118854   2.701   4.179   5.532 -0.2996 -0.9392 -0.4070
 2407SOL    HW218855   2.836   4.200   5.595 -0.3403  0.3330  0.1192
 2408SOL     OW18856   2.663   3.076   4.148  0.4233 -0.4141  0.0330
 2408SOL    HW118857   2.594   3.042   4.092  0.1549 -0.3395  0.3191
 2408SOL    HW218858   2.668   3.009   4.217 -2.1751 -0.0894  0.5318
 2409SOL     OW18859   2.654   3.217   2.523 -0.3644 -0.3390 -0.1330
 2409SOL    HW118860   2.629   3.301   2.484  0.8610  0.2454  0.3486
 2409SOL    HW218861   2.583   3.166   2.484 -0.8276  1.0845 -1.1458
 2410SOL     OW18862   4.021   0.792  14.862 -0.0876  0.3145  0.3393
 2410SOL    HW118863   4.052   0.802  14.952  1.7485 -0.1144 -0.2543
 2410SOL    HW218864   4.060   0.709  14.837 -0.8912 -0.4081  1.4699
 2411SOL     OW18865   2.552   3.849   5.935 -0.4852 -0.1344 -0.0111
 2411SOL    HW118866   2.476   3.790   5.930 -0.2754 -0.2089 -2.4389
 2411SOL    HW218867   2.578   3.836   6.026 -0.7102 -2.5596 -0.2797
 2412SOL     OW18868   4.055   4.270  11.794  0.4033 -0.0682  0.0333
 2412SOL    HW118869   4.086   4.201  11.853 -0.3410 -0.7737 -0.3938
 2412SOL    HW218870   3.965   4.242  11.777  0.1908  0.4496  0.2928
 2413SOL     OW18871   2.470   1.292  15.324 -0.5107 -0.2392 -0.6821
 2413SOL    HW118872   2.376   1.295  15.305  0.0378 -0.7574 -3.5381
 2413SOL    HW218873   2.507   1.361  15.268  0.8626 -0.7688 -0.4145
 2414SOL     OW18874   1.594   1.396   9.621 -0.3198  0.3147 -0.0170
 2414SOL    HW118875   1.521   1.341   9.593  0.8495 -0.0191 -2.3586
 2414SOL    HW218876   1.621   1.355   9.704  0.6391  3.4530  1.2303
 2415SOL     OW18877   4.341   1.809   3.519 -0.1842 -0.3483 -0.6577
 2415SOL    HW118878   4.361   1.839   3.608 -3.5456 -2.4597  0.7908
 2415SOL    HW218879   4.422   1.815   3.469 -0.3618 -0.6213 -0.9770
 2416SOL     OW18880   4.057   3.813  15.357 -0.4334 -0.2867  0.0203
 2416SOL    HW118881   4.016   3.882  15.305 -2.0624 -0.3625  1.1909
 2416SOL    HW218882   4.124   3.867  15.401 -2.6661  1.2471  1.5581
 2417SOL     OW18883   2.878   3.013   7.643 -0.3488  0.2308 -0.2535
 2417SOL    HW118884   2.959   3.060   7.626  0.3446 -0.1699  1.9154
 2417SOL    HW218885   2.895   2.922   7.670 -0.2573  0.4152  0.3220
 2418SOL     OW18886   3.992   3.823   5.706  0.0623 -0.4553  0.0468
 2418SOL    HW118887   3.938   3.749   5.678  1.1024 -0.2385 -2.5373
 2418SOL    HW218888   4.065   3.765   5.730  0.1409  0.0152  0.9462
 2419SOL     OW18889   1.991   4.437  12.043 -0.8250  0.6906 -0.3969
 2419SOL    HW118890   2.077   4.465  12.012 -1.0740  0.2887 -1.4474
 2419SOL    HW218891   1.946   4.509  12.087  0.5544  1.6916 -0.6110
 2420SOL     OW18892   4.074   4.170   9.923 -0.5685  0.5094  0.0258
 2420SOL    HW118893   4.080   4.174  10.018  2.8523  1.3577 -0.2456
 2420SOL    HW218894   3.981   4.179   9.903 -0.4913 -1.1663 -1.1194
 2421SOL     OW18895   3.703   0.453  14.567  0.3340 -0.3327  0.1564
 2421SOL    HW118896   3.650   0.416  14.638 -0.2766  0.4695  0.1201
 2421SOL    HW218897   3.628   0.474  14.511  0.7036  0.0769 -0.1841
 2422SOL     OW18898   4.493   2.233   1.464  0.5950  0.1631  0.2784
 2422SOL    HW118899   4.499   2.151   1.514  2.4048 -0.3374 -0.8027
 2422SOL    HW218900   4.498   2.200   1.374 -0.6053  0.8515 -0.0454
 2423SOL     OW18901   2.246   0.286   5.474  0.0101 -0.5297  1.1759
 2423SOL    HW118902   2.242   0.240   5.557  0.6147 -0.2272  1.3697
 2423SOL    HW218903   2.341   0.287   5.469  0.0861  1.9631  2.8602
 2424SOL     OW18904   0.558   0.717   9.422  0.3090  0.2038  0.3353
 2424SOL    HW118905   0.623   0.688   9.486  0.4344  1.3132  0.7208
 2424SOL    HW218906   0.626   0.767   9.376  1.3396  0.9153  2.6157
 2425SOL     OW18907   0.553   3.124  17.445 -0.6332 -0.0892 -0.4058
 2425SOL    HW118908   0.495   3.176  17.388  0.5612 -0.6219 -2.0893
 2425SOL    HW218909   0.499   3.050  17.474 -0.8642  0.8923  1.7052
 2426SOL     OW18910   1.517   2.393   1.371 -0.5420  0.0646 -0.0398
 2426SOL    HW118911   1.480   2.414   1.457 -0.7846  1.0320 -0.3808
 2426SOL    HW218912   1.434   2.392   1.325 -0.3273  1.9118 -0.4630
 2427SOL     OW18913   1.319   0.290  17.050 -0.1520  0.1780 -0.0489
 2427SOL    HW118914   1.366   0.214  17.086  0.0233  1.1481  1.7512
 2427SOL    HW218915   1.299   0.346  17.125  1.1235  0.2159  0.2658
 2428SOL     OW18916   1.206   4.493   5.067 -0.8392  0.0980 -0.3318
 2428SOL    HW118917   1.169   4.551   5.001 -0.7444  1.0993  0.5044
 2428SOL    HW218918   1.299   4.500   5.046  0.0329 -2.5968  2.5747
 2429SOL     OW18919   4.631   1.694   8.769  0.4127  0.6568  0.0644
 2429SOL    HW118920   4.617   1.720   8.679 -1.5513  1.2988  0.5667
 2429SOL    HW218921   4.574   1.747   8.824 -0.6616  0.5101 -0.9278
 2430SOL     OW18922   2.950   3.963   2.034  0.1529  0.0860  0.3008
 2430SOL    HW118923   2.968   3.879   1.991 -0.2156  1.1448 -1.8970
 2430SOL    HW218924   2.873   4.001   1.991 -1.0240 -2.1394  0.4322
 2431SOL     OW18925   2.849   0.778   2.813  0.1420 -0.2820  0.6004
 2431SOL    HW118926   2.884   0.752   2.898  0.0823 -0.1940  0.6524
 2431SOL    HW218927   2.877   0.870   2.820  0.8350 -0.4321 -0.1746
 2432SOL     OW18928   0.971   3.514   1.641 -0.2626 -0.1467 -0.1967
 2432SOL    HW118929   1.061   3.483   1.636  0.5031  2.2332 -0.7703
 2432SOL    HW218930   0.936   3.502   1.552 -2.7690 -0.1490  0.7750
 2433SOL     OW18931   4.527   4.201   6.194  0.3956  0.7696  0.0864
 2433SOL    HW118932   4.528   4.112   6.159  1.0526  0.7913  0.0657
 2433SOL    HW218933   4.453   4.241   6.147  0.9141  1.5654 -0.0517
 2434SOL     OW18934   3.199   0.383   5.973  0.2327 -0.3723  0.2559
 2434SOL    HW118935   3.126   0.382   5.911 -0.5715 -0.3410  1.2040
 2434SOL    HW218936   3.214   0.288   5.981  0.7313 -0.0680  2.8542
 2435SOL     OW18937   4.491   4.269   0.719  0.3374 -0.2894  0.7388
 2435SOL    HW118938   4.546   4.347   0.728 -0.0894  0.2370 -1.2613
 2435SOL    HW218939   4.403   4.306   0.727  0.9159  1.4970 -0.9402
 2436SOL     OW18940   3.376   2.711  16.060  0.0774  0.0328 -0.1249
 2436SOL    HW118941   3.374   2.615  16.055  0.8493  0.0775 -1.2724
 2436SOL    HW218942   3.461   2.737  16.024 -0.4977  1.8377 -0.1562
 2437SOL     OW18943   2.597   1.595   8.215 -0.4764  0.0779 -0.3859
 2437SOL    HW118944   2.638   1.664   8.266  0.9543  0.1916 -1.6910
 2437SOL    HW218945   2.568   1.540   8.288 -0.4340  3.0943  1.9044
 2438SOL     OW18946   1.951   3.300  11.237  0.2320 -0.6590  0.3646
 2438SOL    HW118947   1.999   3.382  11.232  1.2637 -1.1825  1.7001
 2438SOL    HW218948   1.970   3.282  11.329  0.9821 -1.7817  0.0021
 2439SOL     OW18949   2.657   1.816  12.203 -0.1333 -0.6620  0.0891
 2439SOL    HW118950   2.620   1.904  12.194 -0.9275 -1.2634 -2.5788
 2439SOL    HW218951   2.577   1.769  12.227  0.9793 -1.3628  2.4369
 2440SOL     OW18952   2.285   1.617   8.346 -0.2207  0.1957 -0.2565
 2440SOL    HW118953   2.319   1.667   8.272  0.1338 -2.0033 -1.5797
 2440SOL    HW218954   2.279   1.527   8.315 -1.7073  0.6433 -1.2882
 2441SOL     OW18955   3.976   0.795   8.577  0.7893 -0.1531 -0.3391
 2441SOL    HW118956   3.982   0.891   8.579 -0.2311 -0.0554 -1.8356
 2441SOL    HW218957   4.066   0.778   8.605  0.4137 -1.7968 -0.1312
 2442SOL     OW18958   4.267   2.347   7.406 -0.2340  0.8125  0.2045
 2442SOL    HW118959   4.335   2.415   7.402  0.7167 -0.0737  1.4260
 2442SOL    HW218960   4.265   2.309   7.318 -1.6737 -0.9317  1.0191
 2443SOL     OW18961   1.950   1.952   0.671  0.3362  0.2569 -1.1662
 2443SOL    HW118962   2.011   1.955   0.745 -1.0785 -0.0468  0.0175
 2443SOL    HW218963   1.926   2.045   0.675  1.4276  0.4906 -0.0093
 2444SOL     OW18964   1.279   3.935   8.364  0.4970 -0.9450  0.1368
 2444SOL    HW118965   1.280   4.013   8.308  1.3532 -0.4203  0.8834
 2444SOL    HW218966   1.184   3.926   8.367  0.5480 -1.2158  0.8284
 2445SOL     OW18967   1.879   0.918  11.234  0.3313 -0.0391  0.3235
 2445SOL    HW118968   1.937   0.901  11.159  1.6150  0.0033  1.3006
 2445SOL    HW218969   1.920   1.001  11.257 -0.5650  0.6125 -0.4351
 2446SOL     OW18970   4.320   0.074   4.632  0.2434  0.1696 -0.0904
 2446SOL    HW118971   4.409   0.048   4.658 -0.0289  0.9027  1.5722
 2446SOL    HW218972   4.318   0.044   4.541 -0.9438 -1.1029  0.3541
 2447SOL     OW18973   2.249   3.678   0.584 -0.4383  0.1309 -0.5783
 2447SOL    HW118974   2.324   3.718   0.540 -0.6175  1.5089  0.3609
 2447SOL    HW218975   2.185   3.749   0.589  0.1023  0.7027 -1.8939
 2448SOL     OW18976   0.026   4.666  16.125 -0.0579  1.1123  0.2959
 2448SOL    HW118977   0.016   4.661  16.030 -1.0848  2.2877  0.3383
 2448SOL    HW218978   4.679   4.624  16.151  1.2846 -1.9501 -0.4762
 2449SOL     OW18979   3.357   1.166   1.492 -0.2209  0.3385  0.2748
 2449SOL    HW118980   3.267   1.157   1.460 -0.0616  2.0216 -0.6339
 2449SOL    HW218981   3.385   1.077   1.470 -0.0223  0.7191 -0.9870
 2450SOL     OW18982   3.654   4.398   1.177  0.6157  0.6010 -0.3399
 2450SOL    HW118983   3.642   4.449   1.257  0.7800 -2.7168  1.7929
 2450SOL    HW218984   3.606   4.317   1.195 -0.2064  2.0849  4.0285
 2451SOL     OW18985   0.376   4.579  11.103  0.4522  0.3910 -0.4287
 2451SOL    HW118986   0.295   4.629  11.092  1.0862  1.2168 -1.3419
 2451SOL    HW218987   0.435   4.642  11.146 -1.1999  2.0907 -0.6635
 2452SOL     OW18988   3.708   1.100   4.815  0.0945  0.2187  0.0307
 2452SOL    HW118989   3.767   1.162   4.771 -0.5040  0.7980  0.0423
 2452SOL    HW218990   3.742   1.017   4.782  3.0694  1.3911  0.0826
 2453SOL     OW18991   4.527   2.256   4.309  0.4313 -0.1123  0.4056
 2453SOL    HW118992   4.491   2.170   4.286 -3.7012  1.4755  1.0102
 2453SOL    HW218993   4.471   2.276   4.384  0.5294  2.1623 -0.1463
 2454SOL     OW18994   3.014   0.177   7.806 -0.7918 -0.5164  0.0300
 2454SOL    HW118995   3.065   0.120   7.864  1.5795  0.5396 -1.0300
 2454SOL    HW218996   2.950   0.216   7.866 -2.2847 -3.2898  0.2568
 2455SOL     OW18997   2.978   1.589   2.175 -0.1346 -0.2348 -0.4724
 2455SOL    HW118998   3.027   1.535   2.113 -0.4457 -2.6932  1.4214
 2455SOL    HW218999   2.891   1.590   2.136  0.7066  2.7981 -2.3151
 2456SOL     OW19000   0.842   1.623   1.021  0.2696  0.6852 -0.0636
 2456SOL    HW119001   0.829   1.529   1.009 -2.3544  1.2724 -1.8913
 2456SOL    HW219002   0.760   1.654   0.982  0.0830 -0.7046 -0.7910
 2457SOL     OW19003   4.303   0.372   7.530 -0.1358  0.9090  0.0718
 2457SOL    HW119004   4.259   0.445   7.575  0.1081  0.5945  0.8177
 2457SOL    HW219005   4.274   0.382   7.439  1.4057 -0.1442 -0.5302
 2458SOL     OW19006   2.218   3.909  15.369  0.0961  0.0811  0.2907
 2458SOL    HW119007   2.144   3.966  15.350 -0.0527 -0.1035  0.3145
 2458SOL    HW219008   2.259   3.898  15.284  1.4360  1.5337  0.7401
 2459SOL     OW19009   1.440   4.679   7.151 -0.5065  0.1859  0.1082
 2459SOL    HW119010   1.400   0.029   7.136 -0.1603  0.1841 -0.8318
 2459SOL    HW219011   1.473   4.690   7.240  0.8320  0.9238 -0.4894
 2460SOL     OW19012   3.429   4.490   9.727  0.4338  0.9288 -0.1881
 2460SOL    HW119013   3.361   4.426   9.747 -1.7632  2.2386 -3.3562
 2460SOL    HW219014   3.454   4.512   9.816  0.7483  1.1417 -0.3277
 2461SOL     OW19015   4.714   4.450  11.931  0.2886 -0.4066 -0.5183
 2461SOL    HW119016   4.722   4.375  11.872 -1.6455 -1.2611  0.2879
 2461SOL    HW219017   4.717   4.534  11.885 -2.9254  1.2200  2.2385
 2462SOL     OW19018   3.163   0.737   9.449 -0.0971 -0.0453  0.3628
 2462SOL    HW119019   3.099   0.723   9.380 -1.3738 -1.4394  1.8437
 2462SOL    HW219020   3.200   0.825   9.436  0.4238 -0.2423  0.5210
 2463SOL     OW19021   3.194   0.764   1.636 -0.7539  0.4181 -0.3413
 2463SOL    HW119022   3.134   0.716   1.579  0.3937  1.0237 -2.0492
 2463SOL    HW219023   3.268   0.703   1.636 -1.5207 -0.5113  2.1995
 2464SOL     OW19024   4.563   3.627   4.648 -0.1944 -0.5942  0.2776
 2464SOL    HW119025   4.587   3.534   4.656  0.0115 -0.5122  0.6165
 2464SOL    HW219026   4.554   3.650   4.740  0.7267 -0.3110  0.2963
 2465SOL     OW19027   4.540   0.759   3.929  0.0323 -0.2812 -0.2288
 2465SOL    HW119028   4.632   0.738   3.945  0.4615  1.0820 -0.8501
 2465SOL    HW219029   4.514   0.721   4.013 -3.1010 -0.4327 -1.2831
 2466SOL     OW19030   3.704   1.208   3.047 -0.1618  0.3877 -0.4423
 2466SOL    HW119031   3.791   1.176   3.022 -0.8350 -3.1473  1.8630
 2466SOL    HW219032   3.725   1.302   3.042 -0.1690  0.3135 -1.8099
 2467SOL     OW19033   0.662   1.594   2.665 -0.2180 -0.0244  0.2991
 2467SOL    HW119034   0.582   1.558   2.702 -2.3796  0.1141 -4.2548
 2467SOL    HW219035   0.625   1.615   2.580 -3.0226 -0.6045  1.3803
 2468SOL     OW19036   3.344   3.557   0.802 -0.3039  0.0546 -0.0788
 2468SOL    HW119037   3.408   3.487   0.816 -1.5880 -1.5516 -2.2833
 2468SOL    HW219038   3.295   3.516   0.731 -0.1750 -1.0431  0.4636
 2469SOL     OW19039   2.881   3.338   5.456  0.3875  0.6066  0.9446
 2469SOL    HW119040   2.830   3.418   5.468  0.1819  0.7648 -1.0294
 2469SOL    HW219041   2.937   3.365   5.384  0.0158  1.0595  0.8235
 2470SOL     OW19042   4.231   4.353   8.662 -1.0682 -0.3667  0.3139
 2470SOL    HW119043   4.211   4.278   8.605  0.4921 -0.9030  0.4713
 2470SOL    HW219044   4.176   4.413   8.612  0.9233  1.2610  0.0981
 2471SOL     OW19045   2.344   1.730   4.925  0.3852 -0.1730  0.3146
 2471SOL    HW119046   2.438   1.713   4.920  0.4202  0.2422 -0.5621
 2471SOL    HW219047   2.327   1.685   5.007 -1.6446  1.0648  0.5748
 2472SOL     OW19048   0.975   3.292   8.603 -0.1241 -0.3864  0.2181
 2472SOL    HW119049   0.880   3.288   8.588 -0.1569  0.3418  0.2034
 2472SOL    HW219050   0.981   3.384   8.575 -2.5759 -0.3743 -0.2551
 2473SOL     OW19051   2.297   4.682   0.864 -0.7495  0.1926  0.1767
 2473SOL    HW119052   2.248   4.660   0.943 -1.5896  0.8385 -0.1612
 2473SOL    HW219053   2.328   4.595   0.840 -1.2152 -0.0786  0.5568
 2474SOL     OW19054   0.869   4.635   8.577  0.1583 -0.7447 -0.3670
 2474SOL    HW119055   0.942   4.616   8.636 -0.2966  1.5677  0.9289
 2474SOL    HW219056   0.817   4.681   8.643  1.0973  1.0159 -0.8532
 2475SOL     OW19057   2.010   2.027   1.713  0.0561  0.7143 -0.4536
 2475SOL    HW119058   2.065   2.002   1.788 -1.7234 -1.2763  0.1601
 2475SOL    HW219059   2.052   1.965   1.654  0.4585  1.2455 -0.7331
 2476SOL     OW19060   3.810   1.059   5.717 -0.1394  0.5828 -0.2528
 2476SOL    HW119061   3.737   1.115   5.691 -1.9001 -0.9733  1.2950
 2476SOL    HW219062   3.792   0.977   5.671 -0.6373 -0.0482  1.0583
 2477SOL     OW19063   4.654   1.311  14.403 -0.0791 -0.7800 -0.3480
 2477SOL    HW119064   4.702   1.338  14.325 -1.7665 -0.5559 -1.3119
 2477SOL    HW219065   4.633   1.222  14.374 -0.6710 -0.5013 -0.7792
 2478SOL     OW19066   3.956   0.812  14.508  0.1885  0.1176  0.4396
 2478SOL    HW119067   3.962   0.746  14.439 -3.5574 -0.1465  0.3764
 2478SOL    HW219068   3.863   0.806  14.527  0.0571 -2.1896 -0.9509
 2479SOL     OW19069   4.286   4.524   3.404 -0.4432  0.8327  0.3582
 2479SOL    HW119070   4.362   4.560   3.451  1.2760 -0.6886 -1.2299
 2479SOL    HW219071   4.271   4.443   3.454 -0.3725  0.2868 -0.5112
 2480SOL     OW19072   4.632   1.350   4.201  0.5000 -0.8915  0.1789
 2480SOL    HW119073   4.600   1.279   4.257 -1.5109  2.5620  3.3824
 2480SOL    HW219074   4.609   1.323   4.112 -0.2847  1.0336 -0.2027
 2481SOL     OW19075   2.675   2.498  14.981  0.3756  0.5849  0.6121
 2481SOL    HW119076   2.651   2.573  15.035 -0.6155  1.0544 -0.4838
 2481SOL    HW219077   2.769   2.515  14.973  0.5903 -1.1223 -0.6089
 2482SOL     OW19078   0.549   3.149  16.376  0.4138  0.3283 -0.0829
 2482SOL    HW119079   0.593   3.121  16.456 -0.7088 -1.1318  0.0220
 2482SOL    HW219080   0.498   3.221  16.413 -1.3948 -2.5920  3.1222
 2483SOL     OW19081   0.567   2.116   6.729  0.4843 -0.2969  0.3451
 2483SOL    HW119082   0.576   2.115   6.824 -2.9306 -0.2058  0.6839
 2483SOL    HW219083   0.488   2.169   6.738  0.0409 -1.3979  2.9418
 2484SOL     OW19084   1.681   3.609   3.616  0.2805 -0.5064 -0.0910
 2484SOL    HW119085   1.700   3.553   3.541  1.2599  1.6969 -1.5035
 2484SOL    HW219086   1.588   3.631   3.607  0.2549 -0.4874  0.2058
 2485SOL     OW19087   2.798   0.145  13.809 -0.0252  0.0327  0.5909
 2485SOL    HW119088   2.800   0.240  13.820 -1.0843  0.2138 -0.8127
 2485SOL    HW219089   2.830   0.131  13.898  2.1432  1.9926  0.1410
 2486SOL     OW19090   2.417   3.742  11.143  0.1561  0.2485 -0.2008
 2486SOL    HW119091   2.352   3.775  11.204 -1.1969 -3.0151  0.1402
 2486SOL    HW219092   2.473   3.819  11.136  0.5190 -0.1996 -2.1555
 2487SOL     OW19093   0.178   2.599   7.349 -0.3612 -0.0717 -0.6907
 2487SOL    HW119094   0.132   2.591   7.266  1.3095  1.5070 -1.7582
 2487SOL    HW219095   0.230   2.519   7.351 -0.4992 -0.1754 -1.2373
 2488SOL     OW19096   4.378   1.157   9.454 -0.5913 -0.4310  0.3899
 2488SOL    HW119097   4.295   1.167   9.407  0.5284  1.1391 -1.2320
 2488SOL    HW219098   4.349   1.196   9.537 -2.9778  0.2478 -0.7736
 2489SOL     OW19099   1.730   1.057  14.810  0.0333 -0.0521  0.2473
 2489SOL    HW119100   1.718   1.080  14.718  1.0501  2.4396  0.7521
 2489SOL    HW219101   1.769   1.135  14.849 -1.3685  0.5780  0.4039
 2490SOL     OW19102   0.941   2.559   1.864 -0.2282 -0.3911 -0.1687
 2490SOL    HW119103   0.849   2.586   1.862  0.0330  0.4398 -0.9330
 2490SOL    HW219104   0.977   2.633   1.912  0.8141  0.7626 -2.7351
 2491SOL     OW19105   3.500   0.164   3.835 -0.2133  0.0748 -0.1653
 2491SOL    HW119106   3.416   0.154   3.789 -1.0251  0.4088  1.2405
 2491SOL    HW219107   3.487   0.248   3.880  1.5420  0.6108 -0.6771
 2492SOL     OW19108   0.428   1.549   3.726 -0.2448  0.0559  0.1001
 2492SOL    HW119109   0.407   1.632   3.768 -3.0924  0.0415 -1.3580
 2492SOL    HW219110   0.523   1.541   3.740 -0.7907 -1.2746  3.2779
 2493SOL     OW19111   3.129   2.669   0.833 -0.0507  0.0838  0.5324
 2493SOL    HW119112   3.096   2.583   0.860  1.0110  0.2100  2.2707
 2493SOL    HW219113   3.084   2.729   0.893 -0.4004  1.1875 -0.8189
 2494SOL     OW19114   3.312   0.553   2.945 -0.0246 -0.4139 -0.2802
 2494SOL    HW119115   3.299   0.517   2.857  0.7454  1.2930 -1.0967
 2494SOL    HW219116   3.337   0.476   2.996 -2.7112 -2.1791 -1.6325
 2495SOL     OW19117   2.291   1.207  14.765 -0.1690 -0.0195 -0.4384
 2495SOL    HW119118   2.288   1.153  14.686 -0.9322  2.5436 -2.1831
 2495SOL    HW219119   2.356   1.269  14.731  1.1009 -1.7907 -1.2099
 2496SOL     OW19120   0.072   0.596  12.166 -0.1425 -0.2017 -0.1205
 2496SOL    HW119121   0.127   0.522  12.139  0.3223 -0.6014  1.9221
 2496SOL    HW219122   0.103   0.603  12.257  0.0829  3.4453 -0.4873
 2497SOL     OW19123   1.940   0.378   8.345 -0.1947  0.1546  0.1713
 2497SOL    HW119124   1.929   0.283   8.339  0.9377  0.0353  0.0154
 2497SOL    HW219125   1.993   0.395   8.267  0.2909  1.0387  0.7022
 2498SOL     OW19126   2.233   1.426   4.878  0.3814  0.9978 -0.0730
 2498SOL    HW119127   2.320   1.459   4.899  0.8152  0.6859 -1.3898
 2498SOL    HW219128   2.201   1.399   4.965  1.0701  1.0565  0.1989
 2499SOL     OW19129   1.257   0.902   2.605 -0.0457 -1.0157 -0.4922
 2499SOL    HW119130   1.198   0.839   2.646  0.9825 -2.8299 -1.8200
 2499SOL    HW219131   1.341   0.857   2.614 -0.8405 -2.1648  1.1636
 2500SOL     OW19132   1.258   2.235   1.528  0.4196  0.5694 -0.1010
 2500SOL    HW119133   1.273   2.148   1.492 -0.7832 -0.1621  1.1386
 2500SOL    HW219134   1.177   2.258   1.484  0.9704  1.8923 -0.4067
 2501SOL     OW19135   4.209   4.061   1.827  0.4259 -0.1851  0.6680
 2501SOL    HW119136   4.120   4.058   1.861 -0.5888  1.5830 -1.7561
 2501SOL    HW219137   4.225   3.970   1.803 -2.4236 -0.3175 -0.7703
 2502SOL     OW19138   1.547   0.588  11.763 -0.0231  0.2927  0.0371
 2502SOL    HW119139   1.624   0.582  11.707  0.7913  2.6226  0.8727
 2502SOL    HW219140   1.585   0.569  11.849 -0.2983  0.4858  0.2020
 2503SOL     OW19141   2.943   3.941  15.835  0.2384  0.2659 -0.1574
 2503SOL    HW119142   2.890   3.971  15.762 -0.0415 -0.3445 -0.2096
 2503SOL    HW219143   3.027   3.952  15.789  0.1025  1.9606 -0.0069
 2504SOL     OW19144   4.705   2.490   9.475 -0.4164  0.0855 -0.4349
 2504SOL    HW119145   4.622   2.464   9.514  1.0578 -0.0474  2.6441
 2504SOL    HW219146   0.025   2.486   9.553 -1.1660  0.0069  0.0880
 2505SOL     OW19147   2.639   4.543   4.202  0.3694 -0.2028  0.0336
 2505SOL    HW119148   2.586   4.485   4.148 -0.5639 -0.4381  1.2239
 2505SOL    HW219149   2.687   4.487   4.263  1.0406  1.7007  1.2596
 2506SOL     OW19150   2.718   3.825   5.246  0.7421  0.1719  0.4582
 2506SOL    HW119151   2.681   3.867   5.323 -0.5673  0.4016 -0.3043
 2506SOL    HW219152   2.678   3.738   5.253  1.2707 -0.2096 -0.9992
 2507SOL     OW19153   1.945   2.305   7.883 -0.1644 -0.5081 -0.1667
 2507SOL    HW119154   1.925   2.257   7.802  1.7028  0.0259 -0.9564
 2507SOL    HW219155   1.886   2.269   7.948 -0.7422  1.2531  0.2582
 2508SOL     OW19156   0.052   0.543   9.598 -0.7856 -0.3052 -0.0667
 2508SOL    HW119157   0.029   0.561   9.689  1.4054 -0.8797  0.6033
 2508SOL    HW219158   0.003   0.610   9.550  0.1977  0.5337  0.0993
 2509SOL     OW19159   3.610   1.191   9.143  0.5513 -0.1128 -0.3325
 2509SOL    HW119160   3.675   1.262   9.148  0.3382  0.1600 -1.3724
 2509SOL    HW219161   3.674   1.122   9.123  0.3337 -0.0919 -1.0906
 2510SOL     OW19162   2.906   1.366   0.785 -0.3361 -0.2805 -0.4246
 2510SOL    HW119163   2.948   1.364   0.698  1.9717 -1.5274  0.7000
 2510SOL    HW219164   2.816   1.392   0.768 -0.2112 -0.0634 -0.7684
 2511SOL     OW19165   0.715   2.448  10.353 -0.8494  0.7078  0.5005
 2511SOL    HW119166   0.649   2.421  10.289 -0.4848 -2.3042  1.3772
 2511SOL    HW219167   0.650   2.460  10.422  0.2436 -0.4321  1.7527
 2512SOL     OW19168   1.335   2.737   7.173  0.1826  0.0065  0.0847
 2512SOL    HW119169   1.255   2.786   7.190  1.1927  1.3848  0.8553
 2512SOL    HW219170   1.356   2.695   7.257  0.9452 -1.5360 -0.8688
 2513SOL     OW19171   0.041   1.203   6.410  0.6330 -0.4118 -0.5455
 2513SOL    HW119172   0.063   1.196   6.317  2.9133 -1.0442  0.0365
 2513SOL    HW219173   0.027   1.297   6.419 -1.0407 -0.6773 -0.3404
 2514SOL     OW19174   1.214   4.671  10.355  0.0656  0.7206  0.4530
 2514SOL    HW119175   1.192   4.583  10.324  1.0258  0.3469  0.8236
 2514SOL    HW219176   1.243   4.648  10.444 -1.3358  1.3297  1.0647
 2515SOL     OW19177   1.706   1.974  11.324  0.2402 -0.2848 -0.2748
 2515SOL    HW119178   1.677   1.924  11.400  0.0097  2.1365  1.2555
 2515SOL    HW219179   1.776   2.028  11.361 -1.6402  2.2273 -0.3734
 2516SOL     OW19180   1.949   1.721   2.113  0.0251 -0.3047 -0.0203
 2516SOL    HW119181   1.856   1.705   2.097  0.5854 -2.9065 -0.5887
 2516SOL    HW219182   1.948   1.808   2.073 -2.0140 -0.8300 -1.1116
 2517SOL     OW19183   3.168   1.265  13.285 -0.0266  0.0626  0.5056
 2517SOL    HW119184   3.252   1.228  13.310 -0.5177  0.2830  2.4500
 2517SOL    HW219185   3.165   1.262  13.189  0.1293  3.7128  0.4011
 2518SOL     OW19186   4.703   2.107   3.461 -0.0177  0.4203 -0.4594
 2518SOL    HW119187   4.655   2.026   3.475  2.2895 -0.6216  1.4549
 2518SOL    HW219188   0.042   2.066   3.418 -0.4881 -0.6649 -0.2267
 2519SOL     OW19189   2.676   3.628  16.995 -0.5163 -0.1460  0.1500
 2519SOL    HW119190   2.716   3.655  16.912  0.6695 -3.5244 -0.3667
 2519SOL    HW219191   2.742   3.606  17.060 -0.6937  0.0103  0.3825
 2520SOL     OW19192   0.041   1.271  15.530 -0.2438 -0.0656 -0.6627
 2520SOL    HW119193   0.006   1.326  15.460 -1.9056 -0.3214 -0.0260
 2520SOL    HW219194   0.095   1.209  15.480 -1.2319 -0.4250 -1.2833
 2521SOL     OW19195   2.042   1.849  15.399  0.2281 -0.0050 -0.1492
 2521SOL    HW119196   2.079   1.778  15.346  0.9769 -0.6133  1.2116
 2521SOL    HW219197   2.050   1.806  15.484  3.3702  1.1687  0.1469
 2522SOL     OW19198   2.406   1.938  11.775  0.3326 -0.0567  0.7606
 2522SOL    HW119199   2.479   1.902  11.724  0.8754  1.1208  0.7238
 2522SOL    HW219200   2.398   1.874  11.846  1.7822 -0.6071  0.4480
 2523SOL     OW19201   0.059   3.824   9.186  0.1690 -0.4719  0.5066
 2523SOL    HW119202   0.010   3.759   9.236 -1.3017  0.6926  0.6040
 2523SOL    HW219203   0.042   3.903   9.237 -0.2313  0.1231 -0.5529
 2524SOL     OW19204   1.673   0.285   7.616 -0.4377 -0.2982 -0.6590
 2524SOL    HW119205   1.608   0.215   7.630 -1.2224  0.4271 -0.6609
 2524SOL    HW219206   1.751   0.232   7.630 -1.1544 -0.8800  1.2344
 2525SOL     OW19207   0.481   2.137   8.793 -0.0443 -0.5210  0.7719
 2525SOL    HW119208   0.419   2.169   8.858  0.1614 -0.1139  0.7657
 2525SOL    HW219209   0.431   2.158   8.714  1.3063 -2.8599 -0.7156
 2526SOL     OW19210   2.417   1.330   1.390 -0.7548 -0.3525  0.4312
 2526SOL    HW119211   2.411   1.248   1.439 -0.3029 -0.6285  0.0356
 2526SOL    HW219212   2.337   1.309   1.342 -0.9282 -1.4235  1.1966
 2527SOL     OW19213   0.110   4.055   5.454 -0.4489  0.1250 -0.4176
 2527SOL    HW119214   0.191   4.014   5.482 -0.2511  0.3380 -0.6716
 2527SOL    HW219215   0.152   4.139   5.436 -1.4021  0.7565  0.2852
 2528SOL     OW19216   3.714   3.987   6.962 -0.6539  0.0307 -0.2906
 2528SOL    HW119217   3.702   4.077   6.932  0.6865  0.1487 -0.4717
 2528SOL    HW219218   3.797   3.960   6.922  0.4277  3.5560 -0.4749
 2529SOL     OW19219   4.138   4.433  13.993 -0.0567 -0.4756 -0.3724
 2529SOL    HW119220   4.086   4.479  13.928 -1.5508 -0.9928  0.4528
 2529SOL    HW219221   4.080   4.373  14.040  1.4414 -0.8219  1.0427
 2530SOL     OW19222   1.503   4.210  13.777  0.1890 -0.0523 -0.1537
 2530SOL    HW119223   1.590   4.169  13.775 -0.1982 -1.0070  2.0632
 2530SOL    HW219224   1.493   4.225  13.871 -0.9833 -1.6952 -0.0161
 2531SOL     OW19225   3.395   3.557  12.096  0.1448 -0.2979 -0.2098
 2531SOL    HW119226   3.463   3.577  12.032 -1.2279 -0.1166 -1.6263
 2531SOL    HW219227   3.317   3.543  12.042 -1.6356  0.3296  2.2032
 2532SOL     OW19228   1.164   2.824   7.857 -0.9236 -0.7220  0.5117
 2532SOL    HW119229   1.204   2.823   7.770  0.7911  0.1438  1.2779
 2532SOL    HW219230   1.135   2.733   7.862  1.1982 -1.3672  0.8968
 2533SOL     OW19231   0.393   2.211  14.739  0.1967 -0.1699  0.4100
 2533SOL    HW119232   0.407   2.285  14.680  0.4816  0.0750  0.7906
 2533SOL    HW219233   0.297   2.218  14.736  0.1271 -0.9370  0.7752
 2534SOL     OW19234   1.239   1.562   5.014 -0.1721  0.3666  0.0314
 2534SOL    HW119235   1.238   1.491   4.950 -0.7649 -1.1335  1.6927
 2534SOL    HW219236   1.237   1.519   5.100 -0.3690  0.0030 -0.1553
 2535SOL     OW19237   1.982   4.512   5.858  0.5962  0.3789 -0.2025
 2535SOL    HW119238   2.045   4.461   5.808  0.9391  1.4207 -0.8110
 2535SOL    HW219239   1.903   4.484   5.811 -0.2858  2.6302 -0.0445
 2536SOL     OW19240   2.627   2.905   4.355  0.0044 -0.3391 -1.2739
 2536SOL    HW119241   2.573   2.833   4.324 -0.1315  0.2213 -2.3742
 2536SOL    HW219242   2.574   2.944   4.424  1.6699 -2.7553  1.3492
 2537SOL     OW19243   2.482   0.675   5.095  0.0890  0.2612 -0.3159
 2537SOL    HW119244   2.393   0.653   5.124  0.6155  1.2363  2.0593
 2537SOL    HW219245   2.536   0.606   5.132 -0.4053  0.1751  0.2351
 2538SOL     OW19246   3.073   1.674   2.762 -0.2833  0.5468 -0.1208
 2538SOL    HW119247   3.133   1.706   2.695  1.8968 -1.5019  0.8731
 2538SOL    HW219248   3.133   1.654   2.834 -0.2481 -0.6586 -0.4884
 2539SOL     OW19249   1.613   2.691   2.804 -0.0810 -0.2589  0.3068
 2539SOL    HW119250   1.524   2.726   2.801  0.2755  0.5542 -0.5868
 2539SOL    HW219251   1.665   2.758   2.848 -0.9361  0.2510  0.5426
 2540SOL     OW19252   1.626   0.006  15.772 -0.1400  0.2966  0.2622
 2540SOL    HW119253   1.560   0.066  15.738  1.6774  2.1842  0.0924
 2540SOL    HW219254   1.694   4.733  15.706  0.3831  0.0937  0.8269
 2541SOL     OW19255   1.802   3.224   0.513 -0.7740 -0.0212  0.0966
 2541SOL    HW119256   1.822   3.313   0.483 -1.1485 -0.0880 -0.3598
 2541SOL    HW219257   1.851   3.226   0.595 -1.0506  3.0833  0.2126
 2542SOL     OW19258   1.592   3.182   4.206 -0.2365  0.2343  0.0229
 2542SOL    HW119259   1.667   3.209   4.259  1.1261  1.1506 -2.3543
 2542SOL    HW219260   1.589   3.093   4.241  1.6322 -0.9117 -2.7012
 2543SOL     OW19261   1.438   1.864   1.464 -0.5869  0.3406  0.3232
 2543SOL    HW119262   1.352   1.839   1.430 -0.5280  1.3600 -0.5757
 2543SOL    HW219263   1.420   1.951   1.499 -1.4938  0.0932  0.4685
 2544SOL     OW19264   4.564   4.517   0.219  0.6797 -0.0503  0.6809
 2544SOL    HW119265   4.630   4.451   0.238  1.9300  0.7492 -0.9148
 2544SOL    HW219266   4.511   4.530   0.298  0.4779  0.5476  0.4437
 2545SOL     OW19267   3.031   2.991   6.417 -0.0284  0.8311  0.2886
 2545SOL    HW119268   3.002   2.957   6.502  1.7138 -1.2547  0.0387
 2545SOL    HW219269   3.120   3.021   6.434 -1.1335  2.1328  3.8536
 2546SOL     OW19270   3.495   4.409   9.385 -0.4433 -0.4682 -0.1844
 2546SOL    HW119271   3.545   4.417   9.304  0.4471  2.1161  0.6407
 2546SOL    HW219272   3.568   4.415   9.447 -1.3519 -0.5415  0.9001
 2547SOL     OW19273   0.464   3.192   8.432 -0.2283  0.0543  0.4596
 2547SOL    HW119274   0.455   3.180   8.338  0.1639  0.2850  0.3939
 2547SOL    HW219275   0.382   3.149   8.459 -0.9398  0.9778 -0.2098
 2548SOL     OW19276   3.451   1.251   2.992  0.1187 -0.4051 -0.0119
 2548SOL    HW119277   3.544   1.245   3.015 -0.0754  1.5027  1.2874
 2548SOL    HW219278   3.461   1.220   2.902 -1.0928 -0.4141 -0.1394
 2549SOL     OW19279   2.917   2.072  14.203  0.1139  0.0706  0.4061
 2549SOL    HW119280   3.006   2.058  14.236  0.9177 -1.2109 -2.2413
 2549SOL    HW219281   2.938   2.080  14.110 -2.3660  1.7626 -0.0079
 2550SOL     OW19282   4.059   4.044   3.650 -0.2469  0.2738 -0.0433
 2550SOL    HW119283   4.097   4.000   3.573  0.9343 -1.2476  1.4025
 2550SOL    HW219284   4.133   4.076   3.701  1.0733 -0.5191 -1.4599
 2551SOL     OW19285   1.949   2.563   3.833 -0.2004  0.2931 -0.0311
 2551SOL    HW119286   2.033   2.521   3.813 -0.3726  0.5865 -1.3439
 2551SOL    HW219287   1.926   2.603   3.750 -0.8884  0.3361  0.1784
 2552SOL     OW19288   0.078   3.746   4.847  0.1786 -0.2951 -0.0664
 2552SOL    HW119289   0.079   3.819   4.909 -1.2844 -1.1429  0.9606
 2552SOL    HW219290   0.089   3.789   4.762 -1.4102  0.1052 -0.0778
 2553SOL     OW19291   3.162   2.476   2.129 -0.0210 -0.2008  0.1319
 2553SOL    HW119292   3.123   2.390   2.118  0.5178 -0.3157 -0.8836
 2553SOL    HW219293   3.256   2.459   2.118  0.2438  2.8389 -2.4490
 2554SOL     OW19294   3.016   2.205  12.411  0.0517  0.3173  0.0822
 2554SOL    HW119295   3.070   2.173  12.483  0.9606  2.2551  0.2578
 2554SOL    HW219296   2.960   2.269  12.455  1.2346  1.8965 -0.7187
 2555SOL     OW19297   3.041   2.250   6.946 -0.0498  0.5026 -0.7222
 2555SOL    HW119298   2.970   2.237   7.009  0.6712  1.8006  0.3458
 2555SOL    HW219299   3.004   2.271   6.861 -2.0400 -0.2680 -0.0495
 2556SOL     OW19300   0.333   3.416   4.151 -0.5271 -0.2499 -0.0676
 2556SOL    HW119301   0.288   3.342   4.192 -0.9114  1.8779  3.3674
 2556SOL    HW219302   0.332   3.389   4.059  0.5951 -0.3632 -0.0442
 2557SOL     OW19303   3.056   0.754   4.897  0.2270  0.0859  0.3033
 2557SOL    HW119304   3.027   0.700   4.823  0.9925  1.4323 -0.9726
 2557SOL    HW219305   3.062   0.843   4.862 -0.5963  0.1974  0.4257
 2558SOL     OW19306   4.127   2.829   5.465  0.1132 -0.2150  0.1633
 2558SOL    HW119307   4.095   2.831   5.555 -0.4918 -3.5105  0.0058
 2558SOL    HW219308   4.064   2.767   5.429 -1.6814  1.8490 -0.2690
 2559SOL     OW19309   3.363   1.108   5.915 -0.0448  0.0305  0.2711
 2559SOL    HW119310   3.277   1.105   5.958 -0.3907  0.8780 -0.3704
 2559SOL    HW219311   3.423   1.076   5.983 -1.6871  1.3652  2.3405
 2560SOL     OW19312   4.328   2.305  17.012  0.3427 -0.4071  0.6328
 2560SOL    HW119313   4.290   2.297  16.924 -0.9965 -0.4339  1.2148
 2560SOL    HW219314   4.331   2.213  17.038 -0.8764  0.0152  2.2610
 2561SOL     OW19315   4.469   0.257  10.787 -0.1222 -0.4731 -0.1686
 2561SOL    HW119316   4.515   0.334  10.821 -3.6225  1.2484  0.7385
 2561SOL    HW219317   4.389   0.295  10.751  1.3813  1.8731 -0.9768
 2562SOL     OW19318   3.966   2.060   8.827 -0.3223  0.3723  0.1296
 2562SOL    HW119319   3.945   2.135   8.882  0.8973  0.7593  0.0666
 2562SOL    HW219320   4.055   2.077   8.797  0.7631 -0.4320  2.8633
 2563SOL     OW19321   4.348   3.891   7.641 -0.3152 -0.4094 -0.0184
 2563SOL    HW119322   4.273   3.882   7.583 -1.4998 -0.7630  1.5668
 2563SOL    HW219323   4.370   3.983   7.631  0.0068 -0.4100  0.6775
 2564SOL     OW19324   4.319   4.294   3.542 -0.0483 -0.0437 -0.0206
 2564SOL    HW119325   4.313   4.322   3.634  0.0587 -0.9725  0.2694
 2564SOL    HW219326   4.308   4.200   3.552 -1.7999  0.1057 -0.7059
 2565SOL     OW19327   0.353   0.047   0.326  0.2936 -0.1053 -0.2138
 2565SOL    HW119328   0.293   0.085   0.263 -0.9835 -2.7906 -0.6388
 2565SOL    HW219329   0.319   4.693   0.341  1.9660 -0.7848 -0.4753
 2566SOL     OW19330   0.096   0.313   9.488  0.6997 -0.3572  0.7009
 2566SOL    HW119331   0.078   0.396   9.532  2.5989  1.4492 -1.8956
 2566SOL    HW219332   0.092   0.248   9.558  1.0975  0.6179  1.6151
 2567SOL     OW19333   0.214   2.464   6.596 -0.0996 -0.0159  0.0019
 2567SOL    HW119334   0.260   2.504   6.522 -0.6966  0.8775  0.1125
 2567SOL    HW219335   0.170   2.393   6.549  1.9541 -0.2108 -1.6082
 2568SOL     OW19336   1.989   2.993  14.111 -0.2484 -0.3878  0.0311
 2568SOL    HW119337   2.039   2.940  14.174 -0.2937  0.3404  0.6861
 2568SOL    HW219338   1.936   2.930  14.063 -1.4192  2.0380 -1.8725
 2569SOL     OW19339   4.264   4.414   2.779  0.8531  0.5128  0.4744
 2569SOL    HW119340   4.289   4.403   2.871 -1.7465 -0.3651  1.0814
 2569SOL    HW219341   4.173   4.383   2.783  1.2580 -0.8955 -1.4449
 2570SOL     OW19342   3.559   1.534   8.662  0.7006 -0.5086 -0.4289
 2570SOL    HW119343   3.562   1.442   8.687 -0.2928 -0.2233  0.7263
 2570SOL    HW219344   3.600   1.579   8.735 -0.7385  0.5636 -0.2682
 2571SOL     OW19345   0.824   2.181   6.682  0.1633  0.1582 -0.1452
 2571SOL    HW119346   0.852   2.096   6.648  1.0908  0.0952  0.7792
 2571SOL    HW219347   0.737   2.151   6.708  0.6419 -0.5189  0.6595
 2572SOL     OW19348   4.725   2.934   5.701 -0.2000 -0.1160 -0.8335
 2572SOL    HW119349   4.696   2.849   5.668 -0.3605 -0.2926 -0.2225
 2572SOL    HW219350   0.029   2.904   5.782 -3.9714  0.4466  1.2170
 2573SOL     OW19351   0.255   2.219   5.291 -0.5899 -0.2368  0.4316
 2573SOL    HW119352   0.271   2.237   5.384 -1.4021 -1.8502  0.8849
 2573SOL    HW219353   0.168   2.257   5.288 -0.7211 -0.4467  1.5599
 2574SOL     OW19354   1.222   4.375   2.629  0.0004  0.6142 -0.0353
 2574SOL    HW119355   1.246   4.360   2.538  0.4290  1.3780 -0.0471
 2574SOL    HW219356   1.140   4.424   2.626  0.3238  1.0309 -1.8731
 2575SOL     OW19357   2.843   1.928   9.132  0.1744 -0.5834  0.3472
 2575SOL    HW119358   2.816   1.970   9.050 -0.5060 -1.0066  0.3546
 2575SOL    HW219359   2.857   2.009   9.181 -0.7400  0.3903 -0.9848
 2576SOL     OW19360   4.392   2.544  17.088 -0.5457  0.4411  0.0577
 2576SOL    HW119361   4.377   2.452  17.068 -0.1296  0.0995  1.3149
 2576SOL    HW219362   4.303   2.580  17.087  0.1075  2.1897  3.8144
 2577SOL     OW19363   3.882   3.272   5.906 -0.2119  0.1872  0.9885
 2577SOL    HW119364   3.857   3.334   5.975  3.4903 -0.4734  2.9603
 2577SOL    HW219365   3.930   3.319   5.838 -2.2208  0.2976 -0.3583
 2578SOL     OW19366   2.732   1.008   2.985 -0.4161 -0.4784  0.7682
 2578SOL    HW119367   2.735   1.067   3.060  0.7206 -0.0629  0.4025
 2578SOL    HW219368   2.723   1.069   2.912  1.7263 -1.7572 -0.5746
 2579SOL     OW19369   2.315   2.571   1.051  0.4406  0.0736 -0.1648
 2579SOL    HW119370   2.265   2.499   1.090 -3.1813  2.9142  0.4973
 2579SOL    HW219371   2.330   2.623   1.129  0.7750  0.6576 -0.6135
 2580SOL     OW19372   4.066   4.591   4.415 -0.1860  0.3346 -0.9425
 2580SOL    HW119373   3.983   4.603   4.462 -0.1059  0.0608 -0.7314
 2580SOL    HW219374   4.060   4.655   4.344 -1.7324  0.1544 -0.9711
 2581SOL     OW19375   2.720   0.227   6.568 -0.0384  0.7993  0.5152
 2581SOL    HW119376   2.632   0.242   6.535  0.2924  3.6876  0.9508
 2581SOL    HW219377   2.771   0.297   6.528  1.7849  0.7545  2.7278
 2582SOL     OW19378   3.095   3.523   3.873 -0.0963 -0.5197 -0.3489
 2582SOL    HW119379   3.174   3.473   3.853  1.5102  1.6305  0.5704
 2582SOL    HW219380   3.034   3.461   3.833 -1.8721  1.5550 -0.8757
 2583SOL     OW19381   0.796   2.350  11.771  0.1563 -1.0996 -0.2922
 2583SOL    HW119382   0.737   2.281  11.802  0.6030 -0.7675  1.3370
 2583SOL    HW219383   0.884   2.315  11.788  0.0619 -0.4750  1.5604
 2584SOL     OW19384   2.937   1.241   2.955  0.5341 -0.5817 -0.2249
 2584SOL    HW119385   2.943   1.199   3.041  2.6734  0.7739  0.2844
 2584SOL    HW219386   2.941   1.161   2.903 -5.3791  0.1934 -1.8786
 2585SOL     OW19387   4.306   2.071   3.821  0.0845  0.2863 -0.9327
 2585SOL    HW119388   4.362   2.060   3.744 -0.1898 -1.0061 -0.9479
 2585SOL    HW219389   4.268   1.983   3.816 -0.5558  0.5499 -0.7638
 2586SOL     OW19390   2.714   1.572   2.073 -0.0540  0.3171 -0.5678
 2586SOL    HW119391   2.622   1.555   2.091  1.0215 -1.2871  3.3526
 2586SOL    HW219392   2.733   1.521   1.995  0.2209 -0.1070 -0.2237
 2587SOL     OW19393   3.312   3.869   6.501 -0.0224  0.0943  0.1082
 2587SOL    HW119394   3.243   3.904   6.558  2.3026  0.9916  2.3870
 2587SOL    HW219395   3.318   3.783   6.541  0.7339  0.4985  0.8565
 2588SOL     OW19396   0.037   2.631   8.454 -0.0616 -0.2209 -0.3312
 2588SOL    HW119397   4.680   2.653   8.463  0.4549  2.3244 -1.2198
 2588SOL    HW219398   0.021   2.546   8.413  1.0669  0.2471 -1.7580
 2589SOL     OW19399   3.743   3.371   2.146  0.9851  0.0873  0.2661
 2589SOL    HW119400   3.687   3.298   2.119  2.4628 -0.8124 -0.3372
 2589SOL    HW219401   3.772   3.407   2.063  0.1208 -0.6657 -0.3582
 2590SOL     OW19402   3.901   1.297   7.151 -0.5375 -0.1519 -0.1738
 2590SOL    HW119403   3.869   1.329   7.235  0.3587 -1.2993  0.5959
 2590SOL    HW219404   3.828   1.304   7.089 -1.2393  0.2880  0.7050
 2591SOL     OW19405   2.483   4.113   9.014 -0.0870  0.0295 -0.2077
 2591SOL    HW119406   2.559   4.162   9.046  0.4974 -0.4338 -0.8870
 2591SOL    HW219407   2.425   4.187   8.994 -0.3475  0.1391  1.0116
 2592SOL     OW19408   3.289   0.162   1.313  0.1180  0.7674 -0.0608
 2592SOL    HW119409   3.361   0.222   1.291  1.3569 -0.5282  0.4913
 2592SOL    HW219410   3.214   0.204   1.271 -1.0260  1.2696  2.4304
 2593SOL     OW19411   4.534   0.082   5.268  0.1282  0.2516 -0.4984
 2593SOL    HW119412   4.464   0.038   5.317  2.5174 -1.4905  1.3238
 2593SOL    HW219413   4.615   0.035   5.284  0.0713  0.4338  0.3599
 2594SOL     OW19414   4.551   2.272  16.491 -0.2774 -0.3084  0.1888
 2594SOL    HW119415   4.518   2.332  16.423  0.0592  0.6848  0.8940
 2594SOL    HW219416   4.582   2.337  16.554  1.1049 -0.5446 -0.2681
 2595SOL     OW19417   4.727   3.842   8.899 -0.5894 -0.1051  0.7354
 2595SOL    HW119418   0.024   3.866   8.986  2.1159 -0.1468 -0.2572
 2595SOL    HW219419   4.633   3.846   8.914 -0.8053 -0.0808 -0.5769
 2596SOL     OW19420   4.523   0.786   0.561  0.0052 -0.0665 -0.1400
 2596SOL    HW119421   4.436   0.812   0.531  0.4422  2.1089  0.4744
 2596SOL    HW219422   4.573   0.818   0.486  1.6205  1.0762  1.4235
 2597SOL     OW19423   1.718   4.160  15.989  0.0140 -0.2022  0.3411
 2597SOL    HW119424   1.643   4.166  16.048  0.2381  1.6350  0.4633
 2597SOL    HW219425   1.719   4.065  15.983  0.5189 -0.1552 -0.3218
 2598SOL     OW19426   2.228   2.427   4.335 -0.2438  0.2251 -0.0886
 2598SOL    HW119427   2.188   2.354   4.381 -0.6332  1.3898  1.4331
 2598SOL    HW219428   2.161   2.458   4.273  0.1730 -2.1153 -1.6786
 2599SOL     OW19429   0.910   1.323   8.050 -0.8085 -0.0853 -0.5226
 2599SOL    HW119430   0.822   1.333   8.015 -0.3572  1.1354 -1.3032
 2599SOL    HW219431   0.920   1.229   8.033  1.3058 -0.1237  0.9272
 2600SOL     OW19432   4.463   0.775  14.370 -0.0231  0.2398  0.1608
 2600SOL    HW119433   4.541   0.744  14.325 -0.4425  0.4806 -0.7287
 2600SOL    HW219434   4.403   0.776  14.295  0.7050 -0.5700 -0.4208
 2601SOL     OW19435   1.295   4.052   6.547 -0.4839 -0.0925 -0.3467
 2601SOL    HW119436   1.267   4.124   6.602  0.4456 -0.8430  1.1053
 2601SOL    HW219437   1.216   4.015   6.508  1.6875 -1.1978 -3.7389
 2602SOL     OW19438   3.120   3.821   3.370  0.4839  0.0506  0.3761
 2602SOL    HW119439   3.117   3.890   3.437  0.9216  0.1540  0.2896
 2602SOL    HW219440   3.113   3.744   3.426 -2.5058  0.9009  1.1901
 2603SOL     OW19441   0.012   2.616   7.118 -0.1574 -0.4504 -0.0580
 2603SOL    HW119442   0.027   2.625   7.024  0.6700 -2.7432 -0.1389
 2603SOL    HW219443   4.717   2.706   7.133  0.9223 -0.3604  1.6120
 2604SOL     OW19444   1.341   2.946  14.434 -0.1567  0.0110 -0.6596
 2604SOL    HW119445   1.299   3.018  14.387 -1.0542  1.2006  1.9583
 2604SOL    HW219446   1.271   2.881  14.431 -0.6006  0.5089 -0.9830
 2605SOL     OW19447   1.064   3.687   4.613 -0.8298  0.1976 -0.4634
 2605SOL    HW119448   1.148   3.653   4.583 -0.0837  0.5428  1.2405
 2605SOL    HW219449   1.061   3.640   4.696 -1.4936  0.4755 -0.3263
 2606SOL     OW19450   4.644   0.086  10.144 -0.3213  0.6563 -0.0356
 2606SOL    HW119451   0.004   0.096  10.141 -0.4433  1.8443  0.1273
 2606SOL    HW219452   4.620   0.011  10.198 -2.7641  0.9556 -0.7157
 2607SOL     OW19453   0.107   4.464   1.707  0.6304  0.3033 -0.6906
 2607SOL    HW119454   0.113   4.558   1.723 -1.1915  0.7543 -2.5890
 2607SOL    HW219455   0.017   4.446   1.735  0.2015  0.0256 -2.2898
 2608SOL     OW19456   0.884   3.936   1.650  0.7867 -0.2764  0.4838
 2608SOL    HW119457   0.797   3.965   1.621  0.5955 -1.8335 -0.4755
 2608SOL    HW219458   0.933   3.947   1.569  3.5471 -1.1339  2.0221
 2609SOL     OW19459   0.965   4.261   4.260  0.4803 -0.3271 -0.3148
 2609SOL    HW119460   0.956   4.286   4.352 -1.1823  0.2507 -0.6342
 2609SOL    HW219461   0.994   4.170   4.255 -1.1378 -0.9271  1.3402
 2610SOL     OW19462   2.230   2.278   1.804 -0.2941  0.1173  0.0796
 2610SOL    HW119463   2.171   2.204   1.791  1.4253 -0.8658 -2.0996
 2610SOL    HW219464   2.184   2.347   1.757  1.8733  1.3156 -0.3064
 2611SOL     OW19465   2.314   1.574   0.759  0.2071 -0.4137 -0.3918
 2611SOL    HW119466   2.228   1.535   0.772  0.6299 -0.9816  0.6809
 2611SOL    HW219467   2.330   1.637   0.829 -1.3307 -0.5185  0.0633
 2612SOL     OW19468   2.078   4.304   2.497  0.0561 -0.1947 -0.1101
 2612SOL    HW119469   2.113   4.275   2.581  0.3652 -1.1528 -0.5686
 2612SOL    HW219470   2.104   4.396   2.495 -0.8591 -0.0060 -3.2115
 2613SOL     OW19471   3.807   4.153   3.621  0.0341  0.9667  0.0674
 2613SOL    HW119472   3.887   4.109   3.651  0.2137  0.1436 -1.5869
 2613SOL    HW219473   3.814   4.222   3.686  1.3879  1.4753 -0.6255
 2614SOL     OW19474   0.613   3.484   4.444  0.3212 -0.4304 -0.4586
 2614SOL    HW119475   0.552   3.455   4.376  0.4790 -1.6916 -0.0518
 2614SOL    HW219476   0.693   3.498   4.392  0.1724  1.9447 -0.0673
 2615SOL     OW19477   1.818   2.920   5.593  0.7142 -0.1004 -0.0244
 2615SOL    HW119478   1.797   2.974   5.517 -0.7918  0.9683  1.1542
 2615SOL    HW219479   1.803   2.836   5.550  0.5914  0.2460 -0.6493
 2616SOL     OW19480   3.305   1.042   8.705 -0.3746  0.9275 -0.3679
 2616SOL    HW119481   3.263   1.121   8.670 -3.1023 -1.2787 -2.0895
 2616SOL    HW219482   3.396   1.069   8.703  0.3686 -1.6038  0.0800
 2617SOL     OW19483   3.197   1.020   7.163 -0.6713  0.2221  0.7586
 2617SOL    HW119484   3.275   1.055   7.120 -2.0891  1.0662 -1.1659
 2617SOL    HW219485   3.129   1.045   7.100  0.7956  1.3807 -0.3702
 2618SOL     OW19486   2.682   1.863  14.931  0.3297 -0.2868 -0.6546
 2618SOL    HW119487   2.605   1.884  14.984  1.2108  0.2444  0.3981
 2618SOL    HW219488   2.640   1.829  14.852 -0.4012 -1.9541  0.4510
 2619SOL     OW19489   0.517   1.268  12.258 -0.4119 -0.3408  0.0671
 2619SOL    HW119490   0.582   1.320  12.210 -1.4381 -1.4888 -2.5025
 2619SOL    HW219491   0.434   1.294  12.219 -0.2215  0.2992  0.0820
 2620SOL     OW19492   2.365   0.801   6.892 -0.0601 -0.0113  0.0073
 2620SOL    HW119493   2.428   0.847   6.837  1.8308 -2.3985  0.1915
 2620SOL    HW219494   2.337   0.867   6.955  0.7462 -1.9078  2.3222
 2621SOL     OW19495   0.147   0.344  14.492 -0.3021  0.6734  0.4292
 2621SOL    HW119496   0.186   0.336  14.579  0.6090  1.9001  0.1336
 2621SOL    HW219497   0.216   0.394  14.447  2.4917 -0.9022  2.9372
 2622SOL     OW19498   0.676   3.213  11.622  0.4616 -0.3039 -0.7286
 2622SOL    HW119499   0.749   3.167  11.664  0.2934 -1.8278 -2.0960
 2622SOL    HW219500   0.659   3.152  11.551 -0.2152  1.3843 -2.0153
 2623SOL     OW19501   0.255   2.139   8.007  0.0475  0.1864  0.1295
 2623SOL    HW119502   0.160   2.148   8.020  0.1961  2.5491 -0.4133
 2623SOL    HW219503   0.282   2.155   8.098  2.6460  0.4874 -0.6974
 2624SOL     OW19504   1.774   1.340  13.144 -0.2153  0.2654  0.6199
 2624SOL    HW119505   1.798   1.261  13.193 -1.8584  0.1471  1.2441
 2624SOL    HW219506   1.706   1.374  13.203  0.3440  0.7453  0.9818
 2625SOL     OW19507   2.616   3.283   7.963  0.3725 -0.2717  0.2956
 2625SOL    HW119508   2.527   3.249   7.975 -0.6373  2.1244 -0.4967
 2625SOL    HW219509   2.664   3.200   7.965  0.7252 -0.0816 -0.0847
 2626SOL     OW19510   4.188   0.483   5.839  0.4885 -0.5375  0.1379
 2626SOL    HW119511   4.245   0.422   5.792  2.7140 -0.1590  2.3175
 2626SOL    HW219512   4.193   0.552   5.774  1.0149 -0.3872  0.3351
 2627SOL     OW19513   0.002   0.812  14.651  0.0154 -0.1348  0.5510
 2627SOL    HW119514   4.690   0.890  14.622  0.7858  0.9443  2.1773
 2627SOL    HW219515   4.670   0.748  14.674 -0.9522  1.0653  1.0507
 2628SOL     OW19516   2.004   1.779  14.660 -0.4696  0.3817 -0.0506
 2628SOL    HW119517   1.938   1.712  14.680 -0.4675  1.0137  2.1226
 2628SOL    HW219518   1.956   1.855  14.628  3.5770  2.0573 -2.0694
 2629SOL     OW19519   1.466   2.472   3.645  0.4511 -0.0680 -0.2038
 2629SOL    HW119520   1.416   2.553   3.638  0.5823  0.1799  1.6627
 2629SOL    HW219521   1.417   2.411   3.589  0.2229 -0.7174  0.6879
 2630SOL     OW19522   1.164   4.442  10.538  0.4346 -0.6077 -0.0322
 2630SOL    HW119523   1.069   4.449  10.537  0.4122 -0.7042  1.3625
 2630SOL    HW219524   1.191   4.385  10.465 -0.5622 -1.8430  0.5746
 2631SOL     OW19525   3.329   2.098   2.307 -0.0841 -0.0206  0.9994
 2631SOL    HW119526   3.356   2.093   2.215 -0.4584  0.6342  0.8512
 2631SOL    HW219527   3.263   2.029   2.309  0.1330 -0.1976  2.0014
 2632SOL     OW19528   2.823   2.153   4.711 -0.4519  0.5279 -0.3631
 2632SOL    HW119529   2.824   2.233   4.763 -0.8012  0.6020 -0.4676
 2632SOL    HW219530   2.803   2.087   4.777 -0.2346  2.3622  1.5404
 2633SOL     OW19531   4.219   0.716  17.245 -0.6544 -0.6791  0.2431
 2633SOL    HW119532   4.214   0.729  17.150 -0.6281  0.6842  0.4382
 2633SOL    HW219533   4.254   0.798  17.279  2.2037 -1.3329 -1.1188
 2634SOL     OW19534   4.254   4.193   3.216  0.2745 -0.2425 -0.5328
 2634SOL    HW119535   4.257   4.099   3.235  1.6847  0.0622  0.7154
 2634SOL    HW219536   4.165   4.214   3.244  0.3970  0.9962 -1.0952
 2635SOL     OW19537   2.175   3.850   5.026  0.7407 -0.0091  0.4556
 2635SOL    HW119538   2.222   3.822   4.947 -1.3338 -3.3263  0.3971
 2635SOL    HW219539   2.240   3.807   5.082  0.6541  1.4022  1.6345
 2636SOL     OW19540   0.818   3.291  14.041  0.0436 -0.4398  0.4528
 2636SOL    HW119541   0.830   3.238  14.119 -0.2908 -1.4737 -0.2032
 2636SOL    HW219542   0.724   3.305  14.056  0.5396  0.4781  2.7447
 2637SOL     OW19543   1.292   1.617  15.468  0.1282  0.1651  0.0289
 2637SOL    HW119544   1.277   1.705  15.501  0.1640 -0.2480  1.1463
 2637SOL    HW219545   1.375   1.627  15.422  0.8832  0.2355  1.4107
 2638SOL     OW19546   3.567   0.124   9.481  0.1449 -0.1260  0.2010
 2638SOL    HW119547   3.572   0.219   9.471 -1.1770 -0.2070 -1.1121
 2638SOL    HW219548   3.623   0.119   9.559  0.7513 -2.2519 -0.3551
 2639SOL     OW19549   0.940   2.974   9.470  0.0247 -0.5752 -0.4655
 2639SOL    HW119550   1.028   2.988   9.504 -0.7322  0.7111  0.9394
 2639SOL    HW219551   0.903   2.947   9.554  0.9604  1.5143  0.6226
 2640SOL     OW19552   0.393   2.619   6.783  0.1085  0.4868 -0.4224
 2640SOL    HW119553   0.335   2.682   6.825  1.0630  2.1247 -1.5547
 2640SOL    HW219554   0.375   2.633   6.691 -1.0073 -0.6871 -0.3771
 2641SOL     OW19555   3.411   3.348   6.351 -0.2778  0.1606  0.6828
 2641SOL    HW119556   3.486   3.323   6.297 -1.0565  0.2013 -0.4133
 2641SOL    HW219557   3.444   3.322   6.436  1.7835  0.9224  0.1097
 2642SOL     OW19558   2.609   4.404  11.011  0.1160  0.2191  0.0940
 2642SOL    HW119559   2.535   4.419  10.952  0.8897  1.8694 -0.4601
 2642SOL    HW219560   2.642   4.494  11.017 -0.2547  0.5164 -2.5747
 2643SOL     OW19561   0.376   2.326  17.174  0.1973  0.0872 -0.1297
 2643SOL    HW119562   0.336   2.281  17.100  1.3377 -0.9758 -0.0989
 2643SOL    HW219563   0.422   2.398  17.131  0.7131 -0.2757 -0.1830
 2644SOL     OW19564   4.603   0.263   1.586 -0.6215  0.5248 -0.1684
 2644SOL    HW119565   4.676   0.325   1.591 -0.3514  0.2225 -0.3904
 2644SOL    HW219566   4.552   0.284   1.664 -0.1773  0.2621  0.1939
 2645SOL     OW19567   1.897   3.471   6.577  0.3001 -0.6016  0.1812
 2645SOL    HW119568   1.877   3.391   6.626  1.8019  0.1620  2.0670
 2645SOL    HW219569   1.988   3.488   6.601  0.1450 -0.5044  0.7094
 2646SOL     OW19570   1.601   0.873   9.735 -0.1369 -0.5778  0.4232
 2646SOL    HW119571   1.539   0.850   9.665 -1.3814 -0.0382  1.3474
 2646SOL    HW219572   1.638   0.785   9.745 -0.2027 -0.6900 -0.3176
 2647SOL     OW19573   1.607   1.886   8.527 -0.6266 -0.0063  0.3855
 2647SOL    HW119574   1.617   1.832   8.605 -1.5961 -1.4070 -0.4550
 2647SOL    HW219575   1.691   1.873   8.482 -0.6778 -2.0390  0.8553
 2648SOL     OW19576   2.303   1.703  14.143  0.6215  0.5954  0.5397
 2648SOL    HW119577   2.310   1.742  14.230 -0.6280  2.2897 -0.1229
 2648SOL    HW219578   2.339   1.620  14.174  0.7188  0.7708  0.8960
 2649SOL     OW19579   0.339   1.764  11.836 -0.0943  0.0007 -0.1220
 2649SOL    HW119580   0.400   1.820  11.884  0.5150 -1.5395  0.8941
 2649SOL    HW219581   0.304   1.706  11.903 -1.4247 -0.2314 -1.0058
 2650SOL     OW19582   1.633   4.474   2.195 -0.3117 -0.9380  0.3428
 2650SOL    HW119583   1.677   4.396   2.161  0.0789 -0.8386  0.6243
 2650SOL    HW219584   1.660   4.485   2.286  1.1114 -1.8644  0.0269
 2651SOL     OW19585   1.288   3.869   3.723  0.6696  0.2130  0.5173
 2651SOL    HW119586   1.261   3.939   3.663 -0.6819 -1.2432 -0.5776
 2651SOL    HW219587   1.340   3.913   3.790  1.0535 -0.2198  0.5004
 2652SOL     OW19588   4.550   1.903  10.308  0.1353  0.5007 -0.1116
 2652SOL    HW119589   4.490   1.956  10.257 -0.7730 -0.0363  0.3951
 2652SOL    HW219590   4.593   1.864  10.231 -2.2387  0.9819 -1.6765
 2653SOL     OW19591   1.657   3.846   8.592  0.5983  0.8690  0.2037
 2653SOL    HW119592   1.740   3.846   8.545 -1.1097 -2.3430 -2.8050
 2653SOL    HW219593   1.689   3.796   8.667  0.3630  1.9369  1.0320
 2654SOL     OW19594   0.144   3.604   4.324  0.1722 -0.8142 -0.0326
 2654SOL    HW119595   0.213   3.656   4.283 -0.5739  0.3403  0.2044
 2654SOL    HW219596   0.189   3.553   4.391  2.1898 -0.0408 -0.8014
 2655SOL     OW19597   0.086   2.573   6.838  0.1014  0.3870  0.1558
 2655SOL    HW119598   0.054   2.494   6.881 -0.4511  2.0136  2.7834
 2655SOL    HW219599   0.157   2.533   6.789  1.7746  1.3858  1.7425
 2656SOL     OW19600   1.624   0.874   4.491 -0.4848  0.5519 -0.2727
 2656SOL    HW119601   1.643   0.846   4.402  0.9952  1.7591 -0.3453
 2656SOL    HW219602   1.708   0.858   4.535  0.2297  1.4055 -1.3174
 2657SOL     OW19603   4.115   3.129  10.126  0.0001 -0.1185 -0.1491
 2657SOL    HW119604   4.045   3.177  10.082 -1.0156 -1.0321  0.4574
 2657SOL    HW219605   4.118   3.170  10.212  3.5962  0.5933 -0.6391
 2658SOL     OW19606   1.892   2.070   7.707  0.7399 -0.5710  0.5443
 2658SOL    HW119607   1.807   2.027   7.702  0.5013  0.1265 -1.0657
 2658SOL    HW219608   1.949   1.997   7.732  0.0430 -0.3294  2.8215
 2659SOL     OW19609   2.123   2.862   8.747  0.3302  0.2263 -0.2772
 2659SOL    HW119610   2.194   2.803   8.774 -0.5560 -0.9123 -0.4831
 2659SOL    HW219611   2.102   2.901   8.832 -1.1978 -2.0473  0.3792
 2660SOL     OW19612   2.153   2.101   4.783 -0.0335 -0.6975 -0.0841
 2660SOL    HW119613   2.066   2.074   4.814 -0.6828 -0.0710 -1.3901
 2660SOL    HW219614   2.201   2.029   4.742  1.4241 -0.8267  1.8133
 2661SOL     OW19615   2.503   2.440   5.343  0.8252  0.2315 -0.4890
 2661SOL    HW119616   2.435   2.459   5.408  0.6110 -1.9753 -0.0686
 2661SOL    HW219617   2.530   2.353   5.371 -0.3171 -0.6522 -2.1794
 2662SOL     OW19618   3.380   0.896   2.568  0.0613 -0.5644  0.2868
 2662SOL    HW119619   3.329   0.818   2.547 -1.5356  0.2710  1.0141
 2662SOL    HW219620   3.324   0.966   2.534  0.4275  0.2534  1.3637
 2663SOL     OW19621   0.489   3.431   4.833  0.6316 -0.0018  0.0985
 2663SOL    HW119622   0.419   3.484   4.795  0.4649 -0.1188  0.2358
 2663SOL    HW219623   0.457   3.405   4.920  2.7999 -1.6939  0.3908
 2664SOL     OW19624   4.113   1.576   5.672 -0.1685  0.2565 -0.0537
 2664SOL    HW119625   4.104   1.523   5.593 -1.7051 -0.0001  0.2918
 2664SOL    HW219626   4.203   1.546   5.685  0.0087  1.1138  0.6857
 2665SOL     OW19627   2.748   3.770   5.696 -0.2371  0.4689 -0.2097
 2665SOL    HW119628   2.721   3.746   5.784 -0.9394 -0.0327 -0.5655
 2665SOL    HW219629   2.784   3.858   5.712 -3.5611  2.0060 -1.2561
 2666SOL     OW19630   4.449   0.748   4.970 -0.3812 -0.4387  0.2375
 2666SOL    HW119631   4.478   0.677   4.913  0.8981  1.0707 -1.0132
 2666SOL    HW219632   4.387   0.703   5.027 -1.8184 -1.6175 -2.2197
 2667SOL     OW19633   4.058   4.300   2.925  0.1562 -0.2840  0.1312
 2667SOL    HW119634   4.056   4.352   3.006 -1.8833  0.4250 -0.3729
 2667SOL    HW219635   4.006   4.224   2.950 -0.9878  0.5941  0.4616
 2668SOL     OW19636   4.194   1.767   1.051  0.1015  0.2291 -0.1776
 2668SOL    HW119637   4.201   1.704   1.123 -0.1196 -0.0571 -0.4050
 2668SOL    HW219638   4.285   1.789   1.031  0.4373 -1.2308 -0.3101
 2669SOL     OW19639   4.008   2.584  14.559  0.1765 -1.0670 -0.1814
 2669SOL    HW119640   3.957   2.648  14.509  0.2970 -1.4711 -0.8190
 2669SOL    HW219641   4.057   2.647  14.612 -1.6361  0.5516 -0.4247
 2670SOL     OW19642   1.846   3.191   3.417 -0.0321  0.3760 -0.5849
 2670SOL    HW119643   1.905   3.196   3.342  0.3332 -0.2109 -0.3382
 2670SOL    HW219644   1.827   3.097   3.424 -0.5706  0.6182  1.1741
 2671SOL     OW19645   4.433   4.206   4.192  0.2114  0.4645  0.1669
 2671SOL    HW119646   4.486   4.141   4.237 -0.1441 -0.1377 -0.2848
 2671SOL    HW219647   4.436   4.282   4.250 -2.3151  2.5184 -2.3705
 2672SOL     OW19648   1.053   2.610   6.885  0.1343  0.1916 -0.2768
 2672SOL    HW119649   1.003   2.691   6.883  0.1521  0.2416  1.4896
 2672SOL    HW219650   0.988   2.553   6.842 -0.4486  2.3167 -2.2630
 2673SOL     OW19651   4.719   3.892  12.527 -0.1073  0.2605 -0.6918
 2673SOL    HW119652   4.710   3.797  12.531 -0.0927  0.2972  0.2825
 2673SOL    HW219653   4.729   3.914  12.620 -1.4915  0.2428 -0.5468
 2674SOL     OW19654   0.276   2.595   0.636 -0.0734 -0.6396 -0.3705
 2674SOL    HW119655   0.272   2.569   0.728  2.8585  0.4120  0.0655
 2674SOL    HW219656   0.357   2.646   0.633 -1.2099  1.1486 -0.9473
 2675SOL     OW19657   3.981   0.458  14.564  0.4214 -0.4813  0.4079
 2675SOL    HW119658   3.888   0.445  14.580 -0.0857 -0.0461 -2.1668
 2675SOL    HW219659   3.992   0.495  14.477 -1.2478  1.3618  0.9753
 2676SOL     OW19660   2.087   0.454  16.464 -1.0628  0.4581  0.9335
 2676SOL    HW119661   2.114   0.374  16.420 -0.5450  1.3202 -0.3189
 2676SOL    HW219662   2.005   0.428  16.506 -0.7665 -0.0729  1.1878
 2677SOL     OW19663   3.019   4.004  16.824  0.2693  0.4542 -0.3752
 2677SOL    HW119664   3.065   4.085  16.804  0.0994  0.8474  0.7832
 2677SOL    HW219665   3.012   3.957  16.741  1.0657  1.0351 -0.7637
 2678SOL     OW19666   2.647   0.159   5.080  0.0005 -0.5910 -0.0691
 2678SOL    HW119667   2.617   0.250   5.077 -2.7263 -1.5276 -1.4323
 2678SOL    HW219668   2.564   0.112   5.070 -1.7203  2.0045  2.0962
 2679SOL     OW19669   0.436   1.107   9.462  0.6142  0.4871 -0.3903
 2679SOL    HW119670   0.501   1.046   9.495  0.3171  0.9077  0.9430
 2679SOL    HW219671   0.476   1.140   9.381  1.3168 -0.3704 -0.3824
 2680SOL     OW19672   4.627   4.435   4.821  0.5204  0.0197 -0.8210
 2680SOL    HW119673   4.631   4.347   4.859 -0.7774  0.6586  0.7699
 2680SOL    HW219674   4.570   4.430   4.744  0.2355  1.1657 -0.6889
 2681SOL     OW19675   2.010   2.592   8.161 -0.3629 -0.7644 -0.0410
 2681SOL    HW119676   1.995   2.676   8.204 -0.1939 -0.9567  0.3876
 2681SOL    HW219677   2.056   2.539   8.226 -2.2997 -0.5953  1.4472
 2682SOL     OW19678   2.505   2.712   8.233  0.5231  0.2263  0.1835
 2682SOL    HW119679   2.423   2.664   8.218  2.1620 -1.8252 -2.0685
 2682SOL    HW219680   2.489   2.758   8.316 -0.8395  0.4383 -0.1920
 2683SOL     OW19681   3.129   1.625  16.801 -0.4339 -0.0752 -0.5733
 2683SOL    HW119682   3.212   1.657  16.764 -1.8045  1.0057 -2.6417
 2683SOL    HW219683   3.145   1.533  16.782  0.5636 -0.4570  2.0297
 2684SOL     OW19684   2.712   2.044   3.470  0.0422 -0.3235  0.4288
 2684SOL    HW119685   2.685   2.135   3.484  1.1288 -0.1978  1.7416
 2684SOL    HW219686   2.700   2.031   3.376 -0.0409  2.0476  0.1221
 2685SOL     OW19687   2.541   3.512   4.603  0.2856  0.1747 -0.7494
 2685SOL    HW119688   2.558   3.592   4.553 -3.3800  0.2773 -1.8354
 2685SOL    HW219689   2.555   3.540   4.693  0.6353 -0.3242 -0.6509
 2686SOL     OW19690   1.184   0.585   5.589  0.6032  0.0992  0.0373
 2686SOL    HW119691   1.171   0.597   5.683  1.2319 -3.1418  0.5620
 2686SOL    HW219692   1.257   0.524   5.599  0.4714 -0.1960 -0.7882
 2687SOL     OW19693   2.270   0.122  14.558 -0.2726 -0.2968 -0.1112
 2687SOL    HW119694   2.316   0.039  14.570  2.6366  1.3453  0.0308
 2687SOL    HW219695   2.269   0.132  14.463 -0.3697  4.1082  0.3454
 2688SOL     OW19696   2.657   4.705   6.417 -0.2457 -0.1239  0.2505
 2688SOL    HW119697   2.693   4.623   6.451  3.3549  1.3886  0.1119
 2688SOL    HW219698   2.652   0.025   6.495 -0.9415 -0.1177  0.2024
 2689SOL     OW19699   0.287   0.937   3.133  0.0080 -0.3151 -0.1904
 2689SOL    HW119700   0.216   0.880   3.105 -0.8596  0.2832  0.7969
 2689SOL    HW219701   0.267   0.933   3.226 -0.0929 -1.5495 -0.2702
 2690SOL     OW19702   0.725   4.617  16.011  0.0276 -0.3664 -0.1989
 2690SOL    HW119703   0.819   4.605  16.024  0.3290 -0.6764 -2.5895
 2690SOL    HW219704   0.711   4.701  15.969 -0.6375  0.3372  1.4441
 2691SOL     OW19705   0.073   4.382   1.264  0.4302  0.5176  0.3381
 2691SOL    HW119706   0.107   4.445   1.329 -0.7965  0.4842  1.0122
 2691SOL    HW219707   0.122   4.413   1.188 -1.2184 -1.7595 -1.6557
 2692SOL     OW19708   2.451   4.601  17.578 -0.3996  0.5389  0.1855
 2692SOL    HW119709   2.441   4.673  17.639  1.3490  2.3088 -1.5827
 2692SOL    HW219710   2.382   4.615  17.513  0.2904  0.6692 -0.5224
 2693SOL     OW19711   0.274   3.266   3.905  0.0789 -0.0315  0.0742
 2693SOL    HW119712   0.266   3.193   3.966  3.3784 -0.6778 -0.2945
 2693SOL    HW219713   0.198   3.261   3.846  1.9282 -0.5494 -2.2723
 2694SOL     OW19714   2.717   4.541   6.138  0.1163  0.3905  0.5487
 2694SOL    HW119715   2.714   4.447   6.158 -0.0716  0.1295 -0.7288
 2694SOL    HW219716   2.653   4.571   6.203  0.2130  0.4115  0.6337
 2695SOL     OW19717   1.251   2.100   7.860  0.5727  0.2763  0.1438
 2695SOL    HW119718   1.332   2.096   7.912  0.1122 -1.0723  0.7514
 2695SOL    HW219719   1.282   2.037   7.796  0.1731  0.5719 -0.3423
 2696SOL     OW19720   4.047   2.477   1.526 -0.2400  0.0219  0.1579
 2696SOL    HW119721   4.111   2.421   1.482 -0.3363 -0.2747  0.4008
 2696SOL    HW219722   3.968   2.441   1.486 -0.2919  0.3969 -0.0808
 2697SOL     OW19723   1.668   3.430   0.956 -0.3327 -0.2912 -0.2696
 2697SOL    HW119724   1.576   3.430   0.930 -0.0749  0.1282 -1.1852
 2697SOL    HW219725   1.682   3.498   1.021  0.6465 -0.8834  0.1371
 2698SOL     OW19726   2.765   0.834   4.934  0.2612  0.5848 -0.0474
 2698SOL    HW119727   2.676   0.840   4.900 -0.3463  1.8134  1.7104
 2698SOL    HW219728   2.813   0.785   4.868  0.5308  1.5830 -0.5836
 2699SOL     OW19729   1.324   3.629   2.334  0.3123 -0.0700  0.1396
 2699SOL    HW119730   1.287   3.649   2.248  1.6959 -0.7186 -0.6188
 2699SOL    HW219731   1.271   3.687   2.389 -0.4649 -0.6245 -0.0352
 2700SOL     OW19732   1.032   0.825   6.238  0.1738 -0.0250  0.2980
 2700SOL    HW119733   0.940   0.841   6.260  0.6329  0.0585  2.1440
 2700SOL    HW219734   1.038   0.856   6.147 -0.1419  2.5767  1.1646
 2701SOL     OW19735   4.155   1.730   9.246 -0.3206  0.2035 -0.1025
 2701SOL    HW119736   4.238   1.761   9.281  0.9597 -0.2278 -2.7604
 2701SOL    HW219737   4.181   1.650   9.201 -0.7729  0.8028 -1.4183
 2702SOL     OW19738   2.160   2.920  16.436  0.2827  0.0714 -0.4802
 2702SOL    HW119739   2.214   2.929  16.358  0.0972  2.5525 -0.3106
 2702SOL    HW219740   2.121   3.007  16.427 -0.4287 -0.1987 -0.0402
 2703SOL     OW19741   1.724   0.823   4.853 -0.1878  0.1628  0.0102
 2703SOL    HW119742   1.741   0.729   4.855 -2.0395 -0.1784  0.3232
 2703SOL    HW219743   1.781   0.845   4.780  0.1816 -1.0613 -0.0739
 2704SOL     OW19744   1.968   3.892   8.539  0.6418  0.6458  0.2972
 2704SOL    HW119745   1.989   3.839   8.462 -2.9912  0.2129 -0.4042
 2704SOL    HW219746   2.042   3.876   8.597 -0.2803  1.3666  1.6801
 2705SOL     OW19747   2.682   1.569   7.440 -0.3684 -0.1944  0.1337
 2705SOL    HW119748   2.607   1.624   7.462  0.1658 -1.2638  4.6753
 2705SOL    HW219749   2.647   1.505   7.378 -0.1874  0.1461 -0.3219
 2706SOL     OW19750   3.602   0.687   3.434 -0.2298  0.6416  0.0108
 2706SOL    HW119751   3.629   0.652   3.349  1.9446  1.9752  0.1805
 2706SOL    HW219752   3.660   0.761   3.450  0.9053  0.1299 -1.7565
 2707SOL     OW19753   3.472   3.750   7.736  0.0261 -0.0738  0.0167
 2707SOL    HW119754   3.452   3.656   7.734 -3.3713  0.6756 -2.8554
 2707SOL    HW219755   3.556   3.748   7.780 -0.6159 -0.8614  1.1866
 2708SOL     OW19756   2.482   3.927   6.987 -0.2215 -0.4034 -0.1319
 2708SOL    HW119757   2.469   4.009   6.940 -1.7562  0.4144  1.7353
 2708SOL    HW219758   2.420   3.947   7.057 -0.4524 -0.8449 -0.2105
 2709SOL     OW19759   0.101   4.380  13.744 -0.2011 -0.9500  0.8564
 2709SOL    HW119760   0.044   4.302  13.741 -0.5789 -0.6469  0.0795
 2709SOL    HW219761   0.037   4.450  13.755  0.2635 -0.4453  0.3506
 2710SOL     OW19762   3.439   4.533   1.052 -0.6406  0.3188  0.3805
 2710SOL    HW119763   3.500   4.461   1.072 -2.8615 -1.5711  0.4103
 2710SOL    HW219764   3.424   4.505   0.962  3.3720  1.6529 -0.6665
 2711SOL     OW19765   3.312   3.935   5.336 -0.1975 -0.1028 -0.3601
 2711SOL    HW119766   3.256   4.012   5.331 -0.5956 -0.3816 -0.2461
 2711SOL    HW219767   3.259   3.860   5.309  0.5452 -0.4384 -0.8715
 2712SOL     OW19768   1.540   0.976   8.569 -0.0533  0.2530 -0.2501
 2712SOL    HW119769   1.508   0.987   8.659  0.6266 -0.3309  0.0692
 2712SOL    HW219770   1.474   0.922   8.527 -1.5574  0.5570  1.6853
 2713SOL     OW19771   2.601   3.744   8.867 -0.4585 -0.4138  0.0338
 2713SOL    HW119772   2.559   3.827   8.889  0.0221 -0.5498  1.4198
 2713SOL    HW219773   2.539   3.710   8.802 -2.2246  0.6314  1.1471
 2714SOL     OW19774   2.225   0.243  14.997 -0.2728 -0.1492  0.3463
 2714SOL    HW119775   2.259   0.156  15.014  1.7518  0.2339 -1.8400
 2714SOL    HW219776   2.186   0.227  14.911 -1.3182  0.2076  0.7505
 2715SOL     OW19777   2.675   3.215   6.246 -0.0483  0.2215 -0.0398
 2715SOL    HW119778   2.738   3.149   6.217  0.4341  0.9302 -0.6074
 2715SOL    HW219779   2.638   3.168   6.320 -0.5178  1.2860  0.4094
 2716SOL     OW19780   1.082   1.177  14.234 -0.5088  0.6037  0.5776
 2716SOL    HW119781   1.042   1.115  14.173  0.8871 -1.8321  2.1396
 2716SOL    HW219782   1.026   1.147  14.305 -0.2711 -2.2047 -0.3970
 2717SOL     OW19783   1.592   2.865   5.160  0.0804 -0.4017  0.2210
 2717SOL    HW119784   1.643   2.794   5.121 -0.2044 -0.2435 -0.4359
 2717SOL    HW219785   1.517   2.818   5.195  1.5822 -2.4989  0.6489
 2718SOL     OW19786   1.659   0.017   4.090  0.0438  0.2484 -0.4348
 2718SOL    HW119787   1.573   4.718   4.115  0.8163 -1.0705  0.4372
 2718SOL    HW219788   1.638   0.062   4.009 -1.1551 -0.3666 -0.4699
 2719SOL     OW19789   3.113   1.472   1.778  0.2202  0.6161  0.9842
 2719SOL    HW119790   3.090   1.564   1.767  1.5147  0.8056 -0.2401
 2719SOL    HW219791   3.197   1.467   1.732  0.3294  0.2001  1.2238
 2720SOL     OW19792   2.630   1.638  15.467 -0.7385 -0.0965  0.5400
 2720SOL    HW119793   2.604   1.728  15.447  1.0133  0.9474  2.9091
 2720SOL    HW219794   2.577   1.611  15.542  0.7811  0.8779  1.9617
 2721SOL     OW19795   3.410   3.298  10.894  0.6301 -0.1655  0.0662
 2721SOL    HW119796   3.393   3.270  10.805 -0.1661  0.6794 -0.0404
 2721SOL    HW219797   3.449   3.213  10.917  0.5881 -0.2770 -0.2837
 2722SOL     OW19798   4.538   4.322  12.622 -1.2765  0.1567 -0.0993
 2722SOL    HW119799   4.554   4.389  12.688  1.4543 -0.7315  0.1151
 2722SOL    HW219800   4.467   4.279  12.671  0.2838 -3.4323 -0.9984
 2723SOL     OW19801   2.529   1.642   2.892  0.1392 -0.3653 -0.1285
 2723SOL    HW119802   2.470   1.582   2.846 -0.1062 -0.3897  0.2233
 2723SOL    HW219803   2.598   1.653   2.827 -0.6392  2.2427 -0.5279
 2724SOL     OW19804   2.069   4.635   2.680  0.3141 -0.3068  0.4152
 2724SOL    HW119805   2.114   4.617   2.598  1.6536 -0.3047  1.1521
 2724SOL    HW219806   2.136   4.593   2.735  0.5546 -0.3585  0.0824
 2725SOL     OW19807   4.032   2.255   9.043 -0.1492  0.0536 -0.1012
 2725SOL    HW119808   4.098   2.288   9.104  2.1973 -0.2797 -2.4861
 2725SOL    HW219809   4.028   2.165   9.073 -0.9814  0.2190  0.3119
 2726SOL     OW19810   1.665   2.071   1.535  0.7307  0.5333  1.1053
 2726SOL    HW119811   1.711   2.136   1.483  0.6473  0.3580  0.8138
 2726SOL    HW219812   1.605   2.118   1.592 -0.8970 -1.1703  0.8093
 2727SOL     OW19813   2.919   2.691  14.316 -0.3413  0.3181  0.1297
 2727SOL    HW119814   2.997   2.643  14.342  0.3521  0.4619 -1.7118
 2727SOL    HW219815   2.855   2.621  14.308  0.7130 -0.5358 -0.7898
 2728SOL     OW19816   1.834   0.724   2.749  0.0125  0.4147 -0.0538
 2728SOL    HW119817   1.924   0.755   2.736  1.4886 -3.6240  0.4311
 2728SOL    HW219818   1.807   0.778   2.823  0.3813  0.8158 -0.2048
 2729SOL     OW19819   0.294   3.585  13.254 -0.1519  0.2659 -0.2025
 2729SOL    HW119820   0.242   3.511  13.285  2.5166 -0.9203  1.4353
 2729SOL    HW219821   0.371   3.568  13.309 -0.7955  1.3446  1.0510
 2730SOL     OW19822   0.455   3.422   5.121  0.5941  0.3866  0.2830
 2730SOL    HW119823   0.428   3.358   5.188 -0.6410 -0.3253 -0.8864
 2730SOL    HW219824   0.406   3.497   5.156  0.6496  0.5875 -0.0799
 2731SOL     OW19825   1.135   4.319   7.014  0.1175  0.0678 -0.4673
 2731SOL    HW119826   1.192   4.386   6.975  0.4088 -1.0002 -1.8755
 2731SOL    HW219827   1.067   4.323   6.947 -0.8878  0.6723  0.5914
 2732SOL     OW19828   4.302   4.695   9.785  0.2421 -0.0773  0.6491
 2732SOL    HW119829   4.264   0.035   9.830  0.5978  2.4423 -3.2153
 2732SOL    HW219830   4.342   0.014   9.716  1.2222 -0.5957  0.8145
 2733SOL     OW19831   4.729   3.376  12.396 -0.4274  0.6508 -0.0610
 2733SOL    HW119832   0.045   3.337  12.325 -1.0172 -0.7549  0.2855
 2733SOL    HW219833   4.685   3.308  12.447  1.0092  0.2522  0.6284
 2734SOL     OW19834   3.606   0.577   7.477  0.0950 -0.2074  0.3187
 2734SOL    HW119835   3.649   0.496   7.503 -0.2050 -0.6846 -0.6892
 2734SOL    HW219836   3.632   0.588   7.386 -1.4463  0.1942 -0.0752
 2735SOL     OW19837   2.578   1.839   4.712 -0.0593  0.1685  0.5925
 2735SOL    HW119838   2.578   1.919   4.660  1.4589 -1.4592 -1.9251
 2735SOL    HW219839   2.628   1.866   4.789  1.4741 -2.7484  0.6534
 2736SOL     OW19840   2.233   1.084   8.663 -0.1909 -0.9777 -0.7309
 2736SOL    HW119841   2.228   1.178   8.642 -0.3354 -0.4278  1.7572
 2736SOL    HW219842   2.187   1.042   8.590 -1.1374 -0.1420 -0.6186
 2737SOL     OW19843   3.602   0.015   8.930  0.0175 -0.0604 -0.5967
 2737SOL    HW119844   3.613   4.693   9.005  2.0213  2.2354  0.8473
 2737SOL    HW219845   3.632   4.683   8.868  0.9632 -1.8852  1.8213
 2738SOL     OW19846   2.751   4.261   6.919 -0.0555 -0.2874 -0.3058
 2738SOL    HW119847   2.756   4.354   6.898 -0.7917  0.1922  1.6063
 2738SOL    HW219848   2.685   4.262   6.989  0.7551 -0.2967  0.4654
 2739SOL     OW19849   2.626   0.534   3.076 -0.6534  0.4540 -0.4879
 2739SOL    HW119850   2.590   0.454   3.037 -2.4895  0.8901  0.2890
 2739SOL    HW219851   2.549   0.571   3.119  0.4221  2.0788  0.0146
 2740SOL     OW19852   3.565   0.295  17.737 -0.4964 -0.2977  0.4243
 2740SOL    HW119853   3.638   0.329   0.048  0.7891  0.2728 -1.7843
 2740SOL    HW219854   3.505   0.276   0.069  0.5298 -0.3007  1.2677
 2741SOL     OW19855   0.884   2.650   0.998 -0.3664  0.3116  0.4147
 2741SOL    HW119856   0.972   2.684   0.982 -0.6155  0.0583 -1.5791
 2741SOL    HW219857   0.861   2.700   1.076 -2.8166  1.3161 -0.9486
 2742SOL     OW19858   0.004   4.313   5.294  0.4027 -0.5006 -0.4145
 2742SOL    HW119859   4.672   4.245   5.307 -0.0700 -0.1833 -1.2057
 2742SOL    HW219860   0.007   4.346   5.383  0.4403 -0.9517 -0.2458
 2743SOL     OW19861   1.152   2.770  14.447 -0.2597  0.1550 -0.4473
 2743SOL    HW119862   1.130   2.750  14.538 -2.0046  0.6992 -0.7436
 2743SOL    HW219863   1.190   2.687  14.420 -1.9295 -0.2375 -1.5145
 2744SOL     OW19864   1.273   2.355   2.927  0.0896 -0.1573 -0.0783
 2744SOL    HW119865   1.364   2.355   2.899  0.4427  0.0590  1.0633
 2744SOL    HW219866   1.293   2.384   3.016  0.0809 -1.3278  0.3007
 2745SOL     OW19867   3.589   2.411   4.422 -0.3439 -0.1300  0.0747
 2745SOL    HW119868   3.592   2.459   4.505  1.1282 -0.2965  0.1080
 2745SOL    HW219869   3.624   2.475   4.359  1.1311 -1.0842 -0.0799
 2746SOL     OW19870   1.010   3.771  12.202  0.5829  0.0318  0.1380
 2746SOL    HW119871   1.070   3.740  12.269  0.1335 -0.5889  0.2534
 2746SOL    HW219872   1.022   3.698  12.141 -1.1909  0.4939 -0.7703
 2747SOL     OW19873   1.418   1.038   5.166 -0.2673 -0.2283 -0.5524
 2747SOL    HW119874   1.341   1.040   5.109 -0.7684  0.8923  0.1823
 2747SOL    HW219875   1.455   1.124   5.146 -1.5465 -0.3061 -3.2351
 2748SOL     OW19876   1.943   0.581   7.763  0.3765 -0.1973 -0.5878
 2748SOL    HW119877   1.973   0.494   7.789  2.5327  0.8578  0.4797
 2748SOL    HW219878   1.848   0.577   7.763  0.3415  0.4840 -1.2861
 2749SOL     OW19879   1.782   1.794   3.562 -0.9343  0.1098 -0.1367
 2749SOL    HW119880   1.833   1.780   3.482 -3.1997  1.0586 -1.7411
 2749SOL    HW219881   1.820   1.881   3.572  0.5455 -0.4723 -0.6711
 2750SOL     OW19882   2.278   2.661   8.812  0.3149  0.3253 -0.3230
 2750SOL    HW119883   2.325   2.599   8.757  0.4296 -1.0331  1.3021
 2750SOL    HW219884   2.295   2.616   8.895  0.0673 -0.3850 -0.6562
 2751SOL     OW19885   3.675   0.443   6.331  0.1482  0.1494 -0.2670
 2751SOL    HW119886   3.620   0.366   6.348  1.1894 -0.5247  0.0318
 2751SOL    HW219887   3.667   0.446   6.236  0.2587 -0.2140 -0.2869
 2752SOL     OW19888   2.858   3.556   8.292 -0.3882  0.3893 -0.6733
 2752SOL    HW119889   2.854   3.617   8.366 -1.2515 -0.4467 -0.0423
 2752SOL    HW219890   2.786   3.579   8.233 -1.8070 -1.1511  0.4751
 2753SOL     OW19891   4.050   0.058   1.005  0.3800  0.4280  0.8482
 2753SOL    HW119892   3.976   0.026   1.056 -1.0396  0.4750 -1.1836
 2753SOL    HW219893   3.996   0.122   0.959  0.1687 -0.9040 -0.7349
 2754SOL     OW19894   0.742   0.072   1.712  0.2215  0.2039 -0.4061
 2754SOL    HW119895   0.698   0.137   1.657 -0.0741  0.3954  0.0478
 2754SOL    HW219896   0.833   0.100   1.704  0.2668  0.4623  0.9347
 2755SOL     OW19897   0.485   2.084  17.294 -0.1785 -0.0305 -0.0332
 2755SOL    HW119898   0.574   2.110  17.319 -0.4628 -1.3182  2.2768
 2755SOL    HW219899   0.443   2.170  17.301 -1.9179 -0.7436 -1.7322
 2756SOL     OW19900   0.658   1.036   3.441  0.0271 -0.3752  0.0526
 2756SOL    HW119901   0.719   1.051   3.512  0.1606  1.3475 -0.4023
 2756SOL    HW219902   0.574   1.026   3.485  0.1264 -0.1001  0.3074
 2757SOL     OW19903   0.888   0.205   4.962 -0.1837 -0.0510 -0.2644
 2757SOL    HW119904   0.813   0.164   4.920 -1.4487 -0.7034  2.6354
 2757SOL    HW219905   0.951   0.132   4.959  0.0112  0.1267 -0.5119
 2758SOL     OW19906   3.855   1.093   9.154 -0.3135 -0.3288 -0.0681
 2758SOL    HW119907   3.879   1.060   9.241 -1.8361  1.3404  1.0070
 2758SOL    HW219908   3.881   1.023   9.095  1.7977 -1.8869  2.7388
 2759SOL     OW19909   1.785   0.212   8.128  0.1801  0.1180  0.0969
 2759SOL    HW119910   1.837   0.147   8.081 -0.5282 -0.1487 -0.3059
 2759SOL    HW219911   1.739   0.169   8.201  0.0039 -0.3401 -0.2859
 2760SOL     OW19912   1.210   3.338   1.832 -0.0040 -0.3810  0.2377
 2760SOL    HW119913   1.121   3.304   1.843 -0.1657  0.1504  0.5544
 2760SOL    HW219914   1.250   3.252   1.817 -2.5291 -1.4468 -0.4414
 2761SOL     OW19915   3.978   0.267   3.398  0.4967  0.1764 -0.0021
 2761SOL    HW119916   4.007   0.247   3.309  2.5510  0.9783  0.4943
 2761SOL    HW219917   3.910   0.202   3.419  0.8355  0.1891  1.1554
 2762SOL     OW19918   0.453   1.926   0.633  0.3265  0.3240 -0.1465
 2762SOL    HW119919   0.443   1.951   0.541 -1.2171 -2.9648 -0.8599
 2762SOL    HW219920   0.383   1.975   0.677 -0.0855  0.2372 -0.7033
 2763SOL     OW19921   2.133   4.327   6.170  0.5560  0.2377 -0.1220
 2763SOL    HW119922   2.102   4.245   6.134  0.4263  0.2054  0.0636
 2763SOL    HW219923   2.052   4.371   6.193 -0.2217 -1.8423  1.0640
 2764SOL     OW19924   1.543   0.280   1.959  0.3112 -0.5310 -0.5151
 2764SOL    HW119925   1.552   0.372   1.933  1.0573  0.2447  2.5216
 2764SOL    HW219926   1.619   0.260   2.013  0.0418 -1.0166 -0.3157
 2765SOL     OW19927   2.246   0.036   1.800  0.2249  0.7164 -0.3296
 2765SOL    HW119928   2.200   0.001   1.877  1.1878 -0.0714 -0.1099
 2765SOL    HW219929   2.178   0.037   1.733 -0.6530 -1.1164  0.5039
 2766SOL     OW19930   1.752   3.177   2.965  0.4735  0.3328 -0.1501
 2766SOL    HW119931   1.698   3.150   2.891  1.1807 -0.3617 -0.4123
 2766SOL    HW219932   1.843   3.169   2.935  0.1597  0.2652 -1.0511
 2767SOL     OW19933   3.420   1.389   4.158 -0.4213 -0.1825  0.6001
 2767SOL    HW119934   3.496   1.340   4.188  0.5976  0.2595 -1.3034
 2767SOL    HW219935   3.346   1.359   4.211  0.8291 -1.5637  1.5512
 2768SOL     OW19936   3.213   3.071   1.619 -0.0949  0.0644  0.0621
 2768SOL    HW119937   3.145   3.058   1.686 -3.6788 -0.0088 -3.5598
 2768SOL    HW219938   3.182   3.142   1.562 -0.5354  0.3997  0.7210
 2769SOL     OW19939   3.468   0.176   8.006 -0.0902 -0.2543  0.3230
 2769SOL    HW119940   3.398   0.125   8.045  0.1710 -2.0011 -1.4995
 2769SOL    HW219941   3.540   0.119   8.034 -0.7505 -2.3634 -2.3607
 2770SOL     OW19942   3.966   1.893   3.582  0.1434 -0.2502 -0.0896
 2770SOL    HW119943   3.921   1.964   3.630 -1.7403 -0.5879 -1.3527
 2770SOL    HW219944   3.894   1.843   3.544  0.4697 -0.8377  0.0695
 2771SOL     OW19945   3.441   2.585   7.904 -0.2563  0.3393 -0.2471
 2771SOL    HW119946   3.526   2.565   7.866 -0.5396  0.0825 -0.7452
 2771SOL    HW219947   3.417   2.651   7.839 -2.9639 -1.5708 -1.1608
 2772SOL     OW19948   1.950   2.452   4.181  0.6288  0.2595 -0.0048
 2772SOL    HW119949   1.866   2.411   4.161  1.1689 -1.6719  1.6402
 2772SOL    HW219950   1.924   2.542   4.201  2.9284  1.1660 -1.0998
 2773SOL     OW19951   1.382   0.880   3.332 -0.0863 -0.3174 -0.0043
 2773SOL    HW119952   1.301   0.929   3.343  0.6924  0.4094  2.4666
 2773SOL    HW219953   1.425   0.893   3.417 -0.6473 -0.1534  0.2565
 2774SOL     OW19954   0.033   3.679  17.465  0.7341  0.1212  0.4629
 2774SOL    HW119955   0.041   3.757  17.410  0.0587 -2.0621 -2.7441
 2774SOL    HW219956   4.718   3.708  17.540 -2.7355 -2.1066 -1.0187
 2775SOL     OW19957   1.018   2.570   4.709  0.1565  0.1713  0.6727
 2775SOL    HW119958   1.058   2.500   4.658 -1.8295 -1.1101  0.8966
 2775SOL    HW219959   1.042   2.640   4.647  0.1844 -0.6235 -0.2121
 2776SOL     OW19960   4.691   1.146   6.856  0.3539 -0.2544 -0.0052
 2776SOL    HW119961   4.648   1.176   6.776 -0.6345  0.9507  0.9849
 2776SOL    HW219962   4.655   1.065   6.893 -1.4884 -1.5774 -4.6033
 2777SOL     OW19963   4.385   2.796   5.495 -0.4347  0.1202  0.5919
 2777SOL    HW119964   4.381   2.886   5.527 -1.3415  0.6045 -0.9123
 2777SOL    HW219965   4.297   2.783   5.458  0.4680 -0.3400 -1.3776
 2778SOL     OW19966   2.725   4.019  13.622  0.2553  0.1888 -0.2938
 2778SOL    HW119967   2.647   4.071  13.606  0.7322  0.9830 -0.0754
 2778SOL    HW219968   2.779   4.047  13.548  0.2828 -0.0186 -0.3515
 2779SOL     OW19969   4.269   3.690   9.579  0.1835 -0.1817  0.0297
 2779SOL    HW119970   4.339   3.751   9.556 -0.2765  0.1827 -0.3945
 2779SOL    HW219971   4.233   3.728   9.659  3.7720 -1.9819  2.5297
 2780SOL     OW19972   1.859   4.445   1.247  0.3876  0.3231  0.3205
 2780SOL    HW119973   1.935   4.420   1.299  0.2893 -0.5845  0.0165
 2780SOL    HW219974   1.817   4.359   1.240  1.1544  0.3076 -3.8252
 2781SOL     OW19975   1.892   4.659   1.833  0.1364  0.3720  0.7383
 2781SOL    HW119976   1.797   4.660   1.848  0.0959 -0.6558  0.5434
 2781SOL    HW219977   1.898   4.710   1.752 -0.1382 -1.2648 -0.3346
 2782SOL     OW19978   0.211   2.028   3.384 -0.1203 -0.4736  0.0096
 2782SOL    HW119979   0.229   2.067   3.299 -0.7972 -1.6921 -0.6990
 2782SOL    HW219980   0.272   2.077   3.439 -0.7260  0.0221  0.2418
 2783SOL     OW19981   0.007   4.584  15.201 -0.0277  0.1595 -0.0695
 2783SOL    HW119982   0.077   4.520  15.191 -1.0112 -1.1577  1.4650
 2783SOL    HW219983   0.017   4.604  15.293 -0.6301 -1.3411  0.3242
 2784SOL     OW19984   3.826   4.429   8.160 -0.2449 -0.4699  0.3189
 2784SOL    HW119985   3.877   4.366   8.211  0.4793  0.6242  0.9309
 2784SOL    HW219986   3.744   4.383   8.142 -1.3232  1.7917 -0.5832
 2785SOL     OW19987   0.020   4.283   2.195 -0.0820 -0.3508  0.7083
 2785SOL    HW119988   4.723   4.312   2.281  0.4121  1.1796  0.3679
 2785SOL    HW219989   0.094   4.344   2.193 -0.3172  0.0323  3.1713
 2786SOL     OW19990   3.556   0.981   5.409  0.2476  0.1920 -0.2168
 2786SOL    HW119991   3.628   0.928   5.442  0.2865 -0.2718 -1.0241
 2786SOL    HW219992   3.577   1.069   5.439  3.8098 -1.4660  2.0365
 2787SOL     OW19993   3.335   2.382   8.868 -0.8417  0.1226  0.0537
 2787SOL    HW119994   3.398   2.387   8.939 -0.8973  2.0473 -0.0425
 2787SOL    HW219995   3.389   2.402   8.791  3.1250 -0.7642  2.5902
 2788SOL     OW19996   4.613   3.247   7.130 -0.7069 -0.0700  0.5309
 2788SOL    HW119997   4.640   3.201   7.209 -0.6196 -1.9442 -0.5956
 2788SOL    HW219998   4.592   3.326   7.179 -0.2543 -0.8374  1.9571
 2789SOL     OW19999   2.760   0.597   3.455 -0.2522  0.0049 -0.7763
 2789SOL    HW120000   2.785   0.559   3.371 -1.9403 -1.4735 -0.6173
 2789SOL    HW220001   2.827   0.551   3.506 -0.8102 -0.5750 -0.5631
 2790SOL     OW20002   2.993   3.943   5.525  0.2764 -0.0609 -0.2878
 2790SOL    HW120003   2.929   3.991   5.577 -1.0509  1.1632 -3.0492
 2790SOL    HW220004   3.011   4.003   5.452 -2.0885  0.8518 -0.0973
 2791SOL     OW20005   2.038   2.268   4.545  0.0192  0.0128 -0.1970
 2791SOL    HW120006   1.964   2.287   4.487 -1.0738  0.0325  1.2072
 2791SOL    HW220007   2.011   2.189   4.591 -0.7489  0.6259  0.4128
 2792SOL     OW20008   0.253   3.285   7.686 -0.6189 -0.6033  0.0352
 2792SOL    HW120009   0.160   3.287   7.711 -0.9028  0.5478 -1.0953
 2792SOL    HW220010   0.248   3.197   7.649  0.5722 -0.4173 -0.5854
 2793SOL     OW20011   0.777   2.127   3.444 -0.5952 -0.2197 -0.2077
 2793SOL    HW120012   0.830   2.050   3.424 -1.1876 -0.2437 -1.6857
 2793SOL    HW220013   0.719   2.119   3.369 -1.1899 -2.2721  0.4901
 2794SOL     OW20014   0.248   2.104   8.279  0.4858  0.4897  0.2237
 2794SOL    HW120015   0.154   2.104   8.299  0.3855  0.6751 -0.2254
 2794SOL    HW220016   0.287   2.120   8.364 -0.8011  0.4572  0.8195
 2795SOL     OW20017   2.087   4.302   8.132 -0.9980 -0.0851  0.2255
 2795SOL    HW120018   2.093   4.221   8.081 -2.1519  0.5161 -0.8649
 2795SOL    HW220019   2.118   4.269   8.216 -1.7204 -0.7516  0.2225
 2796SOL     OW20020   1.545   3.288   0.240 -0.2986 -0.5633 -0.2887
 2796SOL    HW120021   1.547   3.227   0.314 -1.3430  0.0399  0.2411
 2796SOL    HW220022   1.608   3.244   0.182 -0.6954 -0.6056 -0.6858
 2797SOL     OW20023   4.384   3.339   6.656  0.1458  0.0355  0.7201
 2797SOL    HW120024   4.346   3.397   6.722 -1.7780  1.0332 -1.2500
 2797SOL    HW220025   4.370   3.391   6.577  1.0081 -1.7597 -0.6129
 2798SOL     OW20026   3.798   4.202  16.265 -0.2155  0.4757 -0.4238
 2798SOL    HW120027   3.753   4.255  16.199 -0.4427  1.3341  0.4341
 2798SOL    HW220028   3.728   4.164  16.318  1.8937 -0.8864  1.3752
 2799SOL     OW20029   1.228   2.203  15.577 -0.3326  0.2473  0.8578
 2799SOL    HW120030   1.255   2.237  15.491 -0.5366 -0.4349  0.5220
 2799SOL    HW220031   1.293   2.242  15.635  0.6850 -0.6221  0.2904
 2800SOL     OW20032   0.361   3.334   6.390 -0.2178  0.3533  0.1097
 2800SOL    HW120033   0.431   3.346   6.327 -0.9755  1.7542 -0.4755
 2800SOL    HW220034   0.406   3.349   6.473  2.8508  1.0923 -1.7192
 2801SOL     OW20035   3.831   3.172   7.368 -0.0947 -0.1037 -0.4536
 2801SOL    HW120036   3.812   3.147   7.277 -2.2912  2.0578 -0.5877
 2801SOL    HW220037   3.834   3.083   7.404  0.5481 -1.0089 -2.7211
 2802SOL     OW20038   2.929   0.455   2.014 -0.3434 -0.7830  0.2529
 2802SOL    HW120039   2.847   0.415   2.042 -0.6132  0.8738  1.8185
 2802SOL    HW220040   2.994   0.389   2.041  1.0055  0.9385  1.2235
 2803SOL     OW20041   1.975   4.349   8.998  0.1821 -0.1902  0.1810
 2803SOL    HW120042   1.969   4.406   9.075 -0.5158  0.9818 -0.7282
 2803SOL    HW220043   1.935   4.413   8.938 -0.8360  0.3662  1.4603
 2804SOL     OW20044   4.723   2.887   7.057 -0.3561 -0.1358  0.2582
 2804SOL    HW120045   0.059   2.857   7.000  1.4983  0.2316  2.3757
 2804SOL    HW220046   0.041   2.941   7.115  2.9290 -0.4864 -2.4537
 2805SOL     OW20047   1.844   0.378  11.729 -0.1086 -0.0578 -0.4836
 2805SOL    HW120048   1.852   0.442  11.800  0.7572 -0.7556  0.0352
 2805SOL    HW220049   1.860   0.441  11.658  0.1707  1.3222  0.8014
 2806SOL     OW20050   3.572   0.602   6.759  0.1146  0.5273 -0.0801
 2806SOL    HW120051   3.519   0.614   6.838  1.6341 -1.5959  1.2507
 2806SOL    HW220052   3.514   0.642   6.694  0.5927  0.1715 -0.7162
 2807SOL     OW20053   3.554   0.589  14.231 -0.4084  0.1510  0.0821
 2807SOL    HW120054   3.530   0.501  14.262  1.9701 -0.9359 -1.1332
 2807SOL    HW220055   3.504   0.649  14.285 -0.1793  0.1031  0.3486
 2808SOL     OW20056   0.668   1.111   4.601  0.1549  0.5314  0.9853
 2808SOL    HW120057   0.698   1.023   4.622 -0.7352  0.0438  0.2324
 2808SOL    HW220058   0.660   1.108   4.505  1.6103 -1.0170  0.9170
 2809SOL     OW20059   1.897   1.939   1.976 -0.1534  0.0317  0.3203
 2809SOL    HW120060   1.902   1.948   1.881 -5.6243 -0.5722 -0.0537
 2809SOL    HW220061   1.817   1.989   1.994 -0.2631  0.5937 -1.8085
 2810SOL     OW20062   4.202   2.997   8.308 -0.3371  0.1485 -0.5932
 2810SOL    HW120063   4.161   2.943   8.240  0.0738 -1.6309  0.5665
 2810SOL    HW220064   4.161   3.081   8.290  1.3967  1.0295 -0.4322
 2811SOL     OW20065   1.471   0.358   9.360  0.5360 -0.2495  0.1339
 2811SOL    HW120066   1.419   0.281   9.386 -0.3881  0.0702 -0.7320
 2811SOL    HW220067   1.420   0.423   9.408 -1.3155 -1.6838  0.1447
 2812SOL     OW20068   3.554   1.103   6.687 -0.6585 -0.3219 -0.1193
 2812SOL    HW120069   3.573   1.024   6.636  0.8341 -0.2448  0.2939
 2812SOL    HW220070   3.646   1.122   6.707 -0.6939  0.9571 -1.1820
 2813SOL     OW20071   1.579   3.179   8.077 -0.2244  0.2395  0.0740
 2813SOL    HW120072   1.574   3.274   8.084  1.2194  0.2549  0.8629
 2813SOL    HW220073   1.567   3.170   7.983  0.4845  2.7034 -0.2478
 2814SOL     OW20074   1.095   3.262  10.062 -0.9740 -1.1227  0.4940
 2814SOL    HW120075   1.082   3.352  10.034  0.1880 -1.2965 -0.6246
 2814SOL    HW220076   1.130   3.219   9.984  0.8530  0.5708  0.3725
 2815SOL     OW20077   0.735   2.176   4.778  0.0718  0.3872  0.5944
 2815SOL    HW120078   0.732   2.085   4.807 -0.3882 -0.4889 -2.1596
 2815SOL    HW220079   0.821   2.184   4.738  0.6651 -0.9116  1.6387
 2816SOL     OW20080   1.919   3.709   6.448 -0.5673  0.2497 -0.3209
 2816SOL    HW120081   1.946   3.622   6.478 -1.0770  0.3541  0.4566
 2816SOL    HW220082   1.912   3.751   6.534 -0.1125 -3.0010  1.3166
 2817SOL     OW20083   0.482   1.676   1.883 -0.1190 -0.0980 -0.2671
 2817SOL    HW120084   0.513   1.756   1.842  0.6303 -0.8835 -1.2246
 2817SOL    HW220085   0.387   1.691   1.884 -0.1234 -0.1285 -0.2324
 2818SOL     OW20086   2.355   4.423   4.463 -0.3840 -0.5832  0.4420
 2818SOL    HW120087   2.440   4.380   4.458  0.5599  1.3935 -0.7150
 2818SOL    HW220088   2.290   4.369   4.419 -2.4586  1.6168  0.7839
 2819SOL     OW20089   4.544   1.970   7.915 -0.0819 -0.0376  0.0207
 2819SOL    HW120090   4.492   2.041   7.877  1.5928  0.5982 -1.1280
 2819SOL    HW220091   4.636   1.996   7.902  0.2806 -0.5787  1.5096
 2820SOL     OW20092   4.526   4.276   2.630 -0.5860  0.0617  0.1952
 2820SOL    HW120093   4.569   4.191   2.644  0.3156  0.5696  0.4849
 2820SOL    HW220094   4.519   4.297   2.723  1.1859 -1.4973  0.6982
 2821SOL     OW20095   4.444   3.339   3.342 -0.2094 -0.5277 -0.3936
 2821SOL    HW120096   4.471   3.357   3.432 -1.0633  1.2106 -0.4795
 2821SOL    HW220097   4.350   3.325   3.348  0.3836 -3.2353  2.2415
 2822SOL     OW20098   2.309   4.538  14.617 -0.8097  0.1410  0.2491
 2822SOL    HW120099   2.287   4.447  14.597  0.5456 -0.2315  0.4697
 2822SOL    HW220100   2.397   4.526  14.651 -0.0141  0.8588 -1.5980
 2823SOL     OW20101   2.738   4.701   5.380 -0.1568  0.3490  0.3170
 2823SOL    HW120102   2.784   4.735   5.456  4.1210  2.4537 -3.1945
 2823SOL    HW220103   2.779   0.014   5.307 -0.5911 -1.4126 -1.1018
 2824SOL     OW20104   0.511   2.520   5.688 -0.6178  0.4798 -0.0478
 2824SOL    HW120105   0.448   2.563   5.629  1.1762  2.1022 -0.7720
 2824SOL    HW220106   0.456   2.454   5.730 -1.8106  1.8204  0.4755
 2825SOL     OW20107   4.713   1.996   5.835 -0.4918 -0.0919 -0.3656
 2825SOL    HW120108   4.725   1.927   5.900 -0.6844  2.3916  2.3076
 2825SOL    HW220109   4.617   2.003   5.833 -0.5478 -1.2518 -1.5237
 2826SOL     OW20110   0.256   1.375   3.849 -0.1870  0.0517  0.1436
 2826SOL    HW120111   0.282   1.414   3.766  0.5681 -2.4914 -0.7982
 2826SOL    HW220112   0.209   1.447   3.891 -2.5798 -0.3136 -1.9395
 2827SOL     OW20113   4.453   0.727   7.253  0.5994 -0.6724  0.4086
 2827SOL    HW120114   4.366   0.688   7.260  1.4009 -2.4713  0.1849
 2827SOL    HW220115   4.510   0.656   7.224 -0.8929 -1.7137  0.0234
 2828SOL     OW20116   0.751   3.964   4.260  0.3958 -0.5057  0.0497
 2828SOL    HW120117   0.748   3.868   4.252  1.0085 -0.4384 -0.9975
 2828SOL    HW220118   0.828   3.970   4.317 -0.3749  1.0915  0.8989
 2829SOL     OW20119   1.325   2.323   5.340  0.0123 -0.0712 -0.0751
 2829SOL    HW120120   1.260   2.255   5.324 -0.4645 -0.1898  2.3988
 2829SOL    HW220121   1.398   2.296   5.396 -0.7083 -1.6505  0.1026
 2830SOL     OW20122   3.248   0.935   7.951  0.1853 -0.6968  0.4660
 2830SOL    HW120123   3.241   0.897   8.039  0.5745 -0.0894  0.7696
 2830SOL    HW220124   3.326   0.989   7.969  0.3251 -0.8401  0.2897
 2831SOL     OW20125   3.818   0.151   4.864 -0.3022 -0.2398  0.4393
 2831SOL    HW120126   3.778   0.087   4.924  0.4261  0.1647  1.3527
 2831SOL    HW220127   3.805   0.105   4.781 -1.1449  0.4044  0.2166
 2832SOL     OW20128   3.131   3.323   2.596 -0.5301  0.3088 -0.5966
 2832SOL    HW120129   3.061   3.258   2.600 -0.2418 -0.0639 -1.5547
 2832SOL    HW220130   3.105   3.395   2.653  1.3979 -0.5940  1.4074
 2833SOL     OW20131   0.059   1.367   1.111 -0.7113  0.2246 -0.2580
 2833SOL    HW120132   0.094   1.314   1.039  1.3477  0.4391  0.5651
 2833SOL    HW220133   0.119   1.339   1.180 -0.3454 -0.1907 -0.7359
 2834SOL     OW20134   4.730   2.031   2.408  0.5765 -0.2802 -0.1359
 2834SOL    HW120135   0.050   2.054   2.333  0.2159 -3.6473 -1.4146
 2834SOL    HW220136   4.682   1.958   2.368  0.7422 -0.0465 -0.7622
 2835SOL     OW20137   1.728   3.248   5.948 -0.7840  0.1732 -0.0338
 2835SOL    HW120138   1.811   3.203   5.964 -0.5395  0.3967 -0.6576
 2835SOL    HW220139   1.670   3.181   5.982 -0.0642  0.5184  1.8892
 2836SOL     OW20140   2.048   1.864   1.272 -0.1527  0.2213 -0.3428
 2836SOL    HW120141   1.954   1.847   1.267 -0.2033  0.7160 -1.0824
 2836SOL    HW220142   2.063   1.939   1.214  2.6381 -0.8593 -1.0073
 2837SOL     OW20143   1.574   0.876  14.521  0.1523  0.2363  0.1455
 2837SOL    HW120144   1.662   0.844  14.500  0.1095  2.0737 -2.8522
 2837SOL    HW220145   1.588   0.971  14.515 -0.4918  0.3152 -0.1563
 2838SOL     OW20146   0.882   4.644   5.051  0.6945 -0.2829 -0.2355
 2838SOL    HW120147   0.881   4.635   5.146 -0.9976 -1.5787 -0.3776
 2838SOL    HW220148   0.839   4.561   5.031  0.2036  0.2832 -1.5730
 2839SOL     OW20149   2.875   3.386   6.324 -0.3501  0.2700  0.1806
 2839SOL    HW120150   2.920   3.339   6.394  3.2038  1.5947 -1.2206
 2839SOL    HW220151   2.837   3.316   6.271  0.6272 -1.1657  1.3969
 2840SOL     OW20152   0.933   0.385  14.914  0.6195 -0.3402 -0.1274
 2840SOL    HW120153   0.863   0.373  14.978 -1.0055 -1.6284 -2.1627
 2840SOL    HW220154   0.992   0.446  14.960  0.1763  0.3481 -0.4712
 2841SOL     OW20155   3.830   4.197  11.442  0.0153 -0.0491  0.3628
 2841SOL    HW120156   3.773   4.141  11.388 -0.9526  0.1558  1.1712
 2841SOL    HW220157   3.907   4.143  11.458  0.2160  0.7341  1.9413
 2842SOL     OW20158   4.478   0.415   2.549  0.1858 -0.6075 -0.0149
 2842SOL    HW120159   4.484   0.377   2.461  0.6279 -2.0633  0.6341
 2842SOL    HW220160   4.539   0.489   2.553  0.1763 -0.8043  3.8604
 2843SOL     OW20161   0.215   4.719   8.406  0.1071 -0.0397  0.6784
 2843SOL    HW120162   0.155   0.039   8.357 -0.3437  0.0339  1.3038
 2843SOL    HW220163   0.144   4.683   8.459 -0.4117  0.7802  0.5337
 2844SOL     OW20164   4.536   2.260   3.250  0.6586 -0.0470 -0.1584
 2844SOL    HW120165   4.467   2.287   3.190  1.1740 -0.9779 -1.1687
 2844SOL    HW220166   4.514   2.168   3.257 -0.5157  0.2745  0.2483
 2845SOL     OW20167   1.911   3.950   2.969  0.1326  0.0853  0.0188
 2845SOL    HW120168   1.868   3.889   3.029 -0.9567  0.3848 -0.4703
 2845SOL    HW220169   1.960   4.003   3.032  0.5901 -0.4958  0.1600
 2846SOL     OW20170   0.113   2.093  10.474 -0.1011  0.0146 -0.1289
 2846SOL    HW120171   0.132   2.187  10.484 -1.3811  0.1909  0.6196
 2846SOL    HW220172   0.081   2.086  10.564 -0.4585 -3.0082 -0.4954
 2847SOL     OW20173   2.236   4.382   9.107 -0.5055  0.2679  0.5854
 2847SOL    HW120174   2.212   4.322   9.178 -2.3511 -0.1728 -0.3942
 2847SOL    HW220175   2.151   4.389   9.062  0.6924  0.7019 -1.6198
 2848SOL     OW20176   2.171   2.868  10.093  0.0204 -0.2570  0.6718
 2848SOL    HW120177   2.084   2.900  10.119 -0.1193 -1.0865  1.2232
 2848SOL    HW220178   2.196   2.933  10.028  1.0343 -2.7356 -1.4395
 2849SOL     OW20179   1.147   3.988   4.637 -0.7227 -0.1391 -0.3010
 2849SOL    HW120180   1.069   4.017   4.590 -1.5264 -1.2515  0.3369
 2849SOL    HW220181   1.158   3.900   4.603  1.0293  0.1777 -0.5271
 2850SOL     OW20182   0.236   3.636   6.048 -0.0976 -0.5518 -0.2499
 2850SOL    HW120183   0.163   3.582   6.077  0.2733 -0.9618 -0.0850
 2850SOL    HW220184   0.298   3.630   6.121  1.0601  2.1212 -0.9966
 2851SOL     OW20185   0.460   1.926   4.736 -0.2729 -0.5598 -0.0520
 2851SOL    HW120186   0.491   1.841   4.766  0.2066 -0.0814  0.7834
 2851SOL    HW220187   0.520   1.989   4.776  0.4879 -0.7975 -0.8156
 2852SOL     OW20188   3.350   1.394  12.301 -0.1649  0.6648  0.0006
 2852SOL    HW120189   3.427   1.418  12.353 -0.3583 -0.0899  0.6349
 2852SOL    HW220190   3.345   1.458  12.230 -2.0081 -0.1874 -0.6418
 2853SOL     OW20191   2.375   1.143   3.117  0.2380 -0.1372 -0.6291
 2853SOL    HW120192   2.283   1.128   3.093 -0.1583  1.4650 -0.0808
 2853SOL    HW220193   2.409   1.054   3.125 -0.5940 -0.4429 -0.4471
 2854SOL     OW20194   1.918   3.523  16.980  0.0179 -0.2314  0.2478
 2854SOL    HW120195   1.867   3.448  16.948  0.3564  1.0522 -3.3275
 2854SOL    HW220196   1.857   3.570  17.036 -0.0286 -1.0033  0.8418
 2855SOL     OW20197   2.726   1.385   1.398 -0.4473  1.0288  0.3779
 2855SOL    HW120198   2.787   1.448   1.436  1.9400 -0.2085 -1.3663
 2855SOL    HW220199   2.717   1.431   1.314  1.7106 -1.0819 -1.0214
 2856SOL     OW20200   3.408   4.710  12.809 -0.2774 -0.3547  0.4449
 2856SOL    HW120201   3.331   4.694  12.754 -0.0411 -0.3391  0.1099
 2856SOL    HW220202   3.474   4.725  12.742  0.1738  1.9987  1.4120
 2857SOL     OW20203   3.180   0.501   4.177  0.3461 -0.1847  0.2784
 2857SOL    HW120204   3.137   0.421   4.149  2.5181 -1.4604  0.6372
 2857SOL    HW220205   3.136   0.573   4.132 -1.0253 -0.7648  0.6982
 2858SOL     OW20206   2.331   4.331   8.832 -0.6954 -0.5808 -0.2619
 2858SOL    HW120207   2.312   4.363   8.743 -0.9660 -1.1314 -0.4011
 2858SOL    HW220208   2.318   4.409   8.886 -2.6123 -0.4054 -0.9637
 2859SOL     OW20209   1.101   1.024   5.594 -0.3566 -0.6712  0.0346
 2859SOL    HW120210   1.175   1.018   5.655  0.5369 -0.4652 -1.0446
 2859SOL    HW220211   1.138   1.004   5.508  0.2822  2.3443 -0.3836
 2860SOL     OW20212   0.701   1.382   5.089 -0.6382 -0.0704 -0.1985
 2860SOL    HW120213   0.753   1.323   5.034 -0.7207 -0.9841  0.7113
 2860SOL    HW220214   0.731   1.357   5.176  0.5469  1.7620 -0.0718
 2861SOL     OW20215   3.982   3.619   4.465 -0.0861  0.0112 -0.0720
 2861SOL    HW120216   3.979   3.712   4.488  0.5930  0.2591 -1.0185
 2861SOL    HW220217   3.940   3.616   4.379 -1.7741 -1.1384  0.7973
 2862SOL     OW20218   1.959   1.856  16.178 -0.5454 -0.1258  0.1722
 2862SOL    HW120219   2.027   1.913  16.214  0.8069 -0.6154 -1.6376
 2862SOL    HW220220   1.902   1.842  16.254 -0.1305  1.3293  0.7523
 2863SOL     OW20221   0.790   0.470   8.163  0.3843 -0.3015  0.5735
 2863SOL    HW120222   0.770   0.407   8.232  1.9454 -1.9476 -0.4854
 2863SOL    HW220223   0.885   0.473   8.176  0.1844  0.3239  1.8993
 2864SOL     OW20224   2.889   1.483   7.794  0.3334  0.2135 -0.2050
 2864SOL    HW120225   2.920   1.573   7.804 -0.8784  0.8536 -2.0354
 2864SOL    HW220226   2.859   1.466   7.883  4.8866  0.7663  1.4269
 2865SOL     OW20227   0.676   3.193  12.506  0.0043  0.1882  0.3764
 2865SOL    HW120228   0.722   3.110  12.520 -2.3069 -0.8901  1.5112
 2865SOL    HW220229   0.599   3.171  12.454 -0.1176 -0.5136  0.8486
 2866SOL     OW20230   4.404   2.979   3.398 -0.5321 -0.1151  0.3804
 2866SOL    HW120231   4.327   2.944   3.443 -0.5560  2.1727  2.1328
 2866SOL    HW220232   4.362   3.011   3.319 -2.5823 -1.8251  0.8051
 2867SOL     OW20233   0.114   4.369   5.970 -0.0095 -0.6666  0.4843
 2867SOL    HW120234   0.058   4.390   6.045 -1.7754 -1.9938 -0.4480
 2867SOL    HW220235   0.082   4.284   5.940 -3.0649  0.2704  1.0851
 2868SOL     OW20236   1.168   1.220   6.229  1.0034  0.7058 -0.0184
 2868SOL    HW120237   1.152   1.171   6.149 -0.2521  1.7249 -0.3906
 2868SOL    HW220238   1.244   1.273   6.208 -0.6739  1.6420 -3.7325
 2869SOL     OW20239   3.515   0.867   9.916 -0.2174 -0.0087  0.5017
 2869SOL    HW120240   3.502   0.880   9.822  0.6963  1.4249  0.5712
 2869SOL    HW220241   3.426   0.865   9.950 -0.9264  1.1740 -1.2940
 2870SOL     OW20242   3.546   3.017   4.657  0.3124 -0.2484 -0.1792
 2870SOL    HW120243   3.622   3.075   4.664  0.6932 -0.8364  0.5784
 2870SOL    HW220244   3.477   3.082   4.671 -1.4819 -2.0034 -0.7501
 2871SOL     OW20245   2.564   3.722   9.969  0.1690 -0.0481 -0.4451
 2871SOL    HW120246   2.519   3.760   9.894  0.4720 -1.4934 -1.3578
 2871SOL    HW220247   2.656   3.714   9.941  0.5103 -0.4928  0.7923
 2872SOL     OW20248   2.950   3.098   5.562 -0.3375 -0.1757 -0.7237
 2872SOL    HW120249   2.867   3.077   5.605  1.8053  0.9630  4.0122
 2872SOL    HW220250   2.929   3.174   5.508  2.7165  2.2660  1.5168
 2873SOL     OW20251   0.788   0.296   6.665 -0.2436 -0.6098  0.0193
 2873SOL    HW120252   0.707   0.273   6.712  0.6288 -2.4002  0.6579
 2873SOL    HW220253   0.796   0.224   6.603  0.5528 -0.2569 -0.2850
 2874SOL     OW20254   1.084   1.343   2.882 -0.3228 -0.3958  0.1954
 2874SOL    HW120255   1.051   1.347   2.972  2.9314 -2.0228  1.4913
 2874SOL    HW220256   1.047   1.258   2.856 -1.4290 -0.2823  1.4184
 2875SOL     OW20257   4.457   2.405   1.713  0.6769  0.1122 -0.4334
 2875SOL    HW120258   4.363   2.406   1.732  0.2882  0.3037 -2.4642
 2875SOL    HW220259   4.460   2.325   1.661  1.0219 -0.9082  1.1597
 2876SOL     OW20260   3.966   2.013   3.978 -0.0618  0.4981  0.2911
 2876SOL    HW120261   3.949   2.074   4.050  0.8796  1.8234 -0.6001
 2876SOL    HW220262   4.045   1.967   4.008 -0.6910 -0.3173  0.6651
 2877SOL     OW20263   3.288   4.733   5.627  0.1052  0.3144 -0.2397
 2877SOL    HW120264   3.200   4.704   5.650  0.7083 -2.6515 -1.7109
 2877SOL    HW220265   3.291   0.093   5.639 -1.3563  0.2268  0.8182
 2878SOL     OW20266   1.297   3.067   8.421 -0.3078 -0.4497 -0.1622
 2878SOL    HW120267   1.326   3.091   8.333  0.7797  0.3253  0.3970
 2878SOL    HW220268   1.296   3.151   8.468  1.0864 -0.4901 -0.0649
 2879SOL     OW20269   0.758   1.366   5.632 -0.4696 -0.3522 -0.0533
 2879SOL    HW120270   0.671   1.351   5.669 -1.1957  1.0431 -1.2073
 2879SOL    HW220271   0.783   1.274   5.621  2.2050  0.2208  1.2624
 2880SOL     OW20272   1.299   3.079   0.453 -0.6241 -0.5632  0.5449
 2880SOL    HW120273   1.305   3.174   0.456  0.3404 -0.6044  0.2651
 2880SOL    HW220274   1.379   3.059   0.502 -1.4177 -2.3760  1.0994
 2881SOL     OW20275   4.440   3.913   5.217  1.0263  0.2565  0.3767
 2881SOL    HW120276   4.517   3.968   5.199 -0.1363  1.1461 -1.7783
 2881SOL    HW220277   4.483   3.852   5.277  1.3219 -0.0473 -0.1472
 2882SOL     OW20278   3.728   1.479  14.761 -0.0652 -0.6525 -0.9965
 2882SOL    HW120279   3.693   1.411  14.819 -0.0995  0.5153  0.3566
 2882SOL    HW220280   3.807   1.438  14.728 -0.7508 -1.1898 -1.9651
 2883SOL     OW20281   2.347   2.334   4.988  0.0881 -0.2286 -0.7052
 2883SOL    HW120282   2.318   2.249   4.955  0.0282 -0.0976 -0.9904
 2883SOL    HW220283   2.346   2.382   4.906  0.8904  1.0882  0.0478
 2884SOL     OW20284   4.436   2.260   6.005 -0.0586  0.2747 -0.4741
 2884SOL    HW120285   4.382   2.335   6.031 -1.7294 -0.4690 -1.7663
 2884SOL    HW220286   4.390   2.225   5.928  0.9973 -0.0820 -0.9340
 2885SOL     OW20287   3.276   2.758   3.235 -0.1916  0.3719  1.1177
 2885SOL    HW120288   3.288   2.724   3.324 -1.2613 -2.1838  0.2766
 2885SOL    HW220289   3.344   2.826   3.241  1.8594 -1.7990  2.3667
 2886SOL     OW20290   4.160   3.989   9.586  0.4550 -0.0662 -0.0211
 2886SOL    HW120291   4.079   3.981   9.536  0.6219  2.0800 -0.6061
 2886SOL    HW220292   4.151   3.906   9.632  1.3648 -0.0844  0.1282
 2887SOL     OW20293   0.720   2.780   5.473  0.4679 -0.2693  0.1141
 2887SOL    HW120294   0.673   2.716   5.420 -0.1657  0.3540 -0.0786
 2887SOL    HW220295   0.810   2.747   5.465 -0.3086 -2.3824  0.3498
 2888SOL     OW20296   3.433   2.353   0.029  0.2557  0.4580  0.8643
 2888SOL    HW120297   3.496   2.287   0.060  0.7437 -0.0680 -1.2690
 2888SOL    HW220298   3.469   2.441   0.039  1.3060  0.0888  0.3857
 2889SOL     OW20299   0.680   2.665   0.402 -0.1563  0.0413 -0.6317
 2889SOL    HW120300   0.688   2.641   0.310 -3.7118  0.5054 -1.0581
 2889SOL    HW220301   0.721   2.751   0.398 -1.2945  0.6327  0.2571
 2890SOL     OW20302   1.878   1.847   9.151  0.3594  0.1333  0.1728
 2890SOL    HW120303   1.890   1.839   9.057 -0.6806 -1.3051  0.1648
 2890SOL    HW220304   1.809   1.913   9.162  0.4917  0.3147 -0.0829
 2891SOL     OW20305   3.073   1.432  12.163  0.1696 -0.5498  0.1461
 2891SOL    HW120306   3.158   1.428  12.207  0.8756  1.2574 -1.0321
 2891SOL    HW220307   3.047   1.341  12.179 -0.0133 -0.4247  0.5792
 2892SOL     OW20308   2.734   0.521  14.561  0.2708 -0.2303  0.3088
 2892SOL    HW120309   2.793   0.597  14.560 -0.6103  0.4297 -2.3878
 2892SOL    HW220310   2.653   0.561  14.527  0.5966 -0.8606 -1.2034
 2893SOL     OW20311   0.090   1.907   4.554 -0.3829  0.2313  0.0464
 2893SOL    HW120312   0.065   1.844   4.486  0.2988 -1.6494  1.5400
 2893SOL    HW220313   0.159   1.945   4.499  2.0402 -1.3975  1.9903
 2894SOL     OW20314   2.812   2.800   9.628  0.2986 -0.4823 -0.1938
 2894SOL    HW120315   2.800   2.755   9.545  0.4531  0.0165 -0.4871
 2894SOL    HW220316   2.733   2.773   9.674 -0.5072  0.9678 -0.7270
 2895SOL     OW20317   4.233   1.976  11.829  0.1462 -0.0870 -0.3678
 2895SOL    HW120318   4.167   1.911  11.803  1.3927 -2.0768  1.4339
 2895SOL    HW220319   4.297   1.953  11.761  0.5052 -1.6108  0.4702
 2896SOL     OW20320   2.783   4.461  16.295  0.0395  0.3184 -0.7403
 2896SOL    HW120321   2.872   4.442  16.325  0.0149 -1.3045 -1.7457
 2896SOL    HW220322   2.787   4.422  16.208 -1.0652 -1.0626 -0.1710
 2897SOL     OW20323   1.197   2.410   4.030 -0.8032  0.5518 -0.1165
 2897SOL    HW120324   1.229   2.320   4.031 -1.8220  0.1519 -2.5133
 2897SOL    HW220325   1.107   2.386   4.008 -0.8531 -0.2039  0.9080
 2898SOL     OW20326   2.215   2.964  13.057 -0.7930 -0.0612 -0.0746
 2898SOL    HW120327   2.158   2.891  13.033 -0.8055 -0.5145  1.3043
 2898SOL    HW220328   2.304   2.936  13.035 -0.9676 -0.0139 -0.8250
 2899SOL     OW20329   4.599   0.717   6.085 -0.0738 -0.2250  0.4291
 2899SOL    HW120330   4.645   0.741   6.005 -2.5818 -0.0082 -0.9420
 2899SOL    HW220331   4.524   0.680   6.039 -0.8894  0.2629  1.3703
 2900SOL     OW20332   3.774   3.478   6.107 -0.2128 -0.1085 -0.2538
 2900SOL    HW120333   3.685   3.513   6.103  0.1106  0.5850 -1.3468
 2900SOL    HW220334   3.834   3.551   6.119 -1.8380  1.7384 -3.3179
 2901SOL     OW20335   2.296   3.797  12.904  0.0678 -0.4627 -0.2195
 2901SOL    HW120336   2.366   3.755  12.954  0.8094 -0.9228 -1.6585
 2901SOL    HW220337   2.319   3.778  12.813 -1.1276  1.5168 -0.9466
 2902SOL     OW20338   0.762   3.744  12.441  0.0861 -0.1437 -0.9980
 2902SOL    HW120339   0.707   3.668  12.425  1.2443 -0.7892 -1.9329
 2902SOL    HW220340   0.846   3.723  12.399  0.7792  1.9008 -0.6597
 2903SOL     OW20341   2.477   2.429   1.301 -0.1800 -0.3965 -0.3551
 2903SOL    HW120342   2.503   2.521   1.306 -0.2861 -0.3942  0.2584
 2903SOL    HW220343   2.410   2.423   1.369 -1.7748  0.2484 -1.8788
 2904SOL     OW20344   0.263   2.019   3.704 -0.2458 -0.2390 -0.1297
 2904SOL    HW120345   0.336   2.071   3.739  0.3433 -0.3963 -1.1433
 2904SOL    HW220346   0.311   1.959   3.647 -0.2559 -0.4695  0.1047
 2905SOL     OW20347   2.341   1.319   1.722  0.2371 -0.2915  0.0638
 2905SOL    HW120348   2.310   1.268   1.647 -2.4102  1.5842 -0.1174
 2905SOL    HW220349   2.288   1.294   1.798  0.7907  2.5066  1.3901
 2906SOL     OW20350   4.365   3.213  11.612 -1.2116 -0.1439 -0.5992
 2906SOL    HW120351   4.455   3.228  11.585 -1.4931 -1.4259 -2.2266
 2906SOL    HW220352   4.385   3.175  11.698  0.2377  3.0782  0.4777
 2907SOL     OW20353   3.580   3.780   5.841 -0.0206 -0.3356 -0.7476
 2907SOL    HW120354   3.530   3.832   5.778 -2.5192 -1.9759 -0.0922
 2907SOL    HW220355   3.542   3.693   5.828  3.1140 -1.0144 -5.3661
 2908SOL     OW20356   4.250   2.120   8.837  0.0889 -0.1567 -0.1285
 2908SOL    HW120357   4.273   2.034   8.801 -1.9004 -0.7256 -0.0179
 2908SOL    HW220358   4.287   2.112   8.925  1.2886  1.1042 -0.5201
 2909SOL     OW20359   4.333   1.385  13.078 -0.0702  0.0586 -0.1951
 2909SOL    HW120360   4.368   1.300  13.053  1.6403  0.8813 -0.5800
 2909SOL    HW220361   4.337   1.434  12.996  0.9251 -0.3385 -0.3791
 2910SOL     OW20362   3.970   3.711  11.259 -0.0387  0.3674  0.3929
 2910SOL    HW120363   3.979   3.661  11.340  1.5142  0.1049  0.0627
 2910SOL    HW220364   4.010   3.646  11.201 -0.6699  0.1698  0.1872
 2911SOL     OW20365   1.455   4.356   4.570 -0.6216 -0.3940 -0.2145
 2911SOL    HW120366   1.543   4.373   4.536 -0.0942  0.9897  1.9045
 2911SOL    HW220367   1.466   4.400   4.654 -1.6935  1.3876 -1.0237
 2912SOL     OW20368   4.248   3.823   1.457  0.0747  0.2523  0.0338
 2912SOL    HW120369   4.279   3.769   1.384  0.5156 -0.2391  0.5851
 2912SOL    HW220370   4.309   3.896   1.469  2.6133 -1.3767 -2.9477
 2913SOL     OW20371   1.643   2.281   7.917 -0.0507 -0.3123 -0.2287
 2913SOL    HW120372   1.607   2.202   7.958 -3.3917  0.6574 -1.3304
 2913SOL    HW220373   1.606   2.284   7.829  0.6226 -1.8175 -0.5658
 2914SOL     OW20374   3.427   4.729  14.265 -0.0777  0.2145 -0.1865
 2914SOL    HW120375   3.463   4.640  14.261 -0.1272  0.2842 -2.0333
 2914SOL    HW220376   3.369   4.718  14.340  1.0807 -2.6111  0.2934
 2915SOL     OW20377   3.494   2.455   7.424  0.1565  0.2307  0.4126
 2915SOL    HW120378   3.447   2.454   7.341 -0.7583  0.7397  0.9106
 2915SOL    HW220379   3.581   2.426   7.399 -0.5225 -1.3641 -0.1293
 2916SOL     OW20380   1.340   4.274   3.649  0.3377 -0.0127  0.2654
 2916SOL    HW120381   1.433   4.291   3.663  0.1883 -0.6650  2.0064
 2916SOL    HW220382   1.301   4.340   3.707 -0.0568 -1.2972  1.4505
 2917SOL     OW20383   2.537   3.610   2.092  0.0966  0.1358  0.7008
 2917SOL    HW120384   2.589   3.690   2.097  1.1138 -0.5307  0.6959
 2917SOL    HW220385   2.451   3.653   2.098 -0.5521 -0.9931 -0.7310
 2918SOL     OW20386   1.508   3.651   6.467  0.1893 -0.3379  0.2957
 2918SOL    HW120387   1.486   3.744   6.466  1.1136 -0.0877  3.6015
 2918SOL    HW220388   1.583   3.651   6.528 -0.2840  1.8968  0.8997
 2919SOL     OW20389   1.438   3.885   1.240 -0.2748 -0.1137  0.3681
 2919SOL    HW120390   1.392   3.969   1.249 -2.7684 -1.2381 -2.2058
 2919SOL    HW220391   1.514   3.907   1.294  0.5307 -1.8016 -0.0951
 2920SOL     OW20392   3.228   0.793   2.984 -0.8411 -0.3705  0.2307
 2920SOL    HW120393   3.143   0.767   3.022 -1.0926 -0.8914 -0.6851
 2920SOL    HW220394   3.264   0.707   2.962 -0.1455  0.3835 -1.5320
 2921SOL     OW20395   1.213   1.940   2.759  0.1079  0.4254  0.4761
 2921SOL    HW120396   1.294   1.983   2.731 -1.4710  2.6080 -0.7255
 2921SOL    HW220397   1.160   2.017   2.778 -0.6420  0.3209 -1.2393
 2922SOL     OW20398   0.457   0.891   8.331 -0.3844  0.5188  0.4658
 2922SOL    HW120399   0.518   0.962   8.312 -0.5729  1.1474  2.2337
 2922SOL    HW220400   0.382   0.891   8.272  1.0741  0.0265 -1.3831
 2923SOL     OW20401   3.652   0.404   6.073  0.2697  0.2556  0.3506
 2923SOL    HW120402   3.709   0.358   6.011  1.1426 -0.7090  1.8749
 2923SOL    HW220403   3.624   0.480   6.022 -0.8452 -1.1928 -1.2005
 2924SOL     OW20404   0.071   2.603   5.180  0.4378  0.3251 -0.3732
 2924SOL    HW120405   0.011   2.675   5.163  1.5298  1.5762  1.0342
 2924SOL    HW220406   0.021   2.524   5.160 -1.4356  0.8615  2.2867
 2925SOL     OW20407   2.444   4.407   3.056  0.6020 -0.4271 -0.3034
 2925SOL    HW120408   2.535   4.435   3.048 -0.4536  2.4197 -2.1451
 2925SOL    HW220409   2.441   4.353   2.977 -0.3785  0.8894 -1.1562
 2926SOL     OW20410   3.696   0.411   8.770 -0.8956 -0.1998 -0.4366
 2926SOL    HW120411   3.773   0.368   8.807  0.4111  2.3597 -0.2068
 2926SOL    HW220412   3.744   0.456   8.701 -0.7054  0.4061  0.0910
 2927SOL     OW20413   3.368   0.576   8.502 -0.5610 -0.3248  0.3058
 2927SOL    HW120414   3.439   0.631   8.469 -0.1526 -0.0729  1.6166
 2927SOL    HW220415   3.345   0.635   8.574 -0.8687 -1.0961  0.8436
 2928SOL     OW20416   4.399   1.693   1.262 -0.5459 -0.0310  0.0390
 2928SOL    HW120417   4.424   1.624   1.324  0.4880  0.2791 -0.0430
 2928SOL    HW220418   4.402   1.758   1.332  3.0579 -0.5484  0.3672
 2929SOL     OW20419   4.443   2.920  15.383 -0.1963  0.1379  0.1348
 2929SOL    HW120420   4.510   2.956  15.326  0.1661 -1.2129 -0.2855
 2929SOL    HW220421   4.367   2.934  15.326  0.7088  0.4161 -1.0026
 2930SOL     OW20422   2.351   4.484  10.801 -0.3230  0.2747  0.3122
 2930SOL    HW120423   2.377   4.573  10.822 -2.4593  1.1003 -0.5815
 2930SOL    HW220424   2.268   4.504  10.760  0.3593 -0.6066 -1.4983
 2931SOL     OW20425   0.636   1.346  11.704 -0.1551  0.4255 -0.1052
 2931SOL    HW120426   0.565   1.402  11.671 -0.2841  1.1422  1.3786
 2931SOL    HW220427   0.602   1.265  11.744  2.1576  0.1497  1.2916
 2932SOL     OW20428   0.609   0.816   6.554 -0.0891  0.1506 -0.1060
 2932SOL    HW120429   0.560   0.898   6.555 -0.9592 -0.3730  0.0165
 2932SOL    HW220430   0.555   0.776   6.622  0.4082  0.2513  0.3459
 2933SOL     OW20431   3.142   0.646   5.526 -0.4266 -0.2668 -0.7142
 2933SOL    HW120432   3.108   0.733   5.505  0.3420  0.6626  1.8770
 2933SOL    HW220433   3.065   0.590   5.512  1.1381 -2.5186 -0.1816
 2934SOL     OW20434   3.578   2.279   3.269 -0.0217 -0.3951  0.4266
 2934SOL    HW120435   3.667   2.313   3.280 -0.4730 -0.1202  3.2068
 2934SOL    HW220436   3.570   2.273   3.174  0.9306 -0.0604  0.3206
 2935SOL     OW20437   3.037   0.486   2.368  0.2081 -0.0575 -0.0386
 2935SOL    HW120438   3.051   0.391   2.366  2.1547  0.1724  2.2868
 2935SOL    HW220439   2.982   0.492   2.446  0.2199 -1.0518  0.0489
 2936SOL     OW20440   3.159   2.442  12.946  0.0458 -0.0334  0.0053
 2936SOL    HW120441   3.087   2.378  12.946  2.2756 -2.5796  1.2441
 2936SOL    HW220442   3.197   2.432  12.859 -0.8250  2.3076 -0.6115
 2937SOL     OW20443   2.547   3.470   6.220  0.2347 -0.0816 -0.8215
 2937SOL    HW120444   2.512   3.454   6.132  0.9847 -2.2392 -0.7448
 2937SOL    HW220445   2.603   3.392   6.228  0.5146  0.0594 -1.3765
 2938SOL     OW20446   2.021   1.876   5.074  0.5362  0.1298 -0.3428
 2938SOL    HW120447   2.081   1.921   5.134  0.8118 -1.8012  0.8295
 2938SOL    HW220448   2.001   1.798   5.127  0.9438 -1.7854 -2.9811
 2939SOL     OW20449   2.478   4.259   1.676 -0.2334  0.0273 -0.5167
 2939SOL    HW120450   2.526   4.308   1.743  1.9508 -2.2226 -0.4573
 2939SOL    HW220451   2.480   4.170   1.710 -0.9924  0.4744  0.7130
 2940SOL     OW20452   0.321   3.987   5.864 -0.3956 -0.0033 -0.1673
 2940SOL    HW120453   0.267   4.049   5.914  1.2857 -0.2398  1.9852
 2940SOL    HW220454   0.407   4.011   5.899  0.1325 -1.5528 -0.4290
 2941SOL     OW20455   2.500   1.967  15.101 -0.4926  0.0090 -0.1122
 2941SOL    HW120456   2.424   2.022  15.082 -0.6700 -0.2319 -0.1018
 2941SOL    HW220457   2.577   2.023  15.099 -0.0250 -0.6244  0.4574
 2942SOL     OW20458   2.616   2.504  12.845  0.0490  0.5377 -0.2868
 2942SOL    HW120459   2.565   2.556  12.908 -1.6130 -0.3594 -0.9253
 2942SOL    HW220460   2.546   2.495  12.781  1.3693  0.0364 -1.6567
 2943SOL     OW20461   4.473   4.391   6.667 -0.3561  0.0133  0.1011
 2943SOL    HW120462   4.509   4.402   6.579 -0.6757 -2.9464 -0.4031
 2943SOL    HW220463   4.519   4.468   6.700  1.9648 -0.6991 -1.5064
 2944SOL     OW20464   2.955   2.318   9.311 -0.2660  0.5398  0.5908
 2944SOL    HW120465   2.988   2.301   9.223 -0.3114 -0.3483  0.7440
 2944SOL    HW220466   2.866   2.350   9.296 -1.6122 -3.1517  0.5465
 2945SOL     OW20467   0.826   1.247   8.935 -0.2824  0.3506 -0.2818
 2945SOL    HW120468   0.888   1.246   9.008  1.0069 -1.2618 -1.4066
 2945SOL    HW220469   0.762   1.311   8.968  1.6174  0.6431  2.8925
 2946SOL     OW20470   0.810   3.002   6.535  0.1157  0.0693 -0.3268
 2946SOL    HW120471   0.760   3.028   6.458  1.0171 -1.0416 -1.2810
 2946SOL    HW220472   0.775   2.913   6.540 -0.0341  0.0962 -0.9948
 2947SOL     OW20473   1.389   2.854  11.801 -0.4279  0.8045 -0.6716
 2947SOL    HW120474   1.472   2.807  11.797  0.2690  1.9257  0.4456
 2947SOL    HW220475   1.373   2.846  11.895 -2.3564  0.6607 -1.0040
 2948SOL     OW20476   3.879   2.942   4.277  0.0479  0.1891  0.3765
 2948SOL    HW120477   3.953   2.979   4.229 -1.6834  3.3908  0.1300
 2948SOL    HW220478   3.901   2.851   4.297  0.4834  0.2741  0.2822
 2949SOL     OW20479   0.514   1.884   2.482  0.2684 -0.1373 -0.6408
 2949SOL    HW120480   0.431   1.931   2.478  0.8270  0.8319 -0.6765
 2949SOL    HW220481   0.488   1.792   2.473  0.6139 -0.2069 -0.9143
 2950SOL     OW20482   0.712   2.935   7.040  0.2558 -1.1243 -0.2730
 2950SOL    HW120483   0.701   3.001   7.109 -0.3175 -0.8305 -0.6387
 2950SOL    HW220484   0.702   2.849   7.081 -1.7904 -1.1799 -0.8896
 2951SOL     OW20485   0.533   1.207   9.231  0.4696  0.2054 -0.2422
 2951SOL    HW120486   0.452   1.238   9.191  0.9878  1.9001 -0.0170
 2951SOL    HW220487   0.585   1.233   9.155 -1.6556  1.8051 -1.1622
 2952SOL     OW20488   1.114   1.920   3.820  0.0922  0.3658  0.1407
 2952SOL    HW120489   1.085   1.862   3.749 -0.3170 -0.2505  0.8107
 2952SOL    HW220490   1.187   1.870   3.856 -0.2447 -0.4094 -0.2446
 2953SOL     OW20491   3.528   0.182  14.487 -0.5917 -0.6287  0.3389
 2953SOL    HW120492   3.460   0.115  14.497 -0.0275 -0.8715  2.5863
 2953SOL    HW220493   3.604   0.147  14.535 -0.0495  1.5511  1.0883
 2954SOL     OW20494   0.777   2.112   1.606 -0.6185 -0.0115  0.2920
 2954SOL    HW120495   0.777   2.208   1.608  2.0413 -0.0302  0.0904
 2954SOL    HW220496   0.820   2.093   1.689 -0.4017  0.4088  0.2788
 2955SOL     OW20497   2.700   1.953   4.377  0.2532  0.8703 -0.3279
 2955SOL    HW120498   2.762   1.911   4.437 -1.5031 -0.8627  0.3031
 2955SOL    HW220499   2.672   2.018   4.441  0.1975  0.2946  0.2328
 2956SOL     OW20500   2.719   1.642   7.118  0.2774 -0.3570  0.0914
 2956SOL    HW120501   2.801   1.595   7.129 -0.2939 -1.4114 -0.1416
 2956SOL    HW220502   2.660   1.580   7.162 -2.0338  1.5551 -0.2606
 2957SOL     OW20503   0.839   3.905  11.427 -0.2184 -0.2489 -0.1663
 2957SOL    HW120504   0.825   3.834  11.490  1.7950 -1.9766 -1.6792
 2957SOL    HW220505   0.803   3.981  11.473  0.1041 -0.7408  0.9091
 2958SOL     OW20506   1.658   2.051   0.354 -0.1958 -0.8277 -0.3073
 2958SOL    HW120507   1.625   2.063   0.443  2.4937  1.4931  0.3686
 2958SOL    HW220508   1.713   1.974   0.371  0.7088 -0.4843 -1.7313
 2959SOL     OW20509   3.129   2.216   5.707 -0.2420  0.0445  0.8675
 2959SOL    HW120510   3.147   2.123   5.695  1.2505  0.5575 -0.9830
 2959SOL    HW220511   3.166   2.238   5.621  0.2902  1.5131  1.4678
 2960SOL     OW20512   1.729   3.488   7.241 -0.0935 -0.1938 -0.6831
 2960SOL    HW120513   1.758   3.544   7.169 -2.4354  4.0157  1.6378
 2960SOL    HW220514   1.672   3.553   7.282  0.8928 -0.8025  1.6174
 2961SOL     OW20515   4.536   2.997   4.302 -0.1513 -0.3087  0.5009
 2961SOL    HW120516   4.575   3.028   4.383 -0.3143 -0.3009  0.5764
 2961SOL    HW220517   4.585   2.915   4.293 -0.8461 -0.8380  1.6116
 2962SOL     OW20518   0.094   0.676   2.726 -0.2455 -0.0151 -0.5861
 2962SOL    HW120519   0.166   0.627   2.767 -2.0309 -1.3917  0.9444
 2962SOL    HW220520   0.030   0.611   2.698 -0.1037  0.7908 -2.7195
 2963SOL     OW20521   3.719   1.400   6.488 -0.3453 -1.1475  0.1211
 2963SOL    HW120522   3.667   1.454   6.428  0.6403  0.9164  1.1134
 2963SOL    HW220523   3.702   1.437   6.575 -0.2123 -1.2870  0.2071
 2964SOL     OW20524   0.986   1.613   9.091  0.3156 -0.1104  0.0174
 2964SOL    HW120525   1.039   1.534   9.100  2.9794  1.9317  2.2748
 2964SOL    HW220526   1.035   1.662   9.157 -0.9153  2.8809 -1.2899
 2965SOL     OW20527   1.344   1.926  15.075  0.6170 -0.0274  0.0721
 2965SOL    HW120528   1.349   1.831  15.071 -2.0472 -0.2385  1.3504
 2965SOL    HW220529   1.379   1.932  15.164 -3.0099 -0.5602  1.5390
 2966SOL     OW20530   1.127   0.508   4.379 -0.9494  0.4871  0.4200
 2966SOL    HW120531   1.202   0.449   4.369  1.0147  2.7632  1.9210
 2966SOL    HW220532   1.114   0.547   4.292  1.2576  0.1510 -0.0540
 2967SOL     OW20533   4.516   4.080  11.953  0.3352  0.4247  1.0098
 2967SOL    HW120534   4.531   4.128  11.871 -0.0882 -0.0282  0.6695
 2967SOL    HW220535   4.601   4.039  11.963  0.5160  1.0201  1.9733
 2968SOL     OW20536   4.117   0.304  16.543 -0.0745 -0.2597  0.1443
 2968SOL    HW120537   4.186   0.250  16.582  0.2731 -0.0685 -0.2134
 2968SOL    HW220538   4.139   0.395  16.561 -0.0442  0.0381 -1.3971
 2969SOL     OW20539   0.199   1.789   0.400  0.1525 -0.2314 -0.7968
 2969SOL    HW120540   0.227   1.768   0.311  1.7027 -0.5289 -0.2405
 2969SOL    HW220541   0.262   1.852   0.435 -1.1736 -0.4413  1.9691
 2970SOL     OW20542   1.011   3.889   3.531 -0.1843  0.3641  0.0797
 2970SOL    HW120543   0.954   3.939   3.589 -0.0442  1.4022 -0.6792
 2970SOL    HW220544   1.092   3.935   3.511  0.2483 -0.6786 -0.6124
 2971SOL     OW20545   0.500   3.088   3.801  0.0340 -0.2965  0.3324
 2971SOL    HW120546   0.585   3.082   3.757 -0.1267 -2.4046  0.3426
 2971SOL    HW220547   0.487   3.183   3.807  0.2461 -0.0744 -2.5522
 2972SOL     OW20548   2.307   1.821   2.942  0.6539 -0.2605  0.1917
 2972SOL    HW120549   2.375   1.758   2.920 -0.5363 -2.2598  2.2990
 2972SOL    HW220550   2.250   1.820   2.864 -0.3534 -0.3410  0.9322
 2973SOL     OW20551   4.346   0.333   5.704  0.4335  0.0852  0.6817
 2973SOL    HW120552   4.368   0.328   5.611  3.4930  0.5997  1.4008
 2973SOL    HW220553   4.420   0.288   5.743  1.6093  0.7351 -0.8054
 2974SOL     OW20554   2.457   1.037  14.907 -0.3457 -0.1812  0.1244
 2974SOL    HW120555   2.394   1.105  14.885 -0.6791 -0.7815 -0.7650
 2974SOL    HW220556   2.476   1.055  14.999  0.2824  1.2335 -0.2804
 2975SOL     OW20557   0.375   1.843   2.182 -0.5265 -0.1612  0.6398
 2975SOL    HW120558   0.467   1.869   2.183 -0.3856 -0.6015 -0.4633
 2975SOL    HW220559   0.378   1.755   2.144  0.7474  0.4596 -0.7303
 2976SOL     OW20560   1.461   4.097   2.297  0.5630  0.0961  0.6000
 2976SOL    HW120561   1.379   4.069   2.257 -0.0889  0.0388  1.9636
 2976SOL    HW220562   1.523   4.041   2.251  1.1063 -0.2235  1.7241
 2977SOL     OW20563   3.062   1.641   2.437  0.1863  0.3819 -0.3841
 2977SOL    HW120564   2.976   1.674   2.462  1.4023  0.8103  3.2267
 2977SOL    HW220565   3.033   1.595   2.358 -2.2879 -1.0576  1.3450
 2978SOL     OW20566   2.145   1.265  11.541  0.1421  0.3614 -0.1231
 2978SOL    HW120567   2.234   1.235  11.562  0.3165 -0.3491 -1.8764
 2978SOL    HW220568   2.158   1.358  11.559  2.7975 -0.4513  2.1930
 2979SOL     OW20569   1.701   2.348   5.343  0.1539  0.2948  0.2658
 2979SOL    HW120570   1.741   2.365   5.258 -1.6588 -2.3289 -1.1115
 2979SOL    HW220571   1.633   2.413   5.359 -0.5834  0.4696 -3.7176
 2980SOL     OW20572   2.654   4.242  14.693 -0.0922 -0.7163  0.1097
 2980SOL    HW120573   2.630   4.282  14.776  0.1725  2.3683 -1.2749
 2980SOL    HW220574   2.749   4.234  14.702  0.0125 -0.5263 -0.7808
 2981SOL     OW20575   4.603   2.916   6.119  0.2349 -0.6597  0.4096
 2981SOL    HW120576   4.582   2.823   6.114  1.1228 -1.0035  2.9744
 2981SOL    HW220577   4.623   2.923   6.212  1.1380  0.3147  0.1443
 2982SOL     OW20578   3.570   1.196   5.630 -0.4039 -0.3260 -0.4231
 2982SOL    HW120579   3.508   1.223   5.698  0.9313 -0.1346  0.7330
 2982SOL    HW220580   3.515   1.215   5.554 -0.4468 -1.6015 -0.7074
 2983SOL     OW20581   3.255   2.431   6.930  0.3739 -0.5871  0.1453
 2983SOL    HW120582   3.187   2.451   6.866 -0.2159 -4.2192 -0.3176
 2983SOL    HW220583   3.229   2.343   6.955 -0.9917  0.0397  0.8936
 2984SOL     OW20584   0.655   3.774   3.539  0.1302  0.0930  0.5134
 2984SOL    HW120585   0.738   3.791   3.494  1.4376 -2.6597  1.8780
 2984SOL    HW220586   0.643   3.859   3.581 -0.7589 -0.0330  0.5082
 2985SOL     OW20587   1.050   3.989   4.287 -0.2516 -0.1563 -0.2833
 2985SOL    HW120588   1.025   3.922   4.351  0.2376 -0.8618 -0.8239
 2985SOL    HW220589   1.135   3.964   4.250  0.1244  0.9046 -0.1251
 2986SOL     OW20590   1.678   1.256   0.530 -0.4775  0.3546  0.0101
 2986SOL    HW120591   1.681   1.347   0.562 -1.2485 -0.2578  1.8776
 2986SOL    HW220592   1.608   1.212   0.579 -1.1483 -0.9062 -2.0976
 2987SOL     OW20593   2.741   3.978   7.207 -0.0851  0.0549 -0.1805
 2987SOL    HW120594   2.709   3.889   7.191  0.0569 -0.0654  0.2093
 2987SOL    HW220595   2.797   4.005   7.134 -0.0585 -0.7365 -0.4557
 2988SOL     OW20596   0.973   2.526  10.351 -0.0561  0.4065 -0.2362
 2988SOL    HW120597   0.879   2.544  10.352 -0.4629 -1.6812 -1.4593
 2988SOL    HW220598   0.962   2.447  10.404 -0.9145  1.0747  0.5919
 2989SOL     OW20599   2.561   3.929  13.150 -0.4547 -0.3640  0.7634
 2989SOL    HW120600   2.491   3.871  13.119 -0.7484 -0.2251  1.1719
 2989SOL    HW220601   2.546   3.930  13.244 -2.3865  1.5862  0.4577
 2990SOL     OW20602   0.973   2.067  16.877  0.6069  0.5912  0.4370
 2990SOL    HW120603   1.051   2.049  16.928  0.5846 -0.2857  0.1585
 2990SOL    HW220604   0.945   1.984  16.837  0.1994  0.7082  0.4757
 2991SOL     OW20605   0.179   3.121  12.719  0.6158 -0.9675 -0.8039
 2991SOL    HW120606   0.157   3.036  12.681 -1.4549 -0.9469  0.3519
 2991SOL    HW220607   0.170   3.184  12.648 -0.0173 -1.4588 -1.1612
 2992SOL     OW20608   3.109   2.715  12.189 -0.0729 -0.6125  0.3756
 2992SOL    HW120609   3.189   2.665  12.173  2.0879  3.6567 -2.1297
 2992SOL    HW220610   3.083   2.678  12.274 -1.6262 -1.7541 -0.6029
 2993SOL     OW20611   3.054   0.481  12.141 -0.0926 -0.7378 -0.5721
 2993SOL    HW120612   3.116   0.470  12.213 -0.2879  1.4625 -0.0837
 2993SOL    HW220613   3.111   0.520  12.074 -1.4561  2.1429 -0.0405
 2994SOL     OW20614   1.987   0.267   9.458 -0.0439  0.2484  0.3635
 2994SOL    HW120615   1.991   0.309   9.543 -1.5113  1.1126  0.0158
 2994SOL    HW220616   2.079   0.244   9.444 -0.4602 -1.1379 -0.1714
 2995SOL     OW20617   2.193   3.160   4.699  0.2456 -0.3533 -0.7144
 2995SOL    HW120618   2.192   3.105   4.777  1.1348 -1.1413 -1.2575
 2995SOL    HW220619   2.232   3.240   4.735  0.2465  0.8525 -3.4037
 2996SOL     OW20620   1.476   3.919  13.480  0.1162  0.0026 -0.2155
 2996SOL    HW120621   1.475   4.013  13.497 -0.6976 -0.1016  0.3350
 2996SOL    HW220622   1.435   3.887  13.560 -0.8938  1.3354 -0.1785
 2997SOL     OW20623   0.375   3.944   3.416  0.3557 -0.1503  0.2538
 2997SOL    HW120624   0.291   3.982   3.390  0.0372 -2.8753 -2.6587
 2997SOL    HW220625   0.399   3.904   3.333 -1.8694 -0.0770 -0.4353
 2998SOL     OW20626   0.372   2.828  10.778 -0.0824  0.2039 -0.0573
 2998SOL    HW120627   0.350   2.876  10.698 -2.3103 -0.8093 -0.0304
 2998SOL    HW220628   0.441   2.881  10.818 -0.6995  0.6918  0.3675
 2999SOL     OW20629   4.293   4.487  11.480  0.1185  0.1899  0.6208
 2999SOL    HW120630   4.235   4.508  11.554 -1.4705  0.4409 -0.6969
 2999SOL    HW220631   4.255   4.553  11.423 -2.5965 -1.1811  0.8333
 3000SOL     OW20632   2.728   3.477   0.440  0.2728 -0.6970 -0.1443
 3000SOL    HW120633   2.665   3.442   0.377  1.3232 -0.2224 -1.4359
 3000SOL    HW220634   2.692   3.566   0.436 -5.4110 -3.0421 -0.7307
 3001SOL     OW20635   1.088   1.723   5.808 -0.1300 -0.5568  0.5944
 3001SOL    HW120636   1.040   1.642   5.791  0.5259 -1.3140  2.3430
 3001SOL    HW220637   1.095   1.739   5.902 -0.6716 -1.8664  0.8523
 3002SOL     OW20638   3.675   3.502   5.418 -0.0448 -0.5761  0.1625
 3002SOL    HW120639   3.754   3.462   5.381 -1.0777 -1.1186 -1.4235
 3002SOL    HW220640   3.627   3.524   5.339  1.9219 -0.1231 -0.9226
 3003SOL     OW20641   2.094   1.870   9.701 -0.4078  0.0677 -0.2024
 3003SOL    HW120642   2.057   1.851   9.787 -1.0653  1.1524 -0.2410
 3003SOL    HW220643   2.177   1.897   9.741  0.5988 -0.5964 -1.8283
 3004SOL     OW20644   1.589   4.555   7.778  0.1331  0.8745  0.6068
 3004SOL    HW120645   1.550   4.633   7.739 -1.3577 -0.5543 -0.7776
 3004SOL    HW220646   1.530   4.548   7.853  0.7612 -2.6920  0.7833
 3005SOL     OW20647   0.188   3.716   1.977 -0.1802 -0.0254 -0.3840
 3005SOL    HW120648   0.241   3.778   1.926  0.5002 -0.4153 -0.1431
 3005SOL    HW220649   0.098   3.743   1.955  0.0838  0.8209 -0.4298
 3006SOL     OW20650   4.302   4.149  11.593  0.3712 -1.0163  0.2293
 3006SOL    HW120651   4.336   4.064  11.620  1.4440  0.0026  2.0418
 3006SOL    HW220652   4.213   4.145  11.626  0.2694  0.9813  0.1875
 3007SOL     OW20653   1.423   0.911   9.292  0.0637 -0.8315 -0.0674
 3007SOL    HW120654   1.490   0.978   9.277 -0.2419  0.3646  3.7448
 3007SOL    HW220655   1.343   0.964   9.284  0.8478  0.3758  0.1863
 3008SOL     OW20656   3.580   0.452   9.317  0.2745 -0.2621  0.4958
 3008SOL    HW120657   3.490   0.464   9.347  0.3046  0.1868  0.4002
 3008SOL    HW220658   3.571   0.420   9.227  1.4620  2.1179 -0.4546
 3009SOL     OW20659   2.982   3.992   9.417  0.0719 -0.0735  0.4702
 3009SOL    HW120660   3.057   3.987   9.358 -0.7484  2.0708 -0.7309
 3009SOL    HW220661   3.003   4.075   9.460 -0.6318 -0.0379  0.7356
 3010SOL     OW20662   1.397   4.236   5.217 -0.3216 -0.1493  0.1210
 3010SOL    HW120663   1.477   4.240   5.165 -0.5001 -0.1387 -0.1539
 3010SOL    HW220664   1.428   4.270   5.301 -1.8016  1.6527 -0.0671
 3011SOL     OW20665   4.609   0.674   8.198 -0.1735 -0.0452  0.0440
 3011SOL    HW120666   4.698   0.640   8.208  0.1536  0.5898 -0.7228
 3011SOL    HW220667   4.626   0.767   8.210 -0.7961  0.1320 -0.4865
 3012SOL     OW20668   1.182   4.436  14.504  0.8339  0.2744 -0.6878
 3012SOL    HW120669   1.110   4.386  14.465 -2.2421  1.3251  3.7003
 3012SOL    HW220670   1.256   4.376  14.490 -0.5664 -1.0023 -2.6048
 3013SOL     OW20671   2.553   2.588   3.915 -0.2301  0.5165  0.0246
 3013SOL    HW120672   2.598   2.655   3.967 -1.7489  1.8196 -0.3238
 3013SOL    HW220673   2.538   2.523   3.983 -2.1967 -0.2368 -1.1354
 3014SOL     OW20674   0.129   2.528  17.341 -0.1537  0.7163  0.8074
 3014SOL    HW120675   0.188   2.604  17.334 -0.1800  0.7885  1.3628
 3014SOL    HW220676   0.068   2.548  17.270 -1.3536 -0.9447  1.3793
 3015SOL     OW20677   1.418   3.684   3.561 -0.5526 -0.1860 -0.4483
 3015SOL    HW120678   1.441   3.725   3.478  1.8168  0.7506  0.6739
 3015SOL    HW220679   1.359   3.748   3.600  0.1561 -1.9864  3.6110
 3016SOL     OW20680   0.604   3.246  17.679  0.4090  0.0376  0.5693
 3016SOL    HW120681   0.600   3.192  17.600 -1.6525  1.1075 -0.0589
 3016SOL    HW220682   0.523   3.218  17.722 -1.5828  0.2385 -3.0319
 3017SOL     OW20683   3.686   1.607   7.121  0.2044 -0.5471  0.8847
 3017SOL    HW120684   3.627   1.575   7.190  0.0191  0.6937  1.2915
 3017SOL    HW220685   3.655   1.695   7.100  0.1228 -0.6002  0.7855
 3018SOL     OW20686   0.145   4.623   8.692 -0.2993 -0.1830 -0.5376
 3018SOL    HW120687   0.191   4.673   8.760 -1.2213  1.9526 -1.4910
 3018SOL    HW220688   0.219   4.571   8.661 -0.0145 -0.5667  0.7612
 3019SOL     OW20689   0.126   3.176   4.972 -0.3501  0.0919  0.6134
 3019SOL    HW120690   0.061   3.110   4.948  1.1820 -1.8045  1.6460
 3019SOL    HW220691   0.182   3.139   5.040 -0.0446  2.2400  1.5552
 3020SOL     OW20692   2.504   2.361   4.099 -0.2386  0.1064 -0.2367
 3020SOL    HW120693   2.567   2.307   4.051  1.2265  2.1818 -0.6303
 3020SOL    HW220694   2.510   2.330   4.190  0.6324  2.2537  0.4241
 3021SOL     OW20695   4.519   3.577   2.160  0.1963 -0.2760 -0.2328
 3021SOL    HW120696   4.424   3.583   2.172  0.0872 -1.4418 -0.5081
 3021SOL    HW220697   4.550   3.667   2.170 -2.8352  0.6905  0.5570
 3022SOL     OW20698   3.602   2.332   9.175  0.2687 -0.0933  1.1937
 3022SOL    HW120699   3.587   2.247   9.134  1.6755 -0.3411  1.1913
 3022SOL    HW220700   3.639   2.377   9.099 -2.2914 -0.4671 -0.2570
 3023SOL     OW20701   4.222   3.659   5.675  0.0768 -0.2829  0.3002
 3023SOL    HW120702   4.258   3.579   5.635  1.0830  0.9076 -1.1634
 3023SOL    HW220703   4.275   3.723   5.628  0.0437 -1.9039 -1.9513
 3024SOL     OW20704   4.004   4.056   7.232  0.3350 -0.3982  0.0949
 3024SOL    HW120705   3.990   4.041   7.138  0.3899 -2.7648  0.4628
 3024SOL    HW220706   3.920   4.083   7.269  0.5634 -1.7207  1.5851
 3025SOL     OW20707   0.723   3.843   9.383 -0.6824  0.6245  0.2545
 3025SOL    HW120708   0.724   3.748   9.392 -1.6183  0.5891  0.0845
 3025SOL    HW220709   0.627   3.850   9.386 -0.5388  1.8913  1.6938
 3026SOL     OW20710   3.348   2.348   1.735 -0.5800 -0.2829  0.4428
 3026SOL    HW120711   3.354   2.438   1.701 -3.1120  0.4465  1.9184
 3026SOL    HW220712   3.304   2.311   1.659 -2.1114  0.0452  1.1664
 3027SOL     OW20713   3.837   0.308   9.446 -0.2188 -0.3573 -0.9051
 3027SOL    HW120714   3.758   0.356   9.470 -0.1813 -0.1152 -1.2744
 3027SOL    HW220715   3.902   0.350   9.501  0.9916 -0.6174 -2.1413
 3028SOL     OW20716   2.483   1.535   0.541 -0.6646 -0.2762  0.4415
 3028SOL    HW120717   2.444   1.595   0.477  2.7310 -0.5088 -1.9151
 3028SOL    HW220718   2.411   1.516   0.600 -0.1825  1.6345  1.6110
 3029SOL     OW20719   1.742   3.086  11.853  0.0704 -0.2517  0.0232
 3029SOL    HW120720   1.800   3.140  11.799 -1.0121  2.0078  1.1277
 3029SOL    HW220721   1.754   3.006  11.802  0.9974 -0.0155 -0.1397
 3030SOL     OW20722   1.417   3.454  15.762 -0.0350  0.0590  0.4081
 3030SOL    HW120723   1.338   3.487  15.806 -2.1288 -0.5294 -2.8860
 3030SOL    HW220724   1.396   3.439  15.670  1.4393  0.6405 -0.0260
 3031SOL     OW20725   2.338   0.606   4.441 -0.4108 -0.4400  0.4507
 3031SOL    HW120726   2.301   0.669   4.378 -1.3109 -2.8076 -1.3737
 3031SOL    HW220727   2.264   0.595   4.499 -1.2580 -0.6592 -0.6730
 3032SOL     OW20728   2.007   2.180   3.807 -0.4138  0.0295 -0.3862
 3032SOL    HW120729   2.061   2.199   3.884  0.3498 -1.9702 -0.4477
 3032SOL    HW220730   1.988   2.266   3.770  1.4420  0.1011 -1.1698
 3033SOL     OW20731   1.713   0.543   8.404 -0.2511  0.1000 -0.0065
 3033SOL    HW120732   1.751   0.462   8.436  0.7059  0.5918  0.1072
 3033SOL    HW220733   1.729   0.545   8.310  0.7607  0.3426  0.1679
 3034SOL     OW20734   3.188   4.194   3.913  0.1609 -0.2527  0.3303
 3034SOL    HW120735   3.226   4.282   3.921 -1.6444  0.4684  1.1323
 3034SOL    HW220736   3.177   4.189   3.818 -0.2641  2.3042  0.2353
 3035SOL     OW20737   4.419   0.353  16.368 -0.2588  0.1696 -0.4153
 3035SOL    HW120738   4.493   0.413  16.357  1.0241 -1.5011 -0.7760
 3035SOL    HW220739   4.347   0.415  16.384 -0.9711 -0.1189 -2.5895
 3036SOL     OW20740   0.058   2.526   7.727 -0.3385 -0.2028 -0.3181
 3036SOL    HW120741   0.025   2.541   7.816 -0.1243  0.8893 -0.4232
 3036SOL    HW220742   0.085   2.615   7.704  3.0090 -1.7249 -2.2458
 3037SOL     OW20743   1.672   4.632   6.929 -0.0970  0.1681  0.4423
 3037SOL    HW120744   1.640   4.640   7.019  0.8884  2.7793  0.5759
 3037SOL    HW220745   1.706   4.722   6.925 -0.7476  0.4411  0.9603
 3038SOL     OW20746   4.463   2.418   6.758 -0.2762  0.0246 -0.9469
 3038SOL    HW120747   4.482   2.324   6.758 -1.1138 -0.1306 -2.9718
 3038SOL    HW220748   4.523   2.448   6.827 -1.4880 -0.7401  0.4568
 3039SOL     OW20749   4.231   1.918   1.851 -0.4794  0.2284 -0.4476
 3039SOL    HW120750   4.275   1.834   1.858 -0.5284  0.1442 -1.0755
 3039SOL    HW220751   4.175   1.921   1.928  0.1263  1.4018 -0.0425
 3040SOL     OW20752   3.927   0.282   6.263  0.8423 -0.5343 -0.1149
 3040SOL    HW120753   3.950   0.344   6.194 -0.1529 -1.1139 -0.9682
 3040SOL    HW220754   3.850   0.316   6.308  0.8475  0.4927 -0.9022
 3041SOL     OW20755   0.588   2.191   2.904  0.3220  0.1374 -0.0379
 3041SOL    HW120756   0.673   2.155   2.929 -1.0257 -0.6309  3.3880
 3041SOL    HW220757   0.577   2.143   2.822  1.7146  0.0592 -0.1879
 3042SOL     OW20758   1.717   2.485  12.553 -0.4696  0.2809  0.2505
 3042SOL    HW120759   1.810   2.506  12.557  0.6068 -4.7671  0.9984
 3042SOL    HW220760   1.699   2.497  12.646 -1.5443 -0.2322  0.1081
 3043SOL     OW20761   3.288   2.138   6.989 -0.4060 -0.1146  0.3326
 3043SOL    HW120762   3.345   2.169   6.919 -1.0978  0.8659  0.1944
 3043SOL    HW220763   3.203   2.164   6.953 -0.6227  0.4928  1.2960
 3044SOL     OW20764   4.296   2.801   8.968 -0.0039  0.2035 -0.5741
 3044SOL    HW120765   4.245   2.729   8.931  0.3613 -0.6097  0.4850
 3044SOL    HW220766   4.253   2.820   9.052 -2.6811 -1.2639 -1.6072
 3045SOL     OW20767   1.560   4.596   9.883  0.3347 -0.0527 -0.2075
 3045SOL    HW120768   1.469   4.577   9.905  0.5253  1.1696  1.6440
 3045SOL    HW220769   1.602   4.533   9.942 -2.8851 -0.2662  1.8507
 3046SOL     OW20770   4.139   2.664   6.615  0.4815 -0.2072 -0.8388
 3046SOL    HW120771   4.146   2.571   6.634 -0.0355 -0.3027 -1.1293
 3046SOL    HW220772   4.230   2.677   6.587  0.1198 -0.6094 -2.2146
 3047SOL     OW20773   0.127   0.504  17.003  0.8642  0.0739  0.0502
 3047SOL    HW120774   0.139   0.415  17.034 -2.0681 -0.7223 -1.1129
 3047SOL    HW220775   0.213   0.546  17.007  0.4660  0.8755  0.3028
 3048SOL     OW20776   3.474   0.163   6.067  0.0794  0.0655 -0.4136
 3048SOL    HW120777   3.537   0.225   6.104 -1.1405  2.3956 -2.1817
 3048SOL    HW220778   3.491   0.170   5.973  0.9143 -0.4823 -0.3009
 3049SOL     OW20779   4.467   1.750   0.992  0.3426 -0.3997 -0.1683
 3049SOL    HW120780   4.535   1.705   0.942  2.0886  0.2894  1.5828
 3049SOL    HW220781   4.460   1.704   1.075  0.3245 -1.1548 -0.5920
 3050SOL     OW20782   1.182   4.728  14.565  0.2927 -0.4234 -0.2700
 3050SOL    HW120783   1.179   0.064  14.501  0.5235  1.1648  1.5000
 3050SOL    HW220784   1.161   4.650  14.514 -0.8710 -0.9686  1.0367
 3051SOL     OW20785   0.237   4.333   6.633  0.5720  0.4582 -0.0154
 3051SOL    HW120786   0.216   4.293   6.549 -0.0914  0.5775  0.0935
 3051SOL    HW220787   0.152   4.329   6.677 -0.0546  1.2969 -1.1736
 3052SOL     OW20788   2.869   1.536  14.360  0.2879  0.2479 -0.8588
 3052SOL    HW120789   2.797   1.529  14.298  1.5466 -3.8081 -1.7984
 3052SOL    HW220790   2.834   1.609  14.412  1.6206  0.3166 -0.0314
 3053SOL     OW20791   2.577   1.189   7.398  0.3522  0.1452 -0.2346
 3053SOL    HW120792   2.544   1.099   7.396 -0.2497  0.3590 -0.0125
 3053SOL    HW220793   2.671   1.174   7.386  0.3559  0.8267 -1.0358
 3054SOL     OW20794   4.270   0.948   7.590  0.1012 -0.0194 -0.6196
 3054SOL    HW120795   4.319   0.990   7.660  1.9436 -1.8317 -0.8331
 3054SOL    HW220796   4.203   1.009   7.557  0.1702  0.1437 -0.4529
 3055SOL     OW20797   2.070   3.635   8.059  0.3554  0.1600  0.1335
 3055SOL    HW120798   2.044   3.640   7.967 -1.9660  0.4836  0.7907
 3055SOL    HW220799   1.986   3.622   8.103  1.4667 -2.2865  1.5086
 3056SOL     OW20800   1.819   0.188   3.961 -0.8705 -0.2006 -0.1475
 3056SOL    HW120801   1.898   0.157   3.917  0.9935  3.2955  0.6974
 3056SOL    HW220802   1.818   0.114   4.021 -0.3807 -1.6448 -1.9287
 3057SOL     OW20803   0.853   4.390   8.507 -0.5210  0.0285  0.3424
 3057SOL    HW120804   0.946   4.367   8.504 -1.5006 -3.9273 -0.5890
 3057SOL    HW220805   0.859   4.483   8.527 -2.9035  0.0314  1.0503
 3058SOL     OW20806   3.274   4.009   7.225  0.2508  0.6137  0.0684
 3058SOL    HW120807   3.243   4.096   7.248  1.4426  1.0044  0.1985
 3058SOL    HW220808   3.367   4.028   7.209 -0.0460  1.4510 -0.6366
 3059SOL     OW20809   2.271   2.970  16.194  0.0688 -0.1987 -0.3777
 3059SOL    HW120810   2.211   2.936  16.127  0.5798  1.0981 -1.4891
 3059SOL    HW220811   2.294   3.050  16.147 -0.9704  0.2091 -0.1752
 3060SOL     OW20812   1.517   2.842   4.171 -0.9489 -0.0617  0.1546
 3060SOL    HW120813   1.582   2.880   4.231  0.2729  1.1644 -1.9597
 3060SOL    HW220814   1.505   2.755   4.210  0.4113 -0.1050  0.4838
 3061SOL     OW20815   4.423   1.138   8.171  0.1840 -0.4008  0.0750
 3061SOL    HW120816   4.385   1.156   8.084  0.3447 -2.0404 -0.3392
 3061SOL    HW220817   4.347   1.101   8.215  0.2199 -1.4850 -0.7649
 3062SOL     OW20818   0.533   4.038   6.046 -0.1502  0.4015  0.4560
 3062SOL    HW120819   0.600   3.972   6.029 -1.1782 -0.3757 -0.5672
 3062SOL    HW220820   0.594   4.095   6.092 -0.3855  1.9138 -1.0924
 3063SOL     OW20821   2.143   2.134   9.210  0.7478  0.2207 -0.0843
 3063SOL    HW120822   2.143   2.038   9.208 -0.0500  0.2640 -1.8075
 3063SOL    HW220823   2.128   2.160   9.301  4.9119  1.0263  0.3719
 3064SOL     OW20824   0.266   3.274  11.905  0.2975 -0.2008  0.2237
 3064SOL    HW120825   0.304   3.252  11.990  2.1017 -1.6297 -0.9482
 3064SOL    HW220826   0.329   3.221  11.854  1.7108  0.7807  0.9449
 3065SOL     OW20827   1.034   4.587  17.643 -0.4490 -0.3998 -0.6019
 3065SOL    HW120828   1.015   4.656  17.706 -1.2200 -2.6557  1.6469
 3065SOL    HW220829   0.978   4.514  17.670 -1.1723  0.7093  0.9182
 3066SOL     OW20830   4.657   4.619  15.872 -0.3962 -0.5976  0.3798
 3066SOL    HW120831   4.574   4.572  15.881 -0.4731 -0.5776 -0.2450
 3066SOL    HW220832   4.636   4.671  15.794 -2.0777 -0.8203  0.6863
 3067SOL     OW20833   1.315   0.618   4.667 -0.4378  0.3491 -0.3451
 3067SOL    HW120834   1.272   0.639   4.750  0.6111 -1.7969  0.7191
 3067SOL    HW220835   1.295   0.691   4.607 -2.5119  0.2906  0.2697
 3068SOL     OW20836   1.881   4.141   2.308  0.2352 -0.4147 -0.0850
 3068SOL    HW120837   1.787   4.123   2.311  0.2435 -0.1610  1.7688
 3068SOL    HW220838   1.899   4.203   2.378 -1.8858 -0.5891  0.6399
 3069SOL     OW20839   2.017   3.368  13.525 -0.1355 -0.0304  0.8897
 3069SOL    HW120840   2.044   3.397  13.612 -2.6538  1.2189  1.2530
 3069SOL    HW220841   1.963   3.442  13.497 -0.9959 -0.7936  0.5014
 3070SOL     OW20842   1.304   1.659   1.950  0.3183 -0.1439 -0.7530
 3070SOL    HW120843   1.383   1.697   1.912  1.4229 -0.5285  1.1563
 3070SOL    HW220844   1.261   1.738   1.984  2.2202  0.6714 -0.2252
 3071SOL     OW20845   1.537   4.723  12.966  0.0473 -0.2567 -0.1839
 3071SOL    HW120846   1.466   0.005  13.028  1.4764  1.4834  0.9353
 3071SOL    HW220847   1.514   0.031  12.884 -0.6471  1.1014  0.7298
 3072SOL     OW20848   2.865   0.934   5.606  0.2063 -0.4884 -0.5762
 3072SOL    HW120849   2.909   0.925   5.521 -1.3342 -1.2665 -1.2814
 3072SOL    HW220850   2.798   0.866   5.596 -1.1409  0.7871 -0.1656
 3073SOL     OW20851   3.786   1.454  12.941 -0.1060 -0.0987 -0.1697
 3073SOL    HW120852   3.838   1.485  12.868  0.1728 -1.3388 -0.5009
 3073SOL    HW220853   3.841   1.466  13.019 -0.1106 -1.3668  0.0409
 3074SOL     OW20854   4.179   0.427   8.754 -0.2392 -0.2162  0.2690
 3074SOL    HW120855   4.265   0.448   8.790 -0.6468  1.8462  0.0906
 3074SOL    HW220856   4.188   0.334   8.732 -1.2920 -0.2557 -0.0008
 3075SOL     OW20857   1.777   0.226   2.068  0.2333  0.1056 -0.4847
 3075SOL    HW120858   1.856   0.266   2.033  0.8868 -2.1263 -1.5844
 3075SOL    HW220859   1.811   0.136   2.068 -0.9039 -0.2937 -3.9300
 3076SOL     OW20860   0.106   1.756   2.320  0.4506 -0.0255 -0.3206
 3076SOL    HW120861   0.176   1.820   2.324  0.1635  0.2097  0.8042
 3076SOL    HW220862   0.077   1.750   2.411  0.1427 -0.8860 -0.4726
 3077SOL     OW20863   2.274   1.476   6.052 -0.1178  0.0613 -0.3550
 3077SOL    HW120864   2.197   1.446   6.005  0.7981  0.0459 -1.8464
 3077SOL    HW220865   2.227   1.492   6.134 -0.6515  0.4719 -0.7429
 3078SOL     OW20866   1.105   2.830   5.227  0.1927  0.2164 -0.5581
 3078SOL    HW120867   1.093   2.923   5.211  0.1582  0.4371  0.6955
 3078SOL    HW220868   1.063   2.784   5.155  0.3606  0.6194 -0.9093
 3079SOL     OW20869   3.736   3.661   9.682 -0.1009  0.1282  0.4716
 3079SOL    HW120870   3.798   3.595   9.712 -0.7346 -0.7737 -0.2092
 3079SOL    HW220871   3.735   3.634   9.590 -0.2165 -1.1751  0.8665
 3080SOL     OW20872   2.931   1.516   7.187  0.2624  0.1121  0.4706
 3080SOL    HW120873   2.945   1.430   7.228 -3.4891 -0.3515  0.7208
 3080SOL    HW220874   3.022   1.547   7.193 -0.2002  1.7878 -1.2393
 3081SOL     OW20875   1.465   4.557   5.052 -0.3109 -0.0871  0.4082
 3081SOL    HW120876   1.434   4.646   5.034  0.0827 -0.1756 -0.7217
 3081SOL    HW220877   1.505   4.528   4.970 -1.8736  1.3758 -0.9017
 3082SOL     OW20878   0.431   0.633  11.504 -0.4762 -0.1350 -0.3482
 3082SOL    HW120879   0.414   0.716  11.549 -1.2268 -0.8672  0.7085
 3082SOL    HW220880   0.512   0.651  11.455 -1.5651  0.5423 -1.8935
 3083SOL     OW20881   2.435   0.933   7.109 -0.0607 -0.5263  0.7643
 3083SOL    HW120882   2.512   0.889   7.074  0.2978  2.8933 -2.7921
 3083SOL    HW220883   2.459   0.936   7.201 -1.8978 -2.1962  1.2795
 3084SOL     OW20884   2.309   3.207  15.952 -0.2398 -0.3276  0.2395
 3084SOL    HW120885   2.386   3.263  15.959 -0.8683  0.7384 -1.5087
 3084SOL    HW220886   2.283   3.219  15.861  0.5682  0.2857  0.0870
 3085SOL     OW20887   0.713   4.172   5.048 -0.4030  0.8054 -0.2860
 3085SOL    HW120888   0.623   4.150   5.025 -0.2051 -0.2493 -0.0283
 3085SOL    HW220889   0.719   4.187   5.142  1.4429  0.8782 -0.4134
 3086SOL     OW20890   1.769   2.324   8.219 -0.3551 -0.0087  0.3149
 3086SOL    HW120891   1.728   2.318   8.305 -1.1721 -0.0784 -0.0753
 3086SOL    HW220892   1.748   2.415   8.197 -0.9995  0.0235  1.0595
 3087SOL     OW20893   2.393   2.076  17.138  0.2265  0.3871 -0.4449
 3087SOL    HW120894   2.364   2.127  17.063  0.0702  3.2896  1.5803
 3087SOL    HW220895   2.427   2.148  17.192 -0.3315 -1.0372  1.7939
 3088SOL     OW20896   0.305   3.700   9.148  0.2098 -0.1866  0.3567
 3088SOL    HW120897   0.217   3.737   9.156 -0.1739 -1.0849  0.3615
 3088SOL    HW220898   0.284   3.607   9.142  0.5174 -0.1855 -0.7470
 3089SOL     OW20899   1.375   2.480  13.370  0.0303  0.1607  0.7042
 3089SOL    HW120900   1.298   2.532  13.394 -1.9395 -1.2782 -2.5411
 3089SOL    HW220901   1.334   2.412  13.317  1.2362  0.3911 -0.5354
 3090SOL     OW20902   3.585   2.988  10.136  0.4140  0.1993 -0.2867
 3090SOL    HW120903   3.521   2.973  10.205  0.6336 -0.1930 -0.1702
 3090SOL    HW220904   3.583   3.084  10.143 -0.4700  0.1134  0.6454
 3091SOL     OW20905   2.413   1.820   7.197 -0.2382  0.7670  0.4982
 3091SOL    HW120906   2.344   1.876   7.233 -0.7740 -0.1124  0.8350
 3091SOL    HW220907   2.481   1.823   7.265  0.0011 -1.6912  0.3604
 3092SOL     OW20908   0.406   1.889   8.224 -0.3620 -0.0068  0.2786
 3092SOL    HW120909   0.392   1.838   8.304  0.6930 -1.3822 -0.4090
 3092SOL    HW220910   0.332   1.950   8.229  0.8147  1.4214  0.2253
 3093SOL     OW20911   3.746   3.988  10.729  0.6909  0.4008  0.2057
 3093SOL    HW120912   3.709   4.064  10.775 -2.7337 -1.3318  0.3366
 3093SOL    HW220913   3.759   4.019  10.640 -1.4211 -0.4156 -0.3909
 3094SOL     OW20914   2.184   1.632   5.510 -0.2222  0.3387 -0.1525
 3094SOL    HW120915   2.255   1.607   5.451  1.0794  3.2304  0.1811
 3094SOL    HW220916   2.179   1.728   5.503  2.3800  0.5450  0.7901
 3095SOL     OW20917   1.340   0.219   9.733  0.2862 -0.1660 -0.1177
 3095SOL    HW120918   1.396   0.149   9.764  0.4675  0.6133  1.2862
 3095SOL    HW220919   1.292   0.227   9.815 -0.2362 -0.8375 -0.3631
 3096SOL     OW20920   1.449   4.516   3.459  0.0321 -0.6182 -0.1716
 3096SOL    HW120921   1.383   4.561   3.513  3.9248 -0.2444  4.3284
 3096SOL    HW220922   1.519   4.576   3.433 -0.7267  0.2160 -0.2908
 3097SOL     OW20923   1.152   1.436   1.584  0.0561 -0.4917 -0.0096
 3097SOL    HW120924   1.077   1.459   1.530  0.6031  2.2011  0.3735
 3097SOL    HW220925   1.131   1.466   1.672 -0.2138 -0.9876  0.0915
 3098SOL     OW20926   0.484   2.075   1.485 -0.2059  0.0066 -0.5635
 3098SOL    HW120927   0.555   2.062   1.423 -0.7265 -0.5265 -1.0447
 3098SOL    HW220928   0.462   1.987   1.519  1.4383  0.0721  0.6614
 3099SOL     OW20929   2.134   3.761   2.464  0.1123 -0.3314  0.6266
 3099SOL    HW120930   2.046   3.739   2.494  0.0639  0.4387  1.0625
 3099SOL    HW220931   2.112   3.778   2.373 -0.8067 -0.0123  0.9065
 3100SOL     OW20932   2.552   0.759   4.495  0.1607 -0.0806  0.0990
 3100SOL    HW120933   2.624   0.715   4.449 -0.5374 -0.0222 -1.0283
 3100SOL    HW220934   2.479   0.700   4.478  2.0067 -2.2634 -0.3849
 3101SOL     OW20935   4.306   0.031   4.364  0.1779 -0.7691  0.3754
 3101SOL    HW120936   4.222   0.051   4.322  0.5282 -0.0239  0.0204
 3101SOL    HW220937   4.345   4.704   4.302  0.8577  0.0318 -0.0118
 3102SOL     OW20938   3.588   3.189  14.668  0.1294  1.1706  0.7472
 3102SOL    HW120939   3.586   3.260  14.732  0.1527  0.1096  1.9369
 3102SOL    HW220940   3.637   3.230  14.597 -1.2259 -1.3511 -1.6772
 3103SOL     OW20941   4.085   1.550   9.452 -0.2577  0.1264 -0.0830
 3103SOL    HW120942   4.169   1.568   9.409 -1.2740  0.9362 -1.7308
 3103SOL    HW220943   4.066   1.640   9.480 -2.8141 -1.0913  2.0587
 3104SOL     OW20944   3.125   3.789   3.796 -0.3133 -0.4504 -0.1032
 3104SOL    HW120945   3.153   3.698   3.803 -0.6763 -0.7813 -2.9547
 3104SOL    HW220946   3.061   3.784   3.725  0.5584 -1.7320 -0.8010
 3105SOL     OW20947   2.007   1.684   9.529 -0.9174 -0.0281  0.0478
 3105SOL    HW120948   2.037   1.753   9.588 -0.4179  0.4789 -0.7871
 3105SOL    HW220949   1.999   1.604   9.579  1.3204  0.8761  1.8717
 3106SOL     OW20950   0.527   1.705   7.444 -0.2704 -0.3817  0.1323
 3106SOL    HW120951   0.578   1.782   7.470 -0.9385 -0.6111  2.1904
 3106SOL    HW220952   0.592   1.641   7.470 -1.7389 -1.5921  0.8419
 3107SOL     OW20953   4.335   4.459  14.182  0.0781 -0.0235 -0.0492
 3107SOL    HW120954   4.411   4.505  14.147  1.0934 -1.2618  0.5278
 3107SOL    HW220955   4.275   4.458  14.108  0.6931  1.6940 -0.5675
 3108SOL     OW20956   1.017   4.727  12.114 -0.5288 -0.0335  0.1422
 3108SOL    HW120957   0.969   0.009  12.195 -0.8774  0.8563 -0.2551
 3108SOL    HW220958   1.015   4.631  12.122  1.6141  0.0377  1.4879
 3109SOL     OW20959   2.457   4.506  15.185 -0.2338  0.0880 -0.7387
 3109SOL    HW120960   2.483   4.414  15.173  0.0830 -0.1395  1.5856
 3109SOL    HW220961   2.517   4.528  15.257 -1.4842 -1.4254  0.7636
 3110SOL     OW20962   0.948   3.550   2.024 -0.3443  0.1565  0.2390
 3110SOL    HW120963   0.896   3.613   1.974 -0.3693  0.2312  0.3587
 3110SOL    HW220964   0.930   3.470   1.975 -0.4521  0.6295 -0.4955
 3111SOL     OW20965   3.174   4.296   0.303  1.1226 -0.6857  0.1067
 3111SOL    HW120966   3.168   4.338   0.389  1.0040  0.1631 -0.3147
 3111SOL    HW220967   3.189   4.207   0.334 -0.8913 -1.0140  0.1636
 3112SOL     OW20968   2.897   3.371   9.057 -0.1513 -0.2824 -0.0890
 3112SOL    HW120969   2.814   3.417   9.060 -0.5703 -1.0759  0.4901
 3112SOL    HW220970   2.895   3.347   8.964  1.5741 -2.5820  0.4619
 3113SOL     OW20971   4.434   2.937   0.284 -0.3240 -0.4032  0.0445
 3113SOL    HW120972   4.371   2.872   0.315 -0.0184 -0.2064  1.0823
 3113SOL    HW220973   4.511   2.911   0.334  0.7169  0.0427 -1.3106
 3114SOL     OW20974   3.328   1.052   3.749  0.2105 -0.2217  0.3683
 3114SOL    HW120975   3.276   1.123   3.711 -0.5974 -1.0105 -0.0168
 3114SOL    HW220976   3.346   1.007   3.667  2.0631 -0.1804  0.7534
 3115SOL     OW20977   0.285   2.454   6.087  0.2706  0.2307  0.0483
 3115SOL    HW120978   0.234   2.531   6.114 -1.6534 -0.4201 -1.8212
 3115SOL    HW220979   0.377   2.474   6.106  0.5133 -0.5121 -0.3728
 3116SOL     OW20980   3.651   1.617   1.405  0.5222  0.6426  0.3737
 3116SOL    HW120981   3.626   1.700   1.446 -2.8763  0.3368 -1.0305
 3116SOL    HW220982   3.736   1.649   1.375  1.0411 -1.8209 -0.7598
 3117SOL     OW20983   0.615   0.301   2.120  0.1430  0.4181 -0.2942
 3117SOL    HW120984   0.531   0.257   2.108 -0.9956  2.2216  1.0270
 3117SOL    HW220985   0.670   0.223   2.120  1.0498  1.0635  0.8149
 3118SOL     OW20986   2.324   1.047   9.269 -0.1648  0.2504 -0.2387
 3118SOL    HW120987   2.290   1.090   9.347  2.8316  1.4077  0.4023
 3118SOL    HW220988   2.279   1.102   9.205  0.5919  0.2238 -0.7950
 3119SOL     OW20989   2.236   3.413   2.261 -0.2555 -0.3018 -0.0679
 3119SOL    HW120990   2.144   3.437   2.253 -0.0193  1.2967  2.0278
 3119SOL    HW220991   2.272   3.482   2.316 -1.2410 -2.1608  2.9169
 3120SOL     OW20992   2.826   3.543   1.663 -0.1928 -0.7134  0.1343
 3120SOL    HW120993   2.776   3.488   1.723 -0.8294 -0.4104 -0.1168
 3120SOL    HW220994   2.812   3.495   1.581 -1.1723  3.3115 -2.0535
 3121SOL     OW20995   4.108   3.862   6.715 -0.4540 -0.8792 -0.2603
 3121SOL    HW120996   4.020   3.825   6.728  0.5437 -2.0884  3.0286
 3121SOL    HW220997   4.106   3.892   6.624 -1.5535  0.3740  0.1804
 3122SOL     OW20998   4.096   3.487   3.254 -0.4690 -0.2488  0.2412
 3122SOL    HW120999   4.134   3.410   3.295 -1.3349  0.3563  2.1746
 3122SOL    HW221000   4.008   3.488   3.292 -0.2384  2.4358  0.7206
 3123SOL     OW21001   3.485   4.107   8.450 -0.0253 -0.2400  0.4401
 3123SOL    HW121002   3.520   4.021   8.473 -3.7768 -1.3146  2.1356
 3123SOL    HW221003   3.428   4.074   8.380 -0.8155 -1.5741  1.7108
 3124SOL     OW21004   3.580   4.525   1.430 -0.4473 -0.1443 -0.2803
 3124SOL    HW121005   3.606   4.456   1.490  2.7412  0.6113 -0.8017
 3124SOL    HW221006   3.493   4.555   1.456 -0.4440 -1.5029  1.2723
 3125SOL     OW21007   0.106   2.581  10.737  0.1079  0.3610 -0.3431
 3125SOL    HW121008   0.152   2.652  10.783 -1.6249  1.4263 -0.2804
 3125SOL    HW221009   0.043   2.631  10.684  0.2753 -0.6415 -1.4860
 3126SOL     OW21010   1.981   4.066  13.456  0.1510 -0.5492 -0.0757
 3126SOL    HW121011   1.912   4.029  13.511  0.7879 -0.5989  0.6897
 3126SOL    HW221012   2.058   4.019  13.487  1.0180  0.9008 -0.0546
 3127SOL     OW21013   2.949   1.690   7.529  0.0448  0.2177  0.7908
 3127SOL    HW121014   2.950   1.667   7.622  0.6179 -1.5889  0.3289
 3127SOL    HW221015   2.888   1.621   7.503 -2.1008  1.2909  2.8939
 3128SOL     OW21016   0.402   3.826   4.406  1.1710 -0.0114 -0.1023
 3128SOL    HW121017   0.426   3.909   4.363  0.7966 -0.1117 -0.5006
 3128SOL    HW221018   0.406   3.767   4.331  0.5039 -1.3556  0.9275
 3129SOL     OW21019   0.051   1.031   8.625 -0.0174 -0.4778  0.0648
 3129SOL    HW121020   0.085   1.052   8.712  0.1351 -1.6711  0.2920
 3129SOL    HW221021   0.087   1.106   8.578  0.4949 -1.2118 -0.7339
 3130SOL     OW21022   1.797   0.883   2.149  0.5585  0.4530 -0.1321
 3130SOL    HW121023   1.871   0.853   2.096  1.6605  0.6312  1.2911
 3130SOL    HW221024   1.833   0.855   2.234 -1.5362  0.1116  0.6509
 3131SOL     OW21025   0.790   1.320   7.373 -0.3990  0.1887 -0.4453
 3131SOL    HW121026   0.786   1.226   7.393  2.1600  0.3610  0.9067
 3131SOL    HW221027   0.709   1.340   7.327  0.3363 -0.5747 -2.0667
 3132SOL     OW21028   1.029   0.262  10.030 -0.5906  0.0107  0.2210
 3132SOL    HW121029   1.011   0.314  10.108 -0.6475  0.4303 -0.0665
 3132SOL    HW221030   1.109   0.219  10.059  0.7169  2.6918  0.5820
 3133SOL     OW21031   1.559   4.308   0.577  0.1347 -0.0074 -0.0116
 3133SOL    HW121032   1.587   4.377   0.638  1.0062 -1.0685  0.7895
 3133SOL    HW221033   1.472   4.336   0.548 -1.1690 -3.0068  0.9649
 3134SOL     OW21034   1.287   2.816   7.632 -0.4508 -0.0716 -0.4465
 3134SOL    HW121035   1.285   2.867   7.551  1.3663 -1.3259 -1.2910
 3134SOL    HW221036   1.372   2.842   7.667 -0.9183  0.4963  0.2504
 3135SOL     OW21037   4.675   1.412   6.167 -0.1669  0.4182 -0.2143
 3135SOL    HW121038   4.731   1.336   6.152  0.6999  0.5659  2.3014
 3135SOL    HW221039   4.728   1.489   6.147  1.2828 -0.2752  1.0146
 3136SOL     OW21040   1.527   1.520  10.316 -0.0602 -0.3636 -0.2170
 3136SOL    HW121041   1.480   1.477  10.388  0.1880 -1.5442 -0.7675
 3136SOL    HW221042   1.503   1.613  10.325  4.2219  0.9279 -2.3021
 3137SOL     OW21043   2.448   3.340   5.664  0.2298 -0.5479  0.5929
 3137SOL    HW121044   2.531   3.389   5.665 -0.2455  0.2840 -0.3899
 3137SOL    HW221045   2.459   3.279   5.591 -0.3855  0.3400 -0.2332
 3138SOL     OW21046   4.545   3.828  15.715  0.0964  0.4380 -0.7059
 3138SOL    HW121047   4.493   3.905  15.695 -1.4448 -0.6835 -1.0418
 3138SOL    HW221048   4.623   3.832  15.659 -0.4126  1.5314 -1.3301
 3139SOL     OW21049   4.106   4.562   4.695  0.2737  0.8367  0.6706
 3139SOL    HW121050   4.134   4.543   4.605  0.7331  0.5873  0.8706
 3139SOL    HW221051   4.118   4.657   4.689 -2.1839  1.0512 -0.9901
 3140SOL     OW21052   3.785   0.150   4.093  0.6081  0.3460 -0.4252
 3140SOL    HW121053   3.812   0.201   4.017  3.3087 -1.5592 -0.7463
 3140SOL    HW221054   3.717   0.207   4.128 -0.7448  0.2191 -2.8457
 3141SOL     OW21055   0.441   3.549   2.710 -0.2377  0.1514  0.4507
 3141SOL    HW121056   0.385   3.558   2.632  1.2521 -0.9805 -0.7529
 3141SOL    HW221057   0.474   3.638   2.718  1.7251 -0.5586  0.1449
 3142SOL     OW21058   2.338   3.346   3.260  0.0628  0.5072  0.5238
 3142SOL    HW121059   2.300   3.433   3.278 -2.5874 -0.4725 -0.3061
 3142SOL    HW221060   2.306   3.296   3.335 -0.4676 -2.4825 -1.7085
 3143SOL     OW21061   2.337   0.307   7.166 -0.0558 -0.1469  0.2627
 3143SOL    HW121062   2.367   0.278   7.080 -0.7160  2.2986 -0.7693
 3143SOL    HW221063   2.416   0.356   7.189 -1.2500  1.3791  1.1290
 3144SOL     OW21064   3.839   3.381   5.194 -0.0957  0.0386 -0.2277
 3144SOL    HW121065   3.883   3.464   5.175  0.0656  0.4365  1.7776
 3144SOL    HW221066   3.808   3.355   5.108 -1.0090 -2.4568  0.8602
 3145SOL     OW21067   2.752   4.467   6.528  0.1013  0.5903  0.3210
 3145SOL    HW121068   2.842   4.451   6.499  0.3942  0.5469  1.2746
 3145SOL    HW221069   2.719   4.380   6.552  2.3893 -0.7411 -1.4009
 3146SOL     OW21070   1.065   2.443   3.746  0.5887 -0.2626  0.5173
 3146SOL    HW121071   1.099   2.362   3.709  0.4224 -0.4408  0.7570
 3146SOL    HW221072   1.014   2.411   3.820 -0.4011 -1.5565 -0.7311
 3147SOL     OW21073   3.725   3.269  16.999  0.0516  0.0193 -0.8693
 3147SOL    HW121074   3.660   3.199  16.993  0.2733 -0.3995  1.7302
 3147SOL    HW221075   3.744   3.261  17.092 -1.4705  1.3290 -0.4462
 3148SOL     OW21076   3.310   1.462   2.860  0.0776 -0.2436 -0.1741
 3148SOL    HW121077   3.236   1.474   2.920  0.4955  2.6119 -0.2365
 3148SOL    HW221078   3.335   1.373   2.887 -0.0703 -0.8194 -1.9225
 3149SOL     OW21079   4.481   1.863   2.411  0.5271  0.1788 -0.4444
 3149SOL    HW121080   4.532   1.789   2.443 -0.1139 -0.3599 -0.6691
 3149SOL    HW221081   4.415   1.823   2.354  1.2261  0.4239 -1.4159
 3150SOL     OW21082   1.030   4.391   4.784 -0.1743 -0.3087  0.0840
 3150SOL    HW121083   1.090   4.365   4.855  0.1874 -1.5419 -0.6674
 3150SOL    HW221084   0.977   4.311   4.782 -2.4851  1.2722 -1.6932
 3151SOL     OW21085   1.724   1.865   1.340 -0.1654  0.0041 -0.2188
 3151SOL    HW121086   1.665   1.894   1.410  0.7129 -0.2281  0.6208
 3151SOL    HW221087   1.752   1.945   1.295  2.0376 -0.1323  0.9232
 3152SOL     OW21088   1.330   3.632   4.563 -0.1662  0.6898  0.0356
 3152SOL    HW121089   1.379   3.575   4.623 -1.9605 -1.4500 -0.5473
 3152SOL    HW221090   1.369   3.609   4.479  0.5655 -1.8265  1.0540
 3153SOL     OW21091   1.433   0.669  16.987 -0.5078  0.7468 -0.7648
 3153SOL    HW121092   1.346   0.629  16.980 -0.1007 -0.6708  2.6364
 3153SOL    HW221093   1.439   0.666  17.082 -1.0564 -1.9631 -0.8028
 3154SOL     OW21094   2.666   4.163  11.689  0.3419  0.7561  0.0615
 3154SOL    HW121095   2.595   4.121  11.738 -0.1333  0.8861 -0.5289
 3154SOL    HW221096   2.732   4.095  11.704 -0.6113  0.0828  1.2312
 3155SOL     OW21097   2.624   4.432   3.436 -0.0358 -0.1452  0.2447
 3155SOL    HW121098   2.710   4.462   3.407  0.1656 -1.3025 -0.3620
 3155SOL    HW221099   2.597   4.507   3.490 -0.5934 -0.1613 -0.0114
 3156SOL     OW21100   3.709   1.885   6.251  0.2681 -0.1569 -0.1055
 3156SOL    HW121101   3.766   1.934   6.192 -0.1540  0.4851  0.0246
 3156SOL    HW221102   3.737   1.924   6.334  0.5894  1.2950 -0.8983
 3157SOL     OW21103   0.061   0.095  16.502 -0.3495 -0.4061  0.5388
 3157SOL    HW121104   4.714   0.127  16.540 -1.2322 -0.3362 -1.4396
 3157SOL    HW221105   0.125   0.135  16.561  0.4087 -1.0111  0.1296
 3158SOL     OW21106   0.458   4.564   8.405 -0.4987  0.0803  0.1835
 3158SOL    HW121107   0.488   4.474   8.396  0.2259 -0.0157  3.6760
 3158SOL    HW221108   0.363   4.562   8.403 -0.5089  1.3316 -0.7172
 3159SOL     OW21109   2.534   2.960  15.529  0.0898 -0.1537 -0.0025
 3159SOL    HW121110   2.482   3.037  15.508 -0.6066 -0.8011 -0.6789
 3159SOL    HW221111   2.581   2.980  15.610  0.3790  1.1791 -0.4966
 3160SOL     OW21112   1.753   3.068   3.997  0.2079  1.0343 -0.2835
 3160SOL    HW121113   1.764   2.975   4.017 -1.4882  0.8756 -0.0351
 3160SOL    HW221114   1.675   3.083   4.051 -0.5923 -0.6334 -0.9673
 3161SOL     OW21115   2.626   3.318  13.583 -0.2308 -0.0731 -0.2028
 3161SOL    HW121116   2.578   3.275  13.512  1.1480 -2.0849  0.1008
 3161SOL    HW221117   2.713   3.279  13.571  0.4474  1.1028  0.8802
 3162SOL     OW21118   0.933   1.712   8.050  0.4301  0.3753 -0.2527
 3162SOL    HW121119   0.880   1.700   8.129 -1.2905 -3.8197 -2.0328
 3162SOL    HW221120   0.967   1.624   8.037  0.8867  0.2740  1.5821
 3163SOL     OW21121   1.150   1.853   1.534  0.4498 -0.8626  0.1820
 3163SOL    HW121122   1.160   1.840   1.629  1.5069  1.1448  0.3353
 3163SOL    HW221123   1.059   1.823   1.524 -0.0265 -0.1345  2.2564
 3164SOL     OW21124   1.174   2.940   3.811  0.0736  0.4907  0.2922
 3164SOL    HW121125   1.151   3.029   3.783  3.3339  0.7127 -1.7182
 3164SOL    HW221126   1.252   2.965   3.861  1.4176  0.9180 -1.9801
 3165SOL     OW21127   0.846   2.629   3.130 -0.0943  0.4339  0.1316
 3165SOL    HW121128   0.759   2.660   3.155  0.7983  0.6061  3.0031
 3165SOL    HW221129   0.902   2.668   3.196 -0.6195  1.2027  0.1267
 3166SOL     OW21130   3.693   0.837   7.599 -0.3737 -0.0562 -0.0093
 3166SOL    HW121131   3.784   0.839   7.627 -0.5397  0.9661  0.4637
 3166SOL    HW221132   3.671   0.744   7.587 -1.9894  0.3434 -0.2130
 3167SOL     OW21133   3.795   2.755   2.078 -0.2768 -0.5297 -0.0158
 3167SOL    HW121134   3.824   2.688   2.017  1.2444  0.2656 -0.1474
 3167SOL    HW221135   3.713   2.717   2.110 -1.0504 -1.7856 -3.5070
 3168SOL     OW21136   0.213   4.309   9.704 -0.2664 -0.8811 -0.1791
 3168SOL    HW121137   0.222   4.338   9.794 -1.0779 -1.1929  0.0013
 3168SOL    HW221138   0.302   4.278   9.688  0.1203 -0.0177  0.3179
 3169SOL     OW21139   0.705   2.280   6.446 -0.2613 -0.3757 -0.0250
 3169SOL    HW121140   0.744   2.249   6.527 -1.7428  0.1285  0.8718
 3169SOL    HW221141   0.785   2.325   6.418  0.3695 -0.2453  2.0217
 3170SOL     OW21142   1.836   2.503  14.679  0.4636  0.0881 -0.0891
 3170SOL    HW121143   1.806   2.537  14.763 -1.7443 -2.3632  0.1381
 3170SOL    HW221144   1.875   2.572  14.626  0.7834  0.1625  0.2446
 3171SOL     OW21145   4.654   3.454   4.318  0.2535 -0.1724  0.4186
 3171SOL    HW121146   4.729   3.513   4.312 -0.7783  1.1758  0.8422
 3171SOL    HW221147   4.673   3.377   4.371  0.2500 -0.6236 -0.2357
 3172SOL     OW21148   1.342   3.810   0.998 -0.8097 -0.4567 -0.3818
 3172SOL    HW121149   1.358   3.839   1.088 -1.0399  0.6946 -0.7028
 3172SOL    HW221150   1.383   3.882   0.950  1.3925 -0.3123  1.7597
 3173SOL     OW21151   0.385   4.139  11.615  0.2210  0.0520 -0.3984
 3173SOL    HW121152   0.295   4.135  11.582  1.2451 -0.8117 -3.1087
 3173SOL    HW221153   0.405   4.047  11.634  0.2374  0.1185 -0.0999
 3174SOL     OW21154   2.940   4.135   4.614 -0.3527 -0.2619 -0.1894
 3174SOL    HW121155   2.845   4.135   4.624 -0.5242  0.0119 -1.9519
 3174SOL    HW221156   2.947   4.206   4.551 -2.9444  2.9051  3.1028
 3175SOL     OW21157   2.943   1.909   7.376 -0.0212 -0.4160  0.3942
 3175SOL    HW121158   3.030   1.938   7.405  0.0926 -0.7518  0.3785
 3175SOL    HW221159   2.933   1.835   7.436  0.9637  0.1722  1.2839
 3176SOL     OW21160   0.211   1.638  11.208 -0.3570  0.2037  0.2707
 3176SOL    HW121161   0.197   1.659  11.115  1.0807 -0.4693 -0.0948
 3176SOL    HW221162   0.287   1.581  11.198  0.7685  1.8339 -0.6275
 3177SOL     OW21163   0.023   0.308   3.621 -0.6003 -0.4808  0.2447
 3177SOL    HW121164   0.101   0.254   3.620 -1.0592 -1.2145  2.7645
 3177SOL    HW221165   4.686   0.247   3.611  0.4643 -1.2799 -2.5348
 3178SOL     OW21166   0.017   1.893   0.890 -0.3110 -0.5202 -0.3545
 3178SOL    HW121167   4.709   1.836   0.827 -1.1325 -0.3027  0.0070
 3178SOL    HW221168   0.107   1.885   0.858  0.6455  0.7967  1.9667
 3179SOL     OW21169   0.058   1.642   6.090  0.5381 -0.1476  0.0037
 3179SOL    HW121170   0.115   1.687   6.153  1.0865 -0.6441 -0.1465
 3179SOL    HW221171   4.729   1.712   6.081  0.4414 -0.0067  1.7394
 3180SOL     OW21172   4.088   1.966   3.346 -0.1600 -0.0562 -0.5734
 3180SOL    HW121173   4.165   1.910   3.351 -0.8785 -1.0007 -0.1589
 3180SOL    HW221174   4.052   1.958   3.434 -1.0760  2.5897 -0.6904
 3181SOL     OW21175   4.427   3.052   8.092  0.2689  0.1529  0.2138
 3181SOL    HW121176   4.358   2.999   8.051  0.3233  0.1445  0.1321
 3181SOL    HW221177   4.432   3.135   8.046  0.6510  1.5862  2.8642
 3182SOL     OW21178   3.833   4.632   1.406  0.3017  0.2468 -0.1635
 3182SOL    HW121179   3.745   4.595   1.400  0.8541 -1.0533 -0.2418
 3182SOL    HW221180   3.833   4.668   1.317  0.2505 -0.0117 -0.2666
 3183SOL     OW21181   4.434   1.031  15.280 -0.3115  0.1245 -0.1606
 3183SOL    HW121182   4.472   0.948  15.309 -0.8640  0.3383  1.1869
 3183SOL    HW221183   4.403   1.060  15.366 -0.6012  0.8602 -0.5118
 3184SOL     OW21184   3.885   1.732  16.205  0.4171  0.2332 -0.4086
 3184SOL    HW121185   3.935   1.788  16.146 -0.8377  2.0435  0.2814
 3184SOL    HW221186   3.832   1.669  16.155 -0.4848  2.0210 -1.6747
 3185SOL     OW21187   1.152   1.398  10.405 -0.4312 -0.6464  0.2723
 3185SOL    HW121188   1.118   1.469  10.459 -1.3195  1.0071 -2.4187
 3185SOL    HW221189   1.151   1.450  10.324  3.4935 -1.0851 -0.0704
 3186SOL     OW21190   1.885   0.457   5.137 -0.1291 -0.3281 -0.4262
 3186SOL    HW121191   1.964   0.464   5.191 -0.9256 -0.0826  0.6916
 3186SOL    HW221192   1.896   0.384   5.076 -0.1921 -1.0117  0.3795
 3187SOL     OW21193   1.723   4.583   8.041  0.3884  0.3124  0.0730
 3187SOL    HW121194   1.730   4.608   7.948 -0.4579  0.0019 -0.0758
 3187SOL    HW221195   1.629   4.566   8.053  1.0589 -1.8025  2.3408
 3188SOL     OW21196   4.548   4.678   2.430 -0.6159 -0.8541  0.5056
 3188SOL    HW121197   4.621   4.729   2.464 -0.0451 -0.6119 -1.0918
 3188SOL    HW221198   4.563   4.684   2.336  0.8317 -2.0519  0.6523
 3189SOL     OW21199   0.964   4.586   8.241  0.0748 -0.0296 -0.2238
 3189SOL    HW121200   0.890   4.582   8.181  0.6667 -0.3868 -0.9217
 3189SOL    HW221201   0.931   4.648   8.307  0.0431  0.5367 -0.7718
 3190SOL     OW21202   2.864   3.798   6.655 -0.3608 -0.4609  0.9574
 3190SOL    HW121203   2.901   3.865   6.598 -0.5950  0.3236  1.7240
 3190SOL    HW221204   2.840   3.733   6.589  2.9654  0.0739 -0.7400
 3191SOL     OW21205   1.380   1.002   7.432  0.3117 -0.0871  0.3285
 3191SOL    HW121206   1.472   1.028   7.443  0.0121  1.8846 -1.9219
 3191SOL    HW221207   1.375   0.989   7.338  0.6400 -0.5222  0.3702
 3192SOL     OW21208   2.781   1.039   4.246  0.1753  0.3007  0.1035
 3192SOL    HW121209   2.691   1.008   4.242 -0.6773  2.7010  0.9679
 3192SOL    HW221210   2.803   1.055   4.337 -0.4917 -0.0331  0.3185
 3193SOL     OW21211   3.895   2.638   0.935  0.6625  0.8711  0.3664
 3193SOL    HW121212   3.969   2.608   0.988 -0.5550 -1.2016  0.8922
 3193SOL    HW221213   3.914   2.600   0.849  1.3236 -0.0568  0.9286
 3194SOL     OW21214   2.547   2.998  10.530 -0.0083  0.3330 -0.0065
 3194SOL    HW121215   2.598   3.026  10.606 -0.4479 -0.5918  0.6316
 3194SOL    HW221216   2.463   3.032  10.561  1.8719  2.9353  2.2318
 3195SOL     OW21217   4.122   1.242  10.707 -0.5247  0.2230 -0.4100
 3195SOL    HW121218   4.130   1.214  10.615 -3.1232  3.2195 -1.5280
 3195SOL    HW221219   4.212   1.270  10.725 -0.4873  0.4277 -0.9011
 3196SOL     OW21220   2.236   2.205   0.914 -0.2546  0.4429  0.2094
 3196SOL    HW121221   2.314   2.211   0.969 -0.2746 -2.1813  0.5197
 3196SOL    HW221222   2.272   2.195   0.825 -0.7447  0.9795 -0.0472
 3197SOL     OW21223   4.497   0.376   1.834 -0.2992 -0.7453 -0.0690
 3197SOL    HW121224   4.431   0.438   1.804 -0.5337 -1.5785 -1.2769
 3197SOL    HW221225   4.536   0.421   1.909  1.4281 -1.4699 -0.5125
 3198SOL     OW21226   0.919   0.114   4.170 -0.1539  0.6498  0.0650
 3198SOL    HW121227   0.902   0.114   4.076 -0.5514  2.0312  0.1262
 3198SOL    HW221228   0.945   0.204   4.188 -1.2716  0.9728  0.1060
 3199SOL     OW21229   3.998   3.845   5.074 -0.3514  0.0394 -0.1358
 3199SOL    HW121230   3.906   3.859   5.093 -0.1974 -0.2252  0.8212
 3199SOL    HW221231   3.993   3.754   5.102 -0.1772  0.2762  0.6717
 3200SOL     OW21232   2.598   4.419   2.308  0.0692 -0.4531 -0.4489
 3200SOL    HW121233   2.549   4.459   2.380  1.3589 -2.1143  1.3281
 3200SOL    HW221234   2.526   4.377   2.260 -1.6996  0.0309  1.7837
 3201SOL     OW21235   1.917   3.829   4.895  0.3305  0.4125 -0.2564
 3201SOL    HW121236   1.988   3.803   4.954  1.3357  0.1148 -1.5935
 3201SOL    HW221237   1.855   3.757   4.905  0.4626  0.0395 -2.0263
 3202SOL     OW21238   3.248   0.696   8.123 -0.3835 -0.1802  0.0471
 3202SOL    HW121239   3.326   0.718   8.175 -0.0200  2.7903 -1.7337
 3202SOL    HW221240   3.272   0.606   8.102  0.2760  0.1488 -0.6151
 3203SOL     OW21241   1.767   2.291   1.403  0.0687  0.2492  0.2345
 3203SOL    HW121242   1.684   2.335   1.385  0.2378  1.3099  2.1107
 3203SOL    HW221243   1.830   2.363   1.399  1.2653 -0.7980  0.2108
 3204SOL     OW21244   0.405   1.506   4.213  0.4180 -0.2169  0.1921
 3204SOL    HW121245   0.371   1.519   4.302  0.8905  0.3265  0.2929
 3204SOL    HW221246   0.347   1.570   4.173  2.4163  0.7970 -1.0314
 3205SOL     OW21247   3.220   1.739   6.852 -0.6276 -0.2449 -0.2718
 3205SOL    HW121248   3.235   1.793   6.929  1.5164 -0.4777 -0.5380
 3205SOL    HW221249   3.124   1.740   6.856 -0.6490 -0.3289 -0.6916
 3206SOL     OW21250   2.335   0.362   2.190 -0.0979  0.6650  0.6729
 3206SOL    HW121251   2.266   0.411   2.236  0.7694  1.9511  0.5882
 3206SOL    HW221252   2.417   0.401   2.220  0.3820 -0.7254  1.1632
 3207SOL     OW21253   1.509   4.061   2.888  0.1118 -0.6760  0.2438
 3207SOL    HW121254   1.525   4.105   2.805  0.7602 -0.5240  0.4518
 3207SOL    HW221255   1.449   4.121   2.932  2.7390  0.5271  2.1507
 3208SOL     OW21256   2.727   4.233  17.085 -0.0802 -0.2862 -0.6268
 3208SOL    HW121257   2.782   4.306  17.057  0.1379 -0.8465 -1.6571
 3208SOL    HW221258   2.785   4.159  17.067 -0.4848 -0.4642 -1.1992
 3209SOL     OW21259   1.881   4.662  10.137 -0.1363  0.3280  0.3485
 3209SOL    HW121260   1.888   4.596  10.068 -1.0091 -0.1470  0.7133
 3209SOL    HW221261   1.787   4.660  10.158 -0.3317  3.4871 -0.1480
 3210SOL     OW21262   4.281   4.471   6.926 -0.1446 -0.7010  0.1523
 3210SOL    HW121263   4.214   4.517   6.876  0.6404  1.5892  1.2421
 3210SOL    HW221264   4.343   4.441   6.859  1.1510 -0.4765  1.2332
 3211SOL     OW21265   0.197   1.827   7.743  0.0386 -0.5363 -0.0966
 3211SOL    HW121266   0.257   1.851   7.815  0.3034 -1.0853 -0.1318
 3211SOL    HW221267   0.150   1.910   7.730 -1.1180 -1.2587 -0.4612
 3212SOL     OW21268   1.331   2.785   8.111  0.3053 -0.3585 -0.2011
 3212SOL    HW121269   1.337   2.849   8.182  0.7617 -1.9594  1.2035
 3212SOL    HW221270   1.278   2.834   8.048  2.7058 -0.3514 -2.2245
 3213SOL     OW21271   2.034   2.322  12.681  0.0902  0.0223 -0.0779
 3213SOL    HW121272   2.000   2.358  12.598  1.7724  0.5575 -0.5447
 3213SOL    HW221273   2.082   2.398  12.715 -0.9841  0.8790 -0.4683
 3214SOL     OW21274   2.278   0.855   1.492  0.0703 -0.4737 -0.1347
 3214SOL    HW121275   2.296   0.770   1.454  1.6267 -0.7967  1.3039
 3214SOL    HW221276   2.233   0.900   1.421  0.5899  1.8274  0.9764
 3215SOL     OW21277   4.503   2.203   7.029  0.3843  0.0568 -0.2388
 3215SOL    HW121278   4.443   2.155   7.087 -1.4711  0.0687 -2.1314
 3215SOL    HW221279   4.586   2.181   7.071  0.0726 -0.8918 -0.1030
 3216SOL     OW21280   1.043   1.595   7.220 -0.2471 -0.4131  0.1818
 3216SOL    HW121281   1.044   1.501   7.240  0.1530 -0.5795 -0.6449
 3216SOL    HW221282   1.130   1.607   7.182 -0.5551 -0.8631 -0.6659
 3217SOL     OW21283   1.588   3.437  13.342  0.2097 -0.6821 -0.3338
 3217SOL    HW121284   1.631   3.448  13.426  1.5705 -2.1963 -0.8156
 3217SOL    HW221285   1.510   3.491  13.342  0.9383  0.3766 -0.7045
 3218SOL     OW21286   4.151   2.953   4.845 -0.2968 -0.0524 -0.4965
 3218SOL    HW121287   4.114   2.937   4.932  0.3721  2.4965  0.2489
 3218SOL    HW221288   4.128   3.046   4.844  0.3663  0.1016 -2.4570
 3219SOL     OW21289   1.837   0.436   3.996 -0.3505  0.2929  0.0407
 3219SOL    HW121290   1.835   0.341   3.993 -0.0132  0.2981 -0.2902
 3219SOL    HW221291   1.836   0.449   3.901 -0.9106 -0.3145 -0.0306
 3220SOL     OW21292   0.005   2.327   6.900  0.4467 -0.4022 -0.0636
 3220SOL    HW121293   0.041   2.258   6.846  1.4480  0.7756 -0.9060
 3220SOL    HW221294   4.670   2.290   6.953  1.6738  1.1222  2.6474
 3221SOL     OW21295   0.904   1.993   5.291 -0.3307 -0.0250 -0.0312
 3221SOL    HW121296   0.892   1.996   5.386  1.1656  4.5742  0.0041
 3221SOL    HW221297   0.817   2.026   5.270  0.0395  0.4668 -0.7778
 3222SOL     OW21298   1.444   4.513   8.032 -0.4501  0.0837  0.0804
 3222SOL    HW121299   1.352   4.535   8.017 -0.2810  0.7853  0.0630
 3222SOL    HW221300   1.424   4.423   8.054  1.4648 -0.9452 -2.3927
 3223SOL     OW21301   3.065   0.644   2.135 -0.1890 -0.3716  0.3205
 3223SOL    HW121302   3.004   0.600   2.076  1.4410 -0.9242 -0.9563
 3223SOL    HW221303   3.048   0.590   2.212 -0.2616 -2.0530 -0.8727
 3224SOL     OW21304   0.098   4.661   2.613 -0.0518 -0.3143 -0.4409
 3224SOL    HW121305   0.106   4.715   2.534 -2.6987 -0.4621 -0.8115
 3224SOL    HW221306   0.132   4.576   2.583 -0.3214 -1.2284  1.8721
 3225SOL     OW21307   2.026   3.244   2.076  0.4407  0.5901  0.3696
 3225SOL    HW121308   2.048   3.178   2.141 -0.8599  0.3787  0.6007
 3225SOL    HW221309   1.934   3.265   2.095 -0.2872 -2.6324  0.2762
 3226SOL     OW21310   3.817   3.946   5.863  0.0478 -0.4529 -0.0443
 3226SOL    HW121311   3.753   3.886   5.824  0.1897 -1.2384  0.9346
 3226SOL    HW221312   3.889   3.920   5.805 -0.3995 -0.2645 -0.6725
 3227SOL     OW21313   1.683   0.942   6.577  0.3556 -0.0232  0.0608
 3227SOL    HW121314   1.631   0.902   6.646  4.1145 -1.9401  1.7799
 3227SOL    HW221315   1.755   0.880   6.568 -1.9165 -2.6659  0.1558
 3228SOL     OW21316   0.151   0.208   1.421 -0.4153  0.0454 -0.4930
 3228SOL    HW121317   0.241   0.188   1.447 -0.4564  2.9954  1.8845
 3228SOL    HW221318   0.167   0.232   1.330 -0.0754 -0.4025 -0.5510
 3229SOL     OW21319   4.535   4.103  10.822  0.8091  0.7832 -1.0177
 3229SOL    HW121320   4.518   4.049  10.745 -2.5568 -0.9661  0.9192
 3229SOL    HW221321   4.450   4.146  10.833  1.0838  0.4098  2.5830
 3230SOL     OW21322   1.966   0.319   0.470 -0.1192  0.6630 -0.2529
 3230SOL    HW121323   2.017   0.399   0.457  2.2135 -1.4596 -4.2400
 3230SOL    HW221324   1.880   0.355   0.493 -0.2638 -1.5552  2.6207
 3231SOL     OW21325   0.480   1.607   6.734 -0.1902  0.0643 -0.3710
 3231SOL    HW121326   0.433   1.531   6.699  0.0325  0.0016 -0.5352
 3231SOL    HW221327   0.413   1.671   6.711 -2.1298 -1.0477  2.1910
 3232SOL     OW21328   4.451   2.564   5.229  0.3958  0.1329 -0.3861
 3232SOL    HW121329   4.443   2.527   5.317 -0.9124 -1.1641 -1.0275
 3232SOL    HW221330   4.365   2.534   5.199  0.2189 -0.7659  0.9771
 3233SOL     OW21331   1.845   3.806   3.188  0.0779  0.0596 -0.1308
 3233SOL    HW121332   1.895   3.739   3.235 -2.3021 -0.6978  1.3211
 3233SOL    HW221333   1.775   3.804   3.253 -0.5570 -1.8996 -0.8805
 3234SOL     OW21334   4.199   2.067   1.139  0.5208 -0.6363  0.1473
 3234SOL    HW121335   4.155   1.982   1.132 -0.5461 -0.0849  0.1137
 3234SOL    HW221336   4.252   2.065   1.059 -0.9565  0.3318 -0.8513
 3235SOL     OW21337   3.412   3.861   9.466  0.5328 -0.2393 -0.3497
 3235SOL    HW121338   3.463   3.913   9.405 -3.8240  3.1789 -1.0119
 3235SOL    HW221339   3.392   3.783   9.414 -0.9213  0.6184 -1.0640
 3236SOL     OW21340   3.598   2.660   7.052 -0.0157 -0.6638 -0.5605
 3236SOL    HW121341   3.652   2.729   7.092  0.6883 -2.4186  1.4947
 3236SOL    HW221342   3.516   2.701   7.079 -1.5642 -2.8959 -1.8645
 3237SOL     OW21343   1.524   1.313   8.265 -0.2332 -0.4094  0.1901
 3237SOL    HW121344   1.519   1.316   8.361  3.7639  0.6916  0.3630
 3237SOL    HW221345   1.434   1.341   8.244  0.0411  1.4238  1.4323
 3238SOL     OW21346   2.476   0.242   8.234 -0.0583  0.8842 -0.1766
 3238SOL    HW121347   2.544   0.178   8.211  0.7585  1.3907  0.8592
 3238SOL    HW221348   2.397   0.206   8.193  0.1176 -0.6923  0.8426
 3239SOL     OW21349   2.524   0.556   4.152  0.3167 -0.0592 -0.5672
 3239SOL    HW121350   2.536   0.471   4.195  1.1734  0.4702  0.2503
 3239SOL    HW221351   2.431   0.568   4.168  0.8257 -0.3160  2.6918
 3240SOL     OW21352   0.322   2.947  10.518  0.5679 -0.3881  0.6865
 3240SOL    HW121353   0.378   2.879  10.481 -0.2469 -0.3994 -0.5222
 3240SOL    HW221354   0.396   3.003  10.542 -0.0045  0.6739 -0.0123
 3241SOL     OW21355   1.077   0.637   8.583  0.5995 -0.4000  0.5661
 3241SOL    HW121356   1.062   0.731   8.593 -0.4443 -0.1408 -3.3419
 3241SOL    HW221357   1.167   0.646   8.553 -0.3143  1.5525 -1.6068
 3242SOL     OW21358   2.036   2.825   7.642 -0.2895  0.4782  0.0657
 3242SOL    HW121359   1.999   2.759   7.701  1.0406  0.0374  0.3964
 3242SOL    HW221360   2.014   2.777   7.562 -0.5652  0.5511  0.0952
 3243SOL     OW21361   1.438   3.224   5.568  0.2219 -0.1239 -0.2449
 3243SOL    HW121362   1.528   3.232   5.598 -0.8723 -1.6633  3.4135
 3243SOL    HW221363   1.457   3.195   5.478 -0.3357 -3.0070  0.5547
 3244SOL     OW21364   1.805   3.845   1.175 -0.0334 -0.2034  0.0333
 3244SOL    HW121365   1.824   3.769   1.230 -0.1974 -0.6539 -0.5288
 3244SOL    HW221366   1.749   3.894   1.236  0.1275  0.1100 -0.0702
 3245SOL     OW21367   1.284   1.516   2.875 -0.4045  0.5729 -0.4034
 3245SOL    HW121368   1.336   1.492   2.952 -2.3763 -1.1935  0.3908
 3245SOL    HW221369   1.211   1.454   2.883  1.3525 -1.7223 -2.3031
 3246SOL     OW21370   4.243   0.312   1.621 -0.2762 -0.2162 -0.2551
 3246SOL    HW121371   4.211   0.269   1.541  2.2431 -1.3791 -0.6209
 3246SOL    HW221372   4.251   0.232   1.673 -1.7980 -1.6300 -2.1528
 3247SOL     OW21373   1.560   1.247   9.331  0.1735 -0.5658 -0.2333
 3247SOL    HW121374   1.481   1.268   9.380  1.1113  2.2014  0.1221
 3247SOL    HW221375   1.589   1.166   9.373  1.0567  0.3611  0.9686
 3248SOL     OW21376   3.555   4.513  15.081 -0.3509  0.2645 -0.1630
 3248SOL    HW121377   3.524   4.570  15.011  0.7438  0.5245 -0.4422
 3248SOL    HW221378   3.650   4.526  15.074 -0.0179 -0.4405  2.7030
 3249SOL     OW21379   2.182   1.319   4.618  0.3776 -0.1861  0.1735
 3249SOL    HW121380   2.109   1.363   4.574 -1.7809 -2.7942  1.1634
 3249SOL    HW221381   2.182   1.343   4.711  0.2664 -0.6843  0.3034
 3250SOL     OW21382   4.458   1.436  14.551 -0.0458  0.6168  0.4492
 3250SOL    HW121383   4.526   1.388  14.503 -0.7684  0.6756 -0.6498
 3250SOL    HW221384   4.449   1.507  14.488  1.8609 -1.0558 -1.7110
 3251SOL     OW21385   4.070   2.165   0.105 -0.4579 -0.2984  0.4747
 3251SOL    HW121386   4.046   2.097   0.168 -0.8445 -1.4805 -0.9591
 3251SOL    HW221387   4.126   2.225   0.154  0.1718 -2.0779  1.9598
 3252SOL     OW21388   1.342   1.389   7.454  0.4611 -0.5748  0.1945
 3252SOL    HW121389   1.433   1.411   7.476  0.2017 -0.3716  1.0729
 3252SOL    HW221390   1.367   1.334   7.380  1.0828  1.1047 -0.8384
 3253SOL     OW21391   3.215   3.427   1.904  0.2449  0.4841 -0.0196
 3253SOL    HW121392   3.186   3.407   1.993  0.6599 -0.4917 -0.1067
 3253SOL    HW221393   3.286   3.365   1.885 -0.2462  0.0451 -0.4316
 3254SOL     OW21394   2.270   0.647   6.065 -0.0127  0.5490  0.1613
 3254SOL    HW121395   2.259   0.634   6.159  0.3379 -1.3095 -0.0470
 3254SOL    HW221396   2.183   0.653   6.025  0.1323 -1.2266 -0.4507
 3255SOL     OW21397   2.305   2.749  12.348  0.3574 -0.1493  0.5831
 3255SOL    HW121398   2.362   2.695  12.403 -0.6091 -2.1116 -0.3385
 3255SOL    HW221399   2.366   2.778  12.279 -1.3544  1.0851 -0.3976
 3256SOL     OW21400   1.769   2.359   3.887  0.3964 -0.0964 -0.8823
 3256SOL    HW121401   1.768   2.341   3.793  0.0804  1.2469 -1.1359
 3256SOL    HW221402   1.810   2.445   3.883 -1.0891  0.7390  1.3269
 3257SOL     OW21403   3.441   0.343   3.103 -0.0404 -0.2046  0.3714
 3257SOL    HW121404   3.536   0.334   3.099 -0.0811 -1.2104  1.7249
 3257SOL    HW221405   3.416   0.271   3.162  0.3012 -1.7258 -1.3161
 3258SOL     OW21406   0.868   2.877   0.370  0.3339 -0.1921  0.1691
 3258SOL    HW121407   0.939   2.903   0.428 -0.9565  2.2998  0.6478
 3258SOL    HW221408   0.856   2.960   0.324 -0.0337  0.6020  1.7168
 3259SOL     OW21409   3.697   1.018   4.401 -0.4077 -0.5519  0.1132
 3259SOL    HW121410   3.735   0.973   4.476 -0.2542  1.9326  1.5180
 3259SOL    HW221411   3.660   1.097   4.441  3.6079  1.3532  0.1294
 3260SOL     OW21412   0.858   1.517   4.164  0.1599  0.2897 -0.3579
 3260SOL    HW121413   0.946   1.479   4.170  0.4164  1.1705  1.4292
 3260SOL    HW221414   0.875   1.606   4.194 -1.0394 -0.1989  1.7630
 3261SOL     OW21415   1.837   2.406   1.071 -0.2761  0.3247  0.1018
 3261SOL    HW121416   1.795   2.483   1.108 -0.0921 -0.3477  1.7205
 3261SOL    HW221417   1.763   2.349   1.049 -0.4754  0.3867  0.6118
 3262SOL     OW21418   0.737   3.268   7.833 -0.4656 -0.2463  0.3655
 3262SOL    HW121419   0.757   3.262   7.927  3.2289 -0.4581 -0.4432
 3262SOL    HW221420   0.642   3.254   7.834 -0.4971  0.0341  1.9362
 3263SOL     OW21421   4.726   1.695  16.864 -0.6227  0.0970 -0.4215
 3263SOL    HW121422   4.646   1.748  16.854 -0.6229  0.6426  2.3176
 3263SOL    HW221423   4.687   1.621  16.817  1.9486 -1.1567 -0.5756
 3264SOL     OW21424   2.640   3.551   7.972 -0.4219 -0.4045  0.0054
 3264SOL    HW121425   2.620   3.457   7.978  2.3286 -0.8949  1.6276
 3264SOL    HW221426   2.608   3.582   8.057  3.0372  1.3158  0.6909
 3265SOL     OW21427   1.811   2.780  12.265 -0.2395 -0.7004  0.2669
 3265SOL    HW121428   1.845   2.831  12.192 -0.2614 -0.4375  0.4394
 3265SOL    HW221429   1.883   2.805  12.324 -0.2345 -1.4033  0.5631
 3266SOL     OW21430   2.670   3.420   8.540  0.4278 -0.4302  0.0401
 3266SOL    HW121431   2.749   3.471   8.557  0.8621 -0.2682 -2.4853
 3266SOL    HW221432   2.656   3.369   8.620 -2.5361  2.0657  1.1292
 3267SOL     OW21433   0.047   2.542   3.465  0.2307  0.7482 -0.2438
 3267SOL    HW121434   4.710   2.591   3.426  0.1548  0.6002 -0.2895
 3267SOL    HW221435   0.006   2.472   3.515 -0.4319  0.4859 -1.1663
 3268SOL     OW21436   0.802   2.276   7.172  0.2704  0.2468 -0.4974
 3268SOL    HW121437   0.726   2.286   7.229 -0.4384 -0.3943 -1.3168
 3268SOL    HW221438   0.873   2.314   7.223 -0.4783 -0.0607  0.7917
 3269SOL     OW21439   4.648   4.646   1.340 -0.6844  0.8391  0.2135
 3269SOL    HW121440   4.577   4.703   1.370 -1.1801 -0.8622  2.3203
 3269SOL    HW221441   4.601   4.616   1.262  2.4858 -2.2337 -0.5119
 3270SOL     OW21442   0.842   3.504  12.745  0.4258  0.1465  0.5509
 3270SOL    HW121443   0.771   3.563  12.770  0.6975  0.2482  1.0835
 3270SOL    HW221444   0.862   3.465  12.830 -0.9383  0.6125  1.0958
 3271SOL     OW21445   0.907   1.980  10.617  0.0099 -0.0420 -0.4700
 3271SOL    HW121446   0.825   2.006  10.575  1.1984  2.7539 -1.0951
 3271SOL    HW221447   0.961   2.059  10.612  0.3739 -0.3129 -0.8012
 3272SOL     OW21448   4.679   2.649  12.670 -0.3439 -0.6430  0.2270
 3272SOL    HW121449   4.625   2.728  12.661  0.6935  0.1892  1.3857
 3272SOL    HW221450   4.695   2.643  12.576  0.1420 -0.5969  0.3084
 3273SOL     OW21451   2.496   0.311   3.686  0.1401 -0.7572  0.5119
 3273SOL    HW121452   2.479   0.374   3.755 -1.3901  1.2452 -1.6922
 3273SOL    HW221453   2.522   0.348   3.602 -0.0790 -0.3867  0.6089
 3274SOL     OW21454   4.228   1.529  15.513  0.0239 -0.6662 -0.1267
 3274SOL    HW121455   4.249   1.619  15.488  1.1684 -0.2285  2.3934
 3274SOL    HW221456   4.306   1.500  15.561  0.1135  0.6146  0.4942
 3275SOL     OW21457   4.202   3.910   6.437  0.2155  0.7539  0.5374
 3275SOL    HW121458   4.142   3.852   6.389  0.5198  1.0463 -0.2077
 3275SOL    HW221459   4.173   3.997   6.408  2.2131  1.4958  0.7905
 3276SOL     OW21460   1.108   0.331  16.055 -0.7025 -0.2491 -0.0326
 3276SOL    HW121461   1.194   0.321  16.014  0.3461  1.6371  1.6906
 3276SOL    HW221462   1.052   0.314  15.979  0.3261  0.3286 -0.9128
 3277SOL     OW21463   4.150   0.757   2.701 -0.4982  0.0788 -0.0871
 3277SOL    HW121464   4.199   0.713   2.632 -1.3941 -0.4119 -0.4058
 3277SOL    HW221465   4.065   0.727   2.670 -0.0024 -0.1995 -1.1778
 3278SOL     OW21466   4.045   2.851   8.163  1.0052  0.1958  0.4791
 3278SOL    HW121467   4.111   2.781   8.167 -0.4044 -1.1688  0.0972
 3278SOL    HW221468   3.990   2.813   8.095  1.3838 -0.4227  0.5144
 3279SOL     OW21469   0.022   4.731   6.230 -0.7284  0.0217 -0.5144
 3279SOL    HW121470   4.700   4.725   6.153  0.4086 -0.0152 -1.3615
 3279SOL    HW221471   0.104   4.723   6.180 -0.6294 -1.0067 -0.1866
 3280SOL     OW21472   2.246   3.660   3.307  0.1197  0.0278  0.6813
 3280SOL    HW121473   2.166   3.609   3.324 -2.3108  3.1132 -1.4281
 3280SOL    HW221474   2.213   3.750   3.314 -0.9460 -0.4403  1.7466
 3281SOL     OW21475   1.418   1.948  12.233 -0.2437  0.2712  0.0091
 3281SOL    HW121476   1.508   1.942  12.266 -0.6047 -1.1395  0.7488
 3281SOL    HW221477   1.369   1.906  12.304 -3.9828  1.6970 -1.7670
 3282SOL     OW21478   1.070   4.554   8.782 -0.4552 -0.4387  0.3686
 3282SOL    HW121479   1.131   4.517   8.718 -1.6994 -0.7806 -0.6186
 3282SOL    HW221480   1.130   4.570   8.855  0.1995  0.3323 -0.3223
 3283SOL     OW21481   3.222   4.242   0.582  0.1842 -0.3188 -1.0879
 3283SOL    HW121482   3.135   4.259   0.618  0.5199 -0.5268 -0.1605
 3283SOL    HW221483   3.249   4.159   0.623  1.4078  1.7916  2.4634
 3284SOL     OW21484   1.180   4.530   8.002  0.1042 -0.0693 -0.1045
 3284SOL    HW121485   1.158   4.508   7.912 -4.2925 -1.2072  1.2806
 3284SOL    HW221486   1.126   4.469   8.051 -0.7630  0.5702 -0.2633
 3285SOL     OW21487   2.768   4.482   8.342 -0.0583  0.5513  0.7447
 3285SOL    HW121488   2.737   4.516   8.259  0.4663 -0.8996 -0.0537
 3285SOL    HW221489   2.722   4.539   8.403  0.6191  0.6361  1.1726
 3286SOL     OW21490   1.513   3.938   8.081  0.6951  0.7656  0.0260
 3286SOL    HW121491   1.544   4.010   8.025 -2.1755  0.5102 -1.9023
 3286SOL    HW221492   1.487   3.863   8.029  2.8260  0.2382 -0.2836
 3287SOL     OW21493   1.025   2.463  14.272 -0.2134  0.1209  0.4342
 3287SOL    HW121494   0.986   2.488  14.356 -2.0973 -2.0484  0.2055
 3287SOL    HW221495   1.118   2.484  14.282 -0.6141  1.4396  1.3412
 3288SOL     OW21496   3.797   3.157   4.668 -0.0481 -0.3293 -0.4506
 3288SOL    HW121497   3.890   3.148   4.647  0.1293 -1.6448  0.8768
 3288SOL    HW221498   3.780   3.243   4.629  1.0618 -0.0670 -0.3575
 3289SOL     OW21499   3.750   4.024   4.526  0.2032 -0.4467 -0.8616
 3289SOL    HW121500   3.717   3.991   4.442 -0.2624 -2.1802  0.0080
 3289SOL    HW221501   3.733   3.949   4.582 -2.5873  1.2098  0.5523
 3290SOL     OW21502   1.435   3.911   6.378 -0.6875  0.5026  0.1067
 3290SOL    HW121503   1.389   3.957   6.448 -2.1148 -2.5374  1.1808
 3290SOL    HW221504   1.372   3.869   6.320  0.5562 -1.0078 -0.1601
 3291SOL     OW21505   3.256   0.041   3.751  0.4160  0.2735 -0.1012
 3291SOL    HW121506   3.290   4.722   3.822 -0.6389 -1.1935 -0.7034
 3291SOL    HW221507   3.161   0.034   3.761  0.0521  2.0026 -2.2405
 3292SOL     OW21508   1.313   2.568   1.859 -0.3091  0.6334 -0.8899
 3292SOL    HW121509   1.325   2.646   1.913 -1.1077 -0.4102  0.7651
 3292SOL    HW221510   1.280   2.514   1.931  2.7554  0.1026  0.1033
 3293SOL     OW21511   0.248   2.082  11.434 -0.0847  0.1338 -0.2796
 3293SOL    HW121512   0.267   1.990  11.415  0.0186  0.3525 -1.2599
 3293SOL    HW221513   0.339   2.114  11.429 -0.3104  1.0093  1.2971
 3294SOL     OW21514   3.190   3.343   8.684  0.1618  0.3609  0.9161
 3294SOL    HW121515   3.206   3.350   8.590 -1.7554 -0.1744  0.5617
 3294SOL    HW221516   3.220   3.430   8.712 -0.4772  1.2679 -1.1966
 3295SOL     OW21517   3.156   4.055   5.821 -0.5380  0.1021 -0.9441
 3295SOL    HW121518   3.228   4.080   5.763  0.5897 -0.0455  0.3907
 3295SOL    HW221519   3.178   4.122   5.886 -3.4299 -0.1218  0.2488
 3296SOL     OW21520   3.699   0.393  12.349 -0.2848 -0.1339 -0.3467
 3296SOL    HW121521   3.694   0.453  12.424  1.4448  2.4832 -2.3276
 3296SOL    HW221522   3.761   0.423  12.282  1.2609 -1.0700  0.6479
 3297SOL     OW21523   4.569   0.442   7.275 -0.3377 -0.4830 -0.1713
 3297SOL    HW121524   4.522   0.359   7.286 -2.0974  0.4944 -0.3713
 3297SOL    HW221525   4.661   0.416   7.284 -0.5338 -1.2965 -0.5043
 3298SOL     OW21526   2.737   4.132  11.206 -0.0769  0.2531 -0.2531
 3298SOL    HW121527   2.675   4.201  11.185  0.8218  0.3871 -2.5206
 3298SOL    HW221528   2.816   4.185  11.219  0.1150  0.1887 -1.1307
 3299SOL     OW21529   2.313   3.619   6.950 -0.2440  0.1238  0.4369
 3299SOL    HW121530   2.369   3.687   6.913 -1.9578  0.6491 -1.1939
 3299SOL    HW221531   2.241   3.678   6.972 -1.9035 -1.8521  0.2630
 3300SOL     OW21532   2.544   2.846   2.217 -0.2330  0.2286 -0.0364
 3300SOL    HW121533   2.474   2.786   2.244 -0.6880  1.1702  0.8779
 3300SOL    HW221534   2.616   2.809   2.268 -1.0169 -1.0752  0.1456
 3301SOL     OW21535   3.650   0.887   6.999  0.8744  0.3377  0.0727
 3301SOL    HW121536   3.610   0.956   7.054 -0.9512  0.5384 -1.4914
 3301SOL    HW221537   3.727   0.866   7.052  1.3692  0.2704 -0.6782
 3302SOL     OW21538   4.684   1.965  15.805 -0.2284  0.2748  0.4842
 3302SOL    HW121539   4.609   2.003  15.761 -1.0031  1.6839  3.0278
 3302SOL    HW221540   4.684   1.872  15.782  0.7236 -0.1843  2.2944
 3303SOL     OW21541   3.314   0.025   3.488 -0.2806  0.9824 -0.2463
 3303SOL    HW121542   3.284   0.047   3.576 -1.2374 -1.1376 -0.0211
 3303SOL    HW221543   3.308   4.667   3.510 -0.6978  0.3537 -2.9423
 3304SOL     OW21544   2.939   2.387  16.269 -0.5422 -0.2551 -0.2118
 3304SOL    HW121545   2.979   2.317  16.321  0.5955  0.4848 -0.1092
 3304SOL    HW221546   2.994   2.461  16.293 -1.0200  0.7468 -2.1661
 3305SOL     OW21547   1.871   3.316   3.677 -0.0303 -0.7019  0.3031
 3305SOL    HW121548   1.775   3.314   3.683 -0.1747  2.4989 -1.4294
 3305SOL    HW221549   1.888   3.274   3.593 -1.7168  3.8082 -2.2653
 3306SOL     OW21550   3.910   2.673   2.507 -0.1659  0.2187  0.3516
 3306SOL    HW121551   3.820   2.646   2.487  1.0164 -3.2810 -0.2356
 3306SOL    HW221552   3.906   2.755   2.458  1.2647 -0.3200 -0.6649
 3307SOL     OW21553   2.221   1.036   4.098  0.1206  0.2775 -0.1380
 3307SOL    HW121554   2.256   1.013   4.012 -4.7441 -1.7988 -1.5284
 3307SOL    HW221555   2.276   1.111   4.123  0.1829  0.4062 -0.6749
 3308SOL     OW21556   1.441   0.702  14.695 -0.4646 -0.1594 -0.2747
 3308SOL    HW121557   1.494   0.706  14.774  0.4084 -0.1289 -0.8596
 3308SOL    HW221558   1.487   0.766  14.640  2.2446 -1.2485  0.7082
 3309SOL     OW21559   3.443   0.865   1.141  0.3793 -0.3202 -0.1975
 3309SOL    HW121560   3.376   0.932   1.130  0.2244 -0.4679 -0.1460
 3309SOL    HW221561   3.503   0.913   1.197 -1.3519  0.3462  1.0795
 3310SOL     OW21562   3.940   3.893   8.530  0.0888 -0.3542 -0.1644
 3310SOL    HW121563   3.902   3.936   8.606  1.3504  0.1031  0.2049
 3310SOL    HW221564   4.035   3.896   8.546  0.2874 -3.3166 -0.8634
 3311SOL     OW21565   4.011   3.417   5.687 -0.0599  0.2243 -0.1167
 3311SOL    HW121566   4.038   3.506   5.664  0.6568 -0.1954 -0.8830
 3311SOL    HW221567   3.937   3.402   5.628  0.3895 -3.0451  0.1547
 3312SOL     OW21568   2.684   2.919   7.359 -0.1246 -0.2965 -0.1403
 3312SOL    HW121569   2.722   2.961   7.436 -2.1077 -0.0121  0.6817
 3312SOL    HW221570   2.642   2.845   7.402 -1.4420 -0.1366 -1.1586
 3313SOL     OW21571   3.516   3.606   7.357  0.0597 -0.0132 -0.1563
 3313SOL    HW121572   3.428   3.633   7.330 -0.3498 -0.4265  0.7724
 3313SOL    HW221573   3.547   3.685   7.402 -0.5818 -0.5996  1.2730
 3314SOL     OW21574   3.019   1.274   5.461  0.0690  0.3548  0.1338
 3314SOL    HW121575   3.039   1.364   5.488  1.3089  0.4905 -1.2401
 3314SOL    HW221576   3.095   1.236   5.504 -0.4570  0.0768  0.8208
 3315SOL     OW21577   0.211   4.605   8.997  0.4291 -0.3704  0.4006
 3315SOL    HW121578   0.306   4.596   8.985  0.1202  0.1328 -2.3716
 3315SOL    HW221579   0.214   4.698   9.020 -1.1198 -0.4142  0.7524
 3316SOL     OW21580   0.824   4.627   9.934  0.2529  0.0371  0.2851
 3316SOL    HW121581   0.919   4.613   9.936  0.2082 -0.5020 -0.9720
 3316SOL    HW221582   0.825   4.704   9.878 -3.6556 -0.9221 -1.0959
 3317SOL     OW21583   1.088   3.548   9.996  0.2584  0.4140 -0.2915
 3317SOL    HW121584   1.097   3.578   9.906 -0.7790  1.4631 -0.0405
 3317SOL    HW221585   0.999   3.512  10.004  0.8645 -1.3967 -1.7870
 3318SOL     OW21586   0.549   1.673   4.740 -0.3725 -0.2956 -0.1246
 3318SOL    HW121587   0.625   1.692   4.796  0.5731 -1.1030 -1.1140
 3318SOL    HW221588   0.592   1.639   4.661 -0.1086 -1.5624  0.5583
 3319SOL     OW21589   2.599   4.234   0.059 -0.0560  0.0990 -0.3621
 3319SOL    HW121590   2.672   4.186   0.020  0.7553  0.1326  1.0973
 3319SOL    HW221591   2.561   4.271  17.720  2.2698  0.1994 -1.4156
 3320SOL     OW21592   3.429   1.873   8.824  0.3123  0.5818 -0.6499
 3320SOL    HW121593   3.475   1.873   8.907 -0.0884 -1.4642 -0.4504
 3320SOL    HW221594   3.498   1.904   8.764 -0.2021  1.9896 -0.5203
 3321SOL     OW21595   1.053   3.471   4.128  0.2274 -0.3880 -0.3201
 3321SOL    HW121596   0.992   3.507   4.064 -0.4801  0.6880  0.9502
 3321SOL    HW221597   1.024   3.380   4.131  1.4187 -0.6798  2.4473
 3322SOL     OW21598   0.738   2.807   0.835  0.1876  0.5085 -0.3297
 3322SOL    HW121599   0.804   2.743   0.860  0.8973  0.9212 -1.1295
 3322SOL    HW221600   0.795   2.884   0.828  0.4328  0.2217 -1.4915
 3323SOL     OW21601   3.312   2.921   5.719 -0.0946 -0.0003 -0.6064
 3323SOL    HW121602   3.389   2.878   5.757  0.3956  1.2342 -0.1978
 3323SOL    HW221603   3.325   3.011   5.751 -3.3665  1.3100 -3.0758
 3324SOL     OW21604   3.462   1.158  13.531 -0.6355  0.8232  0.3551
 3324SOL    HW121605   3.457   1.110  13.449 -1.4699 -1.5285  1.8046
 3324SOL    HW221606   3.427   1.103  13.601  0.0188 -1.5768 -1.2123
 3325SOL     OW21607   3.655   4.007   3.448 -0.0030 -1.0058 -0.4237
 3325SOL    HW121608   3.701   4.078   3.493 -0.1933  0.5560 -2.6831
 3325SOL    HW221609   3.655   3.950   3.525  2.0960 -1.9791 -1.1680
 3326SOL     OW21610   1.305   0.099   3.287  0.5867  0.0799  0.0138
 3326SOL    HW121611   1.210   0.103   3.279  0.6806  0.6442 -0.7441
 3326SOL    HW221612   1.311   0.066   3.377  0.0286 -0.5843 -0.1857
 3327SOL     OW21613   0.263   0.163  16.690  0.5601  0.3314 -0.2048
 3327SOL    HW121614   0.293   0.080  16.726  0.4231  1.4447  2.4838
 3327SOL    HW221615   0.330   0.222  16.724  0.9410 -0.3475  0.2142
 3328SOL     OW21616   2.255   0.617   2.040  0.4609 -0.1125  0.3516
 3328SOL    HW121617   2.168   0.600   2.076  0.3745 -1.3908 -0.4380
 3328SOL    HW221618   2.312   0.593   2.113  1.3272  3.6922  0.9523
 3329SOL     OW21619   2.439   4.142  15.401 -0.0559 -0.6690 -0.1306
 3329SOL    HW121620   2.343   4.138  15.398 -0.1493  1.7762 -0.2970
 3329SOL    HW221621   2.458   4.048  15.409  0.0454 -0.6940 -0.6805
 3330SOL     OW21622   4.461   3.513  12.554 -0.0715  0.3616  0.0211
 3330SOL    HW121623   4.473   3.425  12.589  0.0628  0.3709 -0.0002
 3330SOL    HW221624   4.442   3.564  12.633 -1.8043 -0.6406  0.2517
 3331SOL     OW21625   3.001   0.391   5.504  0.0660 -0.6031  0.4244
 3331SOL    HW121626   2.908   0.412   5.516  0.3918  2.2459 -2.2620
 3331SOL    HW221627   2.999   0.302   5.469  0.3011  0.2335 -1.7182
 3332SOL     OW21628   2.700   4.008  16.091  0.0446 -0.2545 -0.2320
 3332SOL    HW121629   2.685   4.101  16.106  0.4983 -0.3337  0.7327
 3332SOL    HW221630   2.631   3.984  16.030  0.9261  2.5831 -2.3294
 3333SOL     OW21631   3.531   4.102   7.164 -0.1883 -0.2748 -0.1365
 3333SOL    HW121632   3.505   4.179   7.114 -0.2672  1.2854  2.2944
 3333SOL    HW221633   3.607   4.069   7.116 -0.6459 -0.3792 -0.8003
 3334SOL     OW21634   3.592   2.618   8.134 -0.1686  0.0237 -0.4310
 3334SOL    HW121635   3.528   2.608   8.063  1.0239 -1.2795 -1.3208
 3334SOL    HW221636   3.546   2.549   8.184 -3.0841  2.4175  0.1763
 3335SOL     OW21637   4.484   3.615   1.893 -0.8973  0.0127 -0.1096
 3335SOL    HW121638   4.524   3.599   1.978  2.3787 -0.1570 -1.6975
 3335SOL    HW221639   4.544   3.556   1.846 -0.1981  0.0760  0.7155
 3336SOL     OW21640   2.910   4.184   0.241 -0.2532  0.8570  0.0367
 3336SOL    HW121641   2.999   4.155   0.219 -0.8195 -0.0176 -1.0792
 3336SOL    HW221642   2.916   4.271   0.202  0.0196  1.1165  0.6459
 3337SOL     OW21643   2.696   2.484  14.334 -0.2709 -0.2179 -0.0000
 3337SOL    HW121644   2.672   2.536  14.257  0.5183  0.3183  0.1157
 3337SOL    HW221645   2.695   2.392  14.305 -0.6349 -0.2546  0.1368
 3338SOL     OW21646   1.523   3.149   5.033 -0.4548 -0.8680 -0.5786
 3338SOL    HW121647   1.609   3.189   5.021 -0.8306 -0.6765 -2.6376
 3338SOL    HW221648   1.527   3.055   5.014 -1.3055 -1.0527  0.1505
 3339SOL     OW21649   3.687   4.592   7.974 -0.0473 -0.1284  0.4698
 3339SOL    HW121650   3.738   4.604   7.894 -1.3144  0.4143 -0.2689
 3339SOL    HW221651   3.742   4.535   8.028  1.5552 -1.8384 -2.9674
 3340SOL     OW21652   1.333   0.056   8.531  0.1892 -0.5028  0.2463
 3340SOL    HW121653   1.411   0.017   8.569  4.5133  3.1217 -4.8395
 3340SOL    HW221654   1.325   0.011   8.446  0.8433  1.9197 -1.0910
 3341SOL     OW21655   2.182   1.289   1.275 -0.4960 -0.1565 -0.0571
 3341SOL    HW121656   2.134   1.371   1.288  0.6708  0.3953  0.7860
 3341SOL    HW221657   2.109   1.227   1.283  0.1809 -1.1346 -1.5130
 3342SOL     OW21658   3.573   3.388  10.600 -0.2350 -0.4166 -0.6858
 3342SOL    HW121659   3.667   3.370  10.601 -0.3292 -0.7650  1.7277
 3342SOL    HW221660   3.565   3.467  10.653  2.0307  0.2836 -1.3725
 3343SOL     OW21661   0.734   0.316   8.371  0.4817 -0.5873 -0.4895
 3343SOL    HW121662   0.764   0.347   8.457 -1.4636 -0.3238  0.0969
 3343SOL    HW221663   0.640   0.304   8.386  0.8917 -1.3878  1.5381
 3344SOL     OW21664   0.899   4.668   0.733 -0.2738  0.4652 -0.0082
 3344SOL    HW121665   0.825   4.609   0.745  0.3028 -0.8565 -2.8435
 3344SOL    HW221666   0.955   4.622   0.795 -0.2214  0.1989 -0.2506
 3345SOL     OW21667   1.007   2.761   4.968  0.3716 -0.4649 -0.1421
 3345SOL    HW121668   1.011   2.702   4.892  1.5264 -0.9276  0.2808
 3345SOL    HW221669   0.922   2.800   4.949  1.2002  1.2215 -0.3266
 3346SOL     OW21670   0.009   0.375   9.243 -0.5264 -0.1827 -0.5442
 3346SOL    HW121671   0.045   0.362   9.331  0.2335 -1.8458 -1.0953
 3346SOL    HW221672   0.087   0.383   9.187  0.7798  2.2715  1.6288
 3347SOL     OW21673   3.681   4.454   3.296  0.2088 -0.2037  0.3634
 3347SOL    HW121674   3.631   4.479   3.374 -1.4366  1.1504 -1.1517
 3347SOL    HW221675   3.663   4.361   3.285 -1.1309  0.0232  0.7117
 3348SOL     OW21676   0.164   2.562  15.652  0.1384  0.4563 -0.3028
 3348SOL    HW121677   0.224   2.512  15.597  2.5289 -0.4319  3.0906
 3348SOL    HW221678   0.194   2.533  15.738  1.9374  1.1790 -0.6975
 3349SOL     OW21679   3.303   2.867  17.473  1.1234 -0.3392  0.0452
 3349SOL    HW121680   3.335   2.931  17.537 -1.7976  1.0789  0.0786
 3349SOL    HW221681   3.293   2.923  17.396  1.1487  0.7543  0.8301
 3350SOL     OW21682   3.149   3.343  13.558 -0.0719  0.1757 -0.3329
 3350SOL    HW121683   3.207   3.282  13.603  0.6677  2.1734  1.4084
 3350SOL    HW221684   3.204   3.421  13.569 -1.2833  0.7332  1.7515
 3351SOL     OW21685   0.864   2.987  12.536  0.2646 -0.4126 -0.1269
 3351SOL    HW121686   0.901   2.914  12.584 -1.6131 -1.8400 -0.8389
 3351SOL    HW221687   0.878   2.971  12.443  0.5934 -0.5559 -0.0491
 3352SOL     OW21688   2.681   4.407  14.984  0.3527  0.5847 -0.0496
 3352SOL    HW121689   2.610   4.371  15.037  1.0465 -0.1090  0.4018
 3352SOL    HW221690   2.749   4.425  15.048  1.4917 -1.2906 -0.7299
 3353SOL     OW21691   2.775   0.359   0.843 -0.4667 -0.4636  0.1183
 3353SOL    HW121692   2.867   0.345   0.863 -0.2434  0.6880 -0.1211
 3353SOL    HW221693   2.757   0.435   0.898 -0.8808 -0.2255 -0.3465
 3354SOL     OW21694   1.209   2.461   4.279  0.2920 -0.0144  0.0339
 3354SOL    HW121695   1.207   2.462   4.183  0.0247  1.7453  0.0638
 3354SOL    HW221696   1.196   2.555   4.289 -1.4939 -0.2424 -0.2386
 3355SOL     OW21697   1.594   2.514   0.246 -0.0928 -0.8154  0.1038
 3355SOL    HW121698   1.519   2.570   0.266  0.8836  0.7912 -0.7146
 3355SOL    HW221699   1.599   2.481   0.335 -1.9428  1.6101  1.1237
 3356SOL     OW21700   0.934   1.750  12.530  0.3046 -0.2990  0.3480
 3356SOL    HW121701   0.932   1.655  12.521  0.6150 -0.2032 -0.7812
 3356SOL    HW221702   0.969   1.759  12.619 -1.2929  0.6996  0.8597
 3357SOL     OW21703   3.354   2.832   1.533  0.2883 -0.0533  0.0113
 3357SOL    HW121704   3.304   2.837   1.452 -0.0639  0.3412  0.2542
 3357SOL    HW221705   3.335   2.907   1.590  3.6737 -0.8761  2.2386
 3358SOL     OW21706   3.102   2.464   5.125 -0.4479 -0.9631 -0.0217
 3358SOL    HW121707   3.014   2.448   5.091  0.3983 -1.0360 -2.1980
 3358SOL    HW221708   3.109   2.559   5.128  0.9834 -1.0176 -1.2511
 3359SOL     OW21709   3.468   1.506   2.658 -0.0501 -0.9432  0.3895
 3359SOL    HW121710   3.414   1.476   2.730 -1.1141 -0.9895 -0.4256
 3359SOL    HW221711   3.406   1.543   2.595  0.6924  0.4328  0.4469
 3360SOL     OW21712   1.933   1.422   2.302 -0.1316 -0.2610 -0.0991
 3360SOL    HW121713   1.980   1.348   2.341  0.3040  0.6584  1.1161
 3360SOL    HW221714   1.880   1.385   2.232 -0.5805 -3.5928  1.9633
 3361SOL     OW21715   4.631   0.015  17.164  0.1334 -0.2012  0.3032
 3361SOL    HW121716   4.685   0.053  17.233 -0.0540 -3.0151  1.9547
 3361SOL    HW221717   4.675   4.666  17.158  0.3861  0.0271 -1.0421
 3362SOL     OW21718   1.271   1.433   8.234  0.3430 -0.5107 -0.1274
 3362SOL    HW121719   1.225   1.499   8.286 -2.0005 -2.0988 -0.2158
 3362SOL    HW221720   1.235   1.449   8.147  0.4807  0.3051 -0.0387
 3363SOL     OW21721   2.871   3.663   9.355  1.0953  0.7794 -0.2520
 3363SOL    HW121722   2.891   3.688   9.445 -1.9945 -0.8116  0.8658
 3363SOL    HW221723   2.852   3.571   9.374  0.2332  1.0805  0.3740
 3364SOL     OW21724   3.813   3.702   5.574 -0.7481  0.0413  0.0518
 3364SOL    HW121725   3.862   3.631   5.533 -1.9555 -0.9683  0.3366
 3364SOL    HW221726   3.725   3.671   5.550 -1.1112  2.7498 -2.0917
 3365SOL     OW21727   0.962   2.537   6.078  0.1048  0.5229 -0.1306
 3365SOL    HW121728   0.911   2.458   6.096  1.8881  0.1747  3.3206
 3365SOL    HW221729   1.051   2.503   6.080  0.7707  2.0270 -2.9209
 3366SOL     OW21730   1.309   3.945   3.189  0.3032 -0.4348  0.1010
 3366SOL    HW121731   1.242   3.885   3.223  0.1003  0.4585  1.3088
 3366SOL    HW221732   1.260   4.027   3.199  1.0896  0.1363 -0.8232
 3367SOL     OW21733   3.342   1.393   3.183  0.2707 -0.0947 -1.3986
 3367SOL    HW121734   3.386   1.335   3.121  0.5943 -1.7855  0.4285
 3367SOL    HW221735   3.379   1.360   3.264 -2.2604  1.4767  0.3925
 3368SOL     OW21736   0.814   3.949   0.623  0.7626 -0.1556 -0.3409
 3368SOL    HW121737   0.794   4.042   0.635  1.6965  0.2945 -2.2512
 3368SOL    HW221738   0.783   3.940   0.533 -0.1704 -1.2697  0.0848
 3369SOL     OW21739   0.223   2.182  12.843  0.2857 -0.3888 -0.1277
 3369SOL    HW121740   0.209   2.251  12.778  0.6716 -1.3025 -1.1767
 3369SOL    HW221741   0.135   2.144  12.845  0.2538 -0.2787  0.8453
 3370SOL     OW21742   2.306   0.973   2.838 -0.3539  0.0984 -0.1052
 3370SOL    HW121743   2.363   0.972   2.915  1.3004 -1.0782 -1.3464
 3370SOL    HW221744   2.350   1.038   2.784 -0.3873  0.9634  0.9094
 3371SOL     OW21745   0.477   2.193   3.732  0.6180  0.1767 -0.4436
 3371SOL    HW121746   0.567   2.161   3.722 -0.0460 -2.3164  1.6634
 3371SOL    HW221747   0.509   2.277   3.765  0.5464  0.6660 -1.6334
 3372SOL     OW21748   4.240   2.314   7.146 -0.1869 -0.2486  0.0779
 3372SOL    HW121749   4.171   2.315   7.080 -1.1756  0.0727  1.1256
 3372SOL    HW221750   4.296   2.390   7.128 -0.1674 -0.1562  0.5170
 3373SOL     OW21751   2.129   0.632   8.342 -0.4891 -0.3146  0.2219
 3373SOL    HW121752   2.203   0.571   8.341 -0.4911 -0.3098 -0.4033
 3373SOL    HW221753   2.062   0.567   8.366 -0.6278 -0.2101  0.1189
 3374SOL     OW21754   0.373   3.620   9.483 -0.1239 -0.0082 -0.0677
 3374SOL    HW121755   0.458   3.587   9.456 -0.4612 -0.3300 -0.7221
 3374SOL    HW221756   0.368   3.705   9.438  0.2038  0.8490  1.5092
 3375SOL     OW21757   1.889   2.902   1.431 -0.4454 -0.4613  0.2646
 3375SOL    HW121758   1.979   2.934   1.429 -0.2683 -0.9301  0.7467
 3375SOL    HW221759   1.872   2.874   1.341  0.2788  0.7195 -0.2257
 3376SOL     OW21760   4.081   0.583   4.512 -0.3295 -0.1356  0.4391
 3376SOL    HW121761   4.148   0.629   4.562 -0.7424  0.7241  0.2003
 3376SOL    HW221762   4.010   0.648   4.506  0.9145  1.1052 -0.7448
 3377SOL     OW21763   0.347   3.617   6.318  0.2033  0.1417 -0.3114
 3377SOL    HW121764   0.292   3.563   6.374 -2.3437  1.5441 -1.3996
 3377SOL    HW221765   0.364   3.688   6.380 -1.3649 -0.9202  1.3123
 3378SOL     OW21766   4.398   4.337   9.935  0.2239  0.1506  0.1583
 3378SOL    HW121767   4.321   4.353   9.989 -0.2307  1.0560 -0.7475
 3378SOL    HW221768   4.417   4.245   9.950 -0.9177 -0.0653  0.2395
 3379SOL     OW21769   1.184   1.187   2.572 -0.0311 -0.2726 -0.1270
 3379SOL    HW121770   1.248   1.118   2.552  0.0225 -1.0888  2.8419
 3379SOL    HW221771   1.242   1.245   2.622 -0.7520  0.0096  0.3882
 3380SOL     OW21772   1.821   0.708   8.610  0.3987 -0.3232  0.2305
 3380SOL    HW121773   1.770   0.666   8.541  1.9514  2.7238 -2.8219
 3380SOL    HW221774   1.811   0.637   8.672 -1.6103 -0.1943  0.0589
 3381SOL     OW21775   0.286   0.356  17.185 -0.2132  0.0118 -0.5655
 3381SOL    HW121776   0.377   0.349  17.156  0.1719 -0.6033  0.7649
 3381SOL    HW221777   0.260   0.266  17.166  0.9435  0.1619 -2.8532
 3382SOL     OW21778   1.103   4.010   5.734 -0.0560  0.0958 -0.3758
 3382SOL    HW121779   1.017   4.014   5.776  0.4250 -1.1258  0.7371
 3382SOL    HW221780   1.101   4.089   5.681  0.6502 -1.2075 -2.3534
 3383SOL     OW21781   4.148   4.343   6.598 -0.2769  0.6866 -0.7657
 3383SOL    HW121782   4.129   4.273   6.535  0.9373  0.0498 -0.4208
 3383SOL    HW221783   4.233   4.320   6.636 -0.9264  0.1529  0.3663
 3384SOL     OW21784   3.179   0.069   1.802  0.0783  0.3996  0.1764
 3384SOL    HW121785   3.109   0.132   1.787 -0.7690 -0.3061  1.1455
 3384SOL    HW221786   3.143   4.728   1.756  0.8703  0.0980  0.0539
 3385SOL     OW21787   0.230   0.431   9.102 -0.9037 -0.0139  0.3852
 3385SOL    HW121788   0.206   0.448   9.011  2.3819 -0.7585 -0.6105
 3385SOL    HW221789   0.212   0.521   9.131 -1.3953 -0.8346  2.5947
 3386SOL     OW21790   0.909   3.485   5.271 -0.1903  0.4539  0.3130
 3386SOL    HW121791   0.897   3.506   5.178  0.3665 -1.8311 -0.2897
 3386SOL    HW221792   0.884   3.393   5.258  0.8181  0.1206  0.6791
 3387SOL     OW21793   3.007   1.308   7.635 -0.2092 -0.1670  0.3080
 3387SOL    HW121794   2.959   1.373   7.686  2.4242  1.0710  1.1823
 3387SOL    HW221795   2.967   1.229   7.673 -1.2875  0.2087 -0.0481
 3388SOL     OW21796   3.563   4.589   6.700 -0.0643  0.4464  0.1222
 3388SOL    HW121797   3.579   4.505   6.745  1.4393  0.6964  0.0510
 3388SOL    HW221798   3.468   4.578   6.697  0.1150 -1.1325  0.0765
 3389SOL     OW21799   1.624   1.996   9.284 -0.3243 -0.3486  0.1465
 3389SOL    HW121800   1.626   1.932   9.213  1.3472  1.6435 -1.6008
 3389SOL    HW221801   1.644   1.934   9.353  1.1119 -0.5602 -0.4559
 3390SOL     OW21802   0.626   0.257  11.272  0.0463 -0.4307  0.2123
 3390SOL    HW121803   0.587   0.269  11.358 -2.7048  0.6329 -1.1850
 3390SOL    HW221804   0.697   0.198  11.297  0.6786 -0.4278 -1.6008
 3391SOL     OW21805   3.868   1.935  14.318 -0.1303 -0.3301 -0.2889
 3391SOL    HW121806   3.900   2.020  14.286  0.1609 -0.6689 -0.8943
 3391SOL    HW221807   3.917   1.875  14.262  1.2925 -0.5742  1.2043
 3392SOL     OW21808   1.054   0.870  15.199 -0.5064  0.0325  0.0545
 3392SOL    HW121809   1.012   0.838  15.279 -0.0619  2.4879  1.2853
 3392SOL    HW221810   1.136   0.905  15.233 -1.4177  2.0049  0.2656
 3393SOL     OW21811   1.519   0.344   6.580  0.2123 -0.1864 -0.6938
 3393SOL    HW121812   1.448   0.390   6.535 -0.3907 -0.2803  0.1483
 3393SOL    HW221813   1.519   0.371   6.672 -0.7810  0.2113 -0.8085
 3394SOL     OW21814   0.899   0.103   8.073  0.2668 -0.7506  0.1206
 3394SOL    HW121815   0.891   0.094   8.168 -1.8254  2.4799  0.2528
 3394SOL    HW221816   0.812   0.139   8.056  0.1153 -0.2191  2.0431
 3395SOL     OW21817   0.689   2.296   5.016 -0.3426 -0.2107  0.3239
 3395SOL    HW121818   0.688   2.387   4.989 -0.0133 -0.9279 -2.1150
 3395SOL    HW221819   0.715   2.256   4.933 -0.4384  0.3046  0.0515
 3396SOL     OW21820   0.183   3.537   2.177 -0.0517 -0.2139 -0.3381
 3396SOL    HW121821   0.190   3.585   2.095  0.4716 -1.7799 -1.2149
 3396SOL    HW221822   0.272   3.530   2.212  0.0705  0.9274 -0.4258
 3397SOL     OW21823   1.688   3.138   8.507  0.3872  0.2084 -0.0936
 3397SOL    HW121824   1.641   3.097   8.579 -1.7534 -0.3032 -1.8061
 3397SOL    HW221825   1.774   3.095   8.511  1.1557  1.4870 -2.5200
 3398SOL     OW21826   3.199   2.994  13.979  0.1849 -0.2731  0.1794
 3398SOL    HW121827   3.153   3.063  14.029 -0.1650 -0.0568 -0.4358
 3398SOL    HW221828   3.119   2.957  13.942  0.4496 -2.4773  1.8318
 3399SOL     OW21829   2.214   0.113  15.354 -0.3797 -0.3238 -0.5716
 3399SOL    HW121830   2.200   0.086  15.445  0.0755 -0.1204 -0.4374
 3399SOL    HW221831   2.133   0.078  15.318 -0.2193 -0.2975 -0.9670
 3400SOL     OW21832   2.386   3.462  17.235 -0.0969  0.2805 -0.0919
 3400SOL    HW121833   2.370   3.533  17.172  2.0445  0.0869 -0.8385
 3400SOL    HW221834   2.358   3.387  17.182  1.0586 -1.7395  2.1318
 3401SOL     OW21835   3.639   3.620  16.663  0.3861  0.3142  0.2156
 3401SOL    HW121836   3.664   3.689  16.601 -1.7803  0.7097 -0.2420
 3401SOL    HW221837   3.660   3.541  16.614  0.2075 -0.5519  1.5124
 3402SOL     OW21838   3.471   0.296   0.614  0.5369 -0.2517  0.3418
 3402SOL    HW121839   3.384   0.259   0.601  0.9876 -1.8760  1.8972
 3402SOL    HW221840   3.446   0.387   0.626  0.7636 -0.0251 -0.9109
 3403SOL     OW21841   0.007   2.805   4.284  0.2835 -0.4712 -0.4987
 3403SOL    HW121842   0.077   2.810   4.219 -0.8383 -0.5624 -1.7194
 3403SOL    HW221843   0.048   2.759   4.357 -1.5785 -0.4170  0.5825
 3404SOL     OW21844   4.697   0.859  12.336 -1.1002 -0.1347  0.2132
 3404SOL    HW121845   4.722   0.941  12.292 -1.3178  0.3440  0.9736
 3404SOL    HW221846   0.007   0.863  12.419 -2.7271  0.3065  1.0869
 3405SOL     OW21847   0.484   1.056   2.189 -0.0835 -0.0025  0.6135
 3405SOL    HW121848   0.488   1.135   2.136  0.0268  1.2685  2.5317
 3405SOL    HW221849   0.553   1.007   2.143  0.3144 -0.2885  1.5123
 3406SOL     OW21850   4.076   4.639   1.538  0.2754  0.3082  0.8789
 3406SOL    HW121851   4.115   4.657   1.452 -1.5975 -0.6392 -0.1681
 3406SOL    HW221852   3.989   4.631   1.499  0.5103 -0.4678  0.5146
 3407SOL     OW21853   1.355   4.315  13.404  0.3862  0.4477 -0.0366
 3407SOL    HW121854   1.314   4.394  13.438 -0.0573  0.7257 -1.2254
 3407SOL    HW221855   1.420   4.343  13.340  2.0273 -0.7501  1.0788
 3408SOL     OW21856   4.026   2.860   5.122 -0.5535  0.1571  0.8531
 3408SOL    HW121857   3.937   2.827   5.112  0.3929 -2.3041  0.4035
 3408SOL    HW221858   4.005   2.949   5.149  1.5024  0.9691 -0.2487
 3409SOL     OW21859   1.457   0.814   6.951  0.7279  0.3798  0.1297
 3409SOL    HW121860   1.387   0.792   6.890  0.9512  1.0563 -0.3711
 3409SOL    HW221861   1.404   0.846   7.025 -1.0520 -1.4538 -0.3706
 3410SOL     OW21862   3.676   4.729   9.982 -0.2646  0.0459 -0.3358
 3410SOL    HW121863   3.724   4.673  10.043  0.4762 -0.0554 -1.0139
 3410SOL    HW221864   3.601   0.020  10.035  1.4297  2.1591  1.0276
 3411SOL     OW21865   3.995   3.426   2.835 -0.0649  0.2662 -0.6330
 3411SOL    HW121866   4.025   3.482   2.764  1.6671  0.7988  0.5324
 3411SOL    HW221867   4.077   3.387   2.865  2.2294  3.7320 -2.4697
 3412SOL     OW21868   3.102   1.718  14.995 -0.4517  0.2290  0.2434
 3412SOL    HW121869   3.178   1.668  14.966 -1.7911 -1.2194 -0.7315
 3412SOL    HW221870   3.039   1.646  15.000 -0.0704 -0.0332  1.2937
 3413SOL     OW21871   4.409   1.354  11.664  0.7881  0.9401  0.5556
 3413SOL    HW121872   4.407   1.413  11.740 -1.1383  3.6080 -1.5898
 3413SOL    HW221873   4.356   1.409  11.607 -0.5458 -0.2989  0.6064
 3414SOL     OW21874   1.815   3.605  17.233 -0.2871 -0.2665  0.5419
 3414SOL    HW121875   1.881   3.549  17.274 -1.1293  0.2547  2.5939
 3414SOL    HW221876   1.872   3.682  17.226  0.0429 -0.6149 -0.5859
 3415SOL     OW21877   0.100   1.817   8.187 -0.4627  0.1213 -0.2628
 3415SOL    HW121878   0.152   1.753   8.235 -1.0732 -0.7197 -0.7343
 3415SOL    HW221879   0.107   1.776   8.101  1.0321  0.4943 -0.3030
 3416SOL     OW21880   3.448   3.513   3.658  0.6844  0.4757 -0.4179
 3416SOL    HW121881   3.503   3.451   3.610 -1.3893 -0.2667 -1.8103
 3416SOL    HW221882   3.502   3.536   3.734  0.9859 -0.9353 -0.1959
 3417SOL     OW21883   1.561   1.170   3.461  0.1981 -0.3780  0.1553
 3417SOL    HW121884   1.593   1.211   3.381 -1.0175  0.1623 -0.0627
 3417SOL    HW221885   1.581   1.230   3.533 -0.7716  0.3242 -0.1545
 3418SOL     OW21886   3.889   2.843   8.554 -0.7658 -0.0576 -1.1684
 3418SOL    HW121887   3.840   2.796   8.487  0.5990 -0.9958 -1.5170
 3418SOL    HW221888   3.910   2.923   8.506 -1.1822 -0.6752 -2.3722
 3419SOL     OW21889   1.862   4.222  13.290  0.4536  0.1087  0.0012
 3419SOL    HW121890   1.785   4.166  13.284 -0.1881  0.8831  0.9502
 3419SOL    HW221891   1.910   4.169  13.354  0.3804 -0.6541 -0.5805
 3420SOL     OW21892   0.287   0.337   2.088  0.8049 -0.3595 -0.1141
 3420SOL    HW121893   0.213   0.341   2.150  0.7422 -1.1092 -0.1387
 3420SOL    HW221894   0.319   0.425   2.109 -3.9872  1.2006  0.6887
 3421SOL     OW21895   3.798   2.373  16.003 -0.6057  0.8316 -0.1008
 3421SOL    HW121896   3.811   2.417  16.088 -0.7204  0.9567 -0.1478
 3421SOL    HW221897   3.712   2.331  16.005  0.0482 -0.5115 -1.0047
 3422SOL     OW21898   3.982   3.570  11.529  0.2061 -0.4091 -0.3760
 3422SOL    HW121899   4.008   3.479  11.517  0.9419 -0.2164 -0.1935
 3422SOL    HW221900   4.048   3.594  11.594  1.1569  0.6173 -1.7291
 3423SOL     OW21901   1.259   3.335   4.711  0.1013 -0.1333 -0.2250
 3423SOL    HW121902   1.286   3.349   4.802  1.9389 -1.6158 -0.5495
 3423SOL    HW221903   1.166   3.355   4.714 -0.5194 -3.1327  1.2237
 3424SOL     OW21904   0.612   3.026   4.534 -0.5694  0.3720  0.4048
 3424SOL    HW121905   0.595   3.105   4.587 -0.3837  1.2620 -0.8675
 3424SOL    HW221906   0.646   3.065   4.454  0.1706 -1.1805 -0.0256
 3425SOL     OW21907   4.063   2.153   5.593 -0.1302 -0.1121  0.3808
 3425SOL    HW121908   4.074   2.058   5.598 -0.1817 -0.2431 -2.2203
 3425SOL    HW221909   4.087   2.159   5.501 -0.6130 -1.0094  0.1920
 3426SOL     OW21910   0.882   4.487   2.898 -0.0239 -0.2458  0.1331
 3426SOL    HW121911   0.807   4.547   2.890  1.3362  1.1362 -2.3882
 3426SOL    HW221912   0.912   4.494   2.807  0.1595  0.1071  0.2213
 3427SOL     OW21913   2.061   4.188   3.461  0.0848 -0.1756 -0.3415
 3427SOL    HW121914   2.150   4.184   3.497 -0.1427  1.9283  0.4628
 3427SOL    HW221915   2.007   4.138   3.522  2.5357 -0.8141  1.3185
 3428SOL     OW21916   3.074   4.578   1.998 -0.4645  0.0575  0.0756
 3428SOL    HW121917   2.986   4.587   1.960 -0.2258 -0.5213 -0.5965
 3428SOL    HW221918   3.044   4.539   2.080 -0.9845  1.0869  0.3812
 3429SOL     OW21919   1.884   2.823   0.257  0.3732 -0.3089 -0.1218
 3429SOL    HW121920   1.965   2.811   0.206  1.2726  0.0521  1.2126
 3429SOL    HW221921   1.913   2.899   0.307  1.0784 -0.0714 -0.8906
 3430SOL     OW21922   3.059   3.516   2.357  0.2100  0.1831  0.2464
 3430SOL    HW121923   3.106   3.576   2.415 -0.9210  1.9529 -0.6887
 3430SOL    HW221924   3.031   3.458   2.427  0.2242 -0.2083 -0.0734
 3431SOL     OW21925   3.174   1.743   4.839  0.9677  0.4250  0.4513
 3431SOL    HW121926   3.228   1.793   4.900  1.2505  0.5508  0.0968
 3431SOL    HW221927   3.202   1.785   4.758 -1.9840  1.4271 -0.0327
 3432SOL     OW21928   0.035   0.449  13.636  0.3389 -0.3341  0.0002
 3432SOL    HW121929   4.689   0.497  13.622  1.7406  3.1572  3.6658
 3432SOL    HW221930   0.041   0.480  13.726 -2.5234 -1.2903  0.5138
 3433SOL     OW21931   2.399   3.861  13.685  0.2893 -0.1541 -0.3980
 3433SOL    HW121932   2.412   3.928  13.753 -2.2579 -0.2469  0.1714
 3433SOL    HW221933   2.455   3.790  13.716 -1.0976 -2.3175 -2.9541
 3434SOL     OW21934   2.780   3.015   8.364  0.2327  0.1978  0.1509
 3434SOL    HW121935   2.722   3.072   8.313  2.5881  1.5538 -1.0071
 3434SOL    HW221936   2.859   3.069   8.360  0.4630 -0.0936  0.7425
 3435SOL     OW21937   1.373   2.293   0.399 -0.2855 -0.0296 -0.2130
 3435SOL    HW121938   1.460   2.253   0.396 -0.1184  0.2383  0.9087
 3435SOL    HW221939   1.346   2.256   0.315 -0.2731 -0.9328  0.1786
 3436SOL     OW21940   4.713   0.862  10.745  0.1075 -0.7894  0.4412
 3436SOL    HW121941   4.733   0.811  10.666 -1.5485  1.4950 -1.4824
 3436SOL    HW221942   4.727   0.947  10.702 -0.5317  0.4629  2.6901
 3437SOL     OW21943   2.335   1.221  14.112  0.2290 -0.0199  0.5332
 3437SOL    HW121944   2.387   1.295  14.082 -0.3652  1.0513  2.1083
 3437SOL    HW221945   2.261   1.271  14.147 -0.6484 -1.7936  1.2235
 3438SOL     OW21946   0.364   1.315   9.720 -0.4506  0.3436 -0.1792
 3438SOL    HW121947   0.357   1.350   9.809 -0.6945 -0.4462  0.1053
 3438SOL    HW221948   0.411   1.233   9.734  0.7283  0.8007 -1.3625
 3439SOL     OW21949   3.794   2.645   6.733  0.0719  0.3014 -0.3118
 3439SOL    HW121950   3.755   2.658   6.819 -1.7131 -0.4995 -0.9983
 3439SOL    HW221951   3.879   2.684   6.756  1.1081 -1.8534 -0.4680
 3440SOL     OW21952   4.458   2.920   6.998 -0.1786  0.1644  0.5250
 3440SOL    HW121953   4.553   2.914   7.006 -0.3856 -0.7897  2.1800
 3440SOL    HW221954   4.453   2.887   6.909 -1.4492 -3.3776  1.9252
 3441SOL     OW21955   1.182   2.280   6.783 -0.4807  0.3617 -0.3756
 3441SOL    HW121956   1.098   2.246   6.816  0.1460 -0.0167  0.8136
 3441SOL    HW221957   1.214   2.299   6.871  1.5113  1.5830 -1.3944
 3442SOL     OW21958   0.831   3.327   7.378 -0.0670  0.3223 -0.0796
 3442SOL    HW121959   0.776   3.406   7.378 -0.6251 -0.0644  1.0367
 3442SOL    HW221960   0.775   3.262   7.335 -0.2381 -0.2694  1.0425
 3443SOL     OW21961   3.205   2.702   9.938 -0.2761 -0.9897  0.3067
 3443SOL    HW121962   3.242   2.713   9.850  1.2895  0.8320  1.2104
 3443SOL    HW221963   3.119   2.736   9.915  0.5229 -0.3143 -1.6924
 3444SOL     OW21964   2.452   0.397   5.954  0.2447  0.7645  0.3964
 3444SOL    HW121965   2.386   0.333   5.982  0.6179 -0.0904 -0.6800
 3444SOL    HW221966   2.460   0.453   6.031 -1.5983 -0.4856  1.4725
 3445SOL     OW21967   4.569   4.202   8.510 -0.1981  0.2494  0.5696
 3445SOL    HW121968   4.547   4.118   8.471  0.0097  0.8261 -0.7946
 3445SOL    HW221969   4.566   4.183   8.604 -2.5512 -1.1671  0.1865
 3446SOL     OW21970   3.934   2.825   7.728 -0.5786  0.2444 -0.0840
 3446SOL    HW121971   3.930   2.796   7.820 -0.9452  0.3539 -0.0683
 3446SOL    HW221972   3.851   2.796   7.692 -0.6160  1.6301 -1.1019
 3447SOL     OW21973   3.174   1.038   2.313 -0.0166 -0.3742  0.2141
 3447SOL    HW121974   3.104   1.066   2.253  0.9782 -0.0850 -0.8022
 3447SOL    HW221975   3.151   1.079   2.396 -1.4206 -1.1305  0.2011
 3448SOL     OW21976   3.220   2.433   3.006 -0.2516 -0.0395  0.6200
 3448SOL    HW121977   3.205   2.463   3.095 -1.5073  1.6206 -0.1455
 3448SOL    HW221978   3.303   2.475   2.983  1.0933 -2.3902  1.1578
 3449SOL     OW21979   1.917   4.154   8.452 -0.2745 -0.0508  0.0605
 3449SOL    HW121980   1.885   4.122   8.368 -0.0651  1.0727 -0.4520
 3449SOL    HW221981   1.923   4.073   8.502  0.5287  0.2000  0.3738
 3450SOL     OW21982   3.589   0.612   5.854 -0.5526  0.0335 -0.6483
 3450SOL    HW121983   3.541   0.649   5.781 -3.0505 -0.0774  0.9438
 3450SOL    HW221984   3.514   0.604   5.913 -0.8617  0.7300 -0.9603
 3451SOL     OW21985   2.275   0.633  17.415  0.2772  0.4416  0.2293
 3451SOL    HW121986   2.293   0.683  17.335 -0.2969 -0.3951 -0.4148
 3451SOL    HW221987   2.207   0.573  17.386  0.8198 -0.5553  1.0054
 3452SOL     OW21988   3.996   1.649   6.083 -0.6695 -0.7618 -0.6971
 3452SOL    HW121989   3.997   1.564   6.127  1.1118 -1.0287 -1.2176
 3452SOL    HW221990   3.941   1.696   6.146 -2.1164 -1.8653 -1.1398
 3453SOL     OW21991   3.760   4.614   5.484 -0.1321  0.0236  0.5327
 3453SOL    HW121992   3.748   4.562   5.564 -0.8343 -2.3534 -1.1368
 3453SOL    HW221993   3.720   4.696   5.512  0.2136  0.8038 -1.2634
 3454SOL     OW21994   4.449   1.127  15.904  0.1474  0.7877  0.2925
 3454SOL    HW121995   4.459   1.094  15.815  0.3034 -0.2018  0.6718
 3454SOL    HW221996   4.518   1.085  15.956 -1.8627 -2.1887  0.5786
 3455SOL     OW21997   4.096   0.616   4.877 -0.1263 -0.1346 -0.2368
 3455SOL    HW121998   4.040   0.682   4.918 -1.1487 -0.7361 -0.6759
 3455SOL    HW221999   4.031   0.557   4.840  0.1360  0.0833 -1.0481
 3456SOL     OW22000   2.393   1.089   1.521 -0.0491  0.1472 -0.0622
 3456SOL    HW122001   2.483   1.068   1.543  0.1046  0.3396 -0.5008
 3456SOL    HW222002   2.353   1.003   1.510 -0.4895  0.0053  2.7033
 3457SOL     OW22003   1.252   0.362  11.397 -0.2406  0.3766  0.5444
 3457SOL    HW122004   1.299   0.282  11.376 -1.1778 -0.6980  2.5801
 3457SOL    HW222005   1.227   0.340  11.486 -1.6120 -0.4207 -0.0303
 3458SOL     OW22006   2.758   1.770  15.169 -0.2509  0.4575 -0.1553
 3458SOL    HW122007   2.738   1.810  15.085  0.8623 -2.0458 -1.5988
 3458SOL    HW222008   2.774   1.848  15.223  1.2901 -0.6734  1.0101
 3459SOL     OW22009   4.284   0.133   3.461  0.2054 -0.4118 -0.7422
 3459SOL    HW122010   4.199   0.121   3.418 -0.4333  1.6916 -0.0850
 3459SOL    HW222011   4.280   0.228   3.472 -2.6512 -0.4029 -1.6720
 3460SOL     OW22012   1.580   1.925  16.863 -0.9603  0.4556  0.6468
 3460SOL    HW122013   1.609   1.862  16.797  0.1764  2.1161 -0.4435
 3460SOL    HW222014   1.551   1.862  16.929  1.3361 -0.6753  0.5795
 3461SOL     OW22015   0.644   1.810   5.105 -0.7900 -0.0770  0.1686
 3461SOL    HW122016   0.616   1.862   5.180 -2.0708  0.7568 -0.8880
 3461SOL    HW222017   0.700   1.745   5.148 -2.4023 -1.7562 -0.2940
 3462SOL     OW22018   4.486   1.966  11.720  0.0409 -0.6045 -0.5663
 3462SOL    HW122019   4.441   1.916  11.652  1.3362 -3.5453  0.7615
 3462SOL    HW222020   4.549   2.005  11.659 -1.4492  2.4770 -0.1332
 3463SOL     OW22021   4.596   1.269   1.287  0.2956  0.2770 -0.1100
 3463SOL    HW122022   4.654   1.261   1.363 -0.4103  0.5384  0.4597
 3463SOL    HW222023   4.641   1.324   1.224  1.1124  0.9335  1.0354
 3464SOL     OW22024   4.714   1.178   1.777  0.0782  0.3133 -0.0051
 3464SOL    HW122025   4.694   1.138   1.692 -2.8464 -0.9656  1.3094
 3464SOL    HW222026   4.636   1.234   1.783 -0.6418 -0.5497 -1.2378
 3465SOL     OW22027   3.043   0.728   4.060 -0.1054  0.2613  0.0757
 3465SOL    HW122028   2.966   0.752   4.110  0.3208 -3.3123  2.4211
 3465SOL    HW222029   3.039   0.778   3.978 -0.9206  0.2861  0.1311
 3466SOL     OW22030   0.265   1.605   4.454 -0.1135 -0.0642 -0.1674
 3466SOL    HW122031   0.243   1.585   4.545 -1.9023 -1.3512 -0.8810
 3466SOL    HW222032   0.230   1.530   4.406  1.4334 -0.2641 -0.9714
 3467SOL     OW22033   2.531   1.481   4.872  0.3462 -0.5147 -0.2668
 3467SOL    HW122034   2.544   1.431   4.792  0.9146 -0.0646 -0.4513
 3467SOL    HW222035   2.561   1.409   4.927  2.5150  1.1250  0.6736
 3468SOL     OW22036   1.969   0.239   4.955 -0.0324 -0.5463 -0.5846
 3468SOL    HW122037   1.906   0.227   4.884 -0.4709  0.7818 -0.4045
 3468SOL    HW222038   2.051   0.259   4.910 -0.3386 -0.0006 -0.8913
 3469SOL     OW22039   3.236   1.195   5.603  0.3082  0.6635 -0.7827
 3469SOL    HW122040   3.257   1.270   5.658 -0.0454  0.8907 -0.9608
 3469SOL    HW222041   3.186   1.139   5.663  0.7010  0.6463 -0.4707
 3470SOL     OW22042   1.264   1.058   0.505 -0.1168 -0.0920  0.4922
 3470SOL    HW122043   1.344   1.067   0.453 -1.3846 -1.5952 -1.7062
 3470SOL    HW222044   1.216   1.139   0.486  1.8348  0.8556 -0.4570
 3471SOL     OW22045   0.446   0.685   6.120  0.1021  0.1960  0.1632
 3471SOL    HW122046   0.514   0.709   6.056  0.2615  0.6274  0.4945
 3471SOL    HW222047   0.430   0.775   6.150 -2.6617 -0.3635  0.3625
 3472SOL     OW22048   0.530   0.529   2.219  0.0537 -0.0302 -0.2960
 3472SOL    HW122049   0.601   0.592   2.207 -1.2401  1.2733 -0.9863
 3472SOL    HW222050   0.572   0.458   2.171  1.1505 -0.6958  1.6151
 3473SOL     OW22051   3.850   1.907   8.515  0.4189 -0.7338 -0.4778
 3473SOL    HW122052   3.930   1.860   8.540  0.4522 -0.5781 -0.2933
 3473SOL    HW222053   3.877   1.921   8.425  0.7899  0.6640 -0.1532
 3474SOL     OW22054   1.667   4.068   3.669 -0.1296  0.0897  0.1170
 3474SOL    HW122055   1.596   4.022   3.713 -0.5364 -0.9646 -1.6308
 3474SOL    HW222056   1.643   4.067   3.576 -0.1278  0.4262  0.1138
 3475SOL     OW22057   1.776   1.260  11.316  0.4870  0.2244 -0.3410
 3475SOL    HW122058   1.759   1.328  11.252 -1.0327  2.2879  2.2651
 3475SOL    HW222059   1.699   1.205  11.299  1.0108 -1.2621  2.0515
 3476SOL     OW22060   2.435   3.641  15.893  0.9700  0.0290  0.5712
 3476SOL    HW122061   2.466   3.701  15.825  0.2781 -0.8825 -0.5444
 3476SOL    HW222062   2.358   3.607  15.848  1.1381  1.5288 -0.8694
 3477SOL     OW22063   3.516   2.655   1.633  0.0254 -0.8620  0.6059
 3477SOL    HW122064   3.501   2.691   1.720  1.7065 -1.3380  1.1119
 3477SOL    HW222065   3.470   2.714   1.574 -0.5247 -1.4028  0.4967
 3478SOL     OW22066   1.865   1.789   2.931  0.1808 -0.0043 -0.5334
 3478SOL    HW122067   1.791   1.811   2.875 -0.6703 -0.2945  0.4693
 3478SOL    HW222068   1.860   1.856   2.999 -0.9795 -1.0862  0.4693
 3479SOL     OW22069   3.118   2.903   4.615 -0.7391 -0.3073  0.2559
 3479SOL    HW122070   3.038   2.909   4.666 -0.9554  0.8167 -0.2138
 3479SOL    HW222071   3.119   2.986   4.566  2.7747 -0.7573 -0.4300
 3480SOL     OW22072   3.822   3.718  16.999  0.5316 -0.0320 -0.2101
 3480SOL    HW122073   3.903   3.748  17.039  0.4126  0.3333 -0.2368
 3480SOL    HW222074   3.821   3.624  17.014 -1.8311  0.0979  0.5382
 3481SOL     OW22075   1.584   3.973   4.952 -0.2429 -0.5072  0.4461
 3481SOL    HW122076   1.567   3.907   4.884  2.2178  2.0922 -2.6556
 3481SOL    HW222077   1.572   4.061   4.916  1.2505 -0.9608 -1.1807
 3482SOL     OW22078   2.158   0.610   1.785 -0.1804 -0.1876 -0.1429
 3482SOL    HW122079   2.199   0.620   1.871  0.6865 -1.7944 -0.3711
 3482SOL    HW222080   2.217   0.549   1.742  0.6892  1.1362 -0.8186
 3483SOL     OW22081   4.085   0.214   2.377 -0.2239 -0.0463  0.0682
 3483SOL    HW122082   4.090   0.136   2.433 -0.9506  0.9772  1.5525
 3483SOL    HW222083   4.180   0.222   2.367 -0.0377 -0.2193  1.6429
 3484SOL     OW22084   0.992   2.694   5.432 -0.2367 -0.2476 -0.2950
 3484SOL    HW122085   1.040   2.741   5.364  1.4422  0.0353  1.0824
 3484SOL    HW222086   1.016   2.602   5.424  0.0227 -0.1872 -0.1844
 3485SOL     OW22087   4.367   2.463   4.464  0.8409  0.5357 -0.6667
 3485SOL    HW122088   4.414   2.505   4.535  1.5058  0.6798 -1.1921
 3485SOL    HW222089   4.398   2.514   4.389 -0.1983  0.0554 -1.4283
 3486SOL     OW22090   2.023   0.124   8.333  0.8421  0.0945  0.2627
 3486SOL    HW122091   2.087   0.063   8.371  0.1682 -0.9142 -0.2318
 3486SOL    HW222092   2.047   0.116   8.241  1.4428 -1.4475  0.5443
 3487SOL     OW22093   2.541   0.040   9.146  0.6672  0.4498 -1.2928
 3487SOL    HW122094   2.529   0.055   9.052 -2.3369  0.1066 -0.9560
 3487SOL    HW222095   2.458   0.014   9.185  1.9029 -1.3667  0.1234
 3488SOL     OW22096   0.886   0.188  16.335  0.7109  0.7723 -0.2968
 3488SOL    HW122097   0.910   0.099  16.309  0.7096  0.0729  2.0298
 3488SOL    HW222098   0.893   0.177  16.430  0.9260 -2.6985 -0.7209
 3489SOL     OW22099   0.440   1.160   5.291 -0.3980  0.1527 -0.2491
 3489SOL    HW122100   0.525   1.117   5.307  0.7750  3.4830  2.3769
 3489SOL    HW222101   0.389   1.092   5.335  0.2508 -0.0119  0.2647
 3490SOL     OW22102   3.594   3.706   3.509 -0.3408  0.4223 -0.3045
 3490SOL    HW122103   3.520   3.651   3.535  1.5553 -2.2362 -0.5849
 3490SOL    HW222104   3.620   3.746   3.592 -0.5874 -0.5495  0.2374
 3491SOL     OW22105   0.874   4.253   7.699 -0.2515 -0.2919 -0.2320
 3491SOL    HW122106   0.856   4.346   7.685  1.5557  0.6056  3.4690
 3491SOL    HW222107   0.891   4.238   7.606  1.6736  0.8151 -0.0583
 3492SOL     OW22108   2.886   4.096   7.863  0.9024  0.2801  0.4159
 3492SOL    HW122109   2.842   4.094   7.778 -0.3999  0.2385  1.0792
 3492SOL    HW222110   2.825   4.056   7.925 -0.5502 -0.2360 -1.3453
 3493SOL     OW22111   4.382   2.371  13.605  0.4763  0.3771  0.1547
 3493SOL    HW122112   4.417   2.459  13.617 -3.3932  1.6363  2.3383
 3493SOL    HW222113   4.438   2.322  13.545 -1.3748 -1.5237 -0.0348
 3494SOL     OW22114   3.557   1.214  13.817 -0.4117 -0.3246 -0.4703
 3494SOL    HW122115   3.527   1.222  13.908  1.1698 -1.9555  0.1892
 3494SOL    HW222116   3.597   1.128  13.807 -2.2330 -1.2614  0.4144
 3495SOL     OW22117   3.591   4.120   9.437 -0.4102 -0.0217  0.1274
 3495SOL    HW122118   3.585   4.085   9.348  2.0650 -1.0015  0.3659
 3495SOL    HW222119   3.502   4.156   9.444 -0.0092  0.9154  0.3962
 3496SOL     OW22120   3.242   2.049  10.602 -0.0334  0.2277 -0.0277
 3496SOL    HW122121   3.279   2.116  10.660  2.0282 -1.3653  0.4876
 3496SOL    HW222122   3.255   1.967  10.649 -0.2588 -0.4620 -1.1826
 3497SOL     OW22123   1.764   1.853   1.649  0.3062 -0.1109 -0.5239
 3497SOL    HW122124   1.853   1.852   1.615 -0.9456  1.7547 -3.8916
 3497SOL    HW222125   1.736   1.929   1.597 -1.8062  0.5416  1.5432
 3498SOL     OW22126   1.876   2.239   0.617  0.0292  0.1608  0.3660
 3498SOL    HW122127   1.794   2.288   0.617  0.7843  1.4191  1.4961
 3498SOL    HW222128   1.902   2.239   0.709 -0.7636  0.3862  0.5962
 3499SOL     OW22129   0.248   3.027   9.479  0.1859 -0.2335 -0.1596
 3499SOL    HW122130   0.216   2.958   9.537  0.7920  0.6749  1.2536
 3499SOL    HW222131   0.216   2.998   9.394 -1.9735 -2.0154  1.2489
 3500SOL     OW22132   3.567   4.318  10.142  0.4428 -0.2103 -0.9301
 3500SOL    HW122133   3.499   4.288  10.082  0.7323  1.0497 -1.9133
 3500SOL    HW222134   3.511   4.326  10.220  0.2974  0.9300 -1.1398
 3501SOL     OW22135   3.482   2.365   3.696 -0.2532 -0.0534 -0.0111
 3501SOL    HW122136   3.478   2.426   3.623 -2.1031 -0.2729 -0.0944
 3501SOL    HW222137   3.466   2.426   3.768 -3.1344  0.9044 -1.4680
 3502SOL     OW22138   4.540   2.464   3.747  0.1241  0.3733  0.7621
 3502SOL    HW122139   4.592   2.415   3.810  2.0418  0.4397 -0.7613
 3502SOL    HW222140   4.567   2.415   3.669  0.3027 -0.3423  1.2735
 3503SOL     OW22141   0.667   2.295   6.060  0.5303  0.3897  0.5437
 3503SOL    HW122142   0.750   2.256   6.033  0.0145  0.9839 -1.8553
 3503SOL    HW222143   0.603   2.232   6.026 -1.2801  1.3215  2.2163
 3504SOL     OW22144   1.548   3.594   5.083  0.3230 -0.1209  0.7629
 3504SOL    HW122145   1.534   3.530   5.152 -1.3363 -1.3089 -0.6822
 3504SOL    HW222146   1.488   3.663   5.110 -0.5818 -0.1809 -1.1085
 3505SOL     OW22147   0.137   3.276   9.860  0.3088  0.2619 -0.1620
 3505SOL    HW122148   0.174   3.322   9.785  3.9557 -0.4582  1.1837
 3505SOL    HW222149   0.190   3.196   9.855 -3.4268 -2.0244 -3.2871
 3506SOL     OW22150   2.179   1.588   6.295  0.5578 -0.4327 -0.0844
 3506SOL    HW122151   2.253   1.549   6.343  1.1473 -0.2790 -0.8703
 3506SOL    HW222152   2.113   1.537   6.342  0.0488  0.2007 -0.1246
 3507SOL     OW22153   1.813   1.087   6.858  0.3074  0.1075 -0.4767
 3507SOL    HW122154   1.884   1.030   6.830  1.8010  2.3462 -1.2254
 3507SOL    HW222155   1.772   1.028   6.922  0.8505  1.8373  1.4852
 3508SOL     OW22156   1.841   0.992   4.008 -0.2087 -0.1027  0.0208
 3508SOL    HW122157   1.862   0.906   4.045  1.4057 -0.1439 -0.9910
 3508SOL    HW222158   1.921   1.009   3.958  0.2677 -1.7617  0.2202
 3509SOL     OW22159   3.056   1.378  16.460  0.4135  0.0829 -0.4431
 3509SOL    HW122160   3.123   1.419  16.406  0.8173  0.1264  0.0904
 3509SOL    HW222161   3.029   1.304  16.406  1.9551 -0.9602  0.2258
 3510SOL     OW22162   2.047   2.725   4.537  0.5279 -0.0131  0.6467
 3510SOL    HW122163   2.115   2.705   4.473  0.2725  1.9116 -0.2266
 3510SOL    HW222164   2.062   2.650   4.595  0.4311 -0.5265  0.0032
 3511SOL     OW22165   2.493   1.740  17.476  0.3815 -0.1468  0.1228
 3511SOL    HW122166   2.557   1.688  17.427  1.3204  1.2900 -0.1866
 3511SOL    HW222167   2.416   1.684  17.467  1.1017 -1.1838  0.3793
 3512SOL     OW22168   1.441   2.997   2.551 -0.3783 -0.2403  0.3193
 3512SOL    HW122169   1.358   3.018   2.508  0.2157  0.4422 -0.4815
 3512SOL    HW222170   1.480   2.944   2.482 -2.0340 -0.7417 -0.2309
 3513SOL     OW22171   3.743   1.390   2.579 -0.0661 -0.0553 -0.3456
 3513SOL    HW122172   3.659   1.431   2.598  0.2717  0.9268 -0.9714
 3513SOL    HW222173   3.774   1.467   2.531 -0.2914  0.8708  0.9848
 3514SOL     OW22174   3.070   4.309   0.980  0.1076 -0.7076 -0.0383
 3514SOL    HW122175   3.118   4.234   1.014  1.9839 -0.6398 -2.4976
 3514SOL    HW222176   3.046   4.292   0.889  0.1367  0.2474 -0.2316
 3515SOL     OW22177   1.364   0.656   1.141  0.0676 -0.0582 -0.2234
 3515SOL    HW122178   1.300   0.604   1.189  1.9423 -0.6423  1.6132
 3515SOL    HW222179   1.317   0.699   1.070  0.7840 -2.3633 -2.0865
 3516SOL     OW22180   3.838   3.412   7.080  0.2578 -0.3864  1.1546
 3516SOL    HW122181   3.853   3.447   7.168 -0.2522 -1.4095  1.6529
 3516SOL    HW222182   3.743   3.412   7.090  0.1180 -0.9790 -0.1270
 3517SOL     OW22183   3.941   0.302   8.305  0.1682  0.3795  0.0366
 3517SOL    HW122184   3.998   0.240   8.350  2.8132  2.2783 -0.7112
 3517SOL    HW222185   3.907   0.359   8.374  1.1553  1.0402 -0.0245
 3518SOL     OW22186   2.634   1.101  10.347 -0.0821  0.3653 -0.1279
 3518SOL    HW122187   2.673   1.187  10.337  0.5576  0.0476 -0.3440
 3518SOL    HW222188   2.707   1.042  10.365  1.2997  2.1607  0.1521
 3519SOL     OW22189   4.713   3.791   5.697  0.2454  0.2824 -0.5445
 3519SOL    HW122190   4.722   3.737   5.619  2.9907  0.0183 -0.0412
 3519SOL    HW222191   0.062   3.782   5.743 -0.0537 -0.4844 -0.1536
 3520SOL     OW22192   0.886   1.605   5.157 -0.2132  0.0874 -0.3983
 3520SOL    HW122193   0.838   1.529   5.189 -0.9394  1.0443  0.7716
 3520SOL    HW222194   0.945   1.617   5.231 -3.0895 -0.4407  1.9634
 3521SOL     OW22195   0.935   2.055  11.185 -0.2823 -0.1408  0.2378
 3521SOL    HW122196   0.865   2.110  11.150 -0.8015 -2.3047 -2.1018
 3521SOL    HW222197   0.892   1.999  11.250 -1.9816  2.4406  1.3327
 3522SOL     OW22198   1.019   1.206  11.685 -0.1069  0.0442 -0.0231
 3522SOL    HW122199   1.066   1.289  11.680 -1.0145  0.3976 -2.6789
 3522SOL    HW222200   1.020   1.183  11.592 -1.6893 -1.6833  0.3958
 3523SOL     OW22201   0.363   4.698  17.007 -0.1812 -0.4196 -0.1506
 3523SOL    HW122202   0.394   4.705  16.917  1.4211 -0.2323  0.4153
 3523SOL    HW222203   0.391   4.611  17.036  0.6789  0.2023  0.8658
 3524SOL     OW22204   3.478   0.206   8.769 -0.1349 -0.3535 -0.0587
 3524SOL    HW122205   3.531   0.164   8.836  0.4471 -0.1128 -0.3659
 3524SOL    HW222206   3.540   0.279   8.757  0.6752 -0.9384  0.5508
 3525SOL     OW22207   3.933   4.542   4.906  0.1904 -0.2971  0.6716
 3525SOL    HW122208   3.965   4.629   4.931 -0.0524 -0.5672  1.9486
 3525SOL    HW222209   3.988   4.529   4.829  1.0762  1.2027  1.0540
 3526SOL     OW22210   2.668   1.968   8.766  0.3746 -0.1334 -0.1929
 3526SOL    HW122211   2.704   1.879   8.766  2.1093  0.5675 -0.2142
 3526SOL    HW222212   2.744   1.999   8.815 -0.0806  1.2587 -0.3626
 3527SOL     OW22213   0.542   1.454  16.068  0.5878 -0.3187 -0.8684
 3527SOL    HW122214   0.629   1.442  16.031  1.6576  2.5873  0.6941
 3527SOL    HW222215   0.554   1.511  16.144  0.3713 -2.1378  0.5180
 3528SOL     OW22216   1.503   4.007   3.882  0.3677 -0.4874 -0.4406
 3528SOL    HW122217   1.582   3.983   3.930 -0.8726 -0.1987  1.7462
 3528SOL    HW222218   1.468   4.068   3.947  0.5943 -0.7190 -0.1071
 3529SOL     OW22219   0.391   0.687  10.805 -0.2224  0.3032  0.4214
 3529SOL    HW122220   0.307   0.696  10.851 -1.1163 -0.1902 -1.1182
 3529SOL    HW222221   0.447   0.751  10.849 -0.7442 -1.4540  3.6672
 3530SOL     OW22222   2.753   3.469   3.968  0.3461 -0.5572 -0.2932
 3530SOL    HW122223   2.705   3.440   4.046  0.3456 -0.4836 -0.2666
 3530SOL    HW222224   2.745   3.395   3.907  0.5671 -1.4690  0.7807
 3531SOL     OW22225   1.341   3.190   2.255 -0.1181 -0.2176  0.3363
 3531SOL    HW122226   1.356   3.215   2.346  1.2719 -1.3642  0.4177
 3531SOL    HW222227   1.259   3.237   2.237  0.6944  1.0989  0.0647
 3532SOL     OW22228   4.477   1.021   3.565 -0.4120 -0.7384 -0.1099
 3532SOL    HW122229   4.391   1.029   3.523 -0.5569  0.8843  0.4870
 3532SOL    HW222230   4.449   0.943   3.612 -1.9871 -0.2320 -0.1979
 3533SOL     OW22231   1.509   1.414  17.070  0.4775  0.2566 -0.4588
 3533SOL    HW122232   1.465   1.489  17.109  0.8369  0.3018 -0.1404
 3533SOL    HW222233   1.456   1.393  16.993  2.2826 -0.1910 -1.5735
 3534SOL     OW22234   0.351   4.543   0.570  0.0536  0.4333 -0.7874
 3534SOL    HW122235   0.258   4.538   0.548  0.3926  2.2131 -2.5731
 3534SOL    HW222236   0.389   4.459   0.545 -0.2679 -0.1246  0.5850
 3535SOL     OW22237   2.436   3.031   4.536 -0.1992  0.4513  0.1582
 3535SOL    HW122238   2.347   3.030   4.501  0.2124  1.0230 -0.9228
 3535SOL    HW222239   2.430   3.016   4.630  1.1166 -0.1621  0.1565
 3536SOL     OW22240   4.079   4.610   9.143 -0.4329  0.0102  0.1809
 3536SOL    HW122241   4.031   4.615   9.226 -0.1095 -0.5270  0.4022
 3536SOL    HW222242   4.034   4.681   9.097 -0.0021  0.9777  1.2453
 3537SOL     OW22243   2.223   0.259   6.231 -0.4102 -0.1771 -0.3926
 3537SOL    HW122244   2.213   0.167   6.258 -1.0147 -0.2460 -0.8461
 3537SOL    HW222245   2.141   0.262   6.181 -1.1940 -0.7670  0.8575
 3538SOL     OW22246   1.847   2.414  10.962  0.6847 -0.2696 -0.3505
 3538SOL    HW122247   1.877   2.503  10.943 -1.3107 -0.0111 -2.3324
 3538SOL    HW222248   1.924   2.370  10.998 -0.1150  0.1267  1.8469
 3539SOL     OW22249   1.719   1.867  13.900 -0.5135  0.4915 -0.2402
 3539SOL    HW122250   1.699   1.802  13.967 -3.0099  1.6483  0.1249
 3539SOL    HW222251   1.756   1.937  13.953 -0.2846 -1.3715  2.0452
 3540SOL     OW22252   4.090   3.064   9.451  0.0312 -0.9000 -0.4472
 3540SOL    HW122253   4.075   3.155   9.476  0.2777 -1.0038  0.0723
 3540SOL    HW222254   4.174   3.073   9.407  0.3679 -0.6786  0.2359
 3541SOL     OW22255   0.070   3.551   5.194 -0.0445  0.0430 -0.1808
 3541SOL    HW122256   0.055   3.459   5.216 -1.9092  0.3923  0.0324
 3541SOL    HW222257   4.722   3.559   5.148 -1.0949  2.4187  2.1045
 3542SOL     OW22258   2.226   1.047   0.905 -0.5090  0.3014 -0.9080
 3542SOL    HW122259   2.232   1.092   0.990  0.8488 -2.2381  0.3652
 3542SOL    HW222260   2.131   1.037   0.904 -0.7853  2.6983  1.5295
 3543SOL     OW22261   4.441   2.544   8.709 -0.4214  0.4074  0.1657
 3543SOL    HW122262   4.362   2.491   8.693 -0.3514  0.3126  0.1333
 3543SOL    HW222263   4.457   2.585   8.624 -0.6256 -0.4225 -0.2765
 3544SOL     OW22264   1.634   2.891   4.887  0.6208 -0.7443  0.0179
 3544SOL    HW122265   1.566   2.873   4.951 -0.6529  1.8548 -0.5826
 3544SOL    HW222266   1.628   2.813   4.832 -0.0002 -0.1067 -0.8216
 3545SOL     OW22267   0.689   3.172   2.095  0.4039  0.3435  0.6552
 3545SOL    HW122268   0.635   3.135   2.026  0.9989 -1.8133  1.3470
 3545SOL    HW222269   0.764   3.199   2.043  0.5695  1.4595  1.4817
 3546SOL     OW22270   0.768   2.086   4.462  0.1846  0.3420  0.2882
 3546SOL    HW122271   0.813   2.002   4.473 -0.7900 -0.3193 -0.6840
 3546SOL    HW222272   0.813   2.150   4.516 -0.2845  0.8351  0.0990
 3547SOL     OW22273   2.070   4.459   7.206  0.7724  0.1400  0.0616
 3547SOL    HW122274   2.143   4.411   7.167  1.7160  2.4706 -1.0032
 3547SOL    HW222275   2.063   4.527   7.139  0.8594 -0.8572 -0.9639
 3548SOL     OW22276   4.181   1.700  15.762 -0.3439 -0.6406  0.0145
 3548SOL    HW122277   4.146   1.620  15.722  1.6440 -2.2595  1.5153
 3548SOL    HW222278   4.102   1.729  15.806 -0.2067 -1.3325  0.7142
 3549SOL     OW22279   2.204   2.373  15.959 -0.1205 -0.4924 -0.8339
 3549SOL    HW122280   2.167   2.285  15.951  0.4600 -0.6424 -1.8643
 3549SOL    HW222281   2.262   2.355  16.033 -1.4870  0.3557  0.4568
 3550SOL     OW22282   1.391   3.057   6.911 -0.4342 -0.2779  0.0854
 3550SOL    HW122283   1.454   3.038   6.981  0.7054  0.0312 -0.8549
 3550SOL    HW222284   1.415   3.148   6.893 -0.3674 -0.4537 -0.7186
 3551SOL     OW22285   0.882   1.862   7.152  0.2716  0.1288 -0.2632
 3551SOL    HW122286   0.913   1.792   7.210 -0.1205  0.6312  0.5488
 3551SOL    HW222287   0.834   1.810   7.088 -1.0733 -0.7238  1.4448
 3552SOL     OW22288   2.370   0.954  15.370  0.0656 -0.0375 -0.1672
 3552SOL    HW122289   2.423   0.874  15.380 -1.5270 -1.0202  0.4669
 3552SOL    HW222290   2.278   0.931  15.383 -0.6274  3.0707  0.2734
 3553SOL     OW22291   0.936   2.006  15.421  0.3383 -0.0666  0.1223
 3553SOL    HW122292   1.026   1.986  15.450  0.7446  3.3619  1.1862
 3553SOL    HW222293   0.939   2.101  15.414  0.3952  0.2103  3.7480
 3554SOL     OW22294   1.036   1.196  15.078 -0.2121 -0.8417 -0.3674
 3554SOL    HW122295   1.105   1.226  15.019  0.4515  2.0632  1.9020
 3554SOL    HW222296   0.959   1.250  15.061 -1.5949 -1.8237  2.7977
 3555SOL     OW22297   3.861   3.191   6.636 -0.0456 -0.2066  0.3948
 3555SOL    HW122298   3.954   3.169   6.637 -0.0461 -0.2092  0.3460
 3555SOL    HW222299   3.822   3.108   6.607  1.2766 -0.6458 -0.1224
 3556SOL     OW22300   2.449   3.603   6.428  0.1288 -0.2064  0.0053
 3556SOL    HW122301   2.420   3.530   6.483  1.4138 -0.4718  0.3292
 3556SOL    HW222302   2.464   3.546   6.352 -0.2140 -1.5775  0.9677
 3557SOL     OW22303   3.433   2.689   9.219 -0.2752 -0.3989 -0.3959
 3557SOL    HW122304   3.403   2.777   9.238 -2.0547 -1.2165  0.6072
 3557SOL    HW222305   3.527   2.707   9.219 -0.3858  0.1155  2.0976
 3558SOL     OW22306   0.286   2.088   1.272 -0.2502 -0.0155  0.5156
 3558SOL    HW122307   0.231   2.065   1.347 -1.5654  0.6882 -0.2367
 3558SOL    HW222308   0.368   2.075   1.319  0.0417  0.2814  0.0804
 3559SOL     OW22309   1.154   4.693   2.124  0.2340 -0.4306 -0.3905
 3559SOL    HW122310   1.223   4.628   2.137 -0.2475 -0.5034  1.8516
 3559SOL    HW222311   1.086   4.631   2.099  0.3794 -1.0870  0.8708
 3560SOL     OW22312   0.906   0.960   4.881 -0.4286 -0.8650  0.4623
 3560SOL    HW122313   0.976   0.929   4.823  1.8548  1.9885  1.7264
 3560SOL    HW222314   0.834   0.914   4.837 -2.4826  1.6294  1.1949
 3561SOL     OW22315   3.720   3.634   3.111 -0.7096 -0.7217 -0.3205
 3561SOL    HW122316   3.765   3.622   3.027  1.1540  1.6673  0.3390
 3561SOL    HW222317   3.647   3.574   3.097 -1.0630 -0.3816  0.0680
 3562SOL     OW22318   4.614   1.551   7.187  0.6524 -0.1135 -0.0570
 3562SOL    HW122319   4.609   1.571   7.093  1.5630 -0.3119 -0.1440
 3562SOL    HW222320   4.637   1.458   7.179 -1.8093 -0.7421  0.3071
 3563SOL     OW22321   0.721   0.887   0.652  0.4989  0.1910 -0.4476
 3563SOL    HW122322   0.657   0.957   0.637 -0.4321 -0.5171  0.2284
 3563SOL    HW222323   0.657   0.816   0.659  0.5572  0.3310  1.3908
 3564SOL     OW22324   0.913   4.373  10.456 -0.2412 -0.4893 -0.0240
 3564SOL    HW122325   0.847   4.345  10.519 -1.5013 -0.6878 -1.4362
 3564SOL    HW222326   0.871   4.445  10.409  0.3704  0.5539  1.0242
 3565SOL     OW22327   2.582   2.754  12.234  0.1535 -0.0421 -0.1659
 3565SOL    HW122328   2.560   2.673  12.281 -0.3616 -0.6021 -1.3704
 3565SOL    HW222329   2.611   2.803  12.310 -0.4314  0.6530 -0.3885
 3566SOL     OW22330   2.476   1.808  10.051  0.0347  0.1339  0.0001
 3566SOL    HW122331   2.397   1.796  10.105  0.0376  1.0934  0.2177
 3566SOL    HW222332   2.431   1.839   9.972 -0.5372  0.0250  0.2808
 3567SOL     OW22333   4.536   3.255   8.603  0.1391 -0.0234  0.5555
 3567SOL    HW122334   4.584   3.315   8.661 -1.5251  0.8459  1.0233
 3567SOL    HW222335   4.450   3.282   8.635 -1.4217  0.4823 -4.2173
 3568SOL     OW22336   3.250   4.496   9.471  0.2118  0.0126 -0.7357
 3568SOL    HW122337   3.272   4.589   9.468 -1.1803  0.4316  1.9392
 3568SOL    HW222338   3.334   4.457   9.448  0.0597  0.2154 -1.6588
 3569SOL     OW22339   4.118   3.541   9.148 -0.3459 -0.4003  0.2859
 3569SOL    HW122340   4.151   3.515   9.234 -3.1841 -0.1722  1.4446
 3569SOL    HW222341   4.133   3.635   9.144 -3.1243  0.0468  0.1647
 3570SOL     OW22342   2.154   3.507   6.687  0.6130  0.5442  0.6274
 3570SOL    HW122343   2.234   3.455   6.683  0.0106 -0.4628  1.4359
 3570SOL    HW222344   2.186   3.594   6.666 -2.1585  1.4741  0.2187
 3571SOL     OW22345   4.148   2.907   3.517  0.1517 -0.6490  0.0597
 3571SOL    HW122346   4.081   2.844   3.491  0.7487 -1.3678  0.2697
 3571SOL    HW222347   4.176   2.871   3.601  0.9614  0.2500  0.1765
 3572SOL     OW22348   0.031   2.114   7.192 -0.8453  0.0094 -0.0626
 3572SOL    HW122349   0.124   2.093   7.191 -0.7919  0.1925  0.8465
 3572SOL    HW222350   0.012   2.084   7.281 -0.8140  0.8677  0.2351
 3573SOL     OW22351   1.556   3.199   1.596  0.0776  0.1133  0.0329
 3573SOL    HW122352   1.549   3.144   1.674 -3.4229 -0.5587 -0.7651
 3573SOL    HW222353   1.638   3.245   1.612 -0.6503  0.8279  1.7111
 3574SOL     OW22354   3.031   3.776  17.136  0.4204 -0.1911  0.9203
 3574SOL    HW122355   2.970   3.703  17.138  0.0486  0.0473 -1.7701
 3574SOL    HW222356   3.054   3.774  17.043 -1.7853  1.3070  0.3580
 3575SOL     OW22357   2.947   2.805   9.871 -0.0912  0.1564  0.7884
 3575SOL    HW122358   2.912   2.767   9.790  0.4701  0.1497  0.5508
 3575SOL    HW222359   2.944   2.898   9.851  0.6271  0.0188  0.0452
 3576SOL     OW22360   0.057   3.184   8.467 -0.3447 -0.0471  0.3751
 3576SOL    HW122361   4.723   3.178   8.533  0.6424 -0.7454  1.3571
 3576SOL    HW222362   0.120   3.123   8.507  0.9204  1.6791  1.0496
 3577SOL     OW22363   1.360   0.923  11.874 -0.1900 -0.3876 -0.6328
 3577SOL    HW122364   1.382   1.010  11.839 -0.8952  0.2780  0.5653
 3577SOL    HW222365   1.267   0.930  11.896  0.5839  0.8730  2.3563
 3578SOL     OW22366   0.230   1.721   6.284  0.0991 -0.2018 -0.0271
 3578SOL    HW122367   0.263   1.811   6.289  1.7996 -0.9115  1.4135
 3578SOL    HW222368   0.313   1.682   6.313 -0.0652 -0.8166 -0.3955
 3579SOL     OW22369   2.489   2.304   1.040 -0.0522  0.2000  0.1492
 3579SOL    HW122370   2.491   2.383   0.986  0.6843 -0.1544 -0.3469
 3579SOL    HW222371   2.497   2.333   1.131  1.4156  1.0408 -0.2519
 3580SOL     OW22372   3.288   1.372   7.588  0.0025 -0.3306 -0.2729
 3580SOL    HW122373   3.292   1.307   7.517 -1.5073  3.5877 -3.8843
 3580SOL    HW222374   3.216   1.349   7.646  0.5835 -0.3140  0.4563
 3581SOL     OW22375   3.119   0.732   5.890 -0.1819 -0.6478  0.4988
 3581SOL    HW122376   3.068   0.755   5.813 -0.0034  1.4369  1.0020
 3581SOL    HW222377   3.202   0.777   5.873 -0.1666 -0.6563  0.5531
 3582SOL     OW22378   2.860   4.677   3.035 -0.0473 -0.6221 -0.1245
 3582SOL    HW122379   2.942   4.630   3.021  0.0348 -1.0138  1.7025
 3582SOL    HW222380   2.803   4.605   3.064  1.3795 -1.7119 -0.0188
 3583SOL     OW22381   0.576   1.772  12.539 -0.5397 -0.0405  0.4381
 3583SOL    HW122382   0.546   1.764  12.630  0.3371 -1.3284  0.6164
 3583SOL    HW222383   0.651   1.828  12.555 -1.3579  0.1747  3.6206
 3584SOL     OW22384   0.139   4.702  11.081 -0.4215  0.2187  0.2355
 3584SOL    HW122385   0.080   4.698  11.156 -0.6701 -0.0716  0.0238
 3584SOL    HW222386   0.078   4.721  11.009  0.2947 -0.4377 -0.5437
 3585SOL     OW22387   3.091   4.039   2.278 -1.3528  0.7805  0.1254
 3585SOL    HW122388   3.026   4.046   2.347 -3.1340 -0.1289 -1.4584
 3585SOL    HW222389   3.045   4.026   2.195 -0.2355  0.0303 -0.3803
 3586SOL     OW22390   0.165   0.243   3.306 -0.5797  0.3160  0.0799
 3586SOL    HW122391   0.158   0.307   3.236  1.9050  0.6864  0.1791
 3586SOL    HW222392   0.072   0.219   3.308 -0.1843 -1.2003  0.5052
 3587SOL     OW22393   2.173   4.546  15.921 -0.6345  0.5020  0.4513
 3587SOL    HW122394   2.176   4.455  15.889 -0.2738  0.0472  1.7676
 3587SOL    HW222395   2.159   4.535  16.015 -0.6427 -0.3718  0.3519
 3588SOL     OW22396   1.326   3.460   5.303 -0.3133 -0.2153 -0.0901
 3588SOL    HW122397   1.370   3.528   5.354 -0.6835 -0.7588  0.9391
 3588SOL    HW222398   1.274   3.421   5.373 -0.4372  0.1776  0.0365
 3589SOL     OW22399   3.059   2.035  12.200  0.5421 -0.1551  0.1112
 3589SOL    HW122400   3.114   1.971  12.246 -0.2612 -0.2092  1.0019
 3589SOL    HW222401   3.029   2.086  12.275  2.9685 -1.3175  1.8840
 3590SOL     OW22402   4.531   0.295  14.715 -0.1364  0.2155 -0.4869
 3590SOL    HW122403   4.525   0.383  14.678  0.8892  0.8272  0.8005
 3590SOL    HW222404   4.464   0.255  14.659 -0.2047 -0.5854  0.1619
 3591SOL     OW22405   2.059   1.819   0.040  0.1973 -0.2452  0.2057
 3591SOL    HW122406   2.137   1.864   0.073 -0.5641  0.1657  1.4480
 3591SOL    HW222407   1.996   1.819   0.113 -0.9887  0.4340 -0.8205
 3592SOL     OW22408   3.707   3.832   2.256 -0.0732  0.0315 -0.3507
 3592SOL    HW122409   3.678   3.747   2.288  0.8625 -1.0915 -2.4954
 3592SOL    HW222410   3.659   3.898   2.307 -0.5609 -0.1516 -0.5727
 3593SOL     OW22411   0.001   2.912  11.700 -0.1656  0.0472 -0.1111
 3593SOL    HW122412   4.705   2.912  11.610  1.9827  1.4752 -0.8503
 3593SOL    HW222413   0.061   2.837  11.705 -1.3888 -0.7306  2.9671
 3594SOL     OW22414   1.541   4.230   6.331  0.1488  0.1759  0.0060
 3594SOL    HW122415   1.618   4.177   6.314  0.1531  0.5858 -1.2367
 3594SOL    HW222416   1.579   4.315   6.354  0.1444 -0.3320  1.8726
 3595SOL     OW22417   0.345   1.640   0.163  0.4257 -0.4117 -0.5996
 3595SOL    HW122418   0.280   1.571   0.149 -0.1005 -0.0708  0.1881
 3595SOL    HW222419   0.327   1.703   0.093 -1.1744 -1.9599 -1.5748
 3596SOL     OW22420   0.343   1.892   7.964 -0.0060 -0.0700  0.4658
 3596SOL    HW122421   0.357   1.883   8.058 -0.4290 -3.7409  0.1629
 3596SOL    HW222422   0.306   1.981   7.969  2.3558  1.0754 -2.4185
 3597SOL     OW22423   0.492   0.298  10.161  0.8051 -0.3269 -0.3539
 3597SOL    HW122424   0.530   0.210  10.167 -0.6347 -0.9742 -0.5952
 3597SOL    HW222425   0.471   0.295  10.068 -1.8238 -1.8772  0.2706
 3598SOL     OW22426   0.049   1.312   8.580 -0.1643 -0.2099 -0.8594
 3598SOL    HW122427   0.080   1.395   8.615  0.2697  0.2515 -2.3383
 3598SOL    HW222428   0.015   1.346   8.498 -1.1859 -1.4969 -0.9767
 3599SOL     OW22429   1.902   4.003  14.809  0.6622  0.8325  0.2894
 3599SOL    HW122430   1.882   4.044  14.725 -2.7430  0.1007  0.7745
 3599SOL    HW222431   1.821   3.973  14.850  0.1241  0.4092 -1.0614
 3600SOL     OW22432   0.012   4.220   9.518 -0.0253  0.2715  0.2925
 3600SOL    HW122433   0.088   4.259   9.561  0.4806  0.5664 -0.8797
 3600SOL    HW222434   4.678   4.287   9.524  1.3368  1.7966 -1.1121
 3601SOL     OW22435   2.903   0.217   0.555  0.2130  0.0533  0.3560
 3601SOL    HW122436   2.820   0.248   0.518  0.5813 -1.4134 -1.6673
 3601SOL    HW222437   2.881   0.182   0.642  1.7334 -1.1763  0.2306
 3602SOL     OW22438   4.047   0.765   9.767 -0.0768 -0.0859 -0.0256
 3602SOL    HW122439   4.022   0.848   9.809  0.7366 -0.2640  0.8015
 3602SOL    HW222440   3.960   0.725   9.759  0.2304 -0.0423 -3.3170
 3603SOL     OW22441   2.081   3.045  12.818  0.9071 -0.7206  0.0740
 3603SOL    HW122442   2.006   3.093  12.852  0.4216 -0.5680 -1.2392
 3603SOL    HW222443   2.152   3.046  12.883 -0.5658  0.0334  1.6689
 3604SOL     OW22444   2.109   0.408  14.517  0.2137 -0.1248  0.0331
 3604SOL    HW122445   2.089   0.349  14.444 -2.2256 -0.1268  0.7117
 3604SOL    HW222446   2.093   0.346  14.589  0.1521 -1.0786 -0.8023
 3605SOL     OW22447   3.284   1.058   1.194 -0.0954  0.2430  0.2646
 3605SOL    HW122448   3.197   1.044   1.157 -0.6671  3.5484  0.3966
 3605SOL    HW222449   3.257   1.107   1.271 -0.5154  1.2704 -0.5401
 3606SOL     OW22450   1.117   0.748  17.083 -0.7267  0.5295  0.0188
 3606SOL    HW122451   1.146   0.762  17.173 -1.1563  0.3229  0.1890
 3606SOL    HW222452   1.155   0.663  17.059 -1.1283 -0.2172  2.0818
 3607SOL     OW22453   2.979   2.595   6.068 -0.6759 -0.0823 -0.0974
 3607SOL    HW122454   3.028   2.522   6.106 -1.4123 -0.5405 -0.0253
 3607SOL    HW222455   2.951   2.631   6.152  2.2361 -0.7867  1.1601
 3608SOL     OW22456   1.112   2.977  16.000 -0.5187  0.1936 -0.2280
 3608SOL    HW122457   1.034   2.927  15.973  0.6940 -1.6956 -0.1851
 3608SOL    HW222458   1.105   2.955  16.092  0.1361  0.2874 -0.1620
 3609SOL     OW22459   3.139   1.985   4.157  0.7555 -0.5766  0.1573
 3609SOL    HW122460   3.229   1.985   4.124 -0.8296 -0.7447 -4.1413
 3609SOL    HW222461   3.091   1.958   4.078 -1.7851 -0.9537  1.8173
 3610SOL     OW22462   0.155   2.113  10.755  0.1062  0.4528 -0.1632
 3610SOL    HW122463   0.236   2.096  10.803 -0.6454  0.0976  0.9786
 3610SOL    HW222464   0.164   2.208  10.758  1.2864  0.3241  0.3569
 3611SOL     OW22465   1.156   2.467   6.588  0.4425  0.4649  0.0798
 3611SOL    HW122466   1.075   2.492   6.633 -0.2511 -1.9746  0.2053
 3611SOL    HW222467   1.184   2.394   6.643  0.0949 -1.4826 -2.3172
 3612SOL     OW22468   4.149   3.839  15.694 -0.3755 -0.2477 -0.4167
 3612SOL    HW122469   4.197   3.762  15.722 -2.1862 -0.9658  0.6625
 3612SOL    HW222470   4.191   3.875  15.616  0.3771 -0.5296 -0.1348
 3613SOL     OW22471   1.556   3.914   7.534 -0.5443 -0.2241  0.3644
 3613SOL    HW122472   1.574   3.995   7.485  0.5656 -0.5728  0.1955
 3613SOL    HW222473   1.476   3.942   7.579  0.2989 -1.1186  2.4303
 3614SOL     OW22474   1.417   2.804   6.798  0.3483 -0.0610  0.3206
 3614SOL    HW122475   1.423   2.899   6.809  1.3441 -0.0913  0.0745
 3614SOL    HW222476   1.328   2.797   6.765  0.3484  2.2459 -0.1820
 3615SOL     OW22477   0.554   4.695   6.420  0.0937 -0.1897  0.5829
 3615SOL    HW122478   0.470   0.001   6.439  0.4304  1.0064 -0.5217
 3615SOL    HW222479   0.529   4.634   6.351  1.0010  0.6274 -0.4832
 3616SOL     OW22480   0.091   3.245   1.883  0.2246 -0.0682  0.1617
 3616SOL    HW122481   0.186   3.243   1.889  0.2584  0.8563  0.0013
 3616SOL    HW222482   0.065   3.191   1.957  2.8713 -3.4343 -1.3591
 3617SOL     OW22483   3.590   1.033  16.688  0.2863  0.3707 -0.4604
 3617SOL    HW122484   3.602   0.993  16.774 -0.0113  0.8690 -0.1899
 3617SOL    HW222485   3.505   1.074  16.700  1.3479  2.0058  1.3291
 3618SOL     OW22486   1.966   4.187   3.878  0.3116  0.1156 -0.0720
 3618SOL    HW122487   2.016   4.263   3.848  2.5564 -0.9336  0.9750
 3618SOL    HW222488   1.956   4.131   3.801 -1.5405  0.0094  0.2465
 3619SOL     OW22489   1.375   1.827  11.042 -0.2163  0.2828 -0.0059
 3619SOL    HW122490   1.305   1.859  10.986  0.2098 -1.4698 -1.5410
 3619SOL    HW222491   1.334   1.814  11.128  0.2284 -0.6896  0.0673
 3620SOL     OW22492   4.163   1.321  14.514  0.9239 -1.1044  0.4508
 3620SOL    HW122493   4.253   1.323  14.546  0.4277 -0.4083  1.7877
 3620SOL    HW222494   4.168   1.382  14.440 -0.4695 -1.0266  0.4283
 3621SOL     OW22495   1.474   0.516  10.673  0.3121 -0.3067 -0.3505
 3621SOL    HW122496   1.512   0.603  10.687  1.0510 -0.6571 -0.1723
 3621SOL    HW222497   1.551   0.461  10.655  2.0018  1.7942  0.5206
 3622SOL     OW22498   0.653   0.294   4.571 -0.2374  0.2880  0.6177
 3622SOL    HW122499   0.669   0.338   4.487  1.8623 -0.5975  0.5703
 3622SOL    HW222500   0.732   0.324   4.615 -0.0681 -0.4979  0.8489
 3623SOL     OW22501   0.037   1.915  11.194 -0.3853 -0.2962  0.2328
 3623SOL    HW122502   4.712   1.859  11.144 -1.1598  0.7830 -0.0450
 3623SOL    HW222503   0.121   1.902  11.151  0.4747  0.6206  1.6430
 3624SOL     OW22504   1.914   3.703   7.818 -0.2079 -0.1460 -0.1862
 3624SOL    HW122505   1.848   3.651   7.771 -0.4579  0.6076 -0.6594
 3624SOL    HW222506   1.865   3.771   7.863 -0.7896 -0.6557 -0.0455
 3625SOL     OW22507   3.206   4.134  16.665  0.1092  0.4141  0.1396
 3625SOL    HW122508   3.208   4.209  16.605 -1.3547 -0.4206 -0.9371
 3625SOL    HW222509   3.283   4.085  16.636  0.5628  1.3714 -0.2968
 3626SOL     OW22510   4.034   2.258   8.554  0.4726  0.0055 -0.2655
 3626SOL    HW122511   4.045   2.342   8.508  0.5246 -1.4780 -2.9550
 3626SOL    HW222512   3.963   2.220   8.502  0.4506  0.6448 -0.7072
 3627SOL     OW22513   1.498   3.901   1.763 -0.1306 -0.3403  0.1998
 3627SOL    HW122514   1.508   3.940   1.677  1.8080 -0.6628  0.2709
 3627SOL    HW222515   1.547   3.821   1.743 -0.9881 -0.7567 -0.2423
 3628SOL     OW22516   2.199   0.444   3.477  0.1800 -0.0273 -0.2273
 3628SOL    HW122517   2.240   0.525   3.506 -0.3519  0.1576  0.0049
 3628SOL    HW222518   2.138   0.429   3.549  1.3294  0.5256  0.8772
 3629SOL     OW22519   0.994   2.305   4.287  0.3662 -0.1544  0.6321
 3629SOL    HW122520   1.063   2.366   4.314  1.4518 -0.6223 -1.1300
 3629SOL    HW222521   1.039   2.223   4.308  0.2633 -0.0445  1.3052
 3630SOL     OW22522   0.980   1.652   5.447  0.6315 -0.1644  0.2200
 3630SOL    HW122523   0.948   1.705   5.520 -3.9900  1.0297 -2.6467
 3630SOL    HW222524   0.964   1.562   5.475  1.0059 -0.5504 -0.7944
 3631SOL     OW22525   1.119   4.668   3.034  0.0691  0.9600 -0.4453
 3631SOL    HW122526   1.048   4.705   2.982 -1.5185 -0.6966  0.5363
 3631SOL    HW222527   1.135   0.004   3.095  0.6168 -0.5775  1.2066
 3632SOL     OW22528   2.396   2.006   7.448  0.2315  0.3960 -0.2224
 3632SOL    HW122529   2.353   2.018   7.363  0.2592  1.4346 -0.0900
 3632SOL    HW222530   2.467   2.070   7.454 -2.1415  2.7766  2.7531
 3633SOL     OW22531   0.643   1.648  10.972 -0.2115 -0.3252 -0.2865
 3633SOL    HW122532   0.704   1.685  10.908  0.6863 -1.1301  0.0942
 3633SOL    HW222533   0.637   1.715  11.040 -0.1132  1.2328 -1.8125
 3634SOL     OW22534   4.161   2.540   5.147 -0.8026 -0.3611  0.9608
 3634SOL    HW122535   4.146   2.620   5.097 -1.0983 -0.8025  0.3470
 3634SOL    HW222536   4.166   2.478   5.074  0.7173  0.2583  0.5561
 3635SOL     OW22537   4.017   2.674  10.288 -0.2506  0.0767  0.0177
 3635SOL    HW122538   3.958   2.750  10.284  0.7573  0.8269 -0.6527
 3635SOL    HW222539   4.017   2.652  10.381  0.7931  0.3649  0.0922
 3636SOL     OW22540   4.459   4.535   0.449  0.1045  0.1811  0.2937
 3636SOL    HW122541   4.482   4.474   0.519  0.9827  0.8345  0.5753
 3636SOL    HW222542   4.410   4.608   0.487  2.9120  2.6178 -0.7812
 3637SOL     OW22543   1.999   1.946  16.743 -0.3056  0.1836 -0.4604
 3637SOL    HW122544   2.002   1.851  16.756  0.3676  0.5699  2.1700
 3637SOL    HW222545   2.052   1.966  16.667  0.6811 -0.5097  0.0485
 3638SOL     OW22546   1.690   3.804   8.230  0.1318 -0.3692 -0.0719
 3638SOL    HW122547   1.634   3.880   8.215  0.0232  0.2969  3.8269
 3638SOL    HW222548   1.626   3.738   8.256  2.8438 -2.4409  1.3439
 3639SOL     OW22549   2.529   2.506   7.037  0.7060  0.0851 -0.5899
 3639SOL    HW122550   2.539   2.601   7.039 -1.3113  0.3144 -2.0851
 3639SOL    HW222551   2.448   2.494   7.087  1.3673  0.3185  0.5488
 3640SOL     OW22552   1.521   3.218   0.557 -0.7277  0.1901 -0.1021
 3640SOL    HW122553   1.505   3.230   0.650 -1.3056  2.4588 -0.4938
 3640SOL    HW222554   1.617   3.210   0.558 -0.7148  0.4346  0.8690
 3641SOL     OW22555   1.274   4.346   7.509 -0.4744 -0.3972 -0.2365
 3641SOL    HW122556   1.260   4.437   7.538 -0.3491  0.8232 -4.0577
 3641SOL    HW222557   1.258   4.361   7.416 -0.5677  1.5165  0.0758
 3642SOL     OW22558   0.836   1.000  15.109  0.4231  0.0502 -0.0056
 3642SOL    HW122559   0.900   1.071  15.094 -1.0856  1.3393 -0.3136
 3642SOL    HW222560   0.896   0.938  15.150  0.5716  0.9117  1.0680
 3643SOL     OW22561   3.781   1.715   4.124  0.3929  0.0037  0.3133
 3643SOL    HW122562   3.826   1.751   4.200  1.6776  0.5001 -0.6622
 3643SOL    HW222563   3.767   1.624   4.148 -0.3033  0.0438  0.0578
 3644SOL     OW22564   4.703   3.508   9.555 -0.2329  0.0647 -0.1752
 3644SOL    HW122565   4.717   3.560   9.634 -1.6222 -0.6452  0.5302
 3644SOL    HW222566   0.023   3.430   9.567 -1.3799 -0.6695  0.3773
 3645SOL     OW22567   0.048   2.185  12.494 -0.5068  0.1782  0.5167
 3645SOL    HW122568   4.713   2.149  12.440 -0.0865  0.2346 -0.0650
 3645SOL    HW222569   0.054   2.119  12.563  0.2749  0.6656  0.9032
 3646SOL     OW22570   0.514   0.303   7.682  0.1542  0.2222  0.5063
 3646SOL    HW122571   0.603   0.273   7.662 -0.3668 -0.9641 -0.0361
 3646SOL    HW222572   0.532   0.391   7.713  1.1547 -0.4850  1.9431
 3647SOL     OW22573   1.911   0.124   5.699 -0.4076 -0.0265 -0.1174
 3647SOL    HW122574   1.840   0.069   5.731  0.4928 -0.8745  0.4396
 3647SOL    HW222575   1.869   0.171   5.628  0.0421 -0.8263 -0.9137
 3648SOL     OW22576   2.963   3.431   4.617 -0.2738 -0.4786  0.1608
 3648SOL    HW122577   3.050   3.461   4.590 -0.5801 -2.0085 -2.5668
 3648SOL    HW222578   2.913   3.512   4.618  0.6082  0.0556  0.5589
 3649SOL     OW22579   4.590   1.257   3.679  0.1968 -0.1403 -0.6989
 3649SOL    HW122580   4.598   1.178   3.624  1.7583  0.0004 -0.6712
 3649SOL    HW222581   4.497   1.279   3.682  0.0088 -1.1662  0.7967
 3650SOL     OW22582   1.071   2.144   8.793 -0.7064 -0.0600  0.2557
 3650SOL    HW122583   1.121   2.205   8.847  0.1169  0.5600 -1.2143
 3650SOL    HW222584   1.022   2.204   8.737 -2.9505 -1.4036  0.7822
 3651SOL     OW22585   1.691   2.791   6.862  0.1279  0.0319  0.9662
 3651SOL    HW122586   1.599   2.783   6.837  0.3925 -0.6937  0.2156
 3651SOL    HW222587   1.695   2.839   6.945 -0.8236  1.2821  0.3054
 3652SOL     OW22588   3.914   2.015  11.952  0.0919  0.2845  0.0845
 3652SOL    HW122589   3.904   2.070  11.874  0.4542 -1.8919 -1.4965
 3652SOL    HW222590   3.846   2.037  12.017  0.5775 -1.2278  1.0915
 3653SOL     OW22591   3.951   2.234  10.463 -0.5981  0.3658  0.2431
 3653SOL    HW122592   4.031   2.287  10.466 -0.6042  0.2461  2.3093
 3653SOL    HW222593   3.989   2.148  10.484 -1.3364  0.3552  1.5301
 3654SOL     OW22594   0.911   3.022   0.904 -0.0923 -0.5020  0.0812
 3654SOL    HW122595   0.999   2.985   0.897  0.0689  0.4769 -3.1201
 3654SOL    HW222596   0.925   3.080   0.978 -0.8623 -0.1720 -0.0247
 3655SOL     OW22597   2.999   0.289   5.825 -0.6360  0.0377 -0.5338
 3655SOL    HW122598   2.951   0.371   5.837  1.1300  0.9737  0.1251
 3655SOL    HW222599   2.927   0.227   5.836 -0.4124  0.0289  0.8215
 3656SOL     OW22600   3.109   1.961   0.101 -0.0794 -0.1532 -0.4799
 3656SOL    HW122601   3.092   1.969   0.195  0.0742  0.9793 -0.5469
 3656SOL    HW222602   3.128   2.053   0.086  0.0292 -0.1551 -0.3505
 3657SOL     OW22603   3.741   0.914   8.655  0.5341 -0.2996  0.3491
 3657SOL    HW122604   3.790   0.848   8.607 -1.3301 -0.9008 -0.7403
 3657SOL    HW222605   3.799   0.931   8.730  1.0987  1.4260 -0.4754
 3658SOL     OW22606   0.371   3.074   7.105  0.5341 -0.1695 -0.6521
 3658SOL    HW122607   0.398   3.163   7.086  0.2828 -0.1219 -0.7861
 3658SOL    HW222608   0.290   3.081   7.156  1.1729 -0.4596  0.4063
 3659SOL     OW22609   2.989   3.731  16.295  1.0054  0.0358 -0.2073
 3659SOL    HW122610   2.959   3.654  16.246  2.4675 -1.2986  1.0129
 3659SOL    HW222611   2.993   3.793  16.222  0.7474  0.9086  0.5232
 3660SOL     OW22612   2.360   1.290  11.696 -0.1682  0.2625  0.0651
 3660SOL    HW122613   2.397   1.272  11.782  0.1556  2.0904  0.3226
 3660SOL    HW222614   2.432   1.302  11.634 -0.9241  2.2168 -0.4625
 3661SOL     OW22615   0.494   3.663   3.937  0.4729 -0.1582 -0.1828
 3661SOL    HW122616   0.532   3.751   3.933 -0.8621  0.3089 -2.4772
 3661SOL    HW222617   0.535   3.624   3.860  0.7570  1.2870 -0.7669
 3662SOL     OW22618   0.703   1.529   1.868 -0.5676 -0.0356 -0.0853
 3662SOL    HW122619   0.613   1.555   1.887 -0.5634 -0.0178 -0.0895
 3662SOL    HW222620   0.746   1.550   1.951  1.7825 -0.3324 -1.2264
 3663SOL     OW22621   0.696   4.710   1.389 -0.2533  0.2580  0.0013
 3663SOL    HW122622   0.732   4.655   1.319 -0.8150  0.3743 -0.3792
 3663SOL    HW222623   0.779   0.005   1.425 -0.6718  0.8907  0.4192
 3664SOL     OW22624   0.168   4.732  12.215 -0.2495 -0.1347 -0.5599
 3664SOL    HW122625   0.236   4.717  12.149  0.3745  0.4728 -0.0542
 3664SOL    HW222626   0.215   0.027  12.293  0.0432 -1.8739 -0.0714
 3665SOL     OW22627   1.438   0.323  11.806 -0.4129 -0.0460  0.2668
 3665SOL    HW122628   1.448   0.418  11.811  0.6162 -0.2130  1.3865
 3665SOL    HW222629   1.458   0.322  11.713  0.1727  1.8302  0.3769
 3666SOL     OW22630   0.619   4.368   7.856 -0.0411 -0.2108 -0.4421
 3666SOL    HW122631   0.527   4.374   7.883 -0.2147  0.0723 -1.0901
 3666SOL    HW222632   0.626   4.285   7.810 -0.3525 -0.4991  0.0312
 3667SOL     OW22633   1.385   3.669  11.020 -0.4068  0.2740 -0.3494
 3667SOL    HW122634   1.297   3.677  10.982 -1.4000 -0.7909  1.7501
 3667SOL    HW222635   1.356   3.637  11.105 -2.3781 -1.2017 -1.5573
 3668SOL     OW22636   1.143   0.720   8.209  0.4741  0.1364 -0.7963
 3668SOL    HW122637   1.118   0.637   8.248  1.4010  1.0617  1.7637
 3668SOL    HW222638   1.082   0.783   8.245 -0.9507 -0.8514 -1.5043
 3669SOL     OW22639   2.798   0.903   8.309  0.1350 -0.0147 -0.0034
 3669SOL    HW122640   2.879   0.860   8.280 -0.6951 -2.0067  0.6452
 3669SOL    HW222641   2.753   0.822   8.333  0.9414 -0.2437  0.7347
 3670SOL     OW22642   1.418   1.989   4.270 -0.1289  0.1542 -0.1570
 3670SOL    HW122643   1.448   1.898   4.268 -0.1366  0.1478  0.0947
 3670SOL    HW222644   1.496   2.033   4.234 -0.3690  0.2227 -0.5979
 3671SOL     OW22645   1.247   2.643   3.867 -0.2521 -0.0974 -0.2246
 3671SOL    HW122646   1.210   2.556   3.853 -2.2600  0.4133  1.9862
 3671SOL    HW222647   1.180   2.671   3.928 -0.4147 -1.3901  0.1809
 3672SOL     OW22648   4.498   0.100   7.270 -0.0255 -0.4715  0.3087
 3672SOL    HW122649   4.586   0.065   7.282 -0.3596 -0.4151  3.0232
 3672SOL    HW222650   4.462   0.081   7.357 -2.0711  1.6038 -0.0869
 3673SOL     OW22651   4.141   4.468   9.956  0.1833  0.1068  0.0267
 3673SOL    HW122652   4.093   4.415  10.019 -2.9816  2.0130 -0.7738
 3673SOL    HW222653   4.090   4.549   9.951 -1.6464 -1.0533 -0.1234
 3674SOL     OW22654   3.480   2.795   4.805 -0.1886  0.0078 -0.5056
 3674SOL    HW122655   3.524   2.862   4.752  0.2148 -0.2173 -0.4532
 3674SOL    HW222656   3.446   2.740   4.735  0.3552 -0.4886 -0.3795
 3675SOL     OW22657   0.550   0.935   7.625  0.0221  0.1227 -0.2853
 3675SOL    HW122658   0.458   0.954   7.608  0.0350  1.1372  0.7491
 3675SOL    HW222659   0.554   0.948   7.720  2.0174  0.9513 -0.4834
 3676SOL     OW22660   2.362   0.467   5.237 -0.2395 -0.0420 -0.3033
 3676SOL    HW122661   2.352   0.379   5.201 -0.3705 -1.5460  3.3585
 3676SOL    HW222662   2.456   0.473   5.252 -0.3625 -0.6137  0.7087
 3677SOL     OW22663   2.169   1.912   4.478 -0.1201 -0.0283 -0.0323
 3677SOL    HW122664   2.087   1.875   4.511  0.1171  2.1136  2.9385
 3677SOL    HW222665   2.231   1.907   4.551  1.3886  3.5495 -1.0589
 3678SOL     OW22666   4.124   3.819   9.791  0.3537 -0.1979 -0.1293
 3678SOL    HW122667   4.030   3.834   9.782  0.2259 -1.4149 -0.8001
 3678SOL    HW222668   4.129   3.800   9.885 -1.7941 -0.1106 -0.0082
 3679SOL     OW22669   0.933   0.595   2.296 -0.4678  0.0748  0.3857
 3679SOL    HW122670   0.841   0.620   2.284 -1.0902 -2.4526 -0.1207
 3679SOL    HW222671   0.942   0.632   2.383 -1.7444 -1.4054  1.1505
 3680SOL     OW22672   1.948   1.707   5.850  0.4812 -0.0361 -1.0377
 3680SOL    HW122673   2.033   1.665   5.837  1.2990  1.0247  0.9037
 3680SOL    HW222674   1.977   1.786   5.895  0.9843  0.6188 -2.5204
 3681SOL     OW22675   1.523   2.273   5.560  0.6210 -0.4981  0.2729
 3681SOL    HW122676   1.510   2.271   5.654  5.2098  2.4211  0.9621
 3681SOL    HW222677   1.605   2.316   5.539 -0.2357  0.5157 -1.0297
 3682SOL     OW22678   2.281   2.678   1.750 -0.1121 -0.1873  0.4451
 3682SOL    HW122679   2.242   2.715   1.671  0.0932 -2.2008 -0.5808
 3682SOL    HW222680   2.223   2.603   1.763 -1.1277  0.6406  0.7248
 3683SOL     OW22681   0.970   2.925  11.945 -0.8353  0.2310  0.0699
 3683SOL    HW122682   1.008   2.855  11.998  0.1250  0.7858  0.1101
 3683SOL    HW222683   0.943   2.989  12.011 -1.4399 -1.4327  1.4309
 3684SOL     OW22684   3.418   0.942   3.528 -0.1413 -0.9413 -0.1926
 3684SOL    HW122685   3.510   0.937   3.556 -0.6313 -0.5151  1.5302
 3684SOL    HW222686   3.429   0.919   3.436  0.3240 -1.3743 -0.0286
 3685SOL     OW22687   2.221   0.652   5.731 -0.0408  0.2690 -0.1404
 3685SOL    HW122688   2.149   0.639   5.793 -0.9261 -2.3551 -1.7153
 3685SOL    HW222689   2.178   0.647   5.645 -0.6756 -2.0119  0.2950
 3686SOL     OW22690   1.468   3.428   4.378  0.3058 -0.2016  0.5856
 3686SOL    HW122691   1.546   3.470   4.412  1.7962 -1.0447 -1.7754
 3686SOL    HW222692   1.479   3.339   4.412  1.0165  0.7454  2.8073
 3687SOL     OW22693   0.430   0.464   3.296 -0.1128 -0.1225 -0.2381
 3687SOL    HW122694   0.395   0.380   3.327 -1.3511 -0.3809 -2.3413
 3687SOL    HW222695   0.475   0.490   3.376  0.2543  1.7014 -1.0324
 3688SOL     OW22696   1.119   0.353   4.768 -0.4919  0.3003 -0.3824
 3688SOL    HW122697   1.037   0.398   4.748  0.4431  1.6685 -1.2131
 3688SOL    HW222698   1.102   0.262   4.744 -0.4672  0.1450  0.2049
 3689SOL     OW22699   2.021   0.274   3.373  0.4759 -0.0821  0.4472
 3689SOL    HW122700   1.956   0.335   3.339  0.8755  0.1864  0.1733
 3689SOL    HW222701   2.097   0.332   3.378  1.3133 -1.1362 -0.0486
 3690SOL     OW22702   0.388   3.263  12.140  0.3946 -1.0663 -0.9493
 3690SOL    HW122703   0.314   3.308  12.179  2.2410  0.5187  0.7333
 3690SOL    HW222704   0.457   3.327  12.156  0.5613 -1.6193  0.5037
 3691SOL     OW22705   4.421   0.878   2.457 -0.7374  0.0826 -0.0839
 3691SOL    HW122706   4.439   0.804   2.400 -1.5297 -1.4183  1.6030
 3691SOL    HW222707   4.352   0.927   2.412 -0.4818 -1.5604 -2.2544
 3692SOL     OW22708   1.772   3.291   2.186  0.2075 -0.1765  0.3819
 3692SOL    HW122709   1.733   3.286   2.274 -0.3186 -1.1907  0.0805
 3692SOL    HW222710   1.692   3.278   2.136  0.9450  0.3882 -0.9361
 3693SOL     OW22711   3.968   3.132  12.248  0.2348 -0.6628  0.9369
 3693SOL    HW122712   3.894   3.131  12.310  1.2170  0.3996  2.1210
 3693SOL    HW222713   3.974   3.041  12.218  0.8072 -0.3991  0.2709
 3694SOL     OW22714   2.949   1.301   1.610  0.2925  0.2750  1.1091
 3694SOL    HW122715   2.862   1.324   1.643 -1.4208 -1.1655 -2.4340
 3694SOL    HW222716   3.013   1.349   1.662 -1.5545  2.7914  1.0362
 3695SOL     OW22717   0.678   3.150   4.296 -0.3224  0.5379  0.6070
 3695SOL    HW122718   0.759   3.198   4.314 -0.0318  1.0659 -2.1523
 3695SOL    HW222719   0.643   3.188   4.216  2.0330 -2.8721 -2.0634
 3696SOL     OW22720   3.105   1.502   4.974  1.3620  0.4283 -0.2458
 3696SOL    HW122721   3.105   1.458   4.889 -0.3151 -2.9504  1.5076
 3696SOL    HW222722   3.117   1.593   4.947  0.7521  0.5265 -0.2077
 3697SOL     OW22723   1.343   1.641   2.455 -0.4493 -0.1439 -0.0350
 3697SOL    HW122724   1.363   1.611   2.367 -0.0476  1.1022 -0.3713
 3697SOL    HW222725   1.281   1.575   2.487 -2.4610  1.1385 -1.2965
 3698SOL     OW22726   0.050   4.610   2.872 -0.0333  0.3808 -0.6670
 3698SOL    HW122727   0.096   4.656   2.802 -0.3611 -2.4233 -2.7359
 3698SOL    HW222728   0.050   4.521   2.835 -0.1623 -0.5706  1.6205
 3699SOL     OW22729   0.129   2.798   7.601 -0.4062  0.4590 -0.5390
 3699SOL    HW122730   0.060   2.864   7.597 -1.8307 -0.9666  0.4037
 3699SOL    HW222731   0.101   2.754   7.521 -1.4301  1.7513 -0.8965
 3700SOL     OW22732   2.344   3.128   5.802 -0.4301 -0.1460 -0.2273
 3700SOL    HW122733   2.261   3.153   5.842  0.6690  1.4987  1.0037
 3700SOL    HW222734   2.377   3.211   5.769 -2.9613  0.5230 -1.1116
 3701SOL     OW22735   1.379   0.988   4.595 -0.4289 -0.0856 -0.1469
 3701SOL    HW122736   1.331   0.929   4.537 -0.9176 -0.5556  0.7442
 3701SOL    HW222737   1.469   0.965   4.574 -0.8751 -2.1023  0.1726
 3702SOL     OW22738   0.277   4.197   6.975  0.0304  0.0235  0.0098
 3702SOL    HW122739   0.236   4.274   7.014 -0.6732 -2.0294  3.3024
 3702SOL    HW222740   0.199   4.142   6.973 -0.7507  1.1872 -2.5261
 3703SOL     OW22741   2.465   3.997   3.450 -0.1481 -0.3704 -0.1662
 3703SOL    HW122742   2.465   4.093   3.449  1.0409 -0.3858 -1.8211
 3703SOL    HW222743   2.398   3.965   3.389  1.2438  1.2084 -2.5288
 3704SOL     OW22744   0.670   0.470   3.086 -0.2835 -0.0826 -0.4217
 3704SOL    HW122745   0.734   0.462   3.157  0.8833 -1.5907 -1.6511
 3704SOL    HW222746   0.588   0.484   3.133 -1.3339 -1.1649 -1.9676
 3705SOL     OW22747   4.409   0.865   9.285 -0.5012  0.4382 -0.6529
 3705SOL    HW122748   4.358   0.932   9.330 -2.6573 -1.7340  0.1000
 3705SOL    HW222749   4.498   0.889   9.311 -1.1171  1.2067  0.7698
 3706SOL     OW22750   1.589   1.162   4.449 -0.2110 -0.0066 -0.2811
 3706SOL    HW122751   1.684   1.156   4.447 -0.2574 -0.7868 -0.1431
 3706SOL    HW222752   1.571   1.068   4.448 -0.2534 -0.0020  1.3631
 3707SOL     OW22753   0.039   4.266  16.016 -0.6451 -0.4674 -0.2269
 3707SOL    HW122754   0.053   4.275  16.110  2.5038 -1.1835 -0.6250
 3707SOL    HW222755   0.112   4.306  15.969  0.1131 -0.7514  0.7141
 3708SOL     OW22756   4.546   1.007  13.271 -0.1019  0.2933 -0.2237
 3708SOL    HW122757   4.613   0.963  13.323 -0.2310  0.3427 -0.0188
 3708SOL    HW222758   4.467   0.983  13.319 -0.0162  0.8493  0.1868
 3709SOL     OW22759   2.470   3.880  12.375 -0.0311 -0.1130 -0.0405
 3709SOL    HW122760   2.547   3.863  12.430  0.2655  0.3286 -0.3202
 3709SOL    HW222761   2.497   3.824  12.301 -2.3381  0.5683 -1.3797
 3710SOL     OW22762   1.581   0.352   6.876  0.3363  0.0830 -0.9403
 3710SOL    HW122763   1.557   0.425   6.934  0.6587 -1.0814  0.6301
 3710SOL    HW222764   1.676   0.358   6.886  0.3581  0.0450 -1.1141
 3711SOL     OW22765   1.956   2.662   3.035 -0.2516  0.4303  0.2532
 3711SOL    HW122766   1.993   2.613   3.109  0.6852  1.9489  0.7855
 3711SOL    HW222767   1.997   2.630   2.954  0.3977 -3.5816  2.1496
 3712SOL     OW22768   3.746   2.681   7.557 -0.3248  0.1115  0.6424
 3712SOL    HW122769   3.774   2.604   7.508 -0.4823  0.2805  0.2854
 3712SOL    HW222770   3.676   2.719   7.503  0.2088 -3.1746 -2.3777
 3713SOL     OW22771   0.759   1.925  12.693 -0.0489 -0.0539 -0.2908
 3713SOL    HW122772   0.831   1.885  12.644  1.1986  1.2620  0.4402
 3713SOL    HW222773   0.765   1.891  12.783 -0.4897  0.7060  0.0300
 3714SOL     OW22774   4.076   0.062   7.235 -0.0349 -0.0936 -0.1010
 3714SOL    HW122775   4.165   0.042   7.205 -0.1054 -0.8417  0.1872
 3714SOL    HW222776   4.024   0.013   7.171 -1.7781  3.2997 -1.2658
 3715SOL     OW22777   0.344   4.307   1.753 -0.3632 -0.3182 -0.4218
 3715SOL    HW122778   0.256   4.330   1.782 -0.3978  0.8153 -1.4025
 3715SOL    HW222779   0.336   4.316   1.658 -2.3084  1.8921 -0.0256
 3716SOL     OW22780   4.327   0.505   9.598  0.5813 -0.2162  0.1682
 3716SOL    HW122781   4.369   0.486   9.513 -1.6765 -0.8177 -0.8019
 3716SOL    HW222782   4.323   0.600   9.588  0.5280 -0.1984  0.3730
 3717SOL     OW22783   4.562   3.029  12.890 -0.0608 -0.2237  0.7997
 3717SOL    HW122784   4.614   2.949  12.886  2.0144  1.1929 -0.1407
 3717SOL    HW222785   4.631   3.094  12.903 -1.2587  1.6012 -1.8505
 3718SOL     OW22786   2.843   2.752  13.736 -0.4237  0.0594  0.0084
 3718SOL    HW122787   2.878   2.703  13.661 -0.7824 -0.4533  0.1756
 3718SOL    HW222788   2.854   2.682  13.800  0.4997 -0.8971 -1.1938
 3719SOL     OW22789   1.186   4.112   2.432 -0.0935 -0.0238  0.8724
 3719SOL    HW122790   1.278   4.136   2.430 -0.5077  1.3966 -1.7797
 3719SOL    HW222791   1.166   4.109   2.338  4.2619 -2.0224  0.0417
 3720SOL     OW22792   3.767   3.955   5.488 -0.8952  0.5258  0.3234
 3720SOL    HW122793   3.844   4.012   5.479 -0.4203 -0.2106 -0.2473
 3720SOL    HW222794   3.805   3.876   5.527 -2.1630 -0.3959 -0.3294
 3721SOL     OW22795   3.373   1.873   1.915  0.3053  0.1239 -0.5104
 3721SOL    HW122796   3.426   1.837   1.986 -2.4487 -0.2181  1.3575
 3721SOL    HW222797   3.336   1.957   1.944 -1.4064  0.2756 -3.1795
 3722SOL     OW22798   4.614   3.148  12.540 -0.1250  0.1191  0.4305
 3722SOL    HW122799   4.553   3.189  12.601  0.7382 -2.4706  3.0685
 3722SOL    HW222800   4.653   3.076  12.589  1.5403  0.8895  0.2366
 3723SOL     OW22801   2.112   4.208   3.086  0.0855  0.0150 -0.7815
 3723SOL    HW122802   2.061   4.280   3.122  0.3779  0.3201 -0.9892
 3723SOL    HW222803   2.199   4.234   3.115 -0.7347 -0.0377  1.7032
 3724SOL     OW22804   3.475   2.477  13.295 -0.1465 -0.4932 -0.4554
 3724SOL    HW122805   3.457   2.409  13.231 -0.1749 -1.4627  0.5841
 3724SOL    HW222806   3.389   2.516  13.310  0.1962  0.1067  0.0215
 3725SOL     OW22807   3.730   3.913  13.248 -0.6453  0.6382 -0.1798
 3725SOL    HW122808   3.824   3.914  13.261 -0.6469 -1.7908 -0.0674
 3725SOL    HW222809   3.697   3.843  13.304 -0.6488 -0.5472 -1.6486
 3726SOL     OW22810   0.408   4.334   5.989 -0.3648 -0.2248 -0.3882
 3726SOL    HW122811   0.334   4.393   6.001  0.6460  0.9841 -0.0411
 3726SOL    HW222812   0.392   4.253   6.037  1.2612 -1.3284 -1.7173
 3727SOL     OW22813   2.990   0.894   1.768 -0.3357  1.1058  0.1312
 3727SOL    HW122814   3.027   0.909   1.855 -4.2129 -0.9096  2.1166
 3727SOL    HW222815   3.064   0.859   1.719  0.1248 -0.1641  1.7536
 3728SOL     OW22816   0.951   1.131  14.488 -0.0155  0.4931  0.4027
 3728SOL    HW122817   0.865   1.133  14.531  0.6315  1.4812  1.6460
 3728SOL    HW222818   0.974   1.040  14.503 -0.6721  0.6065  2.0471
 3729SOL     OW22819   1.544   2.920   7.123 -0.2156 -0.3164  0.1759
 3729SOL    HW122820   1.483   2.847   7.122 -0.2498 -0.2836 -0.5655
 3729SOL    HW222821   1.541   2.936   7.217  0.9342 -1.7604  0.4628
 3730SOL     OW22822   4.368   4.691   3.780 -0.1258 -0.0563 -0.0910
 3730SOL    HW122823   4.424   0.004   3.842  0.8314 -0.8438 -0.3334
 3730SOL    HW222824   4.430   4.680   3.708 -1.1329  2.6999 -1.3629
 3731SOL     OW22825   0.611   4.315   8.665  0.0400 -0.4821 -0.1139
 3731SOL    HW122826   0.611   4.364   8.747  0.7317 -0.6407 -0.0192
 3731SOL    HW222827   0.706   4.310   8.650 -0.0281 -1.5750 -0.2039
 3732SOL     OW22828   3.831   1.739   9.251  0.5220 -0.7614 -0.4068
 3732SOL    HW122829   3.925   1.732   9.233  0.3995  0.7822 -1.7138
 3732SOL    HW222830   3.821   1.831   9.276  0.9320 -0.0070 -3.0361
 3733SOL     OW22831   3.385   2.685  17.233  0.1374  0.1440  0.1621
 3733SOL    HW122832   3.316   2.697  17.298  1.0258 -0.3068  1.2092
 3733SOL    HW222833   3.350   2.616  17.177 -1.2833  0.5898  0.5238
 3734SOL     OW22834   1.275   4.499  17.595 -0.2704 -0.0879  0.2173
 3734SOL    HW122835   1.244   4.413  17.565  1.8044  0.0269 -2.2157
 3734SOL    HW222836   1.192   4.547  17.598 -0.7619 -0.8439 -1.2558
 3735SOL     OW22837   3.652   0.370   4.189 -0.2984  0.1141  0.1474
 3735SOL    HW122838   3.621   0.398   4.102  0.4205 -0.0610 -0.1667
 3735SOL    HW222839   3.663   0.459   4.221 -1.1138 -0.0372  0.8443
 3736SOL     OW22840   1.051   1.199  10.815  0.1430  0.4548 -0.3054
 3736SOL    HW122841   1.064   1.125  10.875  1.5713  0.7595 -0.2233
 3736SOL    HW222842   0.967   1.230  10.847  0.1383  0.9745 -0.8337
 3737SOL     OW22843   1.817   3.212   6.648 -0.8125  0.4076 -0.1817
 3737SOL    HW122844   1.782   3.168   6.571 -0.2279 -0.6559  0.1700
 3737SOL    HW222845   1.883   3.151   6.680  0.7604  1.1631 -2.0176
 3738SOL     OW22846   3.685   0.316  12.005 -0.4181  0.3693 -0.2629
 3738SOL    HW122847   3.629   0.290  11.932 -0.2464  0.2310 -0.3464
 3738SOL    HW222848   3.664   0.244  12.065 -0.4682  1.1263  0.6265
 3739SOL     OW22849   0.810   1.786   3.716  0.0441 -0.7499 -0.2895
 3739SOL    HW122850   0.807   1.692   3.732 -1.9395 -0.3220  1.6607
 3739SOL    HW222851   0.793   1.791   3.622 -0.1246 -3.2778 -0.3802
 3740SOL     OW22852   0.530   2.990  10.941  0.1980 -0.0718 -0.1454
 3740SOL    HW122853   0.494   3.074  10.912 -0.4253  0.1590  1.2983
 3740SOL    HW222854   0.620   3.003  10.912  0.7026  0.7621  1.8712
 3741SOL     OW22855   2.962   2.423   0.114 -0.1916 -0.4948  0.3205
 3741SOL    HW122856   3.005   2.508   0.104 -2.2383  0.5326  0.3214
 3741SOL    HW222857   2.895   2.428   0.047  1.9127  1.0445 -1.6911
 3742SOL     OW22858   1.104   0.012   2.691  0.0069  0.1855 -0.2412
 3742SOL    HW122859   1.035   0.043   2.749 -0.4346  0.0447 -0.6907
 3742SOL    HW222860   1.064   4.671   2.649  1.2988  0.4190 -1.9235
 3743SOL     OW22861   3.943   2.232   4.795 -0.7269 -0.3949  0.5628
 3743SOL    HW122862   3.962   2.265   4.707 -2.8022 -1.0553 -0.1278
 3743SOL    HW222863   3.850   2.210   4.795 -0.8790  0.1286 -4.7891
 3744SOL     OW22864   1.165   0.258   8.342 -0.3422 -0.4138 -0.0851
 3744SOL    HW122865   1.257   0.278   8.354 -0.4709 -1.5130  2.7558
 3744SOL    HW222866   1.175   0.192   8.273  2.5791 -2.1328  1.9725
 3745SOL     OW22867   3.005   2.248   4.523 -0.2876  0.0087  0.4943
 3745SOL    HW122868   3.058   2.306   4.578  2.3873  0.1936 -2.3255
 3745SOL    HW222869   2.939   2.209   4.582 -0.1485 -2.0694 -0.7331
 3746SOL     OW22870   3.712   4.688  10.592 -0.0360 -0.3563 -1.0055
 3746SOL    HW122871   3.679   4.716  10.506 -1.5753 -2.1716 -1.0103
 3746SOL    HW222872   3.774   0.023  10.611  1.4713 -1.6905 -1.0504
 3747SOL     OW22873   3.030   2.667   9.086 -0.3116  0.2788 -0.0904
 3747SOL    HW122874   3.033   2.576   9.057 -3.4265  0.2912 -0.4744
 3747SOL    HW222875   3.094   2.667   9.157 -2.0255 -2.1256  1.4476
 3748SOL     OW22876   1.845   2.001   4.396  0.0644  0.0466  0.0414
 3748SOL    HW122877   1.784   1.977   4.326 -2.1507  1.3958  1.5215
 3748SOL    HW222878   1.794   2.065   4.445  1.5186 -0.3707  2.0595
 3749SOL     OW22879   2.028   2.744   5.752  0.0648 -0.1933 -0.1495
 3749SOL    HW122880   2.113   2.780   5.724 -0.3358 -0.0756 -1.1871
 3749SOL    HW222881   1.980   2.745   5.670  1.9102 -0.8627 -1.2272
 3750SOL     OW22882   2.359   1.528  14.764  0.0453 -0.0178  0.2173
 3750SOL    HW122883   2.298   1.586  14.718 -1.1636 -0.1388  1.6531
 3750SOL    HW222884   2.400   1.468  14.702 -0.9633 -0.1077 -0.3562
 3751SOL     OW22885   3.846   4.258   0.262 -0.3177 -0.0584 -0.1354
 3751SOL    HW122886   3.796   4.204   0.323  0.0601  0.5815  0.7397
 3751SOL    HW222887   3.820   4.220   0.178  2.2415  2.1704 -1.9305
 3752SOL     OW22888   4.044   4.256   3.415 -0.2506  0.2520 -0.0440
 3752SOL    HW122889   4.116   4.284   3.472 -0.3776 -0.5543  0.5150
 3752SOL    HW222890   3.990   4.201   3.470 -0.5092  1.3380  0.7882
 3753SOL     OW22891   3.627   1.617  17.362  0.5355  0.7705 -0.2222
 3753SOL    HW122892   3.649   1.525  17.351  0.7442  0.6004  1.5739
 3753SOL    HW222893   3.712   1.658  17.348  1.6803 -1.0103  1.5666
 3754SOL     OW22894   2.771   3.558   0.805  0.2499 -0.3690 -0.1641
 3754SOL    HW122895   2.845   3.507   0.773 -0.0497 -0.7305 -0.2795
 3754SOL    HW222896   2.807   3.575   0.893  0.4550 -0.5754 -0.2093
 3755SOL     OW22897   0.510   2.070   1.965  0.5144 -0.4335  0.4362
 3755SOL    HW122898   0.544   2.107   2.047 -2.4936  0.5653  1.2227
 3755SOL    HW222899   0.429   2.027   1.991  0.9748 -1.6160 -0.1106
 3756SOL     OW22900   0.515   3.371   2.901  0.4951  0.2128  0.8943
 3756SOL    HW122901   0.474   3.426   2.835  2.6029  1.0688  0.2855
 3756SOL    HW222902   0.607   3.388   2.882 -0.1837  2.5378 -0.2575
 3757SOL     OW22903   2.903   0.759  12.960  0.4600  0.0464  0.4169
 3757SOL    HW122904   2.850   0.825  12.915 -0.6968 -0.8631  0.4705
 3757SOL    HW222905   2.976   0.759  12.897 -0.7419 -0.4310 -0.9763
 3758SOL     OW22906   4.469   2.701   4.373  0.3446 -0.9091 -0.5419
 3758SOL    HW122907   4.424   2.721   4.291  0.4972  0.8195 -0.2079
 3758SOL    HW222908   4.560   2.698   4.344 -0.0349  1.2535 -1.9905
 3759SOL     OW22909   3.953   2.446   4.290 -0.1327  0.3885  0.3205
 3759SOL    HW122910   3.983   2.534   4.267 -3.0475  0.9645 -1.2978
 3759SOL    HW222911   3.891   2.415   4.224  1.0747  2.0714 -1.6055
 3760SOL     OW22912   4.254   3.779   8.605 -0.0963  0.5095  0.4175
 3760SOL    HW122913   4.268   3.745   8.517 -0.4993  1.3053  0.0441
 3760SOL    HW222914   4.347   3.786   8.627  0.3265  1.3825 -1.6111
 3761SOL     OW22915   3.490   3.864   7.478  0.3169  0.2750  0.2520
 3761SOL    HW122916   3.532   3.949   7.464  0.5083 -0.0565 -1.1853
 3761SOL    HW222917   3.492   3.858   7.574  1.9063  0.1042  0.2132
 3762SOL     OW22918   3.079   4.520   8.122  0.2993 -0.4451 -0.4224
 3762SOL    HW122919   3.143   4.462   8.082 -1.1272 -2.1058 -0.2752
 3762SOL    HW222920   3.122   4.552   8.202 -0.1920  0.4172 -0.5041
 3763SOL     OW22921   0.562   3.913   3.876 -0.2060 -0.2596 -0.3038
 3763SOL    HW122922   0.656   3.932   3.880 -1.1270  4.4372 -1.1303
 3763SOL    HW222923   0.532   3.968   3.803 -1.7363 -0.4540  0.1817
 3764SOL     OW22924   0.533   1.626   0.922 -0.4066 -0.1544  0.2281
 3764SOL    HW122925   0.505   1.714   0.946  1.6145  1.0704 -1.9552
 3764SOL    HW222926   0.537   1.633   0.826 -1.5527  0.4536  0.2235
 3765SOL     OW22927   2.934   3.353   8.782 -0.3884 -0.2526  0.4776
 3765SOL    HW122928   3.022   3.346   8.746 -1.0813 -1.8847 -0.9225
 3765SOL    HW222929   2.924   3.448   8.777  0.4488 -0.1242  1.1336
 3766SOL     OW22930   2.401   1.530   5.371  0.0376 -0.0248 -0.2631
 3766SOL    HW122931   2.451   1.457   5.407 -0.7633 -0.1219  0.6714
 3766SOL    HW222932   2.400   1.511   5.277 -0.9071 -1.1825 -0.0163
 3767SOL     OW22933   1.442   1.231  15.731  0.1579  0.0856  0.7983
 3767SOL    HW122934   1.532   1.259  15.747  0.2187  1.2876 -1.7296
 3767SOL    HW222935   1.428   1.237  15.636 -1.6921 -0.1637  1.0620
 3768SOL     OW22936   0.741   0.754   8.746 -0.5993 -1.3349  0.1301
 3768SOL    HW122937   0.687   0.833   8.749  0.4891 -0.5610 -0.7405
 3768SOL    HW222938   0.760   0.742   8.652 -0.6957 -0.5653  0.0124
 3769SOL     OW22939   3.316   0.947  14.151 -0.8775  0.0229  0.4123
 3769SOL    HW122940   3.367   1.022  14.119  1.4757 -1.4718  0.6771
 3769SOL    HW222941   3.302   0.901  14.068  0.9123 -1.1151  0.7489
 3770SOL     OW22942   0.531   0.637   4.786  0.0539  0.5637  0.2999
 3770SOL    HW122943   0.554   0.614   4.876 -0.0540  1.2362  0.5023
 3770SOL    HW222944   0.545   0.564   4.725 -0.7865 -0.5204  1.3993
 3771SOL     OW22945   4.400   0.314   5.453 -0.3840  0.4061 -1.0252
 3771SOL    HW122946   4.451   0.274   5.383 -0.8736 -0.8774 -0.6553
 3771SOL    HW222947   4.317   0.281   5.419 -0.2916 -0.6277 -0.2428
 3772SOL     OW22948   3.528   2.816   6.699 -0.2232  0.3218  0.4172
 3772SOL    HW122949   3.483   2.732   6.683  0.5155 -0.1105  0.6034
 3772SOL    HW222950   3.463   2.875   6.738  0.1964  1.5745 -0.8010
 3773SOL     OW22951   4.687   1.515   0.526 -0.1649  0.1853 -0.8195
 3773SOL    HW122952   4.638   1.434   0.543  2.2746 -1.3601 -1.2454
 3773SOL    HW222953   4.655   1.541   0.440  1.1043 -0.5623 -1.5177
 3774SOL     OW22954   1.808   2.279   7.311 -0.5742 -0.2397 -0.4177
 3774SOL    HW122955   1.803   2.188   7.341 -0.1390 -0.7994 -2.0956
 3774SOL    HW222956   1.729   2.268   7.257 -1.6911  0.9842  0.9461
 3775SOL     OW22957   2.155   1.550   5.771 -0.1448  0.3269 -0.3155
 3775SOL    HW122958   2.208   1.565   5.693  1.7654  0.4802  1.0329
 3775SOL    HW222959   2.103   1.484   5.724  0.6057 -0.0011 -0.6792
 3776SOL     OW22960   0.635   3.895   7.942  0.0544  0.0609 -0.3908
 3776SOL    HW122961   0.723   3.862   7.957  1.3310  3.0988 -1.0627
 3776SOL    HW222962   0.630   3.947   8.022 -0.3309 -1.6521  0.6786
 3777SOL     OW22963   3.046   2.192   8.334 -0.3110  0.2703  0.4594
 3777SOL    HW122964   2.965   2.242   8.346 -0.2186  0.8272 -1.1999
 3777SOL    HW222965   3.107   2.255   8.297 -1.5437  1.5176  0.5306
 3778SOL     OW22966   1.505   3.940  15.191 -0.2349  0.0543 -0.0150
 3778SOL    HW122967   1.427   3.994  15.185  0.3603  0.6006 -2.7485
 3778SOL    HW222968   1.480   3.867  15.248 -1.0714  0.1646 -0.2503
 3779SOL     OW22969   2.595   4.296   6.287  0.0054  0.0894 -0.2646
 3779SOL    HW122970   2.691   4.294   6.292 -0.0403 -1.0179  0.0488
 3779SOL    HW222971   2.577   4.202   6.280 -0.2327  0.0077  1.5321
 3780SOL     OW22972   2.971   3.963   7.417  0.2256 -0.3704  0.4239
 3780SOL    HW122973   2.906   3.920   7.472 -0.4457  0.2481  0.1153
 3780SOL    HW222974   2.919   3.983   7.339  0.4374 -3.3648 -0.4582
 3781SOL     OW22975   4.439   4.393  11.898 -0.0339 -0.4305 -0.2806
 3781SOL    HW122976   4.526   4.400  11.936 -0.3562  0.0479  0.3667
 3781SOL    HW222977   4.429   4.478  11.856  0.2459  0.0039  0.5437
 3782SOL     OW22978   1.923   3.857   7.121  0.5929  0.4085 -0.0447
 3782SOL    HW122979   1.865   3.875   7.195  1.4489  0.6208  0.5715
 3782SOL    HW222980   1.891   3.922   7.058  0.0663 -0.4454 -0.6647
 3783SOL     OW22981   1.243   3.830  14.577 -0.3962 -0.1233  0.1975
 3783SOL    HW122982   1.295   3.806  14.654  2.4388 -1.0801 -2.0255
 3783SOL    HW222983   1.164   3.862  14.621 -0.9870  1.1726 -1.8164
 3784SOL     OW22984   3.710   2.404  15.187  0.0354  0.0187  0.5637
 3784SOL    HW122985   3.761   2.414  15.268  1.1545 -0.4728 -0.0893
 3784SOL    HW222986   3.782   2.435  15.132 -0.8971 -0.7442 -1.0666
 3785SOL     OW22987   1.763   2.802   6.032  0.9401  0.2048  0.8915
 3785SOL    HW122988   1.783   2.757   5.950 -0.9921 -1.0416  1.0968
 3785SOL    HW222989   1.700   2.742   6.072  1.4956 -1.8250 -1.2633
 3786SOL     OW22990   1.090   1.992   7.028 -0.2062 -0.2378  0.4105
 3786SOL    HW122991   1.019   1.949   7.075  0.0524 -0.9473  0.1630
 3786SOL    HW222992   1.048   2.076   7.008 -2.4072 -1.8798 -1.8171
 3787SOL     OW22993   4.326   2.321   3.113 -0.8234  0.4504  0.0626
 3787SOL    HW122994   4.237   2.288   3.126 -1.2972  0.7181 -2.5785
 3787SOL    HW222995   4.331   2.316   3.018 -1.0563 -0.4743  0.0924
 3788SOL     OW22996   0.850   2.241  10.447 -0.2586  0.3466  0.3497
 3788SOL    HW122997   0.789   2.235  10.520  0.6134  2.5025  1.2570
 3788SOL    HW222998   0.790   2.297  10.396 -1.4315  0.6762  2.1153
 3789SOL     OW22999   0.368   3.676   7.976 -0.0838  0.0495 -0.2804
 3789SOL    HW123000   0.395   3.660   8.067  0.2513  0.3487 -0.3284
 3789SOL    HW223001   0.453   3.705   7.943  0.5942  0.4821  1.8453
 3790SOL     OW23002   0.710   3.210  13.779 -0.5947  0.6681  0.2927
 3790SOL    HW123003   0.694   3.182  13.688 -1.7420  1.2987  0.2988
 3790SOL    HW223004   0.733   3.302  13.777 -1.5000  0.9251  2.7003
 3791SOL     OW23005   2.207   2.322   7.306 -0.3428  0.5893 -0.6112
 3791SOL    HW123006   2.238   2.393   7.362 -0.4767 -1.7339  2.4032
 3791SOL    HW223007   2.138   2.366   7.256  0.2793  0.5718 -1.4850
 3792SOL     OW23008   3.625   1.351   0.379 -0.9089  0.8211 -0.1370
 3792SOL    HW123009   3.544   1.365   0.329 -0.3288  1.3604 -0.9273
 3792SOL    HW223010   3.641   1.258   0.363  0.5002  1.1704 -0.7379
 3793SOL     OW23011   4.208   2.419   6.714  0.5535  0.7104  0.3519
 3793SOL    HW123012   4.299   2.412   6.745  0.2628 -1.1287  0.7618
 3793SOL    HW223013   4.223   2.374   6.631 -2.1643  0.1972  0.1634
 3794SOL     OW23014   4.102   0.546   6.540 -0.5059 -0.2555  0.1771
 3794SOL    HW123015   4.007   0.534   6.531 -0.3726  0.0548 -1.6717
 3794SOL    HW223016   4.120   0.560   6.633 -1.2427  1.2441  0.0861
 3795SOL     OW23017   0.223   0.779   6.624  0.1570  0.6757  0.4728
 3795SOL    HW123018   0.207   0.815   6.711  1.4525  3.7893 -0.5843
 3795SOL    HW223019   0.134   0.758   6.596  1.5781  0.5278 -3.9326
 3796SOL     OW23020   3.882   0.755   4.491  0.2112 -0.4649  0.7657
 3796SOL    HW123021   3.936   0.831   4.514  1.7958 -1.2232 -0.4470
 3796SOL    HW223022   3.838   0.774   4.408  0.1471 -1.5320  0.5592
 3797SOL     OW23023   3.855   3.846   8.844  0.1144  0.2395  0.7584
 3797SOL    HW123024   3.878   3.924   8.793  1.9667  0.6011  2.1386
 3797SOL    HW223025   3.946   3.819   8.854 -0.0285 -0.3111  0.5698
 3798SOL     OW23026   2.327   3.570   5.540  0.7409 -0.2609 -0.3449
 3798SOL    HW123027   2.359   3.486   5.572 -0.6564 -0.6678 -0.0553
 3798SOL    HW223028   2.261   3.546   5.476 -2.1779 -1.1495  2.9969
 3799SOL     OW23029   1.367   0.707   3.129 -0.3034 -0.9044  0.1959
 3799SOL    HW123030   1.370   0.741   3.218  2.7081 -0.5456 -0.0458
 3799SOL    HW223031   1.416   0.779   3.090  0.6674 -2.6294 -1.7846
 3800SOL     OW23032   4.428   2.524   8.183 -0.4054 -0.4702 -0.1368
 3800SOL    HW123033   4.406   2.516   8.090  1.7704  2.6027 -0.9122
 3800SOL    HW223034   4.444   2.434   8.212 -0.6986  0.2313  2.1911
 3801SOL     OW23035   2.744   2.094   5.813 -0.1695  0.3656  0.4601
 3801SOL    HW123036   2.716   2.159   5.749  0.1657  0.9162  0.8753
 3801SOL    HW223037   2.661   2.049   5.828 -0.6770  1.0557 -0.2817
 3802SOL     OW23038   0.927   0.716   4.556 -0.5913 -0.2708 -0.5729
 3802SOL    HW123039   0.912   0.688   4.465 -0.0635  1.2243 -1.1300
 3802SOL    HW223040   1.006   0.771   4.555  0.7447 -2.2100  0.0062
 3803SOL     OW23041   1.507   3.604  12.361 -0.6409  0.1100  0.3116
 3803SOL    HW123042   1.436   3.628  12.301 -1.0027  1.1174  1.1394
 3803SOL    HW223043   1.518   3.513  12.334 -1.3114  0.8511 -2.4955
 3804SOL     OW23044   3.706   4.415  10.465  0.5520 -0.1343  0.6846
 3804SOL    HW123045   3.616   4.380  10.461  0.7602 -0.4979 -1.2194
 3804SOL    HW223046   3.705   4.482  10.533 -3.5225 -0.3901  0.8779
 3805SOL     OW23047   1.778   1.770   9.408 -0.0988  0.1300  0.4239
 3805SOL    HW123048   1.853   1.758   9.467 -0.9430 -1.6448  1.1569
 3805SOL    HW223049   1.814   1.781   9.320  0.5941 -1.0132  0.5625
 3806SOL     OW23050   4.137   3.878   6.065  0.4549  0.2516  0.6306
 3806SOL    HW123051   4.142   3.793   6.021 -0.3740 -0.3385  1.6683
 3806SOL    HW223052   4.228   3.908   6.060  1.1541 -1.5659  2.6308
 3807SOL     OW23053   0.616   1.470   7.135 -0.4225 -0.6025 -0.1049
 3807SOL    HW123054   0.574   1.532   7.076 -2.0803 -1.3147  0.3264
 3807SOL    HW223055   0.645   1.522   7.210  0.2392 -1.5033  0.2804
 3808SOL     OW23056   3.001   1.177   2.157 -0.4713 -0.1459  0.1908
 3808SOL    HW123057   3.071   1.237   2.134 -0.8535 -0.4593 -1.7443
 3808SOL    HW223058   2.959   1.165   2.072  0.0468 -1.8152  0.1709
 3809SOL     OW23059   1.432   2.074   4.573  0.0124 -0.4086 -0.0358
 3809SOL    HW123060   1.365   2.034   4.629  0.5083 -1.8900 -0.5089
 3809SOL    HW223061   1.434   2.014   4.499  0.4687 -1.0321  0.4815
 3810SOL     OW23062   0.282   0.426   4.194 -0.1177  0.0072  0.1488
 3810SOL    HW123063   0.336   0.359   4.151  0.7815  0.7539  0.1118
 3810SOL    HW223064   0.342   0.501   4.196 -0.1367 -0.0699  2.9797
 3811SOL     OW23065   0.116   2.468   9.712 -0.6488 -1.3096  0.0454
 3811SOL    HW123066   0.058   2.531   9.754  0.4985  0.1652 -0.6057
 3811SOL    HW223067   0.193   2.466   9.769  0.1457 -0.0685 -0.9987
 3812SOL     OW23068   4.707   3.192   1.650 -0.4199  0.1640  0.0163
 3812SOL    HW123069   0.001   3.164   1.737 -0.4869  0.0233 -0.0079
 3812SOL    HW223070   0.022   3.272   1.635 -0.6141  0.0082 -1.4812
 3813SOL     OW23071   2.170   3.056   9.799 -0.9517 -0.2746  0.1627
 3813SOL    HW123072   2.260   3.083   9.781 -1.8029  2.7491  0.4160
 3813SOL    HW223073   2.134   3.115   9.733 -2.4648 -0.1021  1.1290
 3814SOL     OW23074   3.131   0.081   5.250 -0.0160 -0.3668  0.1286
 3814SOL    HW123075   3.044   0.120   5.241  0.3734  0.6799  0.8872
 3814SOL    HW223076   3.147   0.053   5.160  1.8374  0.8830  0.0668
 3815SOL     OW23077   1.092   2.868   5.897 -0.3433  0.1037  0.1144
 3815SOL    HW123078   1.058   2.861   5.807  1.2627 -1.4220 -0.3640
 3815SOL    HW223079   1.061   2.785   5.933  0.3191 -0.5578 -0.8388
 3816SOL     OW23080   1.220   4.458   3.879  0.0694  0.1554  0.0014
 3816SOL    HW123081   1.241   4.417   3.963  0.4697 -1.3292 -0.8042
 3816SOL    HW223082   1.130   4.487   3.893  0.7196  1.9612  0.4340
 3817SOL     OW23083   2.878   1.227  16.004  0.4039  0.0788  0.3442
 3817SOL    HW123084   2.957   1.233  15.950  1.1730 -1.2994  1.3162
 3817SOL    HW223085   2.871   1.132  16.005 -0.3006  0.1018 -2.5852
 3818SOL     OW23086   0.149   4.032  11.634 -0.2479 -0.1491 -0.2818
 3818SOL    HW123087   0.135   3.955  11.579  0.4933 -0.2722 -0.2991
 3818SOL    HW223088   0.059   4.064  11.636 -0.9973 -2.3047 -0.1807
 3819SOL     OW23089   3.310   3.755  16.713 -0.4188 -0.0361  0.1965
 3819SOL    HW123090   3.375   3.731  16.780 -1.2754 -0.5374  0.8505
 3819SOL    HW223091   3.230   3.748  16.765 -1.1267 -1.3875 -1.0922
 3820SOL     OW23092   0.708   1.749  13.744  0.2483 -0.7610  0.1686
 3820SOL    HW123093   0.669   1.828  13.705  2.6924  0.8590  0.9936
 3820SOL    HW223094   0.635   1.695  13.775  0.2062  0.2185  1.7691
 3821SOL     OW23095   3.628   0.533   7.218 -0.1327 -0.6284 -0.5255
 3821SOL    HW123096   3.616   0.455   7.164 -0.2939 -1.6227  0.9475
 3821SOL    HW223097   3.702   0.577   7.177 -0.0784 -1.9702 -1.8560
 3822SOL     OW23098   0.979   2.193   3.141  0.5208  0.2096 -0.2808
 3822SOL    HW123099   0.900   2.144   3.118  0.4915  0.2973 -0.3622
 3822SOL    HW223100   1.047   2.125   3.134 -1.3164 -1.7538  0.8671
 3823SOL     OW23101   0.801   0.227   3.494 -0.4484 -0.9685 -0.7467
 3823SOL    HW123102   0.712   0.251   3.519  0.1351  1.0924 -0.7092
 3823SOL    HW223103   0.822   0.292   3.427  3.3205  0.0491  1.3999
 3824SOL     OW23104   2.033   3.426  12.942  0.1255  0.3439  0.4092
 3824SOL    HW123105   2.023   3.520  12.955  1.2579  0.6693 -1.0183
 3824SOL    HW223106   2.033   3.424  12.846 -1.5425 -1.8154  0.4619
 3825SOL     OW23107   4.681   3.158  15.429  0.2593 -0.0802 -0.2212
 3825SOL    HW123108   0.005   3.234  15.431 -0.6848  0.6607 -0.6889
 3825SOL    HW223109   4.617   3.182  15.363 -1.7175  0.4107  1.8707
 3826SOL     OW23110   1.301   4.155   7.151  0.2563  0.2075 -0.4676
 3826SOL    HW123111   1.246   4.220   7.106 -0.2269  0.5732  0.6536
 3826SOL    HW223112   1.250   4.074   7.155  0.3625  0.0958 -1.2827
 3827SOL     OW23113   0.618   2.567  14.163 -0.8581 -0.7845  0.3367
 3827SOL    HW123114   0.677   2.612  14.103  1.0667 -0.7767  2.2686
 3827SOL    HW223115   0.611   2.636  14.229  0.5521  1.3472 -1.7783
 3828SOL     OW23116   1.083   1.381   3.703  0.1198  0.1043  0.3433
 3828SOL    HW123117   1.021   1.424   3.644 -0.7958 -0.2343  1.0679
 3828SOL    HW223118   1.084   1.440   3.778  0.1588  0.8999 -0.2799
 3829SOL     OW23119   3.532   1.897  10.203 -0.1724 -0.3213  0.5867
 3829SOL    HW123120   3.618   1.865  10.231 -0.2718 -0.2652  0.9579
 3829SOL    HW223121   3.565   1.958  10.138  0.2410 -1.0198  0.1355
 3830SOL     OW23122   3.456   3.726   8.676  0.0083 -0.1927 -0.2942
 3830SOL    HW123123   3.477   3.643   8.720 -0.3255 -1.2938 -2.2115
 3830SOL    HW223124   3.399   3.775   8.734 -2.7909 -1.8965 -1.6138
 3831SOL     OW23125   4.271   2.220   3.437  0.2758  0.3668  0.1343
 3831SOL    HW123126   4.277   2.315   3.428  0.7813  0.4251  1.0567
 3831SOL    HW223127   4.179   2.213   3.459  0.4715 -2.2130  0.1822
 3832SOL     OW23128   4.012   0.743  13.431 -0.7929 -0.5177 -0.0055
 3832SOL    HW123129   3.990   0.652  13.409 -1.8033  0.4130 -2.8375
 3832SOL    HW223130   3.967   0.787  13.359 -1.7332  2.1481  2.2510
 3833SOL     OW23131   2.776   4.332   7.389  0.8284 -0.1923 -0.0369
 3833SOL    HW123132   2.708   4.362   7.329 -1.2205 -3.0776  0.8771
 3833SOL    HW223133   2.736   4.249   7.413  0.1111  0.5179  1.2446
 3834SOL     OW23134   1.009   0.822   0.673 -0.6282  0.4599  0.0766
 3834SOL    HW123135   0.980   0.731   0.683  1.6900 -0.1270  1.5985
 3834SOL    HW223136   0.926   0.868   0.664 -0.0836  1.3967 -0.1556
 3835SOL     OW23137   0.963   3.002   8.032 -0.9145 -0.1397  0.1030
 3835SOL    HW123138   0.949   3.038   7.945 -0.5751  0.3516  0.2515
 3835SOL    HW223139   0.986   2.912   8.008 -0.7100  0.2842 -1.2699
 3836SOL     OW23140   2.568   1.848   2.076  0.0362  0.7031  0.9904
 3836SOL    HW123141   2.643   1.793   2.097  1.2145  1.3295 -1.6241
 3836SOL    HW223142   2.616   1.927   2.052  0.9494  0.1682  1.0699
 3837SOL     OW23143   3.365   3.598   8.095 -0.8452 -0.3500  0.5821
 3837SOL    HW123144   3.448   3.640   8.119 -0.7415  0.4837 -1.2242
 3837SOL    HW223145   3.401   3.511   8.085 -0.9614 -0.2735 -0.4444
 3838SOL     OW23146   3.426   2.789   7.717 -0.0992 -0.0292  0.1848
 3838SOL    HW123147   3.503   2.836   7.683 -0.4240 -0.7167 -1.5257
 3838SOL    HW223148   3.356   2.826   7.664  0.9371  2.6909  0.6831
 3839SOL     OW23149   3.282   1.898   4.633  0.3622  0.0165 -0.0259
 3839SOL    HW123150   3.227   1.920   4.557  0.2384  0.5926  0.2287
 3839SOL    HW223151   3.294   1.985   4.672 -0.7426 -0.4105  1.2644
 3840SOL     OW23152   1.198   2.633   2.973 -0.5230 -0.2050  0.0649
 3840SOL    HW123153   1.256   2.574   3.023  0.4153 -0.5872 -1.4785
 3840SOL    HW223154   1.204   2.710   3.029  2.6798  0.0531 -0.6270
 3841SOL     OW23155   1.021   2.641   7.206 -0.4173  0.5196 -0.1651
 3841SOL    HW123156   1.028   2.732   7.233 -1.9708  0.0034  1.9698
 3841SOL    HW223157   0.982   2.650   7.119 -1.2740 -2.8509 -0.1420
 3842SOL     OW23158   3.715   4.557   7.469 -0.3953 -0.3426 -0.2310
 3842SOL    HW123159   3.798   4.555   7.421 -0.7325  0.3591 -0.8457
 3842SOL    HW223160   3.706   4.651   7.484  0.0900 -0.5353  1.2565
 3843SOL     OW23161   2.980   2.607   3.179 -0.0444 -0.0470 -0.5940
 3843SOL    HW123162   3.048   2.661   3.219  0.0632  0.7078 -1.7759
 3843SOL    HW223163   2.989   2.530   3.235  1.9151  0.9264  0.4192
 3844SOL     OW23164   1.930   4.036   3.645 -0.4175  0.6399 -0.0497
 3844SOL    HW123165   1.928   3.956   3.697  1.6571 -0.1645 -1.2226
 3844SOL    HW223166   1.836   4.049   3.658 -0.1703 -1.0102  3.3893
 3845SOL     OW23167   1.581   2.799   6.429  0.1622  0.2921  0.0312
 3845SOL    HW123168   1.640   2.780   6.502 -0.2933 -0.1806  0.2803
 3845SOL    HW223169   1.618   2.743   6.360 -1.3931  1.1425 -1.4896
 3846SOL     OW23170   4.632   0.195  14.487 -0.2152 -0.2574  0.5520
 3846SOL    HW123171   4.712   0.246  14.475 -0.3214 -0.7258 -2.1171
 3846SOL    HW223172   4.622   0.214  14.580  0.0644 -0.2989  0.5897
 3847SOL     OW23173   1.976   0.078   6.370 -0.4275 -0.2967 -0.0492
 3847SOL    HW123174   1.991   0.014   6.301 -2.2243 -0.3453 -0.3975
 3847SOL    HW223175   1.941   0.026   6.443 -2.7572  0.5404 -0.5734
 3848SOL     OW23176   2.077   4.686  16.421  0.2680  0.1864  0.5411
 3848SOL    HW123177   2.163   4.678  16.463  0.3221 -3.3561 -0.2219
 3848SOL    HW223178   2.099   0.004  16.344  1.4393  1.1454  1.5341
 3849SOL     OW23179   0.563   3.324   6.193 -0.0188  0.5098  0.3734
 3849SOL    HW123180   0.597   3.295   6.108 -2.2138  0.4737 -0.4934
 3849SOL    HW223181   0.644   3.338   6.242 -1.1861  1.9817  1.8619
 3850SOL     OW23182   0.876   1.402   2.636 -0.4609 -0.4864 -0.2116
 3850SOL    HW123183   0.825   1.364   2.707 -1.8403 -0.1859 -1.0417
 3850SOL    HW223184   0.817   1.474   2.615 -2.8014 -2.0754  0.9998
 3851SOL     OW23185   0.431   1.809  17.242 -0.2136 -0.4227  0.0240
 3851SOL    HW123186   0.417   1.901  17.264  0.4064  0.0910 -1.8112
 3851SOL    HW223187   0.415   1.817  17.148 -0.1404 -0.7817 -0.0192
 3852SOL     OW23188   0.865   2.009   7.725 -0.4876 -0.2182  0.3577
 3852SOL    HW123189   0.897   1.990   7.813  2.0121  1.6727 -0.1669
 3852SOL    HW223190   0.791   2.068   7.737 -0.3570 -0.4630  2.2693
 3853SOL     OW23191   2.139   2.250   1.380 -0.6732 -0.5015  0.4311
 3853SOL    HW123192   2.138   2.198   1.299 -2.5157 -1.9795  1.4145
 3853SOL    HW223193   2.224   2.220   1.411  0.1746 -0.3275 -1.7034
 3854SOL     OW23194   2.226   3.869   3.757  0.2132  0.2116  0.7531
 3854SOL    HW123195   2.138   3.874   3.794 -0.8847  1.3519 -2.0759
 3854SOL    HW223196   2.222   3.774   3.745 -1.0432  0.4589 -0.7236
 3855SOL     OW23197   2.241   0.058   7.213  0.1148  0.1315 -0.2081
 3855SOL    HW123198   2.199   0.028   7.133  2.9017  0.4167 -1.7458
 3855SOL    HW223199   2.283   0.140   7.188 -0.2229  0.2409 -0.4254
 3856SOL     OW23200   3.359   4.363   2.416 -0.3704  0.3915 -0.2355
 3856SOL    HW123201   3.316   4.332   2.337  2.3244 -2.7687 -0.4520
 3856SOL    HW223202   3.293   4.344   2.483  0.4613 -1.0724  0.1682
 3857SOL     OW23203   0.189   1.544   0.791  0.1229 -0.2459 -0.5884
 3857SOL    HW123204   0.246   1.471   0.770 -0.8046 -1.8185  2.3503
 3857SOL    HW223205   0.208   1.602   0.717  0.4280 -0.2526 -0.5151
 3858SOL     OW23206   2.732   4.159   2.859  0.3541 -0.1678  0.0383
 3858SOL    HW123207   2.776   4.088   2.906 -1.2971 -0.5947  0.9422
 3858SOL    HW223208   2.785   4.164   2.780  1.5623  2.8737  1.0570
 3859SOL     OW23209   1.294   0.440   3.275  0.2636  0.3022  0.1324
 3859SOL    HW123210   1.310   0.506   3.208 -1.2227  0.8287  0.3025
 3859SOL    HW223211   1.358   0.378   3.240 -1.0181 -0.3262 -1.0934
 3860SOL     OW23212   2.183   3.968   4.094 -0.5774  0.4380 -0.5059
 3860SOL    HW123213   2.229   3.893   4.056 -1.6688  0.1188 -1.1760
 3860SOL    HW223214   2.215   4.040   4.039  0.6808  0.6563  0.5143
 3861SOL     OW23215   0.789   0.741   5.440  0.5575 -0.0137  0.3422
 3861SOL    HW123216   0.828   0.663   5.400 -0.2786 -0.4065  0.2940
 3861SOL    HW223217   0.784   0.790   5.359  0.4450 -1.1929 -0.3644
 3862SOL     OW23218   1.560   3.224   2.035  1.2801 -0.1417  0.4815
 3862SOL    HW123219   1.469   3.215   2.062  1.2266  0.8038  0.6006
 3862SOL    HW223220   1.587   3.137   2.007 -0.1310 -0.5829  0.5056
 3863SOL     OW23221   3.640   3.147   5.840 -0.2423  0.1382 -0.3275
 3863SOL    HW123222   3.728   3.171   5.871 -0.1101 -0.0025 -0.5998
 3863SOL    HW223223   3.637   3.190   5.755  0.7698  0.1516 -0.3598
 3864SOL     OW23224   4.124   0.646   4.049  0.5369 -0.1359 -0.1244
 3864SOL    HW123225   4.152   0.612   3.964 -1.9254  0.4943 -1.1786
 3864SOL    HW223226   4.169   0.582   4.104  0.0211 -0.9023 -0.5954
 3865SOL     OW23227   2.362   1.907   3.938 -0.2158  0.1390 -0.1574
 3865SOL    HW123228   2.406   1.944   3.862  1.7462 -1.6938  0.1020
 3865SOL    HW223229   2.435   1.875   3.991 -1.3161 -2.2782 -0.0617
 3866SOL     OW23230   0.928   1.945   3.311  0.1828 -0.1856  0.4547
 3866SOL    HW123231   0.995   1.878   3.328  1.6114  1.2913  0.5916
 3866SOL    HW223232   0.908   1.923   3.220 -0.4818 -0.7649  0.7385
 3867SOL     OW23233   3.719   0.638   1.470 -0.3365  0.5464  0.3280
 3867SOL    HW123234   3.803   0.591   1.467 -1.7794 -1.9452 -0.6283
 3867SOL    HW223235   3.661   0.568   1.444  0.1642  0.1480  0.2795
 3868SOL     OW23236   3.291   0.767   4.630  0.3628  0.2614 -0.1597
 3868SOL    HW123237   3.365   0.735   4.579  0.4144 -0.4388  0.3529
 3868SOL    HW223238   3.328   0.851   4.657  0.8857 -0.6069  1.7939
 3869SOL     OW23239   0.454   3.986   6.351  0.1391 -0.4183  0.3784
 3869SOL    HW123240   0.417   3.952   6.433  0.3364  0.5982  0.8875
 3869SOL    HW223241   0.526   3.925   6.341  0.4835  0.0695 -0.1524
 3870SOL     OW23242   3.526   2.457   8.653  0.5000  0.1533 -0.1992
 3870SOL    HW123243   3.569   2.535   8.689  2.1466 -2.0636  2.6620
 3870SOL    HW223244   3.554   2.465   8.562  0.1291  1.8166 -0.1702
 3871SOL     OW23245   3.913   3.970  11.295  0.0732 -0.0302  0.0744
 3871SOL    HW123246   3.923   4.024  11.216 -3.1571 -0.1378 -0.4234
 3871SOL    HW223247   3.938   3.885  11.256  0.3557 -0.6610  1.6520
 3872SOL     OW23248   1.684   4.292   5.139  0.8462  0.0811 -0.3206
 3872SOL    HW123249   1.744   4.365   5.124 -0.0865  0.8235 -0.4636
 3872SOL    HW223250   1.676   4.274   5.045  2.4556 -0.7997 -0.2777
 3873SOL     OW23251   3.381   1.991   4.007  0.2545 -0.2923 -0.4411
 3873SOL    HW123252   3.415   1.994   3.918 -0.8944  3.0186 -0.7545
 3873SOL    HW223253   3.429   1.913   4.034  0.1137  0.2428  1.3802
 3874SOL     OW23254   2.268   1.471   2.498 -0.0057  0.0296  0.5023
 3874SOL    HW123255   2.216   1.528   2.442 -0.2370  0.6886  1.3900
 3874SOL    HW223256   2.231   1.389   2.465  0.8612 -0.2744  0.2814
 3875SOL     OW23257   2.230   4.097   7.306  0.2889 -0.1489 -0.3362
 3875SOL    HW123258   2.287   4.170   7.330  1.7692 -1.0417 -1.1539
 3875SOL    HW223259   2.202   4.072   7.394  3.1569 -0.5894  0.4599
 3876SOL     OW23260   2.525   0.941  11.660 -0.5719 -0.1327  0.1984
 3876SOL    HW123261   2.497   0.953  11.751  0.9825 -2.8060  1.0312
 3876SOL    HW223262   2.620   0.937  11.675 -0.0485  1.4477 -2.7259
 3877SOL     OW23263   1.827   1.793   4.106 -0.8290 -0.2991 -0.3245
 3877SOL    HW123264   1.853   1.871   4.058  1.0736 -0.6519  0.1603
 3877SOL    HW223265   1.825   1.729   4.034  0.6211  0.3819 -0.9752
 3878SOL     OW23266   3.702   2.241   0.977  0.3547 -0.5242 -0.2822
 3878SOL    HW123267   3.685   2.335   0.985 -0.2901 -0.6579 -0.0338
 3878SOL    HW223268   3.657   2.216   0.896  0.7991 -1.3521 -0.2619
 3879SOL     OW23269   0.044   0.930   1.933  0.2404 -0.8438  0.3884
 3879SOL    HW123270   0.123   0.912   1.883  0.2658  0.0426  0.1009
 3879SOL    HW223271   4.713   0.956   1.868  1.2044  0.5643 -0.0460
 3880SOL     OW23272   3.040   1.913   2.002 -0.0647  0.2753 -0.2265
 3880SOL    HW123273   3.007   1.884   1.917  1.3865 -1.5462 -0.1832
 3880SOL    HW223274   3.107   1.971   1.967  0.1278  0.2146  0.0487
 3881SOL     OW23275   2.304   2.803  14.834 -0.5287  0.7257 -0.0803
 3881SOL    HW123276   2.385   2.833  14.874 -0.4883 -0.3936  0.6834
 3881SOL    HW223277   2.278   2.890  14.805 -0.7230  1.0949  1.2172
 3882SOL     OW23278   4.455   0.947   1.878 -0.3361  0.8618  0.0582
 3882SOL    HW123279   4.435   1.031   1.920  2.2662  1.0816  0.8554
 3882SOL    HW223280   4.375   0.905   1.911  0.2709  0.4315  1.0059
 3883SOL     OW23281   2.828   0.944  16.036 -0.4027  0.1539 -0.2197
 3883SOL    HW123282   2.902   0.885  16.029  1.2664  2.1956  0.1050
 3883SOL    HW223283   2.808   0.941  16.130 -3.2227 -1.1246 -0.8470
 3884SOL     OW23284   1.179   1.919   1.929  0.1583  0.8935 -0.6406
 3884SOL    HW123285   1.123   1.993   1.904  0.3330  0.9184 -0.9594
 3884SOL    HW223286   1.150   1.909   2.019 -1.1829 -0.2948 -1.2112
 3885SOL     OW23287   3.125   0.782  13.350 -0.1249  0.0316 -0.0996
 3885SOL    HW123288   3.212   0.811  13.323  0.3327 -0.6451  0.6520
 3885SOL    HW223289   3.103   0.728  13.273 -0.0155  0.3289 -0.3378
 3886SOL     OW23290   0.280   1.811  11.416 -0.7900  0.0377 -0.7462
 3886SOL    HW123291   0.363   1.783  11.454 -0.8518 -0.8077 -1.2378
 3886SOL    HW223292   0.262   1.742  11.352 -1.4351  2.7467 -3.4771
 3887SOL     OW23293   1.692   3.209   2.442 -0.4858 -0.3536 -0.1520
 3887SOL    HW123294   1.619   3.222   2.502 -0.7222 -1.1770 -0.2539
 3887SOL    HW223295   1.756   3.161   2.494  1.5586  0.3418 -2.0219
 3888SOL     OW23296   3.824   4.406  10.831 -0.2599  0.3067  0.4138
 3888SOL    HW123297   3.861   4.394  10.918  1.4812  0.8865 -0.2490
 3888SOL    HW223298   3.862   4.491  10.806  0.7865 -0.9664 -2.3412
 3889SOL     OW23299   0.034   1.621   1.248 -0.8927 -0.0856  0.3817
 3889SOL    HW123300   0.011   1.543   1.198  1.5123 -0.1870 -0.5751
 3889SOL    HW223301   0.091   1.664   1.185 -2.0593  1.9436  0.7219
 3890SOL     OW23302   3.082   1.069   7.799 -0.5200 -0.1393  0.6161
 3890SOL    HW123303   3.065   1.016   7.721  0.8987  1.5565 -0.8553
 3890SOL    HW223304   3.147   1.010   7.837 -1.2372 -0.1743  1.7877
 3891SOL     OW23305   2.866   1.778   4.140  0.8253 -0.1474 -0.2993
 3891SOL    HW123306   2.839   1.718   4.209  2.0448  0.1588  0.4418
 3891SOL    HW223307   2.815   1.746   4.065  0.6126  2.1107 -1.1196
 3892SOL     OW23308   3.526   3.426   2.701  0.0417 -0.1595 -0.0153
 3892SOL    HW123309   3.601   3.475   2.667  0.8749  0.0101  2.0576
 3892SOL    HW223310   3.563   3.375   2.773  3.7688  0.9824 -1.1207
 3893SOL     OW23311   0.779   0.894   2.550  0.1192 -0.6430 -0.0279
 3893SOL    HW123312   0.798   0.940   2.469  1.8056 -0.8556  0.2524
 3893SOL    HW223313   0.765   0.970   2.606  2.1464  0.2234 -0.7175
 3894SOL     OW23314   3.724   0.774  10.056  0.2517 -0.0215  0.5454
 3894SOL    HW123315   3.649   0.795  10.000  0.7136  3.7765  1.3942
 3894SOL    HW223316   3.695   0.830  10.128  1.7332  1.8714 -0.3488
 3895SOL     OW23317   3.390   2.480   1.429 -0.4491 -0.0334  0.3420
 3895SOL    HW123318   3.307   2.525   1.437 -0.4261  0.2081 -0.6902
 3895SOL    HW223319   3.443   2.534   1.487  0.0525 -0.4384  0.2655
 3896SOL     OW23320   3.627   2.518   0.960  0.1879  0.4510 -0.0554
 3896SOL    HW123321   3.602   2.597   1.009 -3.2639  0.4809 -1.9152
 3896SOL    HW223322   3.716   2.539   0.930  0.5890 -1.4610 -0.2103
 3897SOL     OW23323   0.537   3.102   1.434  0.1950  0.0227  0.4495
 3897SOL    HW123324   0.492   3.021   1.458  0.2676 -0.3690 -0.7259
 3897SOL    HW223325   0.465   3.162   1.414  0.0850 -0.4089 -0.4439
 3898SOL     OW23326   3.798   0.023   6.644  0.6888  0.2080 -0.2446
 3898SOL    HW123327   3.733   4.693   6.668  1.1975  0.0086  0.5985
 3898SOL    HW223328   3.839   4.713   6.571  0.6918 -1.0452  0.5486
 3899SOL     OW23329   3.949   3.478  15.834 -0.0802  0.0571 -0.1508
 3899SOL    HW123330   3.979   3.396  15.795 -1.1022 -1.2775  1.8637
 3899SOL    HW223331   4.035   3.517  15.849 -0.2903  0.6601 -0.5088
 3900SOL     OW23332   0.462   4.264   6.371 -0.2104 -0.1498 -0.0501
 3900SOL    HW123333   0.367   4.258   6.378 -0.2235  1.6293  1.2803
 3900SOL    HW223334   0.487   4.175   6.346 -0.3300  0.1051 -1.0723
 3901SOL     OW23335   0.610   3.059  12.058 -0.5527  0.0450 -0.4422
 3901SOL    HW123336   0.581   2.969  12.044 -3.1389  0.6170  1.2169
 3901SOL    HW223337   0.526   3.101  12.077 -1.0335 -0.0808 -2.2939
 3902SOL     OW23338   2.477   1.769   5.197 -0.8738  0.5919  0.0207
 3902SOL    HW123339   2.541   1.800   5.261 -0.9459 -2.8048  1.7861
 3902SOL    HW223340   2.415   1.717   5.248  0.1321  1.4762  2.1695
 3903SOL     OW23341   0.633   1.440   8.633 -0.5047  0.4957  0.7124
 3903SOL    HW123342   0.579   1.488   8.571 -0.5287  0.8965  1.0443
 3903SOL    HW223343   0.684   1.517   8.658  1.7188 -0.8231  0.2105
 3904SOL     OW23344   1.463   2.492   7.133  0.1977  0.1228  0.4080
 3904SOL    HW123345   1.438   2.578   7.167 -0.3035  0.4690 -0.8292
 3904SOL    HW223346   1.418   2.480   7.049  1.0816 -0.8893  0.0622
 3905SOL     OW23347   4.087   1.658  13.995 -0.0383 -0.2950 -0.7943
 3905SOL    HW123348   4.158   1.704  14.039  0.0860 -0.7777 -0.4880
 3905SOL    HW223349   4.019   1.726  13.993 -0.7513 -0.9457  1.8604
 3906SOL     OW23350   3.157   2.996   4.010 -0.2439  0.4036 -0.4789
 3906SOL    HW123351   3.065   3.004   4.034 -0.9594 -1.1071 -2.7715
 3906SOL    HW223352   3.194   3.075   4.049 -0.6899  0.0534  0.6551
 3907SOL     OW23353   1.056   3.361   3.583 -0.1287 -0.1500  0.1456
 3907SOL    HW123354   1.055   3.354   3.488  0.0013  2.1511 -0.0219
 3907SOL    HW223355   1.046   3.454   3.605  1.2002 -0.1175  0.5975
 3908SOL     OW23356   3.251   0.185   4.997 -0.8428 -0.1943  0.4992
 3908SOL    HW123357   3.232   0.273   4.964 -1.6336 -1.1646 -1.6550
 3908SOL    HW223358   3.344   0.191   5.014 -1.3592  3.0400  2.0616
 3909SOL     OW23359   0.787   3.820  15.736  0.1031 -0.6764 -0.5826
 3909SOL    HW123360   0.746   3.846  15.654 -1.5006 -0.0759  0.4070
 3909SOL    HW223361   0.733   3.853  15.809 -1.2598  0.6506 -2.1868
 3910SOL     OW23362   3.803   1.968   2.505 -0.3592 -0.2221  0.1875
 3910SOL    HW123363   3.791   2.060   2.527  0.8874 -0.3356  1.4022
 3910SOL    HW223364   3.837   1.941   2.591 -0.7234  0.5054  0.5562
 3911SOL     OW23365   1.204   3.504   3.291  0.6485 -0.3406 -0.2196
 3911SOL    HW123366   1.300   3.505   3.297  0.5410 -0.4020  1.4881
 3911SOL    HW223367   1.188   3.411   3.275  0.1568 -0.4598  0.9029
 3912SOL     OW23368   2.213   3.056   5.226  0.0864  0.0591  0.3449
 3912SOL    HW123369   2.279   3.015   5.282 -0.0170 -1.6723 -0.8188
 3912SOL    HW223370   2.135   3.017   5.267 -0.2472  1.1466  0.7418
 3913SOL     OW23371   1.124   4.122   5.189  0.3809  0.1436 -0.0765
 3913SOL    HW123372   1.217   4.140   5.176  0.5314 -3.1028 -3.6616
 3913SOL    HW223373   1.084   4.209   5.194  0.1432  0.0521 -0.3776
 3914SOL     OW23374   3.944   2.364   4.566  0.0205  0.8208  0.0773
 3914SOL    HW123375   3.920   2.450   4.600 -1.7259  0.1949  0.4274
 3914SOL    HW223376   3.959   2.388   4.475 -2.0285 -0.2310 -0.5387
 3915SOL     OW23377   1.717   4.477  14.361  0.0354 -0.3303 -0.6014
 3915SOL    HW123378   1.701   4.467  14.455 -0.0439  2.2395 -0.3480
 3915SOL    HW223379   1.801   4.430  14.357  0.2460 -0.0751  1.0321
 3916SOL     OW23380   3.851   0.286  10.291  0.6928  0.2084  0.7517
 3916SOL    HW123381   3.859   0.258  10.382  2.4470 -1.6936 -0.0226
 3916SOL    HW223382   3.763   0.323  10.300  0.4400 -0.1485 -0.2374
 3917SOL     OW23383   3.294   1.691   1.728  0.0146 -0.2091  0.1225
 3917SOL    HW123384   3.323   1.740   1.805  0.0168  0.4237 -0.2758
 3917SOL    HW223385   3.365   1.627   1.719 -1.5255 -1.6865 -1.2680
 3918SOL     OW23386   0.444   2.397  10.491 -0.2757  0.0565  0.6455
 3918SOL    HW123387   0.368   2.429  10.540 -0.6646  0.6948 -0.3662
 3918SOL    HW223388   0.408   2.375  10.404 -0.5459 -0.2523  0.8350
 3919SOL     OW23389   0.951   2.324  17.004 -0.3373  0.7346  0.3996
 3919SOL    HW123390   1.032   2.302  17.050  0.4401  0.2082 -1.2004
 3919SOL    HW223391   0.928   2.234  16.980  0.3665  0.4795  0.6840
 3920SOL     OW23392   4.300   2.118   4.235  0.3746 -0.5344  0.2435
 3920SOL    HW123393   4.290   2.166   4.152  2.0619 -0.1970  0.2373
 3920SOL    HW223394   4.284   2.026   4.215 -1.8360  0.0480 -0.7375
 3921SOL     OW23395   2.995   0.150   9.066  0.6729  0.1696  0.2716
 3921SOL    HW123396   3.083   0.167   9.100  0.4341  3.5162 -0.8054
 3921SOL    HW223397   2.950   0.230   9.095 -1.0147  0.0012 -1.8702
 3922SOL     OW23398   0.181   0.949   1.286  0.0308  0.4950  0.5765
 3922SOL    HW123399   0.242   0.876   1.279  0.0155  0.4514  0.8832
 3922SOL    HW223400   0.103   0.901   1.314  1.5632 -2.5727 -0.4215
 3923SOL     OW23401   4.066   1.574   9.029 -0.1926  0.1575  0.1982
 3923SOL    HW123402   4.003   1.502   9.022  0.6693 -0.4222 -1.6963
 3923SOL    HW223403   4.020   1.642   8.979  1.1140  1.4515  0.7593
 3924SOL     OW23404   1.956   3.623   3.382  1.0173  0.1569 -0.0439
 3924SOL    HW123405   1.901   3.546   3.370  0.6660  0.3278  0.4990
 3924SOL    HW223406   1.975   3.608   3.475 -0.3401 -0.7639  0.0786
 3925SOL     OW23407   1.642   2.005  15.512 -0.3408 -0.6628  0.4833
 3925SOL    HW123408   1.724   2.040  15.547 -1.3510  2.1193  0.0504
 3925SOL    HW223409   1.598   1.983  15.594  0.5215  3.0001  1.9277
 3926SOL     OW23410   4.444   1.224   6.193  0.0717 -0.1139 -0.8575
 3926SOL    HW123411   4.527   1.176   6.201 -1.3981 -2.2313  1.5996
 3926SOL    HW223412   4.475   1.314   6.181  0.5060  0.0557  1.4956
 3927SOL     OW23413   1.149   2.045   4.349 -0.0947 -0.1661  0.6190
 3927SOL    HW123414   1.164   1.972   4.409 -0.7979  0.5648  1.6958
 3927SOL    HW223415   1.229   2.035   4.298 -0.3681  0.9171 -0.0234
 3928SOL     OW23416   2.467   1.366   0.844  0.5531  0.7996 -0.0494
 3928SOL    HW123417   2.422   1.446   0.819 -0.7380  0.2506  0.5516
 3928SOL    HW223418   2.492   1.394   0.932 -1.8246  1.6358  0.3441
 3929SOL     OW23419   0.319   1.313  16.112  0.0862  0.4121 -0.0251
 3929SOL    HW123420   0.284   1.374  16.047  0.0160  0.8084  0.3886
 3929SOL    HW223421   0.400   1.364  16.113  0.4158 -0.0963 -0.6495
 3930SOL     OW23422   4.673   2.089   6.571 -0.0242 -0.1936 -0.2068
 3930SOL    HW123423   0.010   2.067   6.630  0.3171  0.0618 -0.5332
 3930SOL    HW223424   4.616   2.123   6.640  0.2492 -0.2902  0.0684
 3931SOL     OW23425   1.578   0.346   2.455 -0.3588  0.4532  0.1445
 3931SOL    HW123426   1.531   0.263   2.449  0.2229  0.2054 -1.1725
 3931SOL    HW223427   1.515   0.417   2.464 -1.3210 -0.6483  2.0843
 3932SOL     OW23428   2.925   1.906   2.749 -0.4827 -0.1889  0.0468
 3932SOL    HW123429   2.930   1.951   2.834  2.7755 -0.4829 -0.0050
 3932SOL    HW223430   2.969   1.822   2.764 -0.7906 -0.1209  1.3464
 3933SOL     OW23431   3.163   4.411  14.901 -0.2537  0.0550 -0.2568
 3933SOL    HW123432   3.238   4.386  14.848 -0.4021 -1.4328  0.2274
 3933SOL    HW223433   3.121   4.328  14.921 -0.3072  0.6040  2.0197
 3934SOL     OW23434   0.280   3.829   7.580  0.1247 -0.3179  0.3662
 3934SOL    HW123435   0.337   3.863   7.649 -1.3187 -1.0484  1.9342
 3934SOL    HW223436   0.326   3.865   7.504  1.2899  1.8194  2.0948
 3935SOL     OW23437   1.976   4.408   1.792 -0.3599  0.1109  0.0830
 3935SOL    HW123438   2.065   4.414   1.826 -1.2013  1.4866  1.9813
 3935SOL    HW223439   1.955   4.495   1.824 -1.9664  0.1118 -0.9686
 3936SOL     OW23440   0.607   3.727   7.128  0.0410  0.1802 -0.0887
 3936SOL    HW123441   0.684   3.763   7.171 -1.2166 -0.7429  2.9872
 3936SOL    HW223442   0.644   3.640   7.113 -0.1554  0.1215 -0.2301
 3937SOL     OW23443   2.434   1.719  12.307  0.1891  0.1899 -0.2135
 3937SOL    HW123444   2.370   1.661  12.348  1.2654 -0.1799  0.9263
 3937SOL    HW223445   2.385   1.799  12.287 -0.2640  0.0650  0.4212
 3938SOL     OW23446   2.289   2.192  14.698 -0.4603  0.6126  0.5353
 3938SOL    HW123447   2.254   2.277  14.670 -0.6369  0.0464 -0.9176
 3938SOL    HW223448   2.337   2.216  14.777  1.4321  0.8040 -0.6861
 3939SOL     OW23449   2.370   0.974   6.463  0.5863 -0.0264 -0.5372
 3939SOL    HW123450   2.374   0.973   6.368  0.0521 -0.6047 -0.5525
 3939SOL    HW223451   2.453   0.933   6.488  0.2165  0.2043  1.1349
 3940SOL     OW23452   0.146   1.631   3.937 -0.6056  0.1150 -0.4717
 3940SOL    HW123453   0.223   1.667   3.894  0.3107 -2.2294 -0.8052
 3940SOL    HW223454   0.133   1.694   4.008 -0.9406  1.6071 -1.8715
 3941SOL     OW23455   1.980   4.479   7.704  0.2847 -0.2279 -0.1944
 3941SOL    HW123456   2.015   4.476   7.615  0.1197 -0.1309 -0.2620
 3941SOL    HW223457   1.890   4.461   7.677 -0.2594  1.0394  0.7563
 3942SOL     OW23458   0.864   3.704   1.811  0.4612 -0.0787 -0.0785
 3942SOL    HW123459   0.872   3.782   1.755 -0.5000 -0.5995 -0.9437
 3942SOL    HW223460   0.898   3.634   1.754  1.8013 -0.1811  0.8465
 3943SOL     OW23461   3.185   0.921   8.505  0.2805 -0.5971  0.1376
 3943SOL    HW123462   3.163   0.972   8.426  0.4889  0.7446  0.9462
 3943SOL    HW223463   3.186   0.983   8.577 -0.5508 -0.8498  0.3748
 3944SOL     OW23464   3.373   0.021   2.329  0.1849 -0.1271 -0.5198
 3944SOL    HW123465   3.335   0.105   2.303 -0.1626  0.2304  1.1773
 3944SOL    HW223466   3.453   0.031   2.277  0.0638  0.5805 -0.5689
 3945SOL     OW23467   3.756   3.085  10.447  0.7659 -0.1056 -0.2885
 3945SOL    HW123468   3.809   3.059  10.521  1.5063 -1.2560 -1.2260
 3945SOL    HW223469   3.777   3.179  10.448 -0.1855  0.0656  2.0468
 3946SOL     OW23470   3.028   0.691   3.303  0.9037  0.4925  0.5958
 3946SOL    HW123471   3.107   0.743   3.317  0.7478  1.3762 -1.7065
 3946SOL    HW223472   3.070   0.606   3.316 -0.6050 -0.6897 -2.1747
 3947SOL     OW23473   2.763   1.864  11.917 -0.0609  0.1386 -0.4283
 3947SOL    HW123474   2.730   1.808  11.847 -3.1681 -0.4502  1.5081
 3947SOL    HW223475   2.709   1.837  11.991 -0.7984 -0.4616 -1.1773
 3948SOL     OW23476   3.856   2.333   7.877 -0.2610 -0.3861  0.4680
 3948SOL    HW123477   3.824   2.248   7.846 -0.2168 -0.2249 -0.0284
 3948SOL    HW223478   3.847   2.333   7.972  0.5621 -0.6306  0.5475
 3949SOL     OW23479   2.453   2.655   5.050 -0.4556  0.1911 -0.3180
 3949SOL    HW123480   2.505   2.733   5.071 -0.0680 -0.0677 -0.3237
 3949SOL    HW223481   2.524   2.603   5.014 -0.1032  0.5103 -0.0887
 3950SOL     OW23482   0.355   4.639   5.695 -0.6727 -0.6761  0.1285
 3950SOL    HW123483   0.388   4.714   5.744 -1.3987 -0.7817  0.7889
 3950SOL    HW223484   0.418   4.572   5.721 -0.5864 -0.8961 -0.6721
 3951SOL     OW23485   2.642   3.528   7.180 -0.2459 -0.3703 -0.8573
 3951SOL    HW123486   2.652   3.607   7.126 -1.8612  1.1039  0.9957
 3951SOL    HW223487   2.657   3.548   7.272 -0.8075  0.4998 -0.9502
 3952SOL     OW23488   0.397   4.638  17.569 -0.2469 -0.2557 -0.5424
 3952SOL    HW123489   0.343   4.676  17.499 -2.3871 -0.0529  1.2186
 3952SOL    HW223490   0.416   4.552  17.532 -0.1308 -1.2739  1.8812
 3953SOL     OW23491   1.466   1.637   0.084  0.0653 -0.5159 -0.4739
 3953SOL    HW123492   1.531   1.579   0.123  2.0407 -0.2003 -3.3750
 3953SOL    HW223493   1.518   1.715   0.069 -3.4048  2.6001  3.4812
 3954SOL     OW23494   1.814   3.124  12.112  0.2666 -0.4830  0.4406
 3954SOL    HW123495   1.829   3.210  12.073 -2.3545 -0.6777 -0.9646
 3954SOL    HW223496   1.799   3.074  12.032 -0.6817  0.5538 -0.0256
 3955SOL     OW23497   2.575   2.096   4.583 -0.0699 -0.0098 -0.5184
 3955SOL    HW123498   2.650   2.153   4.601  1.4635 -2.4609  0.9160
 3955SOL    HW223499   2.502   2.150   4.612  1.4246  1.0018  1.3863
 3956SOL     OW23500   3.823   0.800   2.878 -0.7352 -0.2017 -0.2114
 3956SOL    HW123501   3.853   0.777   2.790 -0.4792 -0.4471 -0.0605
 3956SOL    HW223502   3.742   0.754   2.900 -0.0438 -0.4592  1.7673
 3957SOL     OW23503   4.133   2.253  11.812 -0.0707 -0.1003 -0.1500
 3957SOL    HW123504   4.154   2.163  11.837  0.5074  0.5328  1.6844
 3957SOL    HW223505   4.060   2.228  11.757 -2.1734  2.3302  1.5337
 3958SOL     OW23506   0.402   0.277   6.072 -0.3430 -0.2884 -0.2728
 3958SOL    HW123507   0.316   0.313   6.095 -0.5045 -0.8847  0.0479
 3958SOL    HW223508   0.456   0.342   6.116  0.8507 -1.6575  0.2870
 3959SOL     OW23509   3.348   0.746   3.978  0.7222  0.0682  0.0064
 3959SOL    HW123510   3.253   0.746   3.970  0.7349  1.4149 -0.0439
 3959SOL    HW223511   3.378   0.673   3.923 -0.9728 -1.4887  1.1520
 3960SOL     OW23512   4.635   2.600  17.188  0.1180  0.3260  0.1758
 3960SOL    HW123513   4.552   2.587  17.142 -1.3241 -0.2695  2.9641
 3960SOL    HW223514   4.674   2.683  17.159 -0.4145  0.3260 -0.5304
 3961SOL     OW23515   0.469   3.335   7.180 -0.1473 -0.8845 -0.3283
 3961SOL    HW123516   0.393   3.381   7.143 -0.2537  1.2513  2.5130
 3961SOL    HW223517   0.438   3.330   7.270  2.4406  0.6396  0.6467
 3962SOL     OW23518   4.109   1.374  11.816  0.2344  0.5024  0.0002
 3962SOL    HW123519   4.014   1.369  11.801 -0.0078  0.7377  1.4804
 3962SOL    HW223520   4.147   1.300  11.767 -0.5915 -0.0241  0.1487
 3963SOL     OW23521   4.352   3.715   0.937 -0.0224  0.5668 -0.1832
 3963SOL    HW123522   4.302   3.636   0.915 -0.2254 -0.0800  2.6677
 3963SOL    HW223523   4.291   3.784   0.911 -0.2688  0.0203 -1.0730
 3964SOL     OW23524   0.588   1.914   1.731  0.1290  0.2761 -0.5224
 3964SOL    HW123525   0.653   1.969   1.687  1.2856 -1.6147 -1.2022
 3964SOL    HW223526   0.565   1.976   1.800 -2.8491 -0.9371 -0.4349
 3965SOL     OW23527   2.337   2.335  10.281 -0.7222 -0.0727 -0.3479
 3965SOL    HW123528   2.303   2.401  10.219 -0.8373  0.4922  0.3164
 3965SOL    HW223529   2.279   2.262  10.260  1.3016 -1.9673  0.6459
 3966SOL     OW23530   3.343   0.605   6.004 -0.1996  0.7536 -0.3491
 3966SOL    HW123531   3.300   0.520   6.001  2.0329 -0.3692 -0.5260
 3966SOL    HW223532   3.284   0.665   5.958 -0.9294  1.3536  1.3740
 3967SOL     OW23533   1.667   1.308   3.267  0.4966  0.0663  0.4697
 3967SOL    HW123534   1.688   1.358   3.187 -1.7537  0.6519  0.2635
 3967SOL    HW223535   1.735   1.241   3.268  0.4631  0.0818  4.0678
 3968SOL     OW23536   3.939   3.934   1.772  0.8115 -0.0699  0.2932
 3968SOL    HW123537   3.938   3.976   1.687 -1.9215  1.0919  0.8837
 3968SOL    HW223538   3.848   3.902   1.765  2.2810 -3.9820 -0.9961
 3969SOL     OW23539   4.195   4.203   4.071 -0.3006 -0.3499  0.0496
 3969SOL    HW123540   4.152   4.258   4.138  1.3024  1.9883 -0.8420
 3969SOL    HW223541   4.286   4.209   4.101 -0.0822  0.5481 -0.7912
 3970SOL     OW23542   1.350   1.879  11.769  0.1705 -0.7751  0.3666
 3970SOL    HW123543   1.315   1.916  11.850  0.1959 -0.3737  0.1937
 3970SOL    HW223544   1.436   1.846  11.792  0.6693  0.9260  0.9486
 3971SOL     OW23545   1.793   1.325  14.846 -0.4500  0.8942 -0.3199
 3971SOL    HW123546   1.740   1.402  14.868 -1.4139  1.0949 -3.3467
 3971SOL    HW223547   1.875   1.367  14.872 -1.1330  1.0692  1.6175
 3972SOL     OW23548   1.514   0.170   2.925 -0.7590  0.4008 -0.7255
 3972SOL    HW123549   1.578   0.176   2.854 -0.6045  2.4936 -0.4168
 3972SOL    HW223550   1.464   0.094   2.895  1.2477 -1.7110  1.3258
 3973SOL     OW23551   0.529   1.591   5.258 -0.3793 -0.5241  0.3195
 3973SOL    HW123552   0.510   1.526   5.326  2.4630 -0.5384  1.0975
 3973SOL    HW223553   0.598   1.545   5.211 -1.3744  0.4245 -2.0768
 3974SOL     OW23554   0.236   0.555  14.939 -0.2686  0.5592 -0.1158
 3974SOL    HW123555   0.224   0.609  14.860  1.9567  1.1190 -0.0831
 3974SOL    HW223556   0.307   0.608  14.976 -0.3057 -0.4079  1.3133
 3975SOL     OW23557   1.907   2.962  13.264 -0.0230  0.1063  0.5147
 3975SOL    HW123558   1.978   3.024  13.283 -1.0252  0.9434  1.5503
 3975SOL    HW223559   1.889   2.980  13.172 -0.4719  0.2803  0.6349
 3976SOL     OW23560   4.092   3.056   7.093 -0.0650  0.0576 -0.0668
 3976SOL    HW123561   4.160   3.005   7.137  0.5610  1.2388  0.3439
 3976SOL    HW223562   4.089   3.007   7.011  3.1059  0.2912 -0.3437
 3977SOL     OW23563   4.199   1.261  13.283 -0.0426  0.4174  0.2594
 3977SOL    HW123564   4.221   1.308  13.364 -1.0293  3.7355 -1.4130
 3977SOL    HW223565   4.247   1.310  13.216 -0.3682 -2.1324 -1.8226
 3978SOL     OW23566   0.596   2.297   1.796  0.3488 -0.4935  0.2033
 3978SOL    HW123567   0.677   2.305   1.846  0.6643 -0.3521 -0.3220
 3978SOL    HW223568   0.566   2.211   1.825  0.2455  0.1828  2.0875
 3979SOL     OW23569   0.436   3.542   2.224 -0.1350  1.0775  0.2229
 3979SOL    HW123570   0.472   3.581   2.144 -2.2962  0.5897 -0.9757
 3979SOL    HW223571   0.509   3.490   2.259 -1.2489  1.5390  3.1907
 3980SOL     OW23572   2.349   3.137   7.003  0.8476 -0.5209 -0.2872
 3980SOL    HW123573   2.281   3.117   7.067 -0.7130 -0.3573 -1.9174
 3980SOL    HW223574   2.408   3.189   7.059  0.0565  0.8312 -0.6975
 3981SOL     OW23575   3.399   1.472  17.363  0.0653  0.3696  0.1157
 3981SOL    HW123576   3.315   1.518  17.359 -1.0924 -1.5261  2.7116
 3981SOL    HW223577   3.458   1.537  17.323 -0.1180  0.0314 -0.6951
 3982SOL     OW23578   2.896   2.370   6.330  0.0822  0.1820 -0.7126
 3982SOL    HW123579   2.880   2.279   6.305  1.4046 -0.2883  0.2121
 3982SOL    HW223580   2.952   2.388   6.254  2.7987 -0.1503  1.2246
 3983SOL     OW23581   2.305   3.056   1.960  0.0987  0.4319  0.2133
 3983SOL    HW123582   2.370   3.094   2.018  0.6240  1.2564 -0.9036
 3983SOL    HW223583   2.258   3.134   1.931  0.9943  0.4896 -1.1124
 3984SOL     OW23584   2.929   2.439  17.071 -0.2904  0.3155 -0.0495
 3984SOL    HW123585   2.939   2.437  17.166 -0.4548  0.1356 -0.0370
 3984SOL    HW223586   2.874   2.362  17.058  0.0215 -0.0364  0.7013
 3985SOL     OW23587   4.580   4.408   7.853 -0.2179  0.0630 -0.3744
 3985SOL    HW123588   4.576   4.504   7.854  1.1887  0.1078  2.1597
 3985SOL    HW223589   4.625   4.391   7.770  0.2895 -0.2003 -0.0441
 3986SOL     OW23590   2.007   3.189   3.204  0.6098  0.3771 -0.2026
 3986SOL    HW123591   2.010   3.242   3.124 -1.1657 -0.7990 -1.0465
 3986SOL    HW223592   1.963   3.111   3.172 -1.3467  1.3979 -0.0099
 3987SOL     OW23593   4.623   4.048   5.641  0.2221 -0.1611  0.1861
 3987SOL    HW123594   4.659   4.085   5.560 -0.2481 -0.9497 -0.3872
 3987SOL    HW223595   4.676   3.968   5.639 -0.5070 -0.5774 -2.8433
 3988SOL     OW23596   4.698   2.734   4.735 -0.2179 -0.4160 -0.5338
 3988SOL    HW123597   0.011   2.813   4.712  0.4313 -0.8706 -0.7423
 3988SOL    HW223598   4.692   2.735   4.830  0.7750  1.8421 -0.5037
 3989SOL     OW23599   2.227   4.437  14.169  0.2977  0.4550 -0.0072
 3989SOL    HW123600   2.252   4.530  14.162  1.2979 -0.0319 -2.8477
 3989SOL    HW223601   2.138   4.448  14.137 -0.1682  0.3178  1.2317
 3990SOL     OW23602   4.698   4.111   6.575  0.5172 -0.0055  0.5800
 3990SOL    HW123603   0.032   4.107   6.509 -3.5605 -2.4095 -3.5483
 3990SOL    HW223604   4.648   4.030   6.565  0.2579  0.1441  0.6558
 3991SOL     OW23605   0.294   1.552  14.125 -0.8803  0.1883  0.3133
 3991SOL    HW123606   0.288   1.602  14.207  1.7538  1.6708 -0.4247
 3991SOL    HW223607   0.386   1.526  14.121 -1.4966 -1.8951 -0.4086
 3992SOL     OW23608   3.897   4.132   8.337 -0.2752  0.5153 -0.1088
 3992SOL    HW123609   3.839   4.110   8.264  0.5065  0.0953 -0.5946
 3992SOL    HW223610   3.910   4.048   8.380  0.4440  0.0128 -1.3195
 3993SOL     OW23611   0.330   1.263   9.061  0.2017  0.9288  0.3283
 3993SOL    HW123612   0.238   1.275   9.087  0.5553 -1.4882  2.7541
 3993SOL    HW223613   0.343   1.336   9.002  2.3405 -0.8356 -1.3912
 3994SOL     OW23614   1.168   0.440   2.468  0.2932 -0.3241 -0.7713
 3994SOL    HW123615   1.230   0.497   2.513 -0.1053 -0.2324 -0.3428
 3994SOL    HW223616   1.159   0.358   2.517  1.5172  0.3975  0.6474
 3995SOL     OW23617   3.786   0.253  13.434  0.0558  0.5660  0.2150
 3995SOL    HW123618   3.754   0.340  13.459 -1.4968 -0.3531  1.3731
 3995SOL    HW223619   3.793   0.208  13.518 -0.5378 -3.1191 -1.7109
 3996SOL     OW23620   4.152   1.846   3.772 -0.1093  0.3182  0.1971
 3996SOL    HW123621   4.120   1.761   3.745 -1.1281  0.8638 -0.3142
 3996SOL    HW223622   4.121   1.899   3.698 -2.8693 -0.9020  0.4868
 3997SOL     OW23623   1.760   1.728   7.830  0.1058  0.5346 -0.2342
 3997SOL    HW123624   1.823   1.753   7.762  0.2358  0.6728 -0.0608
 3997SOL    HW223625   1.769   1.633   7.825 -2.1132  0.3219 -0.1149
 3998SOL     OW23626   1.011   4.312   5.747  0.1133  0.1907 -0.2767
 3998SOL    HW123627   0.949   4.323   5.674 -0.4311  0.5682  0.2449
 3998SOL    HW223628   0.955   4.345   5.817  0.1668  0.0242 -0.1566
 3999SOL     OW23629   1.886   1.138  10.546 -0.5893  0.0096 -0.6496
 3999SOL    HW123630   1.909   1.231  10.544 -0.1133 -0.1265 -1.7313
 3999SOL    HW223631   1.800   1.149  10.506 -1.0042 -0.7399  0.0411
 4000SOL     OW23632   1.617   1.319   3.694  0.0245  0.1409 -0.0111
 4000SOL    HW123633   1.648   1.232   3.719 -0.7650 -0.3704 -0.8152
 4000SOL    HW223634   1.699   1.366   3.676  0.3098 -0.7968 -1.1843
 4001SOL     OW23635   2.190   3.146   3.417 -0.3340 -0.6199 -0.1518
 4001SOL    HW123636   2.187   3.050   3.424 -0.5833 -0.6086 -0.1252
 4001SOL    HW223637   2.113   3.162   3.362 -1.5536 -0.5953  1.5729
 4002SOL     OW23638   3.523   4.298   3.880 -0.1238 -0.2064  0.0777
 4002SOL    HW123639   3.438   4.342   3.882 -0.5383 -1.0574  1.3154
 4002SOL    HW223640   3.526   4.260   3.792 -1.4371  1.1939 -0.5653
 4003SOL     OW23641   4.106   1.854  12.080  0.6557 -0.0542  0.4336
 4003SOL    HW123642   4.066   1.918  12.020  0.2396  1.1805  2.0219
 4003SOL    HW223643   4.055   1.774  12.070  2.0815 -0.9860  0.6447
 4004SOL     OW23644   2.463   0.529   6.853 -0.2698 -0.4922 -0.1737
 4004SOL    HW123645   2.552   0.557   6.831  0.1413 -1.4239  0.2970
 4004SOL    HW223646   2.434   0.605   6.902  1.0495 -0.0218 -0.1055
 4005SOL     OW23647   3.542   4.228   3.628  0.2613 -0.0982 -0.1484
 4005SOL    HW123648   3.636   4.212   3.622  0.7928  2.4464  1.5062
 4005SOL    HW223649   3.528   4.299   3.566  1.3998 -1.2260 -1.6857
 4006SOL     OW23650   2.788   0.270   3.995  0.5403 -0.4405 -0.0057
 4006SOL    HW123651   2.782   0.338   4.062 -1.4233 -0.8249  0.2125
 4006SOL    HW223652   2.698   0.272   3.962 -0.3806  1.4383  2.5940
 4007SOL     OW23653   4.112   3.127  17.558  0.2145 -0.0296  0.1852
 4007SOL    HW123654   4.188   3.074  17.584 -0.5601 -0.2287  2.0574
 4007SOL    HW223655   4.094   3.166  17.644  1.4647  1.8837 -0.4093
 4008SOL     OW23656   3.612   0.071   2.241  0.6190 -0.5198  0.0657
 4008SOL    HW123657   3.671   0.005   2.207  2.5384  1.3005 -0.1238
 4008SOL    HW223658   3.670   0.107   2.307 -0.2185  2.8858 -1.0468
 4009SOL     OW23659   3.895   1.575   5.819 -0.9779 -0.3827 -0.7097
 4009SOL    HW123660   3.955   1.604   5.888 -0.3686  0.6318 -1.6764
 4009SOL    HW223661   3.963   1.578   5.752 -0.8516  0.5668 -0.5276
 4010SOL     OW23662   1.056   3.869   5.502  0.2407  0.1639  0.0255
 4010SOL    HW123663   1.071   3.901   5.591 -0.8262 -3.1697  1.4069
 4010SOL    HW223664   1.029   3.779   5.522  1.4585 -0.2932 -0.4065
 4011SOL     OW23665   1.573   4.517   6.435  0.4265 -0.3577  0.0017
 4011SOL    HW123666   1.538   4.604   6.450  0.3247 -0.4319  0.1981
 4011SOL    HW223667   1.550   4.471   6.516 -0.3142  1.0305  0.5668
 4012SOL     OW23668   1.710   2.520   6.427  0.1080  0.4285  0.0792
 4012SOL    HW123669   1.749   2.576   6.495  0.9981  0.0215 -0.0960
 4012SOL    HW223670   1.625   2.506   6.469  0.5366 -0.2102  0.7369
 4013SOL     OW23671   3.186   2.226   0.112 -0.2011  0.1236  0.3185
 4013SOL    HW123672   3.260   2.279   0.081 -2.1223  1.8641 -1.2597
 4013SOL    HW223673   3.112   2.285   0.098 -0.8101 -0.8306 -0.4636
 4014SOL     OW23674   2.180   0.428   7.352  0.2156 -0.9680 -0.9588
 4014SOL    HW123675   2.171   0.504   7.294  0.2629  0.0093  0.3084
 4014SOL    HW223676   2.229   0.376   7.288  1.8397  0.3207 -0.7645
 4015SOL     OW23677   1.079   0.894   3.445  0.6692 -0.0619  0.1450
 4015SOL    HW123678   1.132   0.878   3.523  2.2803  0.0994 -0.9084
 4015SOL    HW223679   1.031   0.812   3.441  2.9456 -1.4076  0.6825
 4016SOL     OW23680   3.243   0.091   8.160  0.0917 -0.9243 -0.3726
 4016SOL    HW123681   3.156   0.128   8.173  0.8959 -0.0916  2.7450
 4016SOL    HW223682   3.268   0.074   8.251 -2.0707 -1.3074  0.1456
 4017SOL     OW23683   3.667   0.236  11.036 -0.4073  0.4025  0.1649
 4017SOL    HW123684   3.620   0.196  11.109 -0.0886  1.2962  0.8690
 4017SOL    HW223685   3.748   0.259  11.082  0.4527  1.4597 -1.8594
 4018SOL     OW23686   4.399   2.778   1.151 -0.2049 -0.1569 -0.3357
 4018SOL    HW123687   4.358   2.864   1.164 -0.3087 -0.1188 -0.8818
 4018SOL    HW223688   4.418   2.753   1.241 -1.9988  0.6324  0.2525
 4019SOL     OW23689   0.792   0.732   8.458 -0.2300 -0.1193  0.6188
 4019SOL    HW123690   0.714   0.677   8.446 -0.3732 -0.6359  4.0304
 4019SOL    HW223691   0.857   0.662   8.465  1.1217  0.7910 -2.7277
 4020SOL     OW23692   4.459   2.406   9.558 -0.2854  0.0891  0.4623
 4020SOL    HW123693   4.392   2.469   9.531 -1.3588 -0.1925  2.4709
 4020SOL    HW223694   4.451   2.404   9.653 -0.9255  0.9500  0.4286
 4021SOL     OW23695   3.439   0.039   7.662 -0.2879 -0.0616 -0.0859
 4021SOL    HW123696   3.378   0.108   7.689  1.4272  1.0963  0.7738
 4021SOL    HW223697   3.485   0.080   7.589 -2.2390 -0.1680 -1.3775
 4022SOL     OW23698   0.633   3.205   5.956 -0.5258 -0.0139  0.1848
 4022SOL    HW123699   0.703   3.141   5.965 -1.9650 -1.0455  4.0976
 4022SOL    HW223700   0.673   3.272   5.900  0.4158 -0.6877  0.0466
 4023SOL     OW23701   2.013   1.110   6.224 -0.6395  0.0443  0.1151
 4023SOL    HW123702   2.027   1.112   6.319  1.2226  0.9619 -0.1806
 4023SOL    HW223703   1.921   1.087   6.214 -0.7442  0.4287  0.1803
 4024SOL     OW23704   0.036   3.438   6.055 -0.5353  0.0397  0.2179
 4024SOL    HW123705   0.090   3.404   5.984  0.0096 -1.5344  1.4018
 4024SOL    HW223706   4.704   3.371   6.050  0.5493 -1.0237 -0.1051
 4025SOL     OW23707   2.652   0.152  10.869 -0.2452  0.3389 -0.5353
 4025SOL    HW123708   2.702   0.095  10.811 -1.4952  0.5917 -1.8701
 4025SOL    HW223709   2.724   0.199  10.910  1.1180  1.0586 -3.7312
 4026SOL     OW23710   4.351   3.848   2.112  0.4999  0.2007  0.5814
 4026SOL    HW123711   4.267   3.881   2.145  1.0740  0.8203  1.4370
 4026SOL    HW223712   4.345   3.767   2.162  2.7016 -0.9412 -1.0183
 4027SOL     OW23713   4.463   2.206   1.200  0.1746 -0.4731 -0.0566
 4027SOL    HW123714   4.372   2.180   1.215  0.0172 -0.4948 -1.0577
 4027SOL    HW223715   4.483   2.146   1.129  0.0343  1.2980 -1.5756
 4028SOL     OW23716   2.344   1.931  11.075  0.1608 -0.3455  0.5951
 4028SOL    HW123717   2.328   1.890  11.161  2.0881  0.5632  1.3924
 4028SOL    HW223718   2.283   1.883  11.020  0.5326 -2.9783  2.4675
 4029SOL     OW23719   0.518   4.668   3.470 -0.4111  0.1949 -0.2461
 4029SOL    HW123720   0.565   4.669   3.386  1.4133 -2.4507  0.7327
 4029SOL    HW223721   0.427   4.661   3.440  0.3156 -0.7956 -2.2086
 4030SOL     OW23722   4.582   2.693  11.841 -0.1513  0.4644 -0.5648
 4030SOL    HW123723   4.673   2.689  11.809  0.1837  0.9101  0.3418
 4030SOL    HW223724   4.542   2.737  11.766  2.0328  1.3346 -1.2181
 4031SOL     OW23725   4.155   2.871   3.225  0.4365 -1.2003  0.7550
 4031SOL    HW123726   4.071   2.864   3.180 -0.7536 -1.9939  3.1211
 4031SOL    HW223727   4.126   2.918   3.304  1.0082  0.5021 -0.0295
 4032SOL     OW23728   4.529   1.533   9.733  0.2964 -0.4345 -0.1463
 4032SOL    HW123729   4.534   1.517   9.639 -1.0449  1.1918 -0.4981
 4032SOL    HW223730   4.475   1.612   9.743  0.8351 -0.1424  0.5457
 4033SOL     OW23731   2.209   3.815  16.106  0.0747  0.2757 -0.2242
 4033SOL    HW123732   2.199   3.863  16.024 -1.2232  1.4084  0.6050
 4033SOL    HW223733   2.143   3.859  16.160 -1.2689 -1.0173 -0.8159
 4034SOL     OW23734   0.444   4.221   6.745  0.2583 -0.6354 -0.1565
 4034SOL    HW123735   0.378   4.273   6.700  0.4964 -0.5501 -0.4125
 4034SOL    HW223736   0.390   4.180   6.813  1.5978 -2.8123 -0.3901
 4035SOL     OW23737   2.296   2.322   3.121 -0.3241 -0.6462 -0.9182
 4035SOL    HW123738   2.357   2.308   3.049  1.7117  1.4369  0.3844
 4035SOL    HW223739   2.214   2.277   3.100 -0.5858  0.7485 -2.8421
 4036SOL     OW23740   4.058   3.869   2.764 -0.5479  0.0660  0.2075
 4036SOL    HW123741   4.030   3.844   2.852 -0.0819  0.3894  0.4412
 4036SOL    HW223742   4.107   3.948   2.784 -1.0876  0.2818  0.6935
 4037SOL     OW23743   1.206   0.384  10.670  0.1010  0.3319 -0.7257
 4037SOL    HW123744   1.292   0.420  10.690  0.7357 -0.6163 -1.7003
 4037SOL    HW223745   1.161   0.466  10.650 -0.3252 -0.1420 -1.7560
 4038SOL     OW23746   3.401   2.529  14.872 -0.2792  0.4394 -0.4835
 4038SOL    HW123747   3.313   2.567  14.878 -0.0570  1.1029 -1.3886
 4038SOL    HW223748   3.444   2.600  14.823 -0.3530 -0.0554 -1.2683
 4039SOL     OW23749   2.522   2.328  14.506  0.3406  0.1061  0.0537
 4039SOL    HW123750   2.497   2.370  14.588 -1.5423 -3.7842  1.4666
 4039SOL    HW223751   2.606   2.374  14.501  0.5935 -0.4482 -0.8989
 4040SOL     OW23752   0.724   0.871   6.845  0.5273  0.1991  0.2211
 4040SOL    HW123753   0.728   0.831   6.758  1.0828 -0.4822  0.5581
 4040SOL    HW223754   0.816   0.873   6.873  0.9465  0.1360 -1.1679
 4041SOL     OW23755   3.991   4.205  10.744 -0.0857 -1.0016 -0.1039
 4041SOL    HW123756   3.943   4.167  10.671  0.5018 -3.0351  0.5777
 4041SOL    HW223757   3.921   4.260  10.780  1.2736  0.1032  0.8694
 4042SOL     OW23758   1.166   3.808   2.446  0.1111  0.1930  0.2126
 4042SOL    HW123759   1.126   3.895   2.452 -1.9725 -0.9124  2.2768
 4042SOL    HW223760   1.101   3.751   2.486 -1.2222  0.8730 -0.9431
 4043SOL     OW23761   2.527   4.322   5.848 -0.4551 -0.0098  0.1393
 4043SOL    HW123762   2.475   4.344   5.925 -0.0264 -1.5767  0.8828
 4043SOL    HW223763   2.568   4.238   5.870  1.0724  0.6068 -0.2981
 4044SOL     OW23764   4.537   2.013   0.995 -0.0624  0.1744  0.0652
 4044SOL    HW123765   4.510   1.922   1.005  1.0559  0.1076  2.5958
 4044SOL    HW223766   4.623   1.990   0.959  0.5475  2.0483  0.2910
 4045SOL     OW23767   3.114   3.251   4.062  0.3510 -0.0636 -0.3292
 4045SOL    HW123768   3.030   3.243   4.017  1.9996  0.0701 -3.4201
 4045SOL    HW223769   3.083   3.321   4.120  1.5203 -0.0135  0.2351
 4046SOL     OW23770   3.211   1.221  10.357  0.4230  0.0991 -0.5131
 4046SOL    HW123771   3.228   1.133  10.390 -0.3395  0.2828  0.3813
 4046SOL    HW223772   3.193   1.259  10.443 -0.1082 -1.5818  0.1221
 4047SOL     OW23773   0.647   4.545   1.621  0.6199  0.6863  0.0907
 4047SOL    HW123774   0.626   4.591   1.539  1.7195 -1.2211 -1.2558
 4047SOL    HW223775   0.699   4.611   1.666  0.3286  0.6280  0.5152
 4048SOL     OW23776   0.018   3.223  15.058  0.1941 -0.1579 -0.1172
 4048SOL    HW123777   4.659   3.210  15.069  0.2580 -0.1696  0.4178
 4048SOL    HW223778   0.028   3.313  15.026 -1.0101 -0.0433 -0.1765
 4049SOL     OW23779   4.550   2.697   4.069  0.0100 -0.2108  0.8878
 4049SOL    HW123780   4.551   2.607   4.037  0.0143  0.1838 -0.2166
 4049SOL    HW223781   4.624   2.736   4.023  1.2208 -0.8901  2.2704
 4050SOL     OW23782   0.174   3.270   9.558 -0.1353  0.0027 -0.0349
 4050SOL    HW123783   0.145   3.279   9.467  0.0729  0.4691 -0.0577
 4050SOL    HW223784   0.190   3.177   9.574  0.3872 -0.1763 -1.5647
 4051SOL     OW23785   3.726   1.844   5.768 -0.2066 -0.2147  0.3283
 4051SOL    HW123786   3.770   1.760   5.767  0.5513  0.1683  1.3922
 4051SOL    HW223787   3.789   1.899   5.815 -1.7924  0.4541  1.6811
 4052SOL     OW23788   3.429   2.136  15.701 -0.4362  0.3518 -0.1362
 4052SOL    HW123789   3.358   2.085  15.741  0.2056 -0.5817 -0.2057
 4052SOL    HW223790   3.423   2.224  15.739  0.4008  0.3033  0.0950
 4053SOL     OW23791   2.905   1.128   8.598  0.1163  0.5478  0.3507
 4053SOL    HW123792   2.978   1.077   8.562 -2.0236 -0.2581 -2.8976
 4053SOL    HW223793   2.861   1.176   8.528 -1.7579  0.5754  1.5520
 4054SOL     OW23794   0.566   2.585   2.167 -0.0915  0.3271 -0.1103
 4054SOL    HW123795   0.485   2.555   2.209  1.1018 -1.2408  1.0768
 4054SOL    HW223796   0.561   2.680   2.181  1.7974  0.2554  0.9743
 4055SOL     OW23797   2.880   4.532   6.773  0.1249  0.6359  0.1725
 4055SOL    HW123798   2.882   4.479   6.693  0.1085  0.8511  0.0292
 4055SOL    HW223799   2.960   4.584   6.766  1.3386 -0.9487  2.1013
 4056SOL     OW23800   3.070   3.541   7.984 -0.5273 -0.8007 -0.5003
 4056SOL    HW123801   3.127   3.582   7.919 -2.8186  0.7471 -1.5633
 4056SOL    HW223802   3.120   3.552   8.065 -0.1547  0.3724 -0.8928
 4057SOL     OW23803   0.320   2.587   3.170 -0.0895  0.5020  0.2841
 4057SOL    HW123804   0.246   2.646   3.161 -1.2702 -1.1301 -0.7168
 4057SOL    HW223805   0.277   2.516   3.218 -2.5017  0.6337 -1.7296
 4058SOL     OW23806   3.415   0.171   1.736 -0.4102 -0.1178 -0.4211
 4058SOL    HW123807   3.330   0.134   1.759 -0.3233 -0.4840 -0.6974
 4058SOL    HW223808   3.464   0.089   1.732 -0.3549 -0.1181  0.2463
 4059SOL     OW23809   1.798   0.139  11.835 -0.6176 -0.4214  0.0961
 4059SOL    HW123810   1.798   0.220  11.784  1.6991 -0.2118  0.4207
 4059SOL    HW223811   1.705   0.117  11.844 -0.8432  1.2726  1.6102
 4060SOL     OW23812   2.323   2.013   5.133 -0.5480  0.2114  0.0726
 4060SOL    HW123813   2.411   2.048   5.119 -0.9516  1.0015 -0.4791
 4060SOL    HW223814   2.342   1.921   5.152 -0.0097 -0.2804 -2.8995
 4061SOL     OW23815   0.363   0.436   5.647 -0.1634  0.4924  0.3831
 4061SOL    HW123816   0.418   0.515   5.655  0.4054 -0.0152  1.5222
 4061SOL    HW223817   0.311   0.445   5.727  1.8394  0.3649  1.7119
 4062SOL     OW23818   2.505   2.025  17.465 -0.2925  0.2075 -0.1507
 4062SOL    HW123819   2.461   2.044  17.382 -2.4083  0.7613  1.0960
 4062SOL    HW223820   2.503   1.930  17.459 -2.4143  0.4083 -2.3998
 4063SOL     OW23821   0.859   1.852  10.859  0.0301  0.1619 -0.1681
 4063SOL    HW123822   0.878   1.875  10.768 -3.4127 -0.4837 -1.0269
 4063SOL    HW223823   0.918   1.778  10.870 -1.0287 -0.4968  1.0133
 4064SOL     OW23824   4.346   2.686   3.237  0.7578  0.3486  0.1625
 4064SOL    HW123825   4.293   2.764   3.247 -0.7154 -0.6624  0.2188
 4064SOL    HW223826   4.283   2.644   3.179  0.3573  2.1937 -0.7287
 4065SOL     OW23827   4.447   1.983  12.582  0.2385 -0.1640  0.5664
 4065SOL    HW123828   4.388   2.027  12.521  1.1187 -2.9528 -2.2935
 4065SOL    HW223829   4.529   2.011  12.542  0.3670  1.5593  2.0321
 4066SOL     OW23830   2.587   4.608   4.637  0.0795  0.1346 -0.3229
 4066SOL    HW123831   2.667   4.650   4.604 -0.1072  1.8728  1.4905
 4066SOL    HW223832   2.579   4.540   4.570 -1.8862  1.7344 -1.7136
 4067SOL     OW23833   2.324   2.693   2.331  0.5122  0.4378  0.1140
 4067SOL    HW123834   2.283   2.607   2.329 -0.0241  0.6572  1.7859
 4067SOL    HW223835   2.276   2.746   2.268  0.3450 -0.3406 -0.4139
 4068SOL     OW23836   2.698   3.762  13.688 -0.3681  0.2005  0.4920
 4068SOL    HW123837   2.717   3.751  13.781 -0.9343 -0.9231  0.4806
 4068SOL    HW223838   2.708   3.857  13.682  0.6354  0.1816  1.9452
 4069SOL     OW23839   2.324   2.024   5.555  0.0118  0.1631  0.1068
 4069SOL    HW123840   2.290   2.086   5.620 -0.1413 -0.2491  0.4221
 4069SOL    HW223841   2.247   1.982   5.517 -0.8984  1.0991  0.9076
 4070SOL     OW23842   4.222   3.430   9.735  0.0247 -0.1275  0.5894
 4070SOL    HW123843   4.263   3.451   9.651  3.2591 -0.5798  2.0947
 4070SOL    HW223844   4.289   3.384   9.784  0.9024 -0.4473 -0.9173
 4071SOL     OW23845   2.999   4.712  15.939 -0.3217  0.0703  0.3225
 4071SOL    HW123846   2.989   4.619  15.959 -1.6994 -0.1911 -1.5950
 4071SOL    HW223847   3.041   0.012  16.018  2.0432  0.9882 -1.3642
 4072SOL     OW23848   2.895   0.677   2.566 -0.5818 -0.4219 -0.0853
 4072SOL    HW123849   2.870   0.711   2.652 -0.4089 -1.7777  0.4974
 4072SOL    HW223850   2.898   0.758   2.515 -1.6117 -0.5194 -0.3053
 4073SOL     OW23851   1.335   0.112  11.952 -0.0395 -0.7108  0.0652
 4073SOL    HW123852   1.249   0.112  11.910  0.6470 -0.4316 -1.3536
 4073SOL    HW223853   1.367   0.198  11.928  1.6726 -0.3826  3.4834
 4074SOL     OW23854   2.978   4.463   4.842 -0.4588 -0.1230  0.1559
 4074SOL    HW123855   2.898   4.411   4.854 -0.2791 -0.7933 -1.5600
 4074SOL    HW223856   2.955   4.552   4.869 -0.3456 -0.0393 -0.0211
 4075SOL     OW23857   2.020   2.015   2.857 -0.0745  0.0948 -0.3692
 4075SOL    HW123858   1.961   1.954   2.900 -0.6930  0.7575 -0.2744
 4075SOL    HW223859   2.002   2.015   2.762 -0.1032 -1.4396 -0.3565
 4076SOL     OW23860   3.345   0.565   9.935 -0.4648  0.3739  0.1014
 4076SOL    HW123861   3.293   0.495   9.896 -2.7394  1.2957  1.4296
 4076SOL    HW223862   3.382   0.586   9.850  2.5453  1.1798  1.6189
 4077SOL     OW23863   1.973   1.329   2.711 -0.3704  0.0379 -0.1221
 4077SOL    HW123864   1.948   1.410   2.756 -0.1515  0.9910 -1.7100
 4077SOL    HW223865   1.978   1.369   2.624 -4.0807  0.2598 -0.2236
 4078SOL     OW23866   0.980   3.872   5.229 -0.9264 -0.2717  0.4515
 4078SOL    HW123867   1.028   3.844   5.307  0.1033  0.5610  0.1229
 4078SOL    HW223868   1.023   3.956   5.210 -2.2542  0.0482 -1.1315
 4079SOL     OW23869   0.238   4.131   4.776 -0.0614  0.1386  0.3483
 4079SOL    HW123870   0.271   4.184   4.703  2.1751 -2.4938 -0.5479
 4079SOL    HW223871   0.282   4.048   4.758 -0.3011  0.5376 -2.0986
 4080SOL     OW23872   0.010   2.924   1.821 -0.5650  0.3578  0.7143
 4080SOL    HW123873   0.073   2.852   1.831  0.7474  1.4202  0.0045
 4080SOL    HW223874   0.009   2.954   1.912 -1.1475 -1.6916  1.3897
 4081SOL     OW23875   4.015   4.092   5.533 -0.1125 -0.4187 -0.2812
 4081SOL    HW123876   4.020   4.040   5.614  0.7891  0.1583  0.0311
 4081SOL    HW223877   4.050   4.029   5.470  2.3097 -0.1922  0.8603
 4082SOL     OW23878   0.736   2.440  14.722  0.2793 -0.3591  0.9067
 4082SOL    HW123879   0.724   2.508  14.789  0.9132 -0.0638  0.7192
 4082SOL    HW223880   0.663   2.447  14.660  0.1887 -0.9526  0.9517
 4083SOL     OW23881   1.662   4.195   6.840  0.2907  0.3306 -0.1598
 4083SOL    HW123882   1.625   4.164   6.757 -0.6548 -1.6852  0.9941
 4083SOL    HW223883   1.585   4.176   6.893 -0.4258  2.6340 -0.3952
 4084SOL     OW23884   2.423   2.698   9.163 -0.1853 -0.3069  0.0172
 4084SOL    HW123885   2.390   2.608   9.164 -2.3263  0.4939  0.2247
 4084SOL    HW223886   2.448   2.713   9.072 -0.3427 -0.0843  0.0119
 4085SOL     OW23887   0.984   3.826   3.862 -0.0722  0.1782  0.3582
 4085SOL    HW123888   0.920   3.884   3.905  0.3946 -0.2830  1.6821
 4085SOL    HW223889   1.066   3.875   3.870  0.1157 -0.2562  1.1726
 4086SOL     OW23890   3.246   1.893   7.078 -1.1118 -0.2242  0.2500
 4086SOL    HW123891   3.269   1.975   7.034 -1.4912  1.1150  2.5547
 4086SOL    HW223892   3.157   1.913   7.109 -1.5803  0.2410 -1.3791
 4087SOL     OW23893   3.738   4.210  11.724 -0.5190  0.5728  0.4251
 4087SOL    HW123894   3.761   4.243  11.637 -1.5589 -2.2531 -0.9404
 4087SOL    HW223895   3.688   4.136  11.689 -1.0095  0.6116  1.0430
 4088SOL     OW23896   0.702   0.866  17.696 -0.3459 -0.4505 -0.2474
 4088SOL    HW123897   0.637   0.796  17.690 -1.0603  0.2402 -0.4500
 4088SOL    HW223898   0.641   0.935  17.721 -1.9146 -1.4071 -1.4458
 4089SOL     OW23899   4.496   4.026   1.928  0.5383  0.5311 -0.0525
 4089SOL    HW123900   4.428   3.994   1.987 -0.0124  0.2281 -0.8501
 4089SOL    HW223901   4.558   3.964   1.965  0.3791 -0.6107 -1.7290
 4090SOL     OW23902   1.022   4.373   5.211  0.4411  0.1319  0.2552
 4090SOL    HW123903   1.100   4.409   5.169  0.7897 -1.4677 -0.4669
 4090SOL    HW223904   0.996   4.453   5.258  3.7485  1.2833  0.1304
 4091SOL     OW23905   2.121   4.486   3.489  0.2293  0.6755  0.3092
 4091SOL    HW123906   2.081   4.400   3.478  1.3631  0.1653  0.1701
 4091SOL    HW223907   2.190   4.490   3.423 -0.7577 -0.6282 -0.8077
 4092SOL     OW23908   1.187   1.737   4.219  0.1088 -0.1701  0.4755
 4092SOL    HW123909   1.214   1.650   4.190 -1.6972 -0.4463 -0.3251
 4092SOL    HW223910   1.276   1.766   4.243  0.8155  0.1158 -2.5092
 4093SOL     OW23911   3.786   2.010   9.311 -0.0390  0.0347 -0.1568
 4093SOL    HW123912   3.852   2.078   9.319 -0.3288  0.5362 -2.2482
 4093SOL    HW223913   3.753   2.013   9.401  1.0910  0.2578  0.2399
 4094SOL     OW23914   0.962   1.992   7.970  0.4286 -0.1004  0.1916
 4094SOL    HW123915   1.052   2.021   7.985 -0.0834  0.0752  2.8230
 4094SOL    HW223916   0.968   1.898   7.986 -1.2677  0.2315  2.7811
 4095SOL     OW23917   2.355   1.520   4.510 -0.2709  0.1341 -0.2480
 4095SOL    HW123918   2.303   1.440   4.505  0.8557 -0.5617 -0.7892
 4095SOL    HW223919   2.320   1.563   4.588 -1.9879 -0.2704 -0.7866
 4096SOL     OW23920   1.538   4.464   6.764 -0.2302 -0.6088  0.3879
 4096SOL    HW123921   1.598   4.391   6.765  1.4157  0.7525  0.5607
 4096SOL    HW223922   1.579   4.525   6.826  1.2423 -1.0699 -0.1417
 4097SOL     OW23923   3.628   2.237   5.426  0.1521 -0.2577  0.6234
 4097SOL    HW123924   3.542   2.272   5.447 -1.6993 -4.0262 -0.5169
 4097SOL    HW223925   3.626   2.154   5.474  0.6016 -0.7036 -0.1265
 4098SOL     OW23926   3.396   1.386   5.772  0.4829  0.0764  0.2931
 4098SOL    HW123927   3.422   1.426   5.855  1.1128 -2.4645  1.3475
 4098SOL    HW223928   3.389   1.457   5.709 -0.6543  1.0425  1.5135
 4099SOL     OW23929   4.564   2.361   7.640 -0.5531 -0.1069 -0.3318
 4099SOL    HW123930   4.568   2.387   7.548  0.8075  3.8123  0.8444
 4099SOL    HW223931   4.654   2.389   7.659  0.4235 -1.7209 -2.5101
 4100SOL     OW23932   2.784   1.091   4.525 -0.1743 -0.0748  0.0385
 4100SOL    HW123933   2.788   1.187   4.530 -0.0629 -0.0890  0.2463
 4100SOL    HW223934   2.704   1.069   4.573 -0.6107 -1.8204 -1.5225
 4101SOL     OW23935   4.286   0.278   2.992 -0.7388  0.3538  0.2666
 4101SOL    HW123936   4.266   0.359   3.039 -0.6395  0.7655 -0.4070
 4101SOL    HW223937   4.357   0.305   2.934 -0.2092  1.0344  1.2271
 4102SOL     OW23938   1.823   4.310   3.501  0.0866 -0.5998 -0.1896
 4102SOL    HW123939   1.864   4.232   3.464 -0.0642  0.0127 -1.6199
 4102SOL    HW223940   1.820   4.372   3.428 -0.2088 -1.7389 -1.1461
 4103SOL     OW23941   2.448   4.310   0.497 -0.5680 -0.0359 -0.3282
 4103SOL    HW123942   2.528   4.266   0.468  0.5994  0.4577  2.1647
 4103SOL    HW223943   2.395   4.235   0.523 -2.5929  1.0847 -1.1977
 4104SOL     OW23944   4.434   3.116   2.097  0.1914 -0.2401 -0.2310
 4104SOL    HW123945   4.524   3.129   2.067 -0.8186 -0.0354 -3.1552
 4104SOL    HW223946   4.381   3.165   2.036  0.8940  2.4055  1.2766
 4105SOL     OW23947   4.279   4.246   8.906  0.4296 -0.0253 -0.5747
 4105SOL    HW123948   4.246   4.288   8.827  0.6044 -0.8716 -1.0912
 4105SOL    HW223949   4.350   4.301   8.940  1.1774  0.9455 -3.7676
 4106SOL     OW23950   0.960   1.278   1.241  0.1443 -0.2176  0.4241
 4106SOL    HW123951   1.004   1.204   1.199 -0.1217  1.4940 -2.8710
 4106SOL    HW223952   0.998   1.358   1.205  2.0635 -0.9158  0.8954
 4107SOL     OW23953   2.676   4.111   5.974  0.1447  0.0330 -0.3363
 4107SOL    HW123954   2.656   4.078   6.062  0.3767  0.0341 -0.2824
 4107SOL    HW223955   2.751   4.059   5.947  0.6643 -0.0405  1.2325
 4108SOL     OW23956   2.672   1.313  16.560  0.1966  0.0997 -0.1093
 4108SOL    HW123957   2.753   1.267  16.540  1.6046  1.7523  1.7862
 4108SOL    HW223958   2.691   1.375  16.630 -1.9900 -1.5142  1.9322
 4109SOL     OW23959   1.728   2.659   5.794 -0.4457 -0.1985  0.0840
 4109SOL    HW123960   1.740   2.654   5.699 -1.2759 -2.1725  0.0863
 4109SOL    HW223961   1.633   2.652   5.801 -0.4703 -0.0746 -0.1200
 4110SOL     OW23962   1.378   1.234   6.748  0.3278 -0.1391 -0.5686
 4110SOL    HW123963   1.378   1.257   6.655  0.4132  0.5563 -0.3995
 4110SOL    HW223964   1.464   1.267   6.773 -0.1881  0.3432  0.5814
 4111SOL     OW23965   3.919   1.648  12.026  0.4216 -0.1825  0.0739
 4111SOL    HW123966   3.903   1.554  12.038 -1.5401  0.6891  4.1236
 4111SOL    HW223967   3.835   1.681  12.058  0.9985  1.8069 -0.4717
 4112SOL     OW23968   1.044   3.127   2.537  0.0418  0.2890  0.8543
 4112SOL    HW123969   0.970   3.108   2.594 -1.1560  0.1899 -0.7243
 4112SOL    HW223970   1.109   3.149   2.603  0.5274  1.2493  0.0475
 4113SOL     OW23971   0.516   3.389   6.613 -0.0301 -0.0540  0.4674
 4113SOL    HW123972   0.528   3.439   6.694  0.0634 -0.0415  0.4453
 4113SOL    HW223973   0.546   3.303   6.643 -0.3402 -0.3990 -0.2257
 4114SOL     OW23974   4.660   1.873  11.928 -0.1307  0.0284  0.6952
 4114SOL    HW123975   4.625   1.926  11.856 -1.5154  0.1714  1.4751
 4114SOL    HW223976   4.734   1.827  11.889  1.6759  3.1062  0.5235
 4115SOL     OW23977   2.712   3.306   8.281 -0.7025  0.5931  0.0097
 4115SOL    HW123978   2.705   3.336   8.371  1.6551 -0.9646  0.7089
 4115SOL    HW223979   2.790   3.359   8.263 -0.3021  0.3451  1.0184
 4116SOL     OW23980   0.463   1.876   6.636  0.4775  0.2265 -0.2661
 4116SOL    HW123981   0.533   1.815   6.612 -0.9595 -0.8697 -1.6685
 4116SOL    HW223982   0.509   1.951   6.674  0.0747 -1.2225  3.0677
 4117SOL     OW23983   4.383   4.377   5.229  0.2171  0.0476 -0.2261
 4117SOL    HW123984   4.409   4.353   5.317  2.4534 -0.0272 -0.9064
 4117SOL    HW223985   4.425   4.313   5.171  0.3292  0.5532 -0.7050
 4118SOL     OW23986   0.598   0.450  10.854 -0.5461  0.2076 -0.1070
 4118SOL    HW123987   0.527   0.512  10.838 -0.8899 -0.0238  0.5520
 4118SOL    HW223988   0.575   0.406  10.936  1.3629 -0.5126  0.0376
 4119SOL     OW23989   4.442   3.392   9.551 -0.2396  0.1362 -0.1066
 4119SOL    HW123990   4.529   3.417   9.582  0.3000 -2.0954  0.1923
 4119SOL    HW223991   4.454   3.298   9.534  0.4230  0.2044 -0.0183
 4120SOL     OW23992   2.527   2.891  14.953  0.3144  0.1144 -0.2231
 4120SOL    HW123993   2.600   2.889  14.891 -0.3835  1.9116 -1.1029
 4120SOL    HW223994   2.556   2.827  15.019 -0.2912 -0.1882 -0.2443
 4121SOL     OW23995   0.173   4.465  14.370 -0.4763  0.3251  0.1491
 4121SOL    HW123996   0.124   4.534  14.414  0.2429  1.2690 -0.4938
 4121SOL    HW223997   0.151   4.479  14.278  0.2231  1.2012  0.1054
 4122SOL     OW23998   4.505   4.316  15.999  0.4938  0.4289 -0.3190
 4122SOL    HW123999   4.468   4.402  15.979  0.5492  0.2755 -1.1025
 4122SOL    HW224000   4.594   4.344  16.020  0.6593  0.4974 -1.1084
 4123SOL     OW24001   2.334   0.621   7.202 -0.3090  0.2407  0.7223
 4123SOL    HW124002   2.259   0.625   7.142 -1.0992  2.8067  1.8781
 4123SOL    HW224003   2.340   0.715   7.219 -1.0800  0.1743  1.3581
 4124SOL     OW24004   1.603   3.005  10.378 -0.3292  0.1876  0.5170
 4124SOL    HW124005   1.541   2.969  10.441  0.9201 -0.9838  1.0599
 4124SOL    HW224006   1.630   3.090  10.414  0.6859 -0.0636  0.3405
 4125SOL     OW24007   2.361   3.089   7.731  0.3185 -0.8991 -0.0968
 4125SOL    HW124008   2.367   3.153   7.803  0.1507  1.4001 -2.1356
 4125SOL    HW224009   2.283   3.039   7.758 -0.3351 -0.0483 -0.3845
 4126SOL     OW24010   1.009   2.400   5.317  0.2761  0.6914 -0.0261
 4126SOL    HW124011   0.917   2.417   5.297 -0.2824 -0.1479  1.8151
 4126SOL    HW224012   1.050   2.419   5.233  2.2318  1.8651  1.1777
 4127SOL     OW24013   3.599   2.838   7.374 -0.1726 -0.0623  0.4471
 4127SOL    HW124014   3.562   2.897   7.308  0.4719  0.0316  0.1766
 4127SOL    HW224015   3.663   2.792   7.320 -1.2276 -1.3556  0.2806
 4128SOL     OW24016   2.128   0.021   2.073 -0.2919  0.7055 -0.4117
 4128SOL    HW124017   2.093   0.103   2.040 -1.0645  0.5804  0.0981
 4128SOL    HW224018   2.102   0.034   2.164 -3.4592 -2.4747 -0.8741
 4129SOL     OW24019   0.250   1.673  13.043 -0.0254 -0.1017  0.5593
 4129SOL    HW124020   0.171   1.654  13.095  1.0807  0.0388  2.2873
 4129SOL    HW224021   0.261   1.590  12.996 -0.0814 -0.0199  0.4042
 4130SOL     OW24022   4.581   4.071   4.812 -0.2708 -0.1513 -0.6331
 4130SOL    HW124023   4.664   4.026   4.828 -1.6592 -3.5393 -3.1058
 4130SOL    HW224024   4.532   4.017   4.750 -2.8739  1.0437  0.3963
 4131SOL     OW24025   3.352   2.572   9.493  0.6627  0.1624 -0.2497
 4131SOL    HW124026   3.281   2.511   9.473  2.5593 -1.6736 -1.2141
 4131SOL    HW224027   3.378   2.606   9.408  3.4058  2.7258  1.6090
 4132SOL     OW24028   2.650   1.613   8.809  0.0104 -1.4871  0.6555
 4132SOL    HW124029   2.680   1.524   8.830 -0.1014 -1.4046  1.1698
 4132SOL    HW224030   2.705   1.630   8.732  0.2128  0.9760  1.3489
 4133SOL     OW24031   2.067   1.898   8.261 -0.3229 -0.4321  0.4921
 4133SOL    HW124032   2.007   1.939   8.200  0.5703 -1.5921 -1.1734
 4133SOL    HW224033   2.052   1.807   8.232 -0.0221 -0.9984  2.1098
 4134SOL     OW24034   2.830   1.764   5.043 -0.2322  1.1474 -0.5491
 4134SOL    HW124035   2.918   1.780   5.075 -0.8969  0.3193  1.7099
 4134SOL    HW224036   2.781   1.740   5.122  0.9104  0.4823 -0.0467
 4135SOL     OW24037   4.647   2.061   1.675 -0.2116 -0.1158 -0.0745
 4135SOL    HW124038   4.579   2.051   1.741 -2.0904 -0.1642 -1.9922
 4135SOL    HW224039   4.712   2.116   1.718 -0.0623 -0.8061  0.5696
 4136SOL     OW24040   1.531   3.411   7.725 -0.2708  0.7407  0.2118
 4136SOL    HW124041   1.566   3.342   7.669 -2.1697 -0.0637  0.0237
 4136SOL    HW224042   1.601   3.474   7.704  0.2484  0.2364  0.4234
 4137SOL     OW24043   0.620   1.679  15.349  0.1086  0.6023 -0.3497
 4137SOL    HW124044   0.624   1.592  15.310 -0.2143  0.5082 -0.1742
 4137SOL    HW224045   0.659   1.669  15.436  1.8712 -0.2051 -1.2481
 4138SOL     OW24046   0.091   0.020   4.021  0.1295 -0.1836 -0.1177
 4138SOL    HW124047   0.103   0.026   4.116  2.3156 -2.1279 -0.2867
 4138SOL    HW224048   0.044   0.100   3.996  0.3045 -0.4158 -1.2199
 4139SOL     OW24049   1.400   0.375   7.312 -0.0693 -0.1546  0.3528
 4139SOL    HW124050   1.482   0.423   7.325 -0.1009 -0.2498  0.9036
 4139SOL    HW224051   1.375   0.370   7.404  0.2613 -0.3923  0.4319
 4140SOL     OW24052   0.945   2.953  16.917  0.1010  0.1344  0.7971
 4140SOL    HW124053   1.034   2.971  16.947 -0.6939  2.6213  1.6598
 4140SOL    HW224054   0.969   2.910  16.835  2.3616  0.4058  1.3159
 4141SOL     OW24055   3.512   4.488  12.118  0.6372 -0.2542 -0.6546
 4141SOL    HW124056   3.460   4.416  12.082 -1.4661  2.2296 -2.6342
 4141SOL    HW224057   3.446   4.556  12.131  1.2419  0.8186 -3.0112
 4142SOL     OW24058   0.231   0.089   6.419 -0.1165  0.3955  0.3816
 4142SOL    HW124059   0.158   0.033   6.443 -0.6169  0.0853 -1.8605
 4142SOL    HW224060   0.245   0.058   6.330  1.7236  1.6351  0.2339
 4143SOL     OW24061   3.742   4.510   2.601 -0.3190 -0.0039  0.4361
 4143SOL    HW124062   3.777   4.468   2.523  1.4256  2.6839 -0.2290
 4143SOL    HW224063   3.662   4.547   2.563 -0.0358 -0.2321 -0.3867
 4144SOL     OW24064   0.544   1.433  15.300 -0.2802 -0.0377 -0.1255
 4144SOL    HW124065   0.579   1.353  15.260  1.2205 -0.0455  1.2232
 4144SOL    HW224066   0.505   1.399  15.380 -2.2945 -0.0566 -1.1126
 4145SOL     OW24067   2.053   4.398   0.245  0.1758 -0.0916 -0.1107
 4145SOL    HW124068   2.023   4.462   0.181 -1.5819 -0.7182  0.0890
 4145SOL    HW224069   2.131   4.361   0.204  0.4643  1.0437 -0.5855
 4146SOL     OW24070   3.153   4.586   6.901 -0.0836  0.1331 -0.0752
 4146SOL    HW124071   3.138   4.669   6.946  0.0555 -0.8338  1.7817
 4146SOL    HW224072   3.103   4.534   6.964 -0.0757 -1.1964 -1.1693
 4147SOL     OW24073   3.482   1.957  16.057 -0.6251  0.2849  0.0336
 4147SOL    HW124074   3.469   1.906  16.137 -1.0615 -1.2649 -1.0131
 4147SOL    HW224075   3.407   1.922  16.008 -2.3062  4.0594 -0.0492
 4148SOL     OW24076   0.864   0.007   9.289 -0.0592  0.0996 -0.5112
 4148SOL    HW124077   0.901   0.072   9.349  0.9055  0.0985 -1.0966
 4148SOL    HW224078   0.775   0.038   9.305 -0.6083 -1.0804 -1.3300
 4149SOL     OW24079   2.548   3.642   1.123 -0.7274 -0.1284  0.5041
 4149SOL    HW124080   2.514   3.720   1.166  1.5439  1.1984 -0.1190
 4149SOL    HW224081   2.607   3.606   1.190 -2.2987 -0.3152  1.8058
 4150SOL     OW24082   2.517   1.558   1.291  0.1287 -0.8385  0.0926
 4150SOL    HW124083   2.448   1.621   1.312 -0.1090 -1.5624  1.5372
 4150SOL    HW224084   2.487   1.474   1.328  0.7713 -1.0334  0.1626
 4151SOL     OW24085   2.201   3.398   7.043 -0.3955  0.1410 -0.1854
 4151SOL    HW124086   2.260   3.465   7.007 -0.3747 -0.3838 -1.1440
 4151SOL    HW224087   2.246   3.313   7.049  1.4095  1.2267  1.6204
 4152SOL     OW24088   4.408   1.301   6.872 -0.0276 -0.3091  0.3741
 4152SOL    HW124089   4.428   1.230   6.934  0.9801 -0.1274  0.2511
 4152SOL    HW224090   4.435   1.378   6.921 -0.8655  0.1768  0.0606
 4153SOL     OW24091   2.046   1.965  10.439 -0.2466  0.0484 -0.1569
 4153SOL    HW124092   1.966   2.017  10.427  0.3038  1.0638  0.5622
 4153SOL    HW224093   2.053   1.971  10.534 -2.3499  1.1961 -0.0744
 4154SOL     OW24094   1.078   2.205   7.583  0.1381 -0.0775  0.2286
 4154SOL    HW124095   1.089   2.148   7.506 -0.4009  1.8604 -1.2844
 4154SOL    HW224096   1.038   2.140   7.642 -0.9656 -0.5638 -1.0472
 4155SOL     OW24097   3.149   0.786   7.324 -0.7718  0.2157 -0.3339
 4155SOL    HW124098   3.241   0.759   7.322 -0.5299  1.0514 -0.6348
 4155SOL    HW224099   3.159   0.853   7.256  0.2020  0.2162 -0.2000
 4156SOL     OW24100   0.464   0.812   2.973  0.1388  0.1878  0.0186
 4156SOL    HW124101   0.422   0.729   2.950 -0.3833  0.8151 -1.2930
 4156SOL    HW224102   0.420   0.852   3.048 -0.5275  0.3590 -0.4647
 4157SOL     OW24103   3.471   4.230   0.279  0.1858  0.1232 -0.6892
 4157SOL    HW124104   3.414   4.161   0.245  0.4442  0.4373 -1.7693
 4157SOL    HW224105   3.496   4.197   0.365 -0.3250  0.3149 -0.4691
 4158SOL     OW24106   3.655   1.102  14.687 -0.0448  0.2235 -0.3708
 4158SOL    HW124107   3.733   1.070  14.732  0.9191  2.2055 -0.6386
 4158SOL    HW224108   3.607   1.124  14.767  0.5293 -0.8869  0.2800
 4159SOL     OW24109   3.687   3.316   9.809  0.0660 -0.4092  0.0976
 4159SOL    HW124110   3.686   3.316   9.713 -0.8451 -0.0606  0.1040
 4159SOL    HW224111   3.599   3.290   9.836 -0.6134  2.6760  0.9480
 4160SOL     OW24112   4.708   4.018  12.815  0.0547  0.0168 -0.3019
 4160SOL    HW124113   0.013   4.064  12.889 -0.3337 -1.5344  0.8815
 4160SOL    HW224114   0.012   4.067  12.743  0.3079  2.2169  1.3530
 4161SOL     OW24115   1.067   0.593   3.360  0.2474  0.1822 -0.8940
 4161SOL    HW124116   1.084   0.599   3.266  0.2330  0.8182 -0.8595
 4161SOL    HW224117   1.152   0.560   3.387  0.1647 -0.5589 -1.5380
 4162SOL     OW24118   0.491   4.533   6.221 -0.2365  0.9840 -0.3421
 4162SOL    HW124119   0.491   4.443   6.254  2.3920  1.5108  1.0725
 4162SOL    HW224120   0.559   4.534   6.153 -0.7030 -0.2389 -0.8367
 4163SOL     OW24121   2.717   3.849   2.282 -0.2157 -0.3378  0.6195
 4163SOL    HW124122   2.630   3.887   2.285  0.2107  0.7122 -0.3953
 4163SOL    HW224123   2.775   3.917   2.317  2.1725 -1.6920 -0.6479
 4164SOL     OW24124   4.423   1.935   5.438 -0.4324 -0.3064  0.0541
 4164SOL    HW124125   4.503   1.924   5.488 -0.6298  1.5105  0.7738
 4164SOL    HW224126   4.455   1.925   5.348  2.0268  0.6157  0.8198
 4165SOL     OW24127   4.197   0.472   8.080  0.3620 -0.0603 -0.2237
 4165SOL    HW124128   4.240   0.441   8.000  0.3229 -0.8265  0.0539
 4165SOL    HW224129   4.108   0.440   8.064  0.6421 -1.3666  0.8012
 4166SOL     OW24130   0.823   3.829   6.851  0.0511  0.3939  0.1090
 4166SOL    HW124131   0.823   3.865   6.940  1.1489 -2.0470  1.0765
 4166SOL    HW224132   0.903   3.873   6.823  1.5742 -2.3676  0.1042
 4167SOL     OW24133   2.972   3.939  16.112 -0.0965  0.1612 -0.1566
 4167SOL    HW124134   2.879   3.960  16.110 -0.3018 -0.9820 -2.3274
 4167SOL    HW224135   2.987   3.927  16.018  2.0799  0.6035  0.1195
 4168SOL     OW24136   2.685   2.449  13.709  0.2658 -0.0941  0.1601
 4168SOL    HW124137   2.726   2.513  13.767 -2.7916  1.7853  0.2694
 4168SOL    HW224138   2.595   2.481  13.699  0.3161  0.0153  0.0563
 4169SOL     OW24139   4.054   3.092   4.547  0.0531 -0.2071 -0.2552
 4169SOL    HW124140   4.134   3.143   4.558  0.9031 -1.5145 -0.2773
 4169SOL    HW224141   4.084   3.001   4.543 -2.3474 -1.0515  1.0691
 4170SOL     OW24142   4.655   1.711   2.087 -0.8972  0.5081 -0.1879
 4170SOL    HW124143   4.633   1.618   2.095  2.1782 -0.1828  0.3398
 4170SOL    HW224144   4.705   1.721   2.168  0.9329  0.4721 -1.3130
 4171SOL     OW24145   1.268   0.269  14.124  0.5193 -0.7406  0.4586
 4171SOL    HW124146   1.362   0.282  14.136  0.5925  0.5646 -1.5287
 4171SOL    HW224147   1.230   0.288  14.210 -0.4959  1.5374 -0.4828
 4172SOL     OW24148   0.527   4.153  16.711  0.6124  0.6595 -0.2387
 4172SOL    HW124149   0.582   4.146  16.633  0.6429  2.5588 -0.3929
 4172SOL    HW224150   0.553   4.078  16.764  1.0084  0.5684 -0.5563
 4173SOL     OW24151   1.216   0.619   2.261 -0.1663  0.2337 -0.0867
 4173SOL    HW124152   1.220   0.551   2.328 -1.2056  0.2828  0.0402
 4173SOL    HW224153   1.123   0.641   2.266 -0.4934 -0.7594 -1.8772
 4174SOL     OW24154   3.677   1.835   2.316  0.2052  0.1142  0.5109
 4174SOL    HW124155   3.735   1.895   2.363  0.2678 -0.8051  1.5889
 4174SOL    HW224156   3.616   1.832   2.390 -0.0761 -0.7595  0.2336
 4175SOL     OW24157   0.543   0.337   7.364 -0.1525  0.4568  0.1640
 4175SOL    HW124158   0.518   0.295   7.282 -0.9777  1.7503 -0.2623
 4175SOL    HW224159   0.589   0.271   7.416 -0.6376  0.0841  0.1217
 4176SOL     OW24160   3.689   3.490  12.526 -0.1082  0.3312 -0.5487
 4176SOL    HW124161   3.598   3.497  12.496  0.1256 -0.3451 -1.3687
 4176SOL    HW224162   3.729   3.570  12.493 -0.5470  0.5143 -0.6410
 4177SOL     OW24163   1.169   3.339   4.444  0.1113  0.1489 -0.2515
 4177SOL    HW124164   1.210   3.324   4.530 -0.1540  1.5977  0.1173
 4177SOL    HW224165   1.221   3.415   4.420 -3.1695  2.5291  0.3207
 4178SOL     OW24166   3.402   0.352  15.778  0.0056 -0.5686 -0.2719
 4178SOL    HW124167   3.391   0.441  15.811 -1.7621 -0.3656 -1.3955
 4178SOL    HW224168   3.486   0.354  15.733  0.7143  0.0018  1.0923
 4179SOL     OW24169   2.888   4.155   3.385  0.0587 -0.1598 -0.5356
 4179SOL    HW124170   2.970   4.136   3.431  0.5368  2.4181 -0.3108
 4179SOL    HW224171   2.912   4.180   3.296  0.5382 -0.5168 -0.5075
 4180SOL     OW24172   0.109   3.516  11.916  0.2701  0.2512  0.2505
 4180SOL    HW124173   0.039   3.478  11.862  1.4007 -0.2257 -0.8861
 4180SOL    HW224174   0.162   3.437  11.929 -2.2371 -1.1155  2.1382
 4181SOL     OW24175   1.494   2.742   3.322 -0.0991  0.3702  0.4613
 4181SOL    HW124176   1.514   2.682   3.394 -0.7989 -0.1239  0.2398
 4181SOL    HW224177   1.562   2.727   3.256 -1.0152  1.2907 -0.6907
 4182SOL     OW24178   0.434   0.758   2.631  0.2295  0.7820 -0.1450
 4182SOL    HW124179   0.387   0.835   2.662 -0.4218  0.5892 -0.6571
 4182SOL    HW224180   0.379   0.738   2.555  0.8705 -0.7606 -0.2037
 4183SOL     OW24181   3.501   0.281   9.923  0.0574  0.0577 -0.5512
 4183SOL    HW124182   3.516   0.374   9.909  1.9385  0.3232  3.0257
 4183SOL    HW224183   3.539   0.234   9.849 -1.1320  1.1349 -1.8330
 4184SOL     OW24184   3.685   4.701   7.083  0.1606 -0.7549 -0.2525
 4184SOL    HW124185   3.737   4.702   7.163 -0.3496 -0.1412  0.0768
 4184SOL    HW224186   3.710   0.050   7.045 -0.5003 -0.2526  0.4145
 4185SOL     OW24187   2.706   1.665   1.616  0.0451  0.1813  1.1452
 4185SOL    HW124188   2.647   1.590   1.623  0.2626 -0.1391 -0.4195
 4185SOL    HW224189   2.757   1.642   1.538  2.0516 -0.7881  2.7257
 4186SOL     OW24190   3.556   3.981  11.921 -0.0088  0.0446  0.5648
 4186SOL    HW124191   3.524   4.067  11.945  0.0083  0.6507 -1.5470
 4186SOL    HW224192   3.564   3.943  12.009 -0.0387 -1.2468  0.0202
 4187SOL     OW24193   2.141   3.311   7.536  0.3164  0.3148 -0.2303
 4187SOL    HW124194   2.120   3.222   7.507  0.2748  0.1723  0.2480
 4187SOL    HW224195   2.236   3.322   7.530  0.4649 -1.1667 -0.7594
 4188SOL     OW24196   4.145   1.008   3.662  0.0846 -0.1662  0.4496
 4188SOL    HW124197   4.127   0.914   3.654  2.0868 -0.5861  0.9352
 4188SOL    HW224198   4.088   1.052   3.599  1.2515 -0.6426 -0.9129
 4189SOL     OW24199   3.917   2.359   2.343 -0.0145 -0.5642  0.4062
 4189SOL    HW124200   3.927   2.454   2.333  1.4869 -0.9162 -1.4195
 4189SOL    HW224201   3.998   2.333   2.386 -0.1927 -2.4469 -0.4053
 4190SOL     OW24202   3.127   1.272   7.967  0.0921 -0.3132 -0.2726
 4190SOL    HW124203   3.051   1.329   7.956  0.2199  0.7136  4.2716
 4190SOL    HW224204   3.106   1.203   7.905 -0.1764 -1.2799  0.9095
 4191SOL     OW24205   4.428   3.368   9.152  0.1305 -0.1956  0.7336
 4191SOL    HW124206   4.353   3.310   9.134  1.0970 -0.3106 -2.9979
 4191SOL    HW224207   4.504   3.316   9.126  0.4999 -0.0462  1.5037
 4192SOL     OW24208   2.195   4.247  12.203 -0.4164  0.2141 -0.3388
 4192SOL    HW124209   2.185   4.340  12.223 -1.5364  0.0422 -0.0823
 4192SOL    HW224210   2.114   4.225  12.250 -0.5940  2.7782  0.5700
 4193SOL     OW24211   0.041   0.358   5.814  0.1815  0.5811 -0.4807
 4193SOL    HW124212   4.726   0.283   5.845 -0.1547  1.2838  0.7080
 4193SOL    HW224213   0.030   0.413   5.892 -0.8523 -0.3293  0.0080
 4194SOL     OW24214   2.888   1.599   1.434  0.3617  0.0799  0.2088
 4194SOL    HW124215   2.950   1.621   1.502 -0.9221  1.2813  0.9790
 4194SOL    HW224216   2.949   1.590   1.360 -0.1622 -1.1485 -0.0890
 4195SOL     OW24217   3.554   2.177  15.474  0.8312  0.2424  0.0463
 4195SOL    HW124218   3.531   2.142  15.560 -0.8264 -0.7151 -0.7853
 4195SOL    HW224219   3.511   2.262  15.466  0.0185 -0.1586  0.1647
 4196SOL     OW24220   3.548   3.531  11.010  1.3744  0.4785  0.5174
 4196SOL    HW124221   3.523   3.438  11.004 -2.0695  1.4963 -0.9902
 4196SOL    HW224222   3.518   3.558  10.923 -1.1762 -0.5975  1.0587
 4197SOL     OW24223   3.344   1.392   5.202 -0.0819  0.2229  0.0441
 4197SOL    HW124224   3.269   1.449   5.219 -0.7235 -0.0049 -1.9276
 4197SOL    HW224225   3.327   1.367   5.111 -2.2002 -0.8998  0.7679
 4198SOL     OW24226   0.775   0.367  10.608  0.0036 -0.2266  0.6476
 4198SOL    HW124227   0.721   0.357  10.686  1.2840 -0.4866  1.5104
 4198SOL    HW224228   0.710   0.365  10.538  0.8830  2.2195 -0.2685
 4199SOL     OW24229   1.445   3.758  15.381  0.5426  0.7158  0.7407
 4199SOL    HW124230   1.502   3.691  15.419 -1.9550 -1.7528  0.1538
 4199SOL    HW224231   1.360   3.716  15.367  1.3076 -1.0795  1.4868
 4200SOL     OW24232   4.405   2.497   2.777  0.4050 -0.0608 -0.0302
 4200SOL    HW124233   4.406   2.531   2.687 -2.1638 -1.0039 -0.4085
 4200SOL    HW224234   4.436   2.410   2.752 -3.7565 -2.1474  2.0262
 4201SOL     OW24235   3.381   0.298   0.223 -0.6054  0.0325  0.1765
 4201SOL    HW124236   3.360   0.205   0.227  1.0958 -0.5276 -4.2331
 4201SOL    HW224237   3.295   0.339   0.233  0.3946  2.4971 -1.3954
 4202SOL     OW24238   3.600   3.834  13.777 -0.5624  0.1662  0.5450
 4202SOL    HW124239   3.635   3.890  13.709 -0.5079  0.8272  1.1174
 4202SOL    HW224240   3.507   3.858  13.780 -1.2451 -2.3528 -0.2844
 4203SOL     OW24241   0.413   3.713   2.468 -0.1503  0.6771  0.6374
 4203SOL    HW124242   0.426   3.631   2.421 -0.0635  0.3886  1.1616
 4203SOL    HW224243   0.372   3.756   2.393 -0.3861 -1.6068 -0.5245
 4204SOL     OW24244   0.653   0.531   3.505  0.0750 -0.1119 -0.4414
 4204SOL    HW124245   0.660   0.624   3.527  0.4433 -0.8895  2.7833
 4204SOL    HW224246   0.745   0.503   3.511 -0.2051 -0.6329  1.3173
 4205SOL     OW24247   2.401   0.169   0.735  0.0368  0.0731  0.0319
 4205SOL    HW124248   2.345   0.101   0.773  0.9153 -0.0050  1.1727
 4205SOL    HW224249   2.451   0.120   0.669  1.3113 -0.0980  1.1382
 4206SOL     OW24250   4.282   4.535   5.012 -0.1747  0.1439 -0.2906
 4206SOL    HW124251   4.345   4.489   5.068 -0.2207 -0.0999 -0.4413
 4206SOL    HW224252   4.202   4.536   5.064 -0.5082  0.5771 -0.8200
 4207SOL     OW24253   1.603   3.629   1.150 -0.0588 -0.5314 -0.1218
 4207SOL    HW124254   1.585   3.721   1.170  1.5679 -0.1890 -0.1857
 4207SOL    HW224255   1.516   3.592   1.138 -0.3516  0.5563 -1.2910
 4208SOL     OW24256   0.042   0.670  12.703 -0.4368 -0.8242  0.1097
 4208SOL    HW124257   0.016   0.758  12.677 -0.6177 -1.0140 -0.3456
 4208SOL    HW224258   0.126   0.663  12.657 -0.3289 -0.5818  0.2724
 4209SOL     OW24259   2.144   3.029   1.357  0.4471 -0.0477 -0.5333
 4209SOL    HW124260   2.234   3.056   1.340 -0.0411  2.1155  0.3615
 4209SOL    HW224261   2.096   3.108   1.379 -2.9526 -3.1824  3.3175
 4210SOL     OW24262   3.762   3.335   9.541 -0.0319  0.3565 -0.2899
 4210SOL    HW124263   3.853   3.319   9.564  0.1091  0.8225 -0.5422
 4210SOL    HW224264   3.736   3.246   9.516 -0.7047 -0.5563  3.6745
 4211SOL     OW24265   0.420   0.683   1.358 -0.0977 -0.1714 -0.0178
 4211SOL    HW124266   0.468   0.746   1.305 -1.6873  3.4750  2.8861
 4211SOL    HW224267   0.496   0.628   1.378 -0.7811 -1.2157 -0.2712
 4212SOL     OW24268   0.851   0.769   5.731  0.0320 -0.1192  0.0775
 4212SOL    HW124269   0.883   0.748   5.642 -0.5786  1.6316 -0.5473
 4212SOL    HW224270   0.765   0.729   5.725  0.0229 -0.0823 -0.0523
 4213SOL     OW24271   1.037   1.903   5.082  0.0577 -0.4861  0.1849
 4213SOL    HW124272   1.093   1.848   5.137  1.4084 -0.4757 -1.1894
 4213SOL    HW224273   0.970   1.925   5.147  1.0746  1.5616  0.5103
 4214SOL     OW24274   3.719   0.795   9.036  0.1624  0.1111  0.0215
 4214SOL    HW124275   3.691   0.758   8.952 -2.0765  0.0447  0.8094
 4214SOL    HW224276   3.642   0.843   9.066 -1.0352 -1.5430 -0.3973
 4215SOL     OW24277   2.660   0.950   2.588  0.1153  0.2014  0.5366
 4215SOL    HW124278   2.755   0.937   2.582  0.2733  1.2680  0.7465
 4215SOL    HW224279   2.621   0.873   2.628  0.2934  0.1350  0.5854
 4216SOL     OW24280   1.765   0.518   4.765 -0.3408  0.2106 -0.2908
 4216SOL    HW124281   1.702   0.470   4.712  0.0263  0.2981 -0.7982
 4216SOL    HW224282   1.823   0.536   4.691 -0.3685 -0.3860 -0.4557
 4217SOL     OW24283   3.692   0.853  14.504 -0.6274 -0.0229 -0.4559
 4217SOL    HW124284   3.633   0.840  14.430 -0.1483  0.2316 -0.8805
 4217SOL    HW224285   3.661   0.939  14.533 -1.0948 -0.2369 -0.3123
 4218SOL     OW24286   3.238   4.144   8.281 -0.4142  0.4970 -0.6993
 4218SOL    HW124287   3.218   4.052   8.266  0.0045  0.1566  0.7821
 4218SOL    HW224288   3.148   4.178   8.284 -1.3090 -2.0702  1.2870
 4219SOL     OW24289   1.148   0.402   5.035  0.0017  0.0564  0.2117
 4219SOL    HW124290   1.150   0.360   4.949 -2.0557  1.1533 -0.3772
 4219SOL    HW224291   1.055   0.426   5.038 -1.3092 -5.1888  0.3880
 4220SOL     OW24292   2.062   0.771   7.427  0.9215  0.3268  0.0862
 4220SOL    HW124293   1.985   0.818   7.459  0.5367  0.2981 -0.7841
 4220SOL    HW224294   2.045   0.756   7.333  0.5063 -0.1054  0.2269
 4221SOL     OW24295   2.613   2.287  16.550 -0.3734 -0.0464 -0.2926
 4221SOL    HW124296   2.527   2.310  16.515 -0.6378  0.9434  1.0378
 4221SOL    HW224297   2.588   2.216  16.609  0.6985 -0.4501 -0.3101
 4222SOL     OW24298   0.186   0.472   5.131 -0.2191 -0.1720 -0.2200
 4222SOL    HW124299   0.096   0.501   5.140 -0.4070 -0.6180 -0.6635
 4222SOL    HW224300   0.193   0.474   5.035 -0.4807 -2.1862 -0.2775
 4223SOL     OW24301   2.196   0.577   6.354 -0.0655 -0.5761 -0.3845
 4223SOL    HW124302   2.164   0.652   6.402  0.4959  1.1592 -2.6876
 4223SOL    HW224303   2.228   0.514   6.419 -1.5958  0.7537  1.6155
 4224SOL     OW24304   4.444   2.723  15.991 -0.2394  0.1122  0.0613
 4224SOL    HW124305   4.525   2.719  16.043  1.4327 -0.4427 -2.5926
 4224SOL    HW224306   4.460   2.648  15.934  0.4973  1.7370 -1.8821
 4225SOL     OW24307   3.311   3.996   2.672  0.3160 -0.0014  0.2369
 4225SOL    HW124308   3.392   4.018   2.719  0.3249  1.4794 -0.4710
 4225SOL    HW224309   3.299   3.906   2.701 -0.8177 -0.0696 -0.4470
 4226SOL     OW24310   3.761   3.878   2.569 -0.6609  0.9766  0.3021
 4226SOL    HW124311   3.684   3.925   2.538 -0.5171  0.8799 -0.2004
 4226SOL    HW224312   3.785   3.932   2.644  3.1982 -0.3769  0.0553
 4227SOL     OW24313   2.418   4.285   7.664 -0.3177  0.1743 -0.0624
 4227SOL    HW124314   2.439   4.372   7.631 -0.8437  0.5253  0.5291
 4227SOL    HW224315   2.484   4.287   7.734  0.7735  1.5623 -1.1253
 4228SOL     OW24316   1.258   4.107   2.706 -0.4745  0.1421 -0.0996
 4228SOL    HW124317   1.228   4.128   2.618  2.5006 -0.2729 -1.2065
 4228SOL    HW224318   1.264   4.201   2.725 -1.4779 -0.1397  1.5823
 4229SOL     OW24319   4.488   3.441   8.312  0.0422 -0.6801  0.0673
 4229SOL    HW124320   4.583   3.449   8.310 -0.3535  2.5101 -3.8817
 4229SOL    HW224321   4.483   3.389   8.393 -0.5999  0.5311  0.7984
 4230SOL     OW24322   4.232   0.054   1.337  0.5824  0.0738  0.1755
 4230SOL    HW124323   4.309   0.062   1.393  0.0075  0.7086  0.8805
 4230SOL    HW224324   4.247   4.700   1.307 -0.3711  0.1386 -0.5112
 4231SOL     OW24325   2.130   3.397  17.107  0.5971  0.3803  0.0819
 4231SOL    HW124326   2.100   3.430  17.192 -2.7189 -0.2212 -0.8636
 4231SOL    HW224327   2.104   3.474  17.057  1.8008  0.6802 -0.0916
 4232SOL     OW24328   3.364   4.664  12.385 -0.3316 -0.0339 -0.0256
 4232SOL    HW124329   3.330   4.719  12.456  2.5770  0.0091  1.3298
 4232SOL    HW224330   3.438   4.619  12.425 -0.7031 -2.6853 -2.3402
 4233SOL     OW24331   4.130   1.122   9.610  0.0606 -0.1212  0.3971
 4233SOL    HW124332   4.152   1.206   9.651  1.3685  1.7486 -4.1710
 4233SOL    HW224333   4.101   1.072   9.686  0.2906  0.3000  0.7610
 4234SOL     OW24334   3.095   2.472   8.911 -0.3544  0.3996  0.4136
 4234SOL    HW124335   3.177   2.426   8.893 -1.3054 -0.8541 -0.7716
 4234SOL    HW224336   3.077   2.513   8.826 -2.9272 -0.0520  0.7483
 4235SOL     OW24337   3.810   1.150   6.552 -0.1508 -0.0039  0.1326
 4235SOL    HW124338   3.767   1.231   6.524  0.2671 -0.3955 -1.6769
 4235SOL    HW224339   3.895   1.186   6.574 -0.1460  0.2864 -0.3571
 4236SOL     OW24340   3.290   3.488  17.045  0.3702  0.0491 -0.0852
 4236SOL    HW124341   3.361   3.541  17.011  0.0732  0.0640 -0.6811
 4236SOL    HW224342   3.216   3.524  16.996  0.9830 -0.3359 -1.3151
 4237SOL     OW24343   3.428   4.067   1.770 -0.2160 -0.2940  0.6048
 4237SOL    HW124344   3.499   4.019   1.726 -3.6667 -2.9028 -2.0819
 4237SOL    HW224345   3.478   4.085   1.850 -0.3294 -0.4617  0.7142
 4238SOL     OW24346   1.449   2.667   5.866 -0.3502  0.3316  0.8758
 4238SOL    HW124347   1.386   2.605   5.830 -1.4737  1.6141  0.6593
 4238SOL    HW224348   1.406   2.752   5.868 -2.9528 -0.9061 -2.4668
 4239SOL     OW24349   3.118   0.203   3.282  0.4866  0.3734  0.3727
 4239SOL    HW124350   3.113   0.297   3.267  0.9331  0.3916  0.3431
 4239SOL    HW224351   3.203   0.179   3.247 -0.0286 -0.3296 -0.4123
 4240SOL     OW24352   1.156   3.986  10.174  0.5670  0.1355 -0.2162
 4240SOL    HW124353   1.098   4.022  10.242  1.2083 -1.6352  1.2720
 4240SOL    HW224354   1.140   3.892  10.179 -1.5516  0.4406 -1.3147
 4241SOL     OW24355   1.956   2.284   9.617  0.1735  0.3877  0.2112
 4241SOL    HW124356   1.963   2.380   9.618 -2.2773  0.5806 -0.7993
 4241SOL    HW224357   2.004   2.270   9.698  2.4757 -0.3256 -1.2964
 4242SOL     OW24358   4.400   3.686   3.318  0.0675 -0.2539 -0.1747
 4242SOL    HW124359   4.350   3.605   3.321 -1.1190  0.3989 -1.9969
 4242SOL    HW224360   4.479   3.662   3.367  0.0872  2.0931  0.9470
 4243SOL     OW24361   1.720   3.951   4.019 -0.0831  0.3882  0.8370
 4243SOL    HW124362   1.798   4.007   4.016  1.5748 -1.9650 -0.0815
 4243SOL    HW224363   1.767   3.872   4.045 -0.1363 -0.4205 -1.5115
 4244SOL     OW24364   4.361   0.564   6.029 -0.0878 -0.4066  0.0112
 4244SOL    HW124365   4.305   0.523   5.963 -0.8585 -0.5772  0.7687
 4244SOL    HW224366   4.298   0.625   6.068  0.9592 -1.1443  2.8950
 4245SOL     OW24367   3.356   4.186   0.941  0.0057  0.3230 -0.7312
 4245SOL    HW124368   3.300   4.133   0.883 -1.7920  0.9949  0.3666
 4245SOL    HW224369   3.376   4.260   0.885 -1.4057  0.9074 -0.4609
 4246SOL     OW24370   3.889   3.266   9.993 -0.8816 -0.2289  0.0771
 4246SOL    HW124371   3.839   3.281   9.913 -1.4901 -0.2473  0.4592
 4246SOL    HW224372   3.856   3.340  10.044  2.5708  1.7223 -0.4838
 4247SOL     OW24373   0.421   1.500   2.799 -0.0992  0.4511 -0.3737
 4247SOL    HW124374   0.348   1.438   2.805  1.4630 -1.1056  2.6139
 4247SOL    HW224375   0.460   1.498   2.886 -0.6975  0.6247 -0.1002
 4248SOL     OW24376   2.133   4.243  15.835 -0.6584 -0.4226 -0.1534
 4248SOL    HW124377   2.140   4.273  15.744  1.0198 -2.1203 -0.5654
 4248SOL    HW224378   2.048   4.282  15.857 -0.1880  0.9044 -0.7036
 4249SOL     OW24379   0.720   1.537   7.510  0.0431 -0.0790 -0.1892
 4249SOL    HW124380   0.773   1.479   7.456  1.2314  0.6187  0.2387
 4249SOL    HW224381   0.660   1.475   7.551 -0.7651  1.2733  0.7026
 4250SOL     OW24382   4.673   0.049   6.963 -0.1136 -0.3459 -0.3081
 4250SOL    HW124383   4.666   4.690   6.976  1.5906 -0.4184  0.0885
 4250SOL    HW224384   0.003   0.054   6.892 -0.4955  1.6028 -0.5148
 4251SOL     OW24385   3.262   3.583   8.799 -0.0834 -0.9242 -0.0225
 4251SOL    HW124386   3.322   3.608   8.868  1.5018 -0.4624 -1.5822
 4251SOL    HW224387   3.213   3.665   8.797 -0.5317 -1.1599  1.5733
 4252SOL     OW24388   2.705   3.021   7.950  0.5565 -0.3823 -0.3243
 4252SOL    HW124389   2.771   3.038   7.883 -0.2642  0.3157 -0.9734
 4252SOL    HW224390   2.738   2.943   7.994 -0.5453 -1.6666 -1.7434
 4253SOL     OW24391   1.382   3.372   4.967 -0.7237 -0.0996  0.0616
 4253SOL    HW124392   1.442   3.305   5.002 -1.2493 -1.2937 -1.3537
 4253SOL    HW224393   1.425   3.456   4.988  2.2689 -1.1949 -1.6183
 4254SOL     OW24394   1.837   4.580   3.352 -0.4257  0.1614 -0.9209
 4254SOL    HW124395   1.823   4.633   3.274  0.1861  3.0114  0.8804
 4254SOL    HW224396   1.758   4.609   3.398 -0.1452  0.0812 -0.3853
 4255SOL     OW24397   1.894   4.087   5.015 -0.0606 -0.0912 -0.1213
 4255SOL    HW124398   1.911   4.008   4.964  0.4585 -1.9514  2.9646
 4255SOL    HW224399   1.828   4.051   5.074  1.9056 -0.1027  2.0307
 4256SOL     OW24400   1.849   1.073   3.303  0.6345 -0.0969 -0.3830
 4256SOL    HW124401   1.816   0.990   3.268  0.0971  0.5928 -1.5305
 4256SOL    HW224402   1.905   1.044   3.375  0.1288  2.5793  1.0692
 4257SOL     OW24403   0.243   0.885   8.126 -0.0086  0.3317 -0.7555
 4257SOL    HW124404   0.204   0.798   8.138 -1.3132  0.6880 -2.4271
 4257SOL    HW224405   0.250   0.885   8.030 -0.5825 -0.8071 -0.7966
 4258SOL     OW24406   0.069   2.318   2.261 -0.0959  0.3858  0.1166
 4258SOL    HW124407   4.725   2.290   2.217  0.2727 -1.3916  0.5626
 4258SOL    HW224408   0.051   2.412   2.265  0.2036  0.5710 -2.8188
 4259SOL     OW24409   1.947   2.976   4.213 -0.6512 -0.1319  0.0736
 4259SOL    HW124410   2.040   2.993   4.199 -0.2113 -2.0966  0.6203
 4259SOL    HW224411   1.919   3.050   4.159 -1.0974  0.2837  0.8639
 4260SOL     OW24412   4.098   2.154   1.762 -0.1130  0.1199  0.2170
 4260SOL    HW124413   4.112   2.070   1.805  2.7152  0.9363  0.9055
 4260SOL    HW224414   4.039   2.128   1.692  0.1781  1.1316 -0.4103
 4261SOL     OW24415   4.538   0.590  13.629  0.5171 -0.0765  0.4276
 4261SOL    HW124416   4.510   0.638  13.551 -1.3277 -2.5071 -0.3744
 4261SOL    HW224417   4.453   0.574  13.669 -0.1004  2.2287  0.0571
 4262SOL     OW24418   3.817   4.053  10.472  0.1340 -0.0580  0.2812
 4262SOL    HW124419   3.868   4.009  10.405 -0.6438 -0.5891  0.0338
 4262SOL    HW224420   3.788   4.113  10.403  0.5764 -0.1635  0.0075
 4263SOL     OW24421   0.696   1.323  13.594 -0.0232 -0.0653 -0.5080
 4263SOL    HW124422   0.716   1.362  13.508  2.2389 -0.0137  0.0517
 4263SOL    HW224423   0.769   1.267  13.621 -0.8487 -0.7500  0.3190
 4264SOL     OW24424   2.522   0.373   3.434  0.1213 -0.7868 -0.5647
 4264SOL    HW124425   2.591   0.427   3.395  0.0786  0.5343  1.2148
 4264SOL    HW224426   2.508   0.309   3.364 -2.3361 -0.8776  0.0143
 4265SOL     OW24427   3.640   3.250   5.563  0.2013 -0.4792 -0.1707
 4265SOL    HW124428   3.693   3.220   5.490 -1.4930  1.4497 -2.1781
 4265SOL    HW224429   3.637   3.339   5.529 -0.6882 -0.1561  0.7463
 4266SOL     OW24430   4.717   2.043   5.405 -0.1826 -0.2276 -0.1686
 4266SOL    HW124431   4.721   2.139   5.405  1.0756 -0.2727 -0.8849
 4266SOL    HW224432   4.710   2.019   5.313  2.1693 -2.5613  0.2669
 4267SOL     OW24433   0.935   2.534  15.449 -0.1146  0.1613  0.1377
 4267SOL    HW124434   0.956   2.606  15.389 -1.6256  0.0530 -0.5125
 4267SOL    HW224435   0.978   2.563  15.529  0.2349  1.9991 -0.7053
 4268SOL     OW24436   3.854   0.379   1.742 -0.3783 -0.2817  0.6959
 4268SOL    HW124437   3.882   0.378   1.650 -0.0659 -0.6677  0.7936
 4268SOL    HW224438   3.759   0.374   1.727 -0.1771  0.1305 -0.7869
 4269SOL     OW24439   4.046   3.141  11.749  0.6437 -0.3724  0.4549
 4269SOL    HW124440   4.115   3.194  11.790  0.8066 -0.8121  0.7449
 4269SOL    HW224441   4.028   3.078  11.819  0.3883  0.0315  0.7567
 4270SOL     OW24442   0.543   2.768   0.637  0.6294 -0.3829 -0.2858
 4270SOL    HW124443   0.590   2.735   0.560  1.7973  0.4971  0.0428
 4270SOL    HW224444   0.615   2.782   0.698 -0.4889 -1.9554  1.3614
 4271SOL     OW24445   3.905   2.482   3.575 -0.4465  0.5933 -0.2964
 4271SOL    HW124446   3.881   2.487   3.482  2.8529 -2.5509 -1.3072
 4271SOL    HW224447   3.918   2.575   3.595  1.7984 -0.0570  1.3210
 4272SOL     OW24448   0.244   1.534   6.615 -0.0923  0.1663  0.1673
 4272SOL    HW124449   0.303   1.459   6.605  0.3967  0.6328 -0.4561
 4272SOL    HW224450   0.160   1.500   6.584  0.8815 -0.0953 -2.1658
 4273SOL     OW24451   2.289   2.903   3.206 -0.4578 -0.0358  0.4097
 4273SOL    HW124452   2.298   2.998   3.209  0.4147 -0.0854 -0.6882
 4273SOL    HW224453   2.252   2.894   3.118  2.1877  2.8178 -0.9827
 4274SOL     OW24454   3.881   3.881  10.919  0.2112 -0.2306  0.2164
 4274SOL    HW124455   3.920   3.958  10.961  1.5807 -1.7815  1.7801
 4274SOL    HW224456   3.828   3.907  10.844  1.5420 -1.1238 -1.0313
 4275SOL     OW24457   3.624   2.205  14.103  0.3969  0.3867  0.5030
 4275SOL    HW124458   3.593   2.222  14.192 -0.5496 -0.2151  0.2825
 4275SOL    HW224459   3.716   2.202  14.127  0.4160  0.2548  0.4108
 4276SOL     OW24460   1.434   0.619   6.670 -0.3198 -0.5612 -0.2639
 4276SOL    HW124461   1.441   0.575   6.585  0.8271  0.9783 -0.9628
 4276SOL    HW224462   1.526   0.639   6.690 -0.5650 -1.0694  1.4112
 4277SOL     OW24463   2.625   0.555  14.226  0.4169  0.2356 -0.2106
 4277SOL    HW124464   2.604   0.648  14.220 -1.4837 -0.2026 -0.3002
 4277SOL    HW224465   2.720   0.564  14.218  0.3011  0.5304 -1.1804
 4278SOL     OW24466   3.032   0.442   4.448  0.2138  0.2638  0.4400
 4278SOL    HW124467   3.077   0.438   4.364  3.5973 -2.6729  2.3880
 4278SOL    HW224468   2.939   0.439   4.423 -0.0955 -0.3914  1.6265
 4279SOL     OW24469   0.094   4.549   5.773  0.1678 -0.2057 -0.1234
 4279SOL    HW124470   0.178   4.587   5.747 -0.7719  2.4518  0.7678
 4279SOL    HW224471   0.115   4.495   5.849  1.1092 -0.9563 -0.9184
 4280SOL     OW24472   4.609   2.326   0.102 -0.0213 -0.6017 -0.4146
 4280SOL    HW124473   4.665   2.391   0.144  0.1340 -1.5366  0.8396
 4280SOL    HW224474   4.608   2.350   0.010 -0.7928 -0.1327 -0.2859
 4281SOL     OW24475   0.068   1.167   6.143  0.2466  0.5911 -0.1948
 4281SOL    HW124476   4.732   1.105   6.159  1.7491 -0.7502  1.2676
 4281SOL    HW224477   0.119   1.109   6.086 -1.1239  0.9761 -1.8318
 4282SOL     OW24478   2.845   4.368  11.793 -0.4235 -0.1950 -0.1624
 4282SOL    HW124479   2.781   4.418  11.844 -1.6229 -0.9211 -0.9549
 4282SOL    HW224480   2.788   4.296  11.765 -0.3240  0.7441 -2.8107
 4283SOL     OW24481   2.208   2.442   3.741 -0.5385  0.3107  0.1545
 4283SOL    HW124482   2.202   2.395   3.658  2.9995 -0.0104  0.0626
 4283SOL    HW224483   2.270   2.390   3.793 -0.5769  1.0164  0.9154
 4284SOL     OW24484   2.628   0.621   6.307  0.0826 -0.3496 -0.6414
 4284SOL    HW124485   2.547   0.569   6.304  0.0033 -0.3591  1.4578
 4284SOL    HW224486   2.673   0.561   6.248  0.5575 -0.1818 -0.4444
 4285SOL     OW24487   3.721   2.878  11.547 -0.5749 -0.2134 -0.1343
 4285SOL    HW124488   3.753   2.941  11.612  1.8591 -2.5535  0.9445
 4285SOL    HW224489   3.630   2.908  11.548 -0.5652 -0.1435 -1.0671
 4286SOL     OW24490   3.762   3.437   4.586  0.0669 -0.4292  0.0174
 4286SOL    HW124491   3.697   3.505   4.604  0.9580 -0.0545  1.7296
 4286SOL    HW224492   3.846   3.481   4.586  0.8053 -1.8230 -0.8522
 4287SOL     OW24493   2.913   1.008  14.136  0.0823 -0.1369 -0.7273
 4287SOL    HW124494   2.845   0.996  14.070  0.1537  2.3243 -1.2575
 4287SOL    HW224495   2.930   1.102  14.140 -0.1460 -0.0450 -1.9558
 4288SOL     OW24496   2.035   3.235   2.933  0.2459  0.5961 -0.2006
 4288SOL    HW124497   2.086   3.263   2.857  0.8502  1.1931  0.4187
 4288SOL    HW224498   2.020   3.321   2.973 -3.5185 -0.3228  0.2825
 4289SOL     OW24499   0.024   4.103   7.556 -0.6287  0.3160  0.3074
 4289SOL    HW124500   0.094   4.126   7.617  1.7390 -2.0044 -1.5350
 4289SOL    HW224501   4.686   4.076   7.611  0.2497 -0.5382  1.0456
 4290SOL     OW24502   2.270   0.205   1.079 -0.2414  0.0651  0.4898
 4290SOL    HW124503   2.347   0.198   1.022  0.9587 -1.9833  2.4066
 4290SOL    HW224504   2.213   0.260   1.025  1.1222  0.1343 -0.9022
 4291SOL     OW24505   4.050   1.549  16.823  0.1451  0.0711 -0.2149
 4291SOL    HW124506   3.956   1.542  16.808  0.4767 -0.3696 -2.1612
 4291SOL    HW224507   4.062   1.472  16.879  0.4989 -0.6267 -1.2261
 4292SOL     OW24508   1.529   4.130   1.575 -0.3809  0.0095  0.4315
 4292SOL    HW124509   1.554   4.167   1.659  1.1515 -0.4497  0.1807
 4292SOL    HW224510   1.506   4.209   1.526  1.9822 -0.2730 -1.1075
 4293SOL     OW24511   3.742   1.517   8.300  0.3504 -0.4984 -0.4255
 4293SOL    HW124512   3.706   1.449   8.356 -0.8656  0.6001  0.1120
 4293SOL    HW224513   3.700   1.593   8.340 -2.8551 -2.3558 -0.2562
 4294SOL     OW24514   2.605   3.059   6.457  0.1813  0.1565 -0.5045
 4294SOL    HW124515   2.663   2.983   6.465 -1.3800 -1.0838 -1.0244
 4294SOL    HW224516   2.520   3.022   6.435  0.4704 -0.0691 -1.2568
 4295SOL     OW24517   2.060   2.188   3.351  0.1987  0.1967 -0.0043
 4295SOL    HW124518   2.070   2.204   3.257 -0.5824  0.3846 -0.0540
 4295SOL    HW224519   2.120   2.114   3.361  0.9315  0.7150 -0.5613
 4296SOL     OW24520   2.595   0.698   2.708  0.4934 -0.4704 -0.5058
 4296SOL    HW124521   2.540   0.637   2.756 -2.3596  0.5894 -2.4002
 4296SOL    HW224522   2.667   0.724   2.765  1.1221 -2.0935 -0.5633
 4297SOL     OW24523   1.756   0.476   2.741  0.1117 -0.1278  0.0232
 4297SOL    HW124524   1.811   0.554   2.748 -0.8786  0.4410  1.4569
 4297SOL    HW224525   1.666   0.506   2.752  0.3869  0.6163  0.2425
 4298SOL     OW24526   2.397   3.853   2.742 -0.0700 -0.2817  0.4154
 4298SOL    HW124527   2.349   3.920   2.695 -0.4888  0.3657  1.7523
 4298SOL    HW224528   2.370   3.887   2.828 -0.7976  0.5306 -0.1385
 4299SOL     OW24529   0.992   0.648   1.169 -0.4194  0.1939  0.1842
 4299SOL    HW124530   1.030   0.570   1.210  0.3195  0.6315  0.3359
 4299SOL    HW224531   0.929   0.611   1.107  0.8485  1.3902 -1.8220
 4300SOL     OW24532   1.417   1.960   2.179  0.6481  0.0557 -0.3038
 4300SOL    HW124533   1.400   1.958   2.273 -0.0279 -1.8580 -0.4795
 4300SOL    HW224534   1.360   2.033   2.155 -1.8682 -1.2165  1.8500
 4301SOL     OW24535   0.142   2.443   1.085 -0.0024  0.1473  0.4039
 4301SOL    HW124536   0.193   2.501   1.028 -0.7357 -0.6991 -1.1125
 4301SOL    HW224537   0.168   2.355   1.056 -1.4125  0.0742 -0.6348
 4302SOL     OW24538   2.045   4.068   1.188  0.4612  0.1836 -0.2231
 4302SOL    HW124539   1.956   4.046   1.161 -0.3335  1.9602  0.8975
 4302SOL    HW224540   2.084   4.002   1.131  0.1790 -0.4837  0.3614
 4303SOL     OW24541   0.539   2.244  12.671 -0.0638  0.1664 -0.0930
 4303SOL    HW124542   0.514   2.151  12.674 -0.8287  0.2054 -4.7108
 4303SOL    HW224543   0.458   2.294  12.667  0.7881  1.2859 -3.9487
 4304SOL     OW24544   3.314   0.812   3.236  0.3123  0.0234  0.3788
 4304SOL    HW124545   3.313   0.794   3.142 -1.5649  0.3329  0.3319
 4304SOL    HW224546   3.285   0.903   3.229  1.2335  0.3280  0.5142
 4305SOL     OW24547   2.800   0.455   5.169 -0.0759  0.0766  0.2893
 4305SOL    HW124548   2.847   0.538   5.163  1.7346 -0.9618  0.0394
 4305SOL    HW224549   2.764   0.445   5.080 -1.9518 -0.7591  1.1350
 4306SOL     OW24550   3.150   4.425  16.572 -0.1515 -0.6658 -0.0729
 4306SOL    HW124551   3.080   4.458  16.516  1.7642  0.1754 -2.0062
 4306SOL    HW224552   3.222   4.487  16.557  0.6994 -1.4626  0.7147
 4307SOL     OW24553   0.950   3.295   9.588  0.4011  0.2736  0.2239
 4307SOL    HW124554   0.983   3.374   9.632 -0.2904  1.0403 -0.6199
 4307SOL    HW224555   1.015   3.230   9.615 -0.4479 -1.3225 -1.6095
 4308SOL     OW24556   0.121   4.403   9.174  0.1742  0.7393 -0.1177
 4308SOL    HW124557   0.063   4.477   9.193  1.1895  1.0003  2.0105
 4308SOL    HW224558   0.175   4.445   9.107  1.6209 -0.8600  0.0476
 4309SOL     OW24559   2.519   0.418  13.644  0.7928  0.1498 -0.0721
 4309SOL    HW124560   2.572   0.496  13.625  1.8451 -0.1234  1.7906
 4309SOL    HW224561   2.492   0.394  13.555 -0.0755 -1.2750  0.5907
 4310SOL     OW24562   3.534   2.997   9.863  0.0807 -0.2733 -0.7807
 4310SOL    HW124563   3.491   3.080   9.882  1.1342  0.3733 -1.2497
 4310SOL    HW224564   3.587   2.992   9.942  0.1248  2.6823 -0.6366
 4311SOL     OW24565   2.460   0.893  11.924  0.2059  0.1196 -0.2603
 4311SOL    HW124566   2.452   0.802  11.897  2.5181 -0.2840  0.4751
 4311SOL    HW224567   2.519   0.885  11.998  0.9406  0.3553 -0.8283
 4312SOL     OW24568   0.747   3.953   0.369 -0.0229 -0.3279 -0.4099
 4312SOL    HW124569   0.751   3.965   0.274  1.2347  0.2068 -0.2966
 4312SOL    HW224570   0.659   3.937   0.403 -0.9147  0.0344 -2.5306
 4313SOL     OW24571   3.790   0.631   8.434  0.3515  0.1692  0.2549
 4313SOL    HW124572   3.880   0.636   8.467 -0.0589 -0.9813  1.5656
 4313SOL    HW224573   3.786   0.709   8.379 -1.7008 -0.2004 -0.1114
 4314SOL     OW24574   3.149   1.004   5.134  0.0989 -0.0422  0.1795
 4314SOL    HW124575   3.115   0.919   5.159 -0.6382 -0.0893 -0.9984
 4314SOL    HW224576   3.165   1.033   5.224  1.5933 -1.6094  0.4027
 4315SOL     OW24577   0.066   3.953   4.633 -0.1931  0.1409  0.1162
 4315SOL    HW124578   0.125   4.015   4.590 -0.1337  0.5729  0.8251
 4315SOL    HW224579   0.029   3.898   4.563  0.0693  0.8857 -0.6074
 4316SOL     OW24580   3.033   4.348  16.299 -0.0570 -0.7048 -0.3678
 4316SOL    HW124581   3.062   4.281  16.361 -0.8383 -0.5958  0.1212
 4316SOL    HW224582   3.114   4.396  16.281 -0.5250  0.4862  0.6548
 4317SOL     OW24583   1.305   4.669  10.652 -0.0881  0.3156  0.2048
 4317SOL    HW124584   1.260   4.585  10.650 -2.2895  1.4793  1.1232
 4317SOL    HW224585   1.250   4.707  10.720  1.2037 -1.0222  1.9953
 4318SOL     OW24586   0.108   0.228   4.428 -0.4974 -0.1097  0.3381
 4318SOL    HW124587   0.039   0.262   4.485  0.2811  0.1806  1.0907
 4318SOL    HW224588   0.188   0.257   4.470  0.9987 -2.9142 -0.5449
 4319SOL     OW24589   4.245   3.018   8.588  0.6282  0.1491  0.0161
 4319SOL    HW124590   4.258   3.017   8.493 -0.5860  2.2798 -0.1845
 4319SOL    HW224591   4.267   2.927   8.604  2.6958  0.6657  0.1464
 4320SOL     OW24592   2.214   3.761   6.617 -0.3968  0.2856  0.0362
 4320SOL    HW124593   2.307   3.768   6.639 -0.6424 -2.9136  2.0185
 4320SOL    HW224594   2.209   3.815   6.538  0.1424 -0.2209 -0.3484
 4321SOL     OW24595   3.190   3.694   5.293  0.5154  0.0874  0.2806
 4321SOL    HW124596   3.202   3.693   5.388 -1.0585  1.3740  0.4871
 4321SOL    HW224597   3.155   3.607   5.273 -0.2320  1.0464 -2.5067
 4322SOL     OW24598   0.242   1.183   1.851 -0.8680  0.2906  0.0767
 4322SOL    HW124599   0.264   1.090   1.844 -2.3651  0.0268 -1.1553
 4322SOL    HW224600   0.147   1.177   1.846 -0.7205 -1.6171 -0.6529
 4323SOL     OW24601   1.959   4.510   4.551  0.5813 -0.1440 -0.3416
 4323SOL    HW124602   1.931   4.589   4.505 -0.1669  0.1398  0.5983
 4323SOL    HW224603   2.044   4.538   4.587  0.9201  0.9663 -1.9846
 4324SOL     OW24604   4.695   1.410  15.764  0.8050 -0.2466  0.3611
 4324SOL    HW124605   4.728   1.365  15.687  1.8352  0.7204  0.2401
 4324SOL    HW224606   4.698   1.335  15.823 -2.1095 -0.3490  0.4017
 4325SOL     OW24607   2.684   0.473   9.542  0.0882  0.3104 -0.0180
 4325SOL    HW124608   2.629   0.425   9.603 -1.2375  0.5198 -1.0688
 4325SOL    HW224609   2.629   0.471   9.465  0.3012  0.8954 -0.1798
 4326SOL     OW24610   1.153   1.483  14.878 -0.3969  0.2655  0.5168
 4326SOL    HW124611   1.069   1.450  14.908  0.1056 -1.0460  0.4531
 4326SOL    HW224612   1.138   1.463  14.786  0.8489  1.4159  0.0527
 4327SOL     OW24613   3.436   0.659   1.685 -0.3500  0.4203  0.2921
 4327SOL    HW124614   3.509   0.600   1.666  0.5396  2.3115 -2.2541
 4327SOL    HW224615   3.482   0.743   1.686 -1.9982  1.3484 -0.5226
 4328SOL     OW24616   1.219   0.797   5.096  0.8444 -0.1061  0.3223
 4328SOL    HW124617   1.311   0.774   5.086  0.8629  0.1014  0.0110
 4328SOL    HW224618   1.203   0.737   5.169  0.0606  1.3966  1.3797
 4329SOL     OW24619   1.691   1.619   5.882 -0.0000  0.0527  0.1729
 4329SOL    HW124620   1.780   1.653   5.892 -0.9674  3.2452 -2.1274
 4329SOL    HW224621   1.697   1.587   5.792  2.4906  2.5252 -0.5441
 4330SOL     OW24622   3.659   1.948  11.853 -0.3039  0.5519 -0.0871
 4330SOL    HW124623   3.654   1.945  11.949  1.2385  1.9766  0.0374
 4330SOL    HW224624   3.693   2.035  11.829 -1.2429  0.9879  0.1747
 4331SOL     OW24625   2.410   1.169   7.607 -0.1275 -0.2660 -0.1312
 4331SOL    HW124626   2.473   1.185   7.536  0.0398  0.3352  0.1508
 4331SOL    HW224627   2.346   1.240   7.599  0.4705  0.4375  1.2289
 4332SOL     OW24628   2.092   0.247  14.731 -0.1828 -0.0102 -0.3115
 4332SOL    HW124629   2.003   0.211  14.725  0.1808 -1.5013  3.7398
 4332SOL    HW224630   2.144   0.176  14.694  1.2116  0.8038  0.0976
 4333SOL     OW24631   2.236   1.584   8.081 -0.2110  0.1634 -0.0241
 4333SOL    HW124632   2.213   1.493   8.060  0.4996 -0.0165 -0.0124
 4333SOL    HW224633   2.148   1.621   8.091  0.2503  0.4652  2.9195
 4334SOL     OW24634   1.839   2.299  16.104  0.4755 -0.3006 -0.0505
 4334SOL    HW124635   1.901   2.275  16.173 -0.9558  0.8447  1.6578
 4334SOL    HW224636   1.874   2.387  16.090 -1.3336  0.6042  1.0292
 4335SOL     OW24637   3.555   3.066  10.858 -0.4256 -0.3960  0.4823
 4335SOL    HW124638   3.627   3.102  10.806 -1.1680  0.7005  0.2086
 4335SOL    HW224639   3.522   2.999  10.798 -0.8592  0.7480 -0.5638
 4336SOL     OW24640   2.774   4.295   4.864 -0.0195  0.2087  0.2082
 4336SOL    HW124641   2.779   4.201   4.849  2.3363  0.0401  2.1177
 4336SOL    HW224642   2.686   4.296   4.901  0.2332 -0.6122  0.8288
 4337SOL     OW24643   4.212   2.418  10.487 -0.5237  0.1373  0.4349
 4337SOL    HW124644   4.215   2.496  10.542 -0.1878 -0.1304  0.7924
 4337SOL    HW224645   4.229   2.352  10.554 -0.3628  0.6338  0.8857
 4338SOL     OW24646   0.265   1.474   3.467  0.0114 -0.4455  0.0049
 4338SOL    HW124647   0.259   1.378   3.463 -0.2608 -0.3850 -0.9328
 4338SOL    HW224648   0.324   1.488   3.541 -0.1297 -1.9767  0.4223
 4339SOL     OW24649   4.362   4.372   3.038  0.1168 -0.1051  0.7999
 4339SOL    HW124650   4.334   4.314   3.109  0.5961  1.3116  2.1464
 4339SOL    HW224651   4.376   4.452   3.089 -1.0853  0.5018  0.1847
 4340SOL     OW24652   2.425   4.575   1.492  0.9237 -0.2529 -0.3958
 4340SOL    HW124653   2.444   4.558   1.400 -1.2975  0.5115 -0.9901
 4340SOL    HW224654   2.363   4.504   1.507  0.1979  0.3635 -0.4565
 4341SOL     OW24655   1.078   3.564   5.475 -0.0245 -1.5931  1.0203
 4341SOL    HW124656   1.020   3.573   5.399  1.0809  1.3963  0.5365
 4341SOL    HW224657   1.030   3.509   5.537 -1.9949  1.2005  1.9982
 4342SOL     OW24658   1.224   0.439  16.500 -0.4749  0.7401 -0.0192
 4342SOL    HW124659   1.137   0.475  16.517 -0.6408  0.5803 -0.5310
 4342SOL    HW224660   1.198   0.350  16.479  0.8714  0.0423  1.3115
 4343SOL     OW24661   3.788   0.645   9.359 -0.1854 -0.8088 -0.3933
 4343SOL    HW124662   3.852   0.637   9.287 -0.1136  2.3138 -0.6808
 4343SOL    HW224663   3.733   0.569   9.343  1.8829 -1.8602 -2.5755
 4344SOL     OW24664   2.139   2.005   2.191  0.6065  0.3909  0.1911
 4344SOL    HW124665   2.127   1.999   2.096 -0.4825  1.0097  0.2967
 4344SOL    HW224666   2.203   1.934   2.200 -1.4596 -1.3731  0.8931
 4345SOL     OW24667   1.492   1.955  15.730  0.0937 -0.3585  0.0053
 4345SOL    HW124668   1.533   1.949  15.816 -0.2100 -0.3843  0.1489
 4345SOL    HW224669   1.461   1.865  15.720  3.0313 -1.4884  1.1242
 4346SOL     OW24670   1.896   3.668   2.586  0.9802  0.0216 -0.1363
 4346SOL    HW124671   1.905   3.581   2.547  2.1119 -0.4376  1.1440
 4346SOL    HW224672   1.950   3.649   2.662 -0.2073  3.0906  1.4470
 4347SOL     OW24673   1.362   3.672  10.033  0.4440 -0.4082 -0.1943
 4347SOL    HW124674   1.342   3.604  10.097 -0.2298  0.4674  0.5322
 4347SOL    HW224675   1.282   3.682   9.980  1.0219  1.7065 -0.6597
 4348SOL     OW24676   2.229   0.189  16.450 -0.3976  0.9551  0.2879
 4348SOL    HW124677   2.320   0.169  16.430 -0.3886  0.3543  0.9419
 4348SOL    HW224678   2.178   0.176  16.370  2.2222  1.1377 -1.3871
 4349SOL     OW24679   1.282   0.821   4.100  0.5712 -0.4280  0.3189
 4349SOL    HW124680   1.235   0.904   4.104  0.8444 -0.2393 -0.5866
 4349SOL    HW224681   1.207   0.761   4.095  1.8924 -2.0813  0.1595
 4350SOL     OW24682   1.215   0.472   1.261  0.5170 -0.2186  0.0643
 4350SOL    HW124683   1.198   0.390   1.215 -0.1008  1.3150 -2.4437
 4350SOL    HW224684   1.188   0.449   1.350  1.6582 -1.5796  0.0692
 4351SOL     OW24685   1.951   1.442   4.503 -0.1452  0.2997  0.0641
 4351SOL    HW124686   1.923   1.511   4.444  1.8152 -0.4933 -1.7994
 4351SOL    HW224687   1.945   1.486   4.588 -1.5355 -0.5024  0.3835
 4352SOL     OW24688   4.228   1.164   5.545 -0.2404 -0.7114 -0.0835
 4352SOL    HW124689   4.143   1.120   5.541 -0.6254  0.1287 -1.1356
 4352SOL    HW224690   4.301   1.103   5.535  2.3567  2.4448 -0.4078
 4353SOL     OW24691   0.404   1.327   2.015 -0.3562  0.2928 -0.4023
 4353SOL    HW124692   0.335   1.272   1.979 -1.7066  0.1147  2.4490
 4353SOL    HW224693   0.481   1.296   1.967 -0.5255 -1.0182  0.1490
 4354SOL     OW24694   3.361   0.390   2.714  0.1253 -0.6184 -0.1253
 4354SOL    HW124695   3.431   0.392   2.649 -0.9379  0.8066 -1.2148
 4354SOL    HW224696   3.284   0.371   2.660 -1.0112  2.1751  0.5270
 4355SOL     OW24697   2.747   4.341  16.042  0.9290  0.3039  0.6877
 4355SOL    HW124698   2.837   4.331  16.010  0.6861 -0.0806  0.1203
 4355SOL    HW224699   2.698   4.363  15.963  1.3732 -0.6407  0.1542
 4356SOL     OW24700   1.318   3.834   2.678 -0.0544 -0.4082  0.0872
 4356SOL    HW124701   1.281   3.814   2.592  0.1926 -2.4973  0.4527
 4356SOL    HW224702   1.286   3.923   2.690 -1.8002 -0.7707 -2.0347
 4357SOL     OW24703   3.926   4.153   3.953  0.5673 -0.3058 -0.1321
 4357SOL    HW124704   3.868   4.219   3.989  1.1465  1.0447 -1.6675
 4357SOL    HW224705   4.015   4.189   3.961  0.3444 -0.1271  1.5262
 4358SOL     OW24706   4.216   3.331  16.017  0.3630  0.6354  0.2814
 4358SOL    HW124707   4.169   3.267  16.071  1.0381  1.3974  1.7463
 4358SOL    HW224708   4.174   3.308  15.933  0.1657  0.8925  0.3122
 4359SOL     OW24709   3.494   2.495   3.447  0.3369  0.1018  0.3074
 4359SOL    HW124710   3.501   2.420   3.388  0.1721  1.0174 -0.8580
 4359SOL    HW224711   3.399   2.500   3.440  0.2512 -1.2559  0.3846
 4360SOL     OW24712   0.912   0.433   4.615  0.2814 -0.2556  0.2242
 4360SOL    HW124713   0.971   0.389   4.554 -0.0033  0.9520 -0.9178
 4360SOL    HW224714   0.905   0.524   4.586 -0.0109 -1.2680 -2.8296
 4361SOL     OW24715   0.637   1.389   9.055  0.2439  0.5056  0.1652
 4361SOL    HW124716   0.615   1.449   9.125  0.0074  1.4562 -0.7186
 4361SOL    HW224717   0.572   1.421   8.992  0.4553 -0.8453 -0.7511
 4362SOL     OW24718   3.943   4.386   3.204  0.7942 -0.0599 -0.3081
 4362SOL    HW124719   3.848   4.398   3.213  1.3072  3.5919  0.4375
 4362SOL    HW224720   3.974   4.341   3.282 -1.0316 -1.4464 -0.3968
 4363SOL     OW24721   4.473   4.467   8.628 -0.2784 -0.4241 -0.2603
 4363SOL    HW124722   4.402   4.403   8.628 -0.6971  0.0350 -0.5684
 4363SOL    HW224723   4.542   4.404   8.606 -1.1748 -1.9620  1.3608
 4364SOL     OW24724   1.644   2.104   4.838 -0.5395  0.2076 -0.1296
 4364SOL    HW124725   1.629   2.033   4.901 -2.6449  1.5429  0.8908
 4364SOL    HW224726   1.570   2.088   4.779  0.8493  2.4314 -2.4607
 4365SOL     OW24727   1.379   1.722  15.719 -0.3785  0.0565 -0.3153
 4365SOL    HW124728   1.293   1.683  15.707 -1.2796  0.1367  5.6539
 4365SOL    HW224729   1.410   1.688  15.803  0.0094 -0.3197 -0.6145
 4366SOL     OW24730   4.178   3.808   3.499  0.1458  0.5715  0.0131
 4366SOL    HW124731   4.123   3.739   3.537 -1.6690  2.2335  0.4438
 4366SOL    HW224732   4.252   3.792   3.557  0.7624 -0.3031 -1.0284
 4367SOL     OW24733   1.757   1.503   0.029 -0.2034  0.0424 -0.7299
 4367SOL    HW124734   1.778   1.577  17.712  0.8638  1.0276  0.9344
 4367SOL    HW224735   1.838   1.501   0.081  0.2749 -2.0210 -1.5484
 4368SOL     OW24736   3.775   3.094  11.686  0.3974 -0.1693 -0.3570
 4368SOL    HW124737   3.837   3.160  11.718 -0.4310  1.0637 -1.2957
 4368SOL    HW224738   3.693   3.116  11.732  1.0011 -0.4963  0.8805
 4369SOL     OW24739   1.721   1.553   6.613  0.2288 -0.6399  0.1924
 4369SOL    HW124740   1.764   1.500   6.680 -0.1990 -1.0693  0.1246
 4369SOL    HW224741   1.693   1.494   6.543  1.3512 -2.0114  0.9014
 4370SOL     OW24742   1.835   1.240   4.780  0.3341 -0.1785 -0.8048
 4370SOL    HW124743   1.882   1.195   4.851 -4.1884  1.2690  3.1167
 4370SOL    HW224744   1.863   1.332   4.783 -3.2162  0.8376  0.8851
 4371SOL     OW24745   1.956   0.374  17.599 -0.0113 -0.2754  0.2797
 4371SOL    HW124746   1.907   0.427  17.662  1.8722 -0.1857  1.6600
 4371SOL    HW224747   2.000   0.435  17.539 -1.5057  2.3180  1.8247
 4372SOL     OW24748   3.329   0.521   9.433  0.1919  0.0993  0.3857
 4372SOL    HW124749   3.273   0.596   9.455 -1.2248 -0.9205  0.2368
 4372SOL    HW224750   3.283   0.445   9.467  2.6773 -2.2590 -1.5812
 4373SOL     OW24751   0.964   1.119   6.692 -0.6919  0.2965 -0.3927
 4373SOL    HW124752   1.016   1.178   6.746  1.2417 -2.3495  0.6347
 4373SOL    HW224753   1.037   1.061   6.669 -1.4669  0.1337 -2.4958
 4374SOL     OW24754   3.671   1.274   6.088  0.2737  0.4751  0.0702
 4374SOL    HW124755   3.605   1.205   6.089  0.4740  0.2719 -0.9599
 4374SOL    HW224756   3.630   1.351   6.048 -1.0171 -0.0382  0.3962
 4375SOL     OW24757   1.085   2.207   2.785 -1.0165  0.2667 -0.0678
 4375SOL    HW124758   1.141   2.258   2.843  0.0440 -2.7135  1.5173
 4375SOL    HW224759   1.081   2.264   2.708 -0.2641  0.3179 -0.0703
 4376SOL     OW24760   3.056   1.081   4.301 -0.2858 -0.2082 -0.0618
 4376SOL    HW124761   3.043   1.004   4.357  0.0552 -0.8832 -0.9095
 4376SOL    HW224762   2.980   1.080   4.243  0.3585  1.9445 -0.9411
 4377SOL     OW24763   4.142   3.934   3.231 -0.3213  0.9994  0.0285
 4377SOL    HW124764   4.196   3.882   3.172 -0.8578 -0.4787  0.8175
 4377SOL    HW224765   4.160   3.880   3.308 -0.7465  0.7695 -0.0316
 4378SOL     OW24766   3.457   1.296   5.429  0.6839  0.2066 -0.1085
 4378SOL    HW124767   3.448   1.376   5.481 -3.0235  0.1887 -0.7345
 4378SOL    HW224768   3.409   1.328   5.352 -1.8195 -0.3979  1.2021
 4379SOL     OW24769   0.350   4.380   7.939 -0.4307 -0.3603  0.9055
 4379SOL    HW124770   0.341   4.304   7.996 -2.0305 -1.4786 -0.8636
 4379SOL    HW224771   0.308   4.449   7.991  1.3920  2.2568 -1.1016
 4380SOL     OW24772   1.128   2.347   6.177  0.2692  0.1770 -0.2488
 4380SOL    HW124773   1.122   2.257   6.145 -0.5359  0.6276 -1.3326
 4380SOL    HW224774   1.222   2.365   6.182  0.0960  0.8904  0.4451
 4381SOL     OW24775   3.690   2.760   9.251 -0.1616  0.0700 -0.1402
 4381SOL    HW124776   3.720   2.777   9.162  0.7314 -2.3210 -0.2904
 4381SOL    HW224777   3.749   2.822   9.296 -1.9678  1.0472  0.8587
 4382SOL     OW24778   1.349   0.135  14.402  0.2915  0.1495  0.4341
 4382SOL    HW124779   1.337   0.230  14.397 -0.5627  0.0656  0.8202
 4382SOL    HW224780   1.367   0.109  14.312  0.7267 -0.4168  0.6896
 4383SOL     OW24781   0.576   1.738   7.923 -0.4249  0.6867  0.5554
 4383SOL    HW124782   0.630   1.816   7.934  0.3716 -0.0708  2.0980
 4383SOL    HW224783   0.500   1.770   7.875  0.9943 -0.6003 -2.5260
 4384SOL     OW24784   4.209   3.191   5.474 -0.2645 -0.0698 -0.4089
 4384SOL    HW124785   4.262   3.194   5.395  0.8115  0.8103  0.3444
 4384SOL    HW224786   4.274   3.162   5.539  0.1314  0.5697 -0.5190
 4385SOL     OW24787   4.730   3.271   6.595 -0.2347  0.9639  0.0833
 4385SOL    HW124788   4.695   3.266   6.684 -1.5054 -0.0059 -0.4689
 4385SOL    HW224789   0.077   3.320   6.604  0.8411 -1.2446  2.3835
 4386SOL     OW24790   3.310   1.299   8.162 -0.6055 -0.4644 -0.0457
 4386SOL    HW124791   3.249   1.269   8.096 -0.1848  0.6319 -0.9485
 4386SOL    HW224792   3.324   1.389   8.130  0.9062 -0.7065 -0.0720
 4387SOL     OW24793   3.183   1.558   6.625  0.0090  0.6040 -0.2766
 4387SOL    HW124794   3.171   1.621   6.696 -4.1177  0.0473 -0.4394
 4387SOL    HW224795   3.197   1.481   6.681 -0.4297  2.3670  2.2656
 4388SOL     OW24796   4.361   0.670  12.569  0.0540 -0.0497  0.6587
 4388SOL    HW124797   4.440   0.671  12.515 -1.9131  3.0360 -2.1745
 4388SOL    HW224798   4.405   0.655  12.653  2.0242  1.0150 -0.1752
 4389SOL     OW24799   2.066   3.905   5.640  0.2459 -0.2147 -0.2867
 4389SOL    HW124800   2.107   3.986   5.670  0.5282 -0.7311  0.7121
 4389SOL    HW224801   2.074   3.912   5.545  0.6129  1.1522 -0.1503
 4390SOL     OW24802   0.057   1.853   5.592 -0.7569 -0.2213  0.1248
 4390SOL    HW124803   0.032   1.918   5.526 -2.1092 -0.3665  0.4977
 4390SOL    HW224804   0.080   1.918   5.658  0.7114 -0.7243  0.0972
 4391SOL     OW24805   0.824   2.915   3.444 -0.7325 -0.5025  0.2296
 4391SOL    HW124806   0.831   2.993   3.390  0.0586 -1.6777 -1.3876
 4391SOL    HW224807   0.896   2.873   3.398  0.7563  2.1759  0.1493
 4392SOL     OW24808   2.407   0.590  15.537  0.0757  0.6035 -0.1838
 4392SOL    HW124809   2.383   0.663  15.479  1.1671  2.2374  1.4597
 4392SOL    HW224810   2.404   0.519  15.473 -0.7195  0.0862  0.4277
 4393SOL     OW24811   4.076   1.204   6.568  0.1646  0.2857  0.0435
 4393SOL    HW124812   4.086   1.299   6.576 -0.8782  0.4740 -0.9503
 4393SOL    HW224813   4.141   1.187   6.500 -1.0816  0.2973 -1.1305
 4394SOL     OW24814   1.277   0.304   5.271  0.1994  0.0456 -0.0522
 4394SOL    HW124815   1.364   0.340   5.252 -0.0224  1.2513  1.2707
 4394SOL    HW224816   1.226   0.350   5.205 -1.0388 -0.7898  0.3229
 4395SOL     OW24817   0.184   4.687  11.452 -0.2879  0.5637 -0.0059
 4395SOL    HW124818   0.097   4.684  11.412 -0.0339  1.4455 -0.6287
 4395SOL    HW224819   0.172   4.729  11.537  1.3585 -0.1429  0.5778
 4396SOL     OW24820   3.193   0.301   2.038 -0.2860 -0.6210  0.4522
 4396SOL    HW124821   3.244   0.248   1.976  0.1549  1.5065 -1.0027
 4396SOL    HW224822   3.239   0.275   2.118  0.2182  2.1422  1.0449
 4397SOL     OW24823   1.131   0.928  14.911 -0.0440  0.2825  0.1190
 4397SOL    HW124824   1.042   0.937  14.878  0.4000 -2.2906 -1.7688
 4397SOL    HW224825   1.116   0.937  15.005  1.0110  1.2592  0.1946
 4398SOL     OW24826   3.249   2.140   3.735  0.0021 -0.3016 -0.6835
 4398SOL    HW124827   3.342   2.155   3.720  0.1037 -2.5447 -2.2182
 4398SOL    HW224828   3.227   2.219   3.785  2.5613 -0.9942  1.5475
 4399SOL     OW24829   0.212   2.376  10.874  0.3984 -0.5546  0.4245
 4399SOL    HW124830   0.170   2.386  10.959  0.0362  1.6802 -0.0135
 4399SOL    HW224831   0.175   2.443  10.817  1.1515 -0.9426 -0.5279
 4400SOL     OW24832   0.329   1.351   2.494 -0.3626  0.2754 -0.0629
 4400SOL    HW124833   0.324   1.324   2.586 -2.5230  0.5175 -0.1106
 4400SOL    HW224834   0.251   1.306   2.463  0.0850 -0.6117  0.0873
 4401SOL     OW24835   3.310   3.703   5.004 -0.2939 -0.1801 -0.4131
 4401SOL    HW124836   3.243   3.708   4.936  1.5579  2.9761 -2.0302
 4401SOL    HW224837   3.377   3.652   4.957  1.1655  1.7682 -0.4616
 4402SOL     OW24838   2.179   4.560   8.054  0.2455 -0.1250  0.2294
 4402SOL    HW124839   2.131   4.481   8.076  0.5613 -0.3184  0.2169
 4402SOL    HW224840   2.209   4.544   7.965 -0.0018  0.7620 -0.0153
 4403SOL     OW24841   1.138   3.769   6.691 -0.6776 -0.4554 -0.1318
 4403SOL    HW124842   1.218   3.786   6.742 -2.2504  2.2875  1.4254
 4403SOL    HW224843   1.127   3.855   6.652 -2.0495 -0.2753  0.6628
 4404SOL     OW24844   2.271   3.695  12.412 -0.0054  0.0221  0.2273
 4404SOL    HW124845   2.229   3.736  12.336 -0.5453 -1.7354 -0.4056
 4404SOL    HW224846   2.333   3.767  12.422  1.8649 -1.4605 -0.7281
 4405SOL     OW24847   2.997   4.466   3.832 -0.4624  0.3172  0.0808
 4405SOL    HW124848   2.997   4.431   3.743 -0.4230 -0.2196  0.2888
 4405SOL    HW224849   2.914   4.512   3.841 -0.7066 -0.1483  0.2395
 4406SOL     OW24850   1.461   0.179  16.491 -0.4095  0.1209 -0.1887
 4406SOL    HW124851   1.392   0.138  16.438 -1.6217  1.8325  0.0916
 4406SOL    HW224852   1.444   0.155  16.582 -0.8478  0.6245 -0.1430
 4407SOL     OW24853   1.727   0.493   3.742  0.3209 -0.0837  0.0448
 4407SOL    HW124854   1.680   0.410   3.743 -1.2614  0.7989 -0.1902
 4407SOL    HW224855   1.734   0.504   3.647  2.3895  0.6353  0.2864
 4408SOL     OW24856   1.767   0.704  15.806 -0.1563 -0.5231  0.2846
 4408SOL    HW124857   1.804   0.711  15.894  2.6921  2.0934 -1.0878
 4408SOL    HW224858   1.719   0.787  15.803 -0.8359 -0.9120  0.4654
 4409SOL     OW24859   4.130   0.571   1.660  0.0792  0.4323 -0.1180
 4409SOL    HW124860   4.223   0.591   1.669  0.2693 -1.0010  1.0711
 4409SOL    HW224861   4.147   0.480   1.682 -1.1369  0.7166  2.0667
 4410SOL     OW24862   4.598   1.594  12.317  0.1964  0.1121  0.1819
 4410SOL    HW124863   4.682   1.558  12.347  0.0192  0.1512  0.7300
 4410SOL    HW224864   4.544   1.538  12.373  1.7556 -2.3305 -0.7749
 4411SOL     OW24865   4.652   4.597   6.702 -0.1295 -0.2025  0.5285
 4411SOL    HW124866   4.588   4.660   6.671 -0.0633  0.6871  2.2002
 4411SOL    HW224867   4.731   4.646   6.679  0.4721 -1.2433  0.3485
 4412SOL     OW24868   2.511   3.670  13.039 -0.4674 -0.2806  0.2946
 4412SOL    HW124869   2.550   3.619  12.968  0.4111  0.7377  0.0545
 4412SOL    HW224870   2.480   3.598  13.095  1.3655  1.4323  3.4336
 4413SOL     OW24871   1.598   4.065   3.414  0.4977  0.0559 -0.0929
 4413SOL    HW124872   1.543   4.142   3.398  0.8922  1.0749  3.5705
 4413SOL    HW224873   1.649   4.062   3.333 -1.5080  1.3655 -1.4023
 4414SOL     OW24874   0.108   2.194   6.125  0.1749 -0.7507  0.5829
 4414SOL    HW124875   0.042   2.125   6.114 -2.0847  1.1256  2.4593
 4414SOL    HW224876   0.101   2.244   6.043 -1.1915 -1.2086  0.4289
 4415SOL     OW24877   4.604   0.714   5.434  0.4565 -0.1969 -0.6678
 4415SOL    HW124878   4.641   0.645   5.489  1.2877  1.0229  0.2918
 4415SOL    HW224879   4.570   0.655   5.366 -1.6421 -0.1557  0.3183
 4416SOL     OW24880   3.201   4.262   7.293  0.0687  0.1978  0.4787
 4416SOL    HW124881   3.219   4.356   7.286 -0.2612  0.1873 -0.5441
 4416SOL    HW224882   3.254   4.248   7.371 -0.5114  3.9350  1.5154
 4417SOL     OW24883   3.850   4.129   3.039 -0.6566  0.1425  0.0164
 4417SOL    HW124884   3.897   4.051   3.069 -0.7244  0.3776  0.7375
 4417SOL    HW224885   3.817   4.110   2.951 -4.6307  0.3198  1.4426
 4418SOL     OW24886   2.687   0.253   9.261  0.0318 -0.1131 -0.0749
 4418SOL    HW124887   2.657   0.167   9.232  0.9861 -0.5926  0.3696
 4418SOL    HW224888   2.607   0.295   9.294 -0.4287 -2.6615  1.9956
 4419SOL     OW24889   1.430   1.586   4.739 -0.2599 -0.0330 -0.1235
 4419SOL    HW124890   1.389   1.513   4.785  1.1172 -1.6065 -1.3775
 4419SOL    HW224891   1.500   1.538   4.696  0.8057  0.4799  1.0421
 4420SOL     OW24892   3.888   3.601   7.807  0.0620  0.0405  0.4981
 4420SOL    HW124893   3.838   3.520   7.816 -0.0864  0.1779  0.9175
 4420SOL    HW224894   3.822   3.655   7.850 -1.0873 -0.7881 -0.2328
 4421SOL     OW24895   3.376   4.348   1.742  0.1389  0.6827  0.4857
 4421SOL    HW124896   3.398   4.258   1.766 -1.4306  0.0084 -0.6000
 4421SOL    HW224897   3.365   4.393   1.826  0.9439  0.7824  0.5438
 4422SOL     OW24898   0.404   4.014   4.230  0.0829  0.6300 -0.0981
 4422SOL    HW124899   0.456   4.093   4.220 -0.3666  0.4428 -3.8769
 4422SOL    HW224900   0.361   4.004   4.146  1.8490  1.2854 -1.0795
 4423SOL     OW24901   1.351   3.295   0.832  0.4550 -0.3136  0.3404
 4423SOL    HW124902   1.384   3.381   0.808 -0.4559 -0.3481 -1.0289
 4423SOL    HW224903   1.356   3.307   0.927 -2.7893  1.1574  0.2979
 4424SOL     OW24904   0.353   0.007   3.192 -0.4415  0.0697  0.2730
 4424SOL    HW124905   0.331   0.070   3.260  2.2833  0.6639  0.6109
 4424SOL    HW224906   0.273   4.695   3.171  0.0904  0.0854 -1.8664
 4425SOL     OW24907   4.599   3.182   9.005  0.5248 -0.0439 -0.5577
 4425SOL    HW124908   4.670   3.193   8.942  0.4237  0.1138 -0.6429
 4425SOL    HW224909   4.521   3.177   8.950  1.4224  0.4205 -1.8722
 4426SOL     OW24910   3.824   1.639   3.683 -0.2496 -0.0951  0.1348
 4426SOL    HW124911   3.734   1.619   3.710  0.2447 -2.0317  0.3102
 4426SOL    HW224912   3.855   1.691   3.757  1.7126  0.0147 -0.7620
 4427SOL     OW24913   3.206   2.077   2.789  0.1797 -0.1364  0.2624
 4427SOL    HW124914   3.133   2.132   2.818  0.8201  0.9518 -0.2082
 4427SOL    HW224915   3.236   2.046   2.874  0.4205 -0.1696  0.1629
 4428SOL     OW24916   0.352   0.262   1.829 -0.1028  0.0281 -0.7725
 4428SOL    HW124917   0.273   0.208   1.824  0.3886 -0.7954  0.5240
 4428SOL    HW224918   0.350   0.285   1.922  0.2440 -2.0736 -0.2544
 4429SOL     OW24919   1.979   0.684   0.187  0.1605 -0.4931 -0.1271
 4429SOL    HW124920   2.013   0.635   0.261 -0.7838  0.3270  0.8572
 4429SOL    HW224921   2.034   0.762   0.185 -0.4622 -0.0335  0.7950
 4430SOL     OW24922   4.149   4.363  10.592 -0.3151  0.1849  0.1485
 4430SOL    HW124923   4.098   4.300  10.642 -0.7899  0.2352 -0.2775
 4430SOL    HW224924   4.106   4.339  10.510 -2.6200 -1.4262  1.8599
 4431SOL     OW24925   1.596   2.234   1.152 -0.3268 -0.5667  0.2009
 4431SOL    HW124926   1.580   2.287   1.230 -0.6681  2.3134 -1.8348
 4431SOL    HW224927   1.516   2.220   1.102  0.0556  0.8768 -0.8007
 4432SOL     OW24928   2.245   0.065   4.784  0.0946 -0.6136  0.0573
 4432SOL    HW124929   2.225   4.726   4.727 -0.8700  0.5610 -1.1268
 4432SOL    HW224930   2.227   0.022   4.868  3.3098  0.6504  1.3888
 4433SOL     OW24931   2.973   2.628   3.630 -0.5768 -0.0174 -0.0744
 4433SOL    HW124932   2.959   2.667   3.716 -0.2742  0.8595 -0.4219
 4433SOL    HW224933   2.886   2.644   3.591  0.1294  0.3411 -1.5005
 4434SOL     OW24934   0.225   3.746   5.804 -0.2591  0.4918  0.4218
 4434SOL    HW124935   0.271   3.823   5.835 -0.8775  0.9206  0.2826
 4434SOL    HW224936   0.229   3.696   5.886 -1.2808 -1.5340 -0.7508
 4435SOL     OW24937   2.162   1.089   5.303 -0.0190 -0.0328 -0.0425
 4435SOL    HW124938   2.172   0.999   5.332  0.6510 -0.6957 -2.2985
 4435SOL    HW224939   2.117   1.129   5.377 -0.8782 -0.8527 -0.1179
 4436SOL     OW24940   1.453   2.660   9.076  0.0782  0.4611  0.0756
 4436SOL    HW124941   1.428   2.615   9.157 -0.0317  0.7214  0.1869
 4436SOL    HW224942   1.370   2.704   9.058  0.2380 -0.0424 -1.8886
 4437SOL     OW24943   0.269   3.449  12.309 -0.0894  0.1577  0.1669
 4437SOL    HW124944   0.245   3.454  12.402  1.1757 -1.1446  0.5539
 4437SOL    HW224945   0.268   3.543  12.293  0.2850 -0.0239 -0.8842
 4438SOL     OW24946   0.644   1.138   8.281  0.7911  0.0021  0.3312
 4438SOL    HW124947   0.713   1.202   8.300  0.2204  0.6749  0.1281
 4438SOL    HW224948   0.647   1.109   8.189 -2.4993  1.6833 -0.3093
 4439SOL     OW24949   0.067   0.595   6.381  0.1285 -0.2447  0.0358
 4439SOL    HW124950   0.096   0.685   6.363 -2.9669  0.3530 -1.9299
 4439SOL    HW224951   4.712   0.606   6.410 -0.6393 -0.6234 -2.2073
 4440SOL     OW24952   1.552   2.969   9.060 -0.2624  0.4865 -0.5567
 4440SOL    HW124953   1.612   2.982   9.133  0.9965  2.1875 -1.8912
 4440SOL    HW224954   1.557   2.874   9.044 -0.6854  0.4152 -0.2657
 4441SOL     OW24955   0.847   3.115   4.768  0.3370 -0.3573 -0.3133
 4441SOL    HW124956   0.789   3.182   4.731 -1.7708 -1.4891  0.9449
 4441SOL    HW224957   0.793   3.039   4.745 -0.7663  0.7204 -1.2829
 4442SOL     OW24958   0.765   1.593   2.119 -0.1078  0.6335 -0.0989
 4442SOL    HW124959   0.716   1.668   2.153 -0.5246  0.5378 -0.4830
 4442SOL    HW224960   0.790   1.550   2.200  1.0288 -0.9649 -1.2948
 4443SOL     OW24961   2.805   2.904  13.329 -0.2938  0.1118  0.6032
 4443SOL    HW124962   2.801   2.934  13.420  3.6174  1.7583  0.2113
 4443SOL    HW224963   2.850   2.977  13.287  0.7255 -1.8003 -1.6026
 4444SOL     OW24964   1.981   2.574  12.500  0.3987  0.0455  0.2826
 4444SOL    HW124965   1.983   2.670  12.507  0.8914  0.1987 -2.0027
 4444SOL    HW224966   2.029   2.566  12.417  0.3772 -0.2787  0.3038
 4445SOL     OW24967   2.072   1.195   7.307  0.8369  0.4844 -0.0819
 4445SOL    HW124968   2.099   1.165   7.220 -1.0099 -0.6363 -0.2646
 4445SOL    HW224969   1.977   1.187   7.301  0.7355  0.4024  1.7091
 4446SOL     OW24970   0.311   1.294   0.699  0.3540 -0.2362  0.0237
 4446SOL    HW124971   0.392   1.243   0.699  0.3647 -0.2473 -2.3800
 4446SOL    HW224972   0.312   1.342   0.615  2.1740 -2.6389 -1.3279
 4447SOL     OW24973   0.937   4.283   3.656  0.1769 -0.0551 -0.0992
 4447SOL    HW124974   0.891   4.207   3.618  0.7601  0.3270 -1.5561
 4447SOL    HW224975   0.987   4.238   3.724  1.0989 -2.2533 -2.2322
 4448SOL     OW24976   3.755   3.263  12.674  0.2343  0.6333  0.4796
 4448SOL    HW124977   3.770   3.304  12.759 -2.6300 -1.5342  2.0382
 4448SOL    HW224978   3.743   3.344  12.623  0.3425 -0.0296 -0.5995
 4449SOL     OW24979   1.160   2.310   2.398  0.5983 -0.2401 -0.3244
 4449SOL    HW124980   1.094   2.354   2.451  0.0332  0.1981 -1.3981
 4449SOL    HW224981   1.246   2.336   2.431  0.2360 -1.9532  2.0105
 4450SOL     OW24982   4.637   0.521   6.931 -0.0584  0.2711 -0.5137
 4450SOL    HW124983   4.718   0.480   6.964  1.3609  2.6143 -1.0527
 4450SOL    HW224984   4.647   0.611   6.963 -1.3221  0.2201  0.0048
 4451SOL     OW24985   2.845   3.630   8.809  0.2472 -0.6703 -0.0155
 4451SOL    HW124986   2.780   3.692   8.841  0.6926 -0.8598  1.2526
 4451SOL    HW224987   2.903   3.645   8.884 -0.5313  3.3565 -0.2645
 4452SOL     OW24988   3.117   4.640   4.609  0.3747 -0.2312  0.0399
 4452SOL    HW124989   3.188   4.695   4.576  2.1617 -1.1554  2.2903
 4452SOL    HW224990   3.108   4.676   4.697  0.3997  1.4068 -0.6430
 4453SOL     OW24991   0.435   1.613   1.587 -0.1919 -0.1663 -0.7460
 4453SOL    HW124992   0.401   1.539   1.637 -1.8462  2.5070  2.0937
 4453SOL    HW224993   0.498   1.645   1.652 -2.2965  2.0949  0.1753
 4454SOL     OW24994   0.340   0.268   0.735 -0.2373 -0.0501 -0.5215
 4454SOL    HW124995   0.254   0.241   0.766 -0.3021  1.3048  0.4893
 4454SOL    HW224996   0.382   0.183   0.742 -1.7418 -1.0042 -3.1573
 4455SOL     OW24997   0.637   1.383   0.654 -0.1637  0.5890  0.1515
 4455SOL    HW124998   0.594   1.468   0.649  0.6327  0.9332 -0.9481
 4455SOL    HW224999   0.710   1.377   0.715  0.7154 -1.8797 -1.1290
 4456SOL     OW25000   0.615   0.077   9.313  0.3565 -0.4807  0.1761
 4456SOL    HW125001   0.542   0.040   9.263  0.5068  0.7790 -0.9684
 4456SOL    HW225002   0.578   0.166   9.314 -0.8018 -0.9471 -0.6682
 4457SOL     OW25003   0.328   2.990   2.009 -0.4804 -0.1342 -0.0766
 4457SOL    HW125004   0.264   2.945   2.065  0.2414  1.1687  1.8338
 4457SOL    HW225005   0.331   2.934   1.932  0.8069  0.6547 -0.5947
 4458SOL     OW25006   4.643   2.954   3.184 -0.5581 -0.1462 -0.3971
 4458SOL    HW125007   4.656   2.993   3.098 -0.5293 -1.5083 -1.0183
 4458SOL    HW225008   4.548   2.951   3.196 -0.2973  1.1174  1.9238
 4459SOL     OW25009   1.853   4.140  14.537  0.3808 -0.0521  0.6373
 4459SOL    HW125010   1.904   4.107  14.463  0.6228  2.7249 -0.4208
 4459SOL    HW225011   1.769   4.161  14.496  0.8607  0.4016 -0.1089
 4460SOL     OW25012   1.737   3.561   7.617 -0.3504  0.1291 -0.3328
 4460SOL    HW125013   1.820   3.540   7.573 -1.6449  0.2119 -2.8138
 4460SOL    HW225014   1.695   3.597   7.539 -1.1118 -0.4347 -0.1773
 4461SOL     OW25015   3.854   4.007   6.620 -0.1512 -0.1155 -0.2530
 4461SOL    HW125016   3.760   4.000   6.637 -0.2223  2.5668  0.3977
 4461SOL    HW225017   3.844   4.011   6.525 -0.9524 -0.9926 -0.2142
 4462SOL     OW25018   4.534   0.839   2.905 -0.2575 -0.0872  0.5145
 4462SOL    HW125019   4.480   0.901   2.855 -0.1369 -0.8468 -0.5402
 4462SOL    HW225020   4.608   0.896   2.927 -0.6500 -0.1958  2.1373
 4463SOL     OW25021   1.350   4.256   4.316  0.1332  0.0729  0.1608
 4463SOL    HW125022   1.356   4.179   4.373  0.9454 -1.1584 -1.5960
 4463SOL    HW225023   1.379   4.327   4.374  0.9521 -0.4877  0.4379
 4464SOL     OW25024   2.396   1.663  13.332 -0.0613  0.2595  0.2902
 4464SOL    HW125025   2.443   1.707  13.403 -0.6256 -2.5582  2.3953
 4464SOL    HW225026   2.457   1.680  13.260 -0.1628 -1.6347 -0.2466
 4465SOL     OW25027   0.514   0.259  13.532  0.1483  0.0338  0.4108
 4465SOL    HW125028   0.535   0.322  13.602  1.0115 -0.1644  0.3378
 4465SOL    HW225029   0.428   0.292  13.508 -0.5435 -1.2905  1.1040
 4466SOL     OW25030   3.315   1.970   4.943  0.5212  0.2148  0.0795
 4466SOL    HW125031   3.268   2.041   4.899  1.1274  0.9803  0.6696
 4466SOL    HW225032   3.400   2.004   4.969  0.2889  0.3520  0.6652
 4467SOL     OW25033   2.196   0.983   6.045 -0.4025 -0.2858 -0.0942
 4467SOL    HW125034   2.214   0.901   6.090 -1.6535 -0.4318  0.1491
 4467SOL    HW225035   2.122   1.010   6.099 -1.2389 -0.3032 -1.2363
 4468SOL     OW25036   3.712   0.719   1.873 -0.4983  0.2673  0.4506
 4468SOL    HW125037   3.635   0.758   1.914 -1.7670 -3.2372  1.4540
 4468SOL    HW225038   3.697   0.630   1.906 -2.1520  0.3615 -0.0507
 4469SOL     OW25039   1.644   1.309   7.043  0.2573 -0.1150 -0.0835
 4469SOL    HW125040   1.556   1.272   7.051  0.3255  0.0613  1.4269
 4469SOL    HW225041   1.644   1.305   6.948  0.2651 -0.3339 -0.0753
 4470SOL     OW25042   2.917   1.041   2.757 -0.2659 -0.2802  0.1884
 4470SOL    HW125043   2.885   1.105   2.694  2.1239 -1.6659 -2.4572
 4470SOL    HW225044   3.006   1.046   2.724  0.3897 -0.2776  1.9368
 4471SOL     OW25045   0.693   1.228  12.034  0.6420  0.1171 -0.2646
 4471SOL    HW125046   0.645   1.149  12.008 -1.6364  0.7954  1.9101
 4471SOL    HW225047   0.779   1.205  11.998  0.3359 -1.2706 -0.1414
 4472SOL     OW25048   2.433   4.483   2.506  0.2446 -0.0112 -0.0153
 4472SOL    HW125049   2.351   4.475   2.458  0.2762 -1.5350  0.1611
 4472SOL    HW225050   2.410   4.435   2.586 -2.6611 -0.3040 -1.0319
 4473SOL     OW25051   0.533   0.654   5.521 -0.1277 -0.1731  0.7630
 4473SOL    HW125052   0.480   0.616   5.450 -0.9819  3.3263 -0.4628
 4473SOL    HW225053   0.606   0.701   5.480  0.4019 -1.5580  0.1003
 4474SOL     OW25054   1.273   0.290   2.946  0.4195 -0.1516  0.1383
 4474SOL    HW125055   1.240   0.324   2.863  1.8091 -0.4652 -0.5494
 4474SOL    HW225056   1.357   0.252   2.921  0.3786 -0.3637  0.3263
 4475SOL     OW25057   4.116   0.243  16.280 -0.3578  0.0105  0.3746
 4475SOL    HW125058   4.166   0.285  16.349  0.3932 -2.2618  1.2245
 4475SOL    HW225059   4.149   0.154  16.291  0.8993  0.4904  0.5444
 4476SOL     OW25060   2.485   3.320   7.170 -0.7195 -0.6800  0.8201
 4476SOL    HW125061   2.558   3.259   7.178 -0.7908 -0.7518  0.9260
 4476SOL    HW225062   2.536   3.401   7.171 -0.2577 -0.9420 -0.9051
 4477SOL     OW25063   2.038   1.812   1.544  0.1224  0.2892  0.8655
 4477SOL    HW125064   2.036   1.815   1.449  1.0212 -1.3235  0.7931
 4477SOL    HW225065   2.096   1.737   1.560 -0.7414 -0.6193 -0.2578
 4478SOL     OW25066   0.226   2.712   6.196  0.3253  0.1974  0.5749
 4478SOL    HW125067   0.229   2.804   6.171 -1.2199  0.0862 -0.0467
 4478SOL    HW225068   0.166   2.706   6.271 -0.7294 -2.4328 -0.5052
 4479SOL     OW25069   4.049   0.379  10.803  0.0928 -0.4344 -0.1025
 4479SOL    HW125070   4.144   0.391  10.802  0.0757 -0.2792  0.3558
 4479SOL    HW225071   4.024   0.461  10.847 -0.9338 -1.1937  0.7290
 4480SOL     OW25072   0.788   1.234   7.814  0.1818 -0.1141  0.6380
 4480SOL    HW125073   0.873   1.223   7.772 -0.9568  0.0184 -1.6601
 4480SOL    HW225074   0.774   1.323   7.782 -2.1811 -0.6200  0.2926
 4481SOL     OW25075   3.828   3.732   4.753  0.2308 -0.1035 -0.0943
 4481SOL    HW125076   3.741   3.724   4.714 -0.1872  0.5559  0.6991
 4481SOL    HW225077   3.812   3.816   4.796 -1.0021 -1.8766  2.8939
 4482SOL     OW25078   0.232   3.303   2.468  0.7061 -0.0838 -0.0086
 4482SOL    HW125079   0.247   3.289   2.561  3.0828 -0.9483 -0.5268
 4482SOL    HW225080   0.165   3.372   2.468 -0.0727 -0.8552  1.7776
 4483SOL     OW25081   0.330   3.907  11.999  0.0180  0.1445  0.3908
 4483SOL    HW125082   0.293   3.851  11.931  1.4858  1.9281 -1.9008
 4483SOL    HW225083   0.386   3.966  11.949  1.8655 -2.7677 -1.0060
 4484SOL     OW25084   4.264   1.855  10.976 -0.7214  0.7624  0.2334
 4484SOL    HW125085   4.322   1.910  10.924  1.5832 -2.0760 -0.1986
 4484SOL    HW225086   4.178   1.897  10.967 -0.1431  1.6951 -0.7997
 4485SOL     OW25087   3.081   2.114   3.510 -0.3046  0.3334  0.5534
 4485SOL    HW125088   3.155   2.073   3.465 -0.4266  0.2332  0.4424
 4485SOL    HW225089   3.130   2.133   3.590  0.1377  1.0642  0.0997
 4486SOL     OW25090   1.004   0.755   8.874  0.5040  0.1655 -0.4077
 4486SOL    HW125091   0.912   0.743   8.852  0.6381  0.6953 -1.2500
 4486SOL    HW225092   1.044   0.670   8.891 -0.6268 -0.4376 -0.8123
 4487SOL     OW25093   2.501   3.682   3.473  0.6189  0.1931 -0.0834
 4487SOL    HW125094   2.480   3.775   3.484  0.2813  0.0148  0.8424
 4487SOL    HW225095   2.433   3.662   3.409 -0.9215 -0.9986  1.8917
 4488SOL     OW25096   1.687   1.236   9.072 -0.1545 -0.0585  0.6361
 4488SOL    HW125097   1.606   1.198   9.039 -0.0783 -0.8609  1.3712
 4488SOL    HW225098   1.655   1.258   9.160  0.7155  0.5798  0.7988
 4489SOL     OW25099   1.573   1.120  16.796 -0.0044 -0.0613 -0.0048
 4489SOL    HW125100   1.494   1.152  16.840  0.3983  0.7414  0.1509
 4489SOL    HW225101   1.584   1.032  16.831 -2.5007 -0.1411  0.5539
 4490SOL     OW25102   2.118   4.437   7.489 -0.0998 -0.1271  0.4304
 4490SOL    HW125103   2.078   4.446   7.402  0.1241 -0.2658  0.3141
 4490SOL    HW225104   2.207   4.456   7.461 -0.5949  1.1005 -0.3233
 4491SOL     OW25105   4.369   4.239  11.357  0.1721  0.5612  0.1890
 4491SOL    HW125106   4.340   4.197  11.438 -2.9169  1.1828 -0.5920
 4491SOL    HW225107   4.375   4.327  11.395  2.2015 -0.6984  2.7588
 4492SOL     OW25108   4.005   1.157   3.229  0.0119 -0.3883  0.2314
 4492SOL    HW125109   3.996   1.183   3.321 -0.3948 -0.0794  0.1050
 4492SOL    HW225110   3.927   1.106   3.208 -1.5324  0.9338  2.6822
 4493SOL     OW25111   3.016   1.124  16.225  0.7782 -0.3213 -0.1442
 4493SOL    HW125112   2.931   1.091  16.255  0.7990 -2.0767 -2.0432
 4493SOL    HW225113   3.002   1.177  16.146 -1.5589 -0.1382  0.3816
 4494SOL     OW25114   1.850   3.729   5.309 -0.4764  0.6062  0.0259
 4494SOL    HW125115   1.787   3.787   5.265 -1.1046  0.8213  1.2189
 4494SOL    HW225116   1.917   3.794   5.330  0.0712  0.0838 -0.1107
 4495SOL     OW25117   0.286   4.113   2.000 -0.7212  0.1088 -0.0712
 4495SOL    HW125118   0.222   4.180   1.978 -0.7627  0.4313  1.0225
 4495SOL    HW225119   0.253   4.039   1.950 -1.6869  1.5989 -1.5918
 4496SOL     OW25120   4.099   4.567   0.870 -0.3779 -0.4638  0.8687
 4496SOL    HW125121   4.007   4.539   0.867 -0.3944 -0.2423 -1.1501
 4496SOL    HW225122   4.095   4.659   0.897  0.5662 -0.1151 -0.1706
 4497SOL     OW25123   2.461   1.871  14.785  0.1862 -0.0945  0.1479
 4497SOL    HW125124   2.397   1.910  14.845  0.3304  0.5579 -0.1302
 4497SOL    HW225125   2.409   1.819  14.724 -0.3072 -1.4041  1.6898
 4498SOL     OW25126   0.126   0.692   8.572  0.0026 -0.6095 -0.1452
 4498SOL    HW125127   0.207   0.735   8.545 -0.2583  1.3146  2.0978
 4498SOL    HW225128   0.061   0.761   8.574  0.9943  0.2837  1.7418
 4499SOL     OW25129   0.051   2.527   8.112  0.1774 -0.0191  0.4818
 4499SOL    HW125130   0.042   2.605   8.057  0.9629 -0.5483 -0.4002
 4499SOL    HW225131   0.144   2.506   8.108  0.5673  1.1356  3.3185
 4500SOL     OW25132   4.189   3.252   3.367  0.2148  0.0468  0.4465
 4500SOL    HW125133   4.096   3.244   3.389  0.5401 -0.4738  1.5872
 4500SOL    HW225134   4.223   3.219   3.450 -0.8697 -2.1169  0.0259
 4501SOL     OW25135   4.346   3.055   8.857  0.6006 -0.1129  0.1092
 4501SOL    HW125136   4.341   3.075   8.764 -0.8696 -0.1869  0.1779
 4501SOL    HW225137   4.331   2.963   8.876  0.2402  0.2292  1.5204
 4502SOL     OW25138   3.997   2.014  16.028 -0.0594 -0.3346  0.1367
 4502SOL    HW125139   4.074   2.063  16.000  1.3310 -1.2255  2.3619
 4502SOL    HW225140   4.004   1.934  15.976 -0.8185 -0.7441  0.6669
 4503SOL     OW25141   4.674   3.838   4.387  0.4479  0.0494  0.2535
 4503SOL    HW125142   4.661   3.757   4.337 -3.0033  1.4454 -1.1042
 4503SOL    HW225143   4.722   3.888   4.320  3.7882 -1.5333  1.5098
 4504SOL     OW25144   3.786   4.626   8.320  0.0622  0.6804 -0.1960
 4504SOL    HW125145   3.693   4.647   8.318  0.6953  3.2703 -1.7355
 4504SOL    HW225146   3.798   4.567   8.246 -3.8215  0.9886 -1.0793
 4505SOL     OW25147   0.911   2.407   2.975  0.0313  0.4275  0.4733
 4505SOL    HW125148   0.942   2.340   3.035  0.9318 -1.3696 -1.9811
 4505SOL    HW225149   0.890   2.478   3.036  0.9189 -1.0147  2.4403
 4506SOL     OW25150   0.815   1.297   8.432 -0.2175  0.2793 -0.0789
 4506SOL    HW125151   0.750   1.318   8.499  0.0587  0.9462 -0.0202
 4506SOL    HW225152   0.854   1.221   8.474 -1.1447  0.3905  0.9874
 4507SOL     OW25153   1.032   2.654  15.922  0.1354  0.5661 -0.1629
 4507SOL    HW125154   1.082   2.701  15.989  0.0350  1.1267 -0.4725
 4507SOL    HW225155   0.952   2.639  15.971  0.2407  0.8688  0.1039
 4508SOL     OW25156   0.829   2.637  16.085  0.2793  0.3498 -0.0295
 4508SOL    HW125157   0.823   2.671  16.175  3.0048  0.1807  0.2266
 4508SOL    HW225158   0.741   2.657  16.054  1.3951  3.0729 -1.4026
 4509SOL     OW25159   4.716   4.457   3.370 -0.2274  0.2364 -0.1693
 4509SOL    HW125160   4.645   4.393   3.380 -0.0297  0.0175 -0.1902
 4509SOL    HW225161   0.049   4.408   3.325 -1.4318 -0.7073 -0.9589
 4510SOL     OW25162   2.589   0.308  14.405  0.3993  0.0953 -0.3838
 4510SOL    HW125163   2.579   0.362  14.326 -0.7740  0.9042  0.3204
 4510SOL    HW225164   2.521   0.343  14.463 -0.2414 -0.1054 -1.0004
 4511SOL     OW25165   0.615   4.576   7.354 -0.2895 -0.2316 -0.5052
 4511SOL    HW125166   0.651   4.521   7.284 -0.5680 -0.1427 -0.7227
 4511SOL    HW225167   0.589   4.505   7.412 -0.5653  1.1176  1.0114
 4512SOL     OW25168   0.887   1.056   8.555 -0.1215  0.7529  0.3654
 4512SOL    HW125169   0.970   1.008   8.556 -0.8262 -0.4577  0.8086
 4512SOL    HW225170   0.846   1.011   8.629  0.7596 -0.4574  0.1247
 4513SOL     OW25171   2.987   1.056   9.277  0.1459  0.3690 -1.2762
 4513SOL    HW125172   2.932   1.003   9.334  0.4200 -0.6998 -2.0092
 4513SOL    HW225173   2.992   1.125   9.343 -0.7612 -1.9389  1.2048
 4514SOL     OW25174   4.706   1.736   2.590 -0.1758  0.5316 -0.9985
 4514SOL    HW125175   4.716   1.656   2.642 -1.4047  1.0365  0.0302
 4514SOL    HW225176   4.669   1.794   2.657  0.1063 -0.2624 -0.1509
 4515SOL     OW25177   2.615   3.737   0.390 -0.4646 -0.4442  0.7722
 4515SOL    HW125178   2.531   3.777   0.412  0.0451  0.7372  0.5396
 4515SOL    HW225179   2.630   3.767   0.301 -0.2067 -0.3583  0.8426
 4516SOL     OW25180   1.400   4.719  16.717 -0.2430 -0.2263 -0.1894
 4516SOL    HW125181   1.326   4.710  16.658 -1.8716  0.0505  1.8016
 4516SOL    HW225182   1.359   4.666  16.785  0.3764 -0.0133  0.3510
 4517SOL     OW25183   3.005   2.284   4.193  0.1452 -0.7853 -0.0633
 4517SOL    HW125184   2.945   2.211   4.177 -2.4920  1.5981 -1.0346
 4517SOL    HW225185   3.005   2.291   4.288 -0.8118 -1.2969 -0.0273
 4518SOL     OW25186   0.915   4.178   1.825  0.6097  0.1151 -0.9199
 4518SOL    HW125187   1.006   4.202   1.807  1.1972 -1.3347  0.1049
 4518SOL    HW225188   0.907   4.126   1.746 -2.2275  0.2267 -0.6951
 4519SOL     OW25189   0.785   2.715  13.975 -0.0098 -0.3749  0.6919
 4519SOL    HW125190   0.859   2.764  14.010  1.2125 -0.1261 -2.2674
 4519SOL    HW225191   0.729   2.784  13.938  2.0698  1.3299  0.7492
 4520SOL     OW25192   2.728   2.444   9.123  0.0437  0.1345  0.4312
 4520SOL    HW125193   2.743   2.538   9.133 -1.5942  0.4103  0.4334
 4520SOL    HW225194   2.708   2.439   9.030 -0.4098 -1.3551  0.6085
 4521SOL     OW25195   0.222   2.939   7.806 -0.9765 -0.0876 -0.2527
 4521SOL    HW125196   0.187   2.872   7.748  1.9702 -3.0779  1.4418
 4521SOL    HW225197   0.292   2.981   7.756  0.3388  0.9714  2.4256
 4522SOL     OW25198   1.371   3.792   6.847  0.0964 -0.0128 -0.2533
 4522SOL    HW125199   1.375   3.778   6.942  2.7210 -3.1886 -0.8068
 4522SOL    HW225200   1.446   3.737   6.823  1.8272  1.4014  1.9138
 4523SOL     OW25201   3.749   2.250   6.459 -0.2919  0.4529  0.8806
 4523SOL    HW125202   3.686   2.308   6.501 -0.9459 -0.5470  1.2696
 4523SOL    HW225203   3.777   2.302   6.384  1.8539  1.5998  2.4607
 4524SOL     OW25204   1.049   1.621   4.740 -0.0262 -0.8174  0.0772
 4524SOL    HW125205   1.117   1.650   4.801 -1.8338 -0.5907  1.9672
 4524SOL    HW225206   1.093   1.630   4.656  4.1008  1.8680  2.5377
 4525SOL     OW25207   1.116   2.761   4.523  0.0650  0.0768 -0.1076
 4525SOL    HW125208   1.132   2.747   4.430  0.9167 -2.0399  0.3668
 4525SOL    HW225209   1.046   2.827   4.521 -0.4928 -0.5735 -1.5816
 4526SOL     OW25210   0.849   2.462  12.991 -0.2188  0.6447 -0.1849
 4526SOL    HW125211   0.784   2.437  12.925 -1.7036  1.0212  1.1418
 4526SOL    HW225212   0.875   2.551  12.968  1.9386 -0.2658 -1.2650
 4527SOL     OW25213   3.793   3.178   5.359  0.2575  0.0832  0.2531
 4527SOL    HW125214   3.814   3.254   5.306  1.3402 -0.4290 -0.0554
 4527SOL    HW225215   3.878   3.133   5.358 -0.6084 -1.5216 -1.3287
 4528SOL     OW25216   2.104   1.706   3.847 -0.4691  0.3311  0.6318
 4528SOL    HW125217   2.011   1.694   3.867 -0.8281 -2.5578 -2.6918
 4528SOL    HW225218   2.128   1.768   3.916 -3.5159  2.5657 -0.2876
 4529SOL     OW25219   2.544   3.407   3.093  0.2596  0.5847  0.0762
 4529SOL    HW125220   2.611   3.386   3.158 -2.1822 -0.6375  2.1595
 4529SOL    HW225221   2.462   3.395   3.140  0.5428 -1.6663 -0.0324
 4530SOL     OW25222   3.266   3.779   3.134  0.5372 -0.1660 -0.8934
 4530SOL    HW125223   3.334   3.794   3.200 -1.8968 -0.1957  1.6371
 4530SOL    HW225224   3.189   3.767   3.191  1.5652  0.3174  0.5831
 4531SOL     OW25225   1.553   1.098   6.397 -0.0896  0.2920 -0.3380
 4531SOL    HW125226   1.467   1.057   6.391  0.2276 -0.4302  0.0256
 4531SOL    HW225227   1.597   1.040   6.459 -1.6111 -0.3792  0.1005
 4532SOL     OW25228   3.170   2.559  14.285 -0.0642  0.0891  0.2752
 4532SOL    HW125229   3.222   2.584  14.209  1.8094 -0.8654  1.2369
 4532SOL    HW225230   3.155   2.465  14.277  1.4909 -0.0906 -0.6801
 4533SOL     OW25231   3.732   1.228   5.063 -0.2729 -0.4110  0.3243
 4533SOL    HW125232   3.682   1.177   4.999 -1.0907 -0.8187  1.2849
 4533SOL    HW225233   3.804   1.261   5.010 -0.3453 -1.6772 -0.5707
 4534SOL     OW25234   1.686   2.304   3.619  0.2329  0.1098 -0.8892
 4534SOL    HW125235   1.623   2.329   3.687  0.1128  0.7986 -1.2482
 4534SOL    HW225236   1.673   2.209   3.625  2.7208 -0.2221 -0.9434
 4535SOL     OW25237   2.816   1.851  17.345 -0.1181  0.4692  0.0036
 4535SOL    HW125238   2.852   1.935  17.315 -2.7267  2.3105  1.9792
 4535SOL    HW225239   2.865   1.795  17.285 -2.3290 -1.0543 -0.3658
 4536SOL     OW25240   3.574   0.717   2.661 -0.0608  0.6567  0.2030
 4536SOL    HW125241   3.520   0.777   2.609  0.0687  0.0411 -0.6460
 4536SOL    HW225242   3.613   0.670   2.587 -0.4443  0.6625 -0.0021
 4537SOL     OW25243   3.352   2.445   9.183 -0.2102 -0.0674 -0.0644
 4537SOL    HW125244   3.378   2.537   9.179  1.2841 -0.5009 -0.3306
 4537SOL    HW225245   3.438   2.405   9.196 -0.2624  0.2186  1.1195
 4538SOL     OW25246   1.143   1.743   3.614  0.4008 -0.2214  0.1440
 4538SOL    HW125247   1.233   1.718   3.631  0.4675  0.3813  0.6519
 4538SOL    HW225248   1.132   1.707   3.526  1.8321 -1.3637  0.4403
 4539SOL     OW25249   0.291   4.484   5.058 -0.1190 -0.0619 -0.0695
 4539SOL    HW125250   0.206   4.517   5.085 -0.5476 -1.2910  0.0946
 4539SOL    HW225251   0.281   4.473   4.963  0.6914  1.8832 -0.3812
 4540SOL     OW25252   1.751   1.339  13.587  0.5590  0.1114  0.3719
 4540SOL    HW125253   1.707   1.388  13.517 -0.9643 -0.2459  1.0850
 4540SOL    HW225254   1.831   1.389  13.605 -0.4527  1.6403  0.6300
 4541SOL     OW25255   3.666   4.692   3.692  0.5608 -0.0560 -0.0501
 4541SOL    HW125256   3.748   4.704   3.739 -0.3259 -1.0036  1.7071
 4541SOL    HW225257   3.620   0.030   3.733 -0.8144  0.0075 -1.7181
 4542SOL     OW25258   3.705   0.339   5.784 -0.3070  0.0481 -0.2619
 4542SOL    HW125259   3.699   0.397   5.708 -1.9756  2.1459  1.4507
 4542SOL    HW225260   3.626   0.285   5.778 -0.5186  0.4837 -1.3506
 4543SOL     OW25261   0.599   3.557   9.357 -0.1116  0.4723  0.1377
 4543SOL    HW125262   0.629   3.467   9.344 -0.2457  0.2417  1.3376
 4543SOL    HW225263   0.621   3.588   9.269  1.3276 -0.2021  0.2607
 4544SOL     OW25264   2.323   3.169   3.042 -0.0767  0.4844 -0.3110
 4544SOL    HW125265   2.411   3.175   3.006  0.1122  0.8804  0.2167
 4544SOL    HW225266   2.315   3.231   3.115 -1.4808  0.5368 -0.5150
 4545SOL     OW25267   3.100   2.839   8.861  0.1956 -0.5205 -0.1640
 4545SOL    HW125268   3.042   2.904   8.821  0.2118 -0.2699  0.2234
 4545SOL    HW225269   3.066   2.827   8.949 -1.3227  1.4186 -0.4793
 4546SOL     OW25270   3.514   2.123   1.706  0.3915  0.5437 -0.1184
 4546SOL    HW125271   3.446   2.060   1.728  1.1417  1.2847  4.2699
 4546SOL    HW225272   3.472   2.209   1.713 -1.0302 -0.1402 -0.2136
 4547SOL     OW25273   2.448   3.884   7.383 -0.1305  0.3769 -0.4923
 4547SOL    HW125274   2.355   3.877   7.360 -0.4653 -0.0923  0.9624
 4547SOL    HW225275   2.462   3.800   7.429 -0.2512  0.9783  0.6465
 4548SOL     OW25276   0.010   2.575  10.347  0.3783  0.5276 -0.4312
 4548SOL    HW125277   4.658   2.577  10.309  0.6375  1.2309 -0.9925
 4548SOL    HW225278   0.020   2.666  10.372 -3.3160  0.2642  1.9623
 4549SOL     OW25279   3.930   3.956  17.543  0.8231 -0.2583  0.9162
 4549SOL    HW125280   3.966   3.876  17.581 -0.6082 -0.8130  1.1008
 4549SOL    HW225281   3.922   3.931  17.451  1.2877  0.3346  0.7139
 4550SOL     OW25282   3.373   2.843   3.976  0.1005  0.3953  0.4899
 4550SOL    HW125283   3.350   2.848   4.069 -1.2153  0.2621  0.1635
 4550SOL    HW225284   3.303   2.892   3.933  0.1338 -0.5528 -0.6712
 4551SOL     OW25285   1.381   2.166   6.618  0.0771 -0.2732  0.2157
 4551SOL    HW125286   1.330   2.197   6.693  2.0009  0.5217  1.1971
 4551SOL    HW225287   1.458   2.129   6.660  0.3841  0.2884  0.1578
 4552SOL     OW25288   0.310   4.598  16.177  0.5330 -0.0582 -0.4067
 4552SOL    HW125289   0.306   4.529  16.111  1.6357 -1.5030  1.0262
 4552SOL    HW225290   0.231   4.650  16.165  2.5201  2.3309 -3.0610
 4553SOL     OW25291   0.659   1.625  14.538 -0.1245  0.2415  0.1968
 4553SOL    HW125292   0.575   1.631  14.583  0.3754 -0.8818  1.3041
 4553SOL    HW225293   0.657   1.662  14.450 -1.3180 -0.0825  0.0850
 4554SOL     OW25294   0.065   0.442   1.638 -0.6858  0.5241 -0.1468
 4554SOL    HW125295   0.150   0.419   1.677 -0.6112 -0.2059 -0.7426
 4554SOL    HW225296   0.095   0.439   1.547 -2.0140  0.1390 -0.5739
 4555SOL     OW25297   0.444   3.213   9.368  0.1413 -0.0274  0.5612
 4555SOL    HW125298   0.526   3.232   9.413 -0.0995  0.2833  0.8687
 4555SOL    HW225299   0.384   3.182   9.435 -0.5199  0.6873  0.3036
 4556SOL     OW25300   4.430   0.924   5.532  0.1078  0.3651  0.6716
 4556SOL    HW125301   4.469   0.917   5.619  0.2491 -0.7400  0.5257
 4556SOL    HW225302   4.487   0.862   5.485 -2.2661  1.0986 -3.1845
 4557SOL     OW25303   4.348   0.693   8.154  0.3273 -0.2968  0.2522
 4557SOL    HW125304   4.336   0.606   8.115 -0.8760 -0.2689  0.5630
 4557SOL    HW225305   4.438   0.688   8.185  0.0373  0.4730  1.2035
 4558SOL     OW25306   4.239   2.394   4.690 -0.8049  0.3434  0.0620
 4558SOL    HW125307   4.293   2.417   4.614  2.9355 -4.2833  1.3248
 4558SOL    HW225308   4.160   2.431   4.650 -0.4796  2.5500  1.4898
 4559SOL     OW25309   1.779   3.599   4.939 -0.2220  0.2017 -0.6285
 4559SOL    HW125310   1.690   3.611   4.973  0.0496 -2.1275  0.9522
 4559SOL    HW225311   1.803   3.546   5.016 -2.1670 -3.1583 -2.3637
 4560SOL     OW25312   3.588   3.926   2.022  0.4764 -0.2188  0.2480
 4560SOL    HW125313   3.621   3.872   2.094 -1.2526 -1.1406  0.3674
 4560SOL    HW225314   3.555   4.003   2.069 -1.0967 -1.1459  0.6693
 4561SOL     OW25315   3.656   2.956   1.940  0.0613 -0.9017  0.1414
 4561SOL    HW125316   3.598   2.961   2.015  1.1901  2.2632  0.8132
 4561SOL    HW225317   3.726   2.896   1.966  1.2314  0.4349  0.0681
 4562SOL     OW25318   4.336   2.513  11.195  0.9337  0.1656 -0.2949
 4562SOL    HW125319   4.364   2.440  11.139  0.5212  1.3012 -1.9662
 4562SOL    HW225320   4.302   2.478  11.277  1.9391 -1.8340 -0.7342
 4563SOL     OW25321   1.773   1.442   7.874  0.2649  0.0194  0.1929
 4563SOL    HW125322   1.704   1.461   7.938 -0.7819 -0.9054 -0.6611
 4563SOL    HW225323   1.749   1.356   7.842  1.2116  0.1431 -0.8202
 4564SOL     OW25324   2.480   3.167  13.394  0.0732  0.1134  0.1396
 4564SOL    HW125325   2.412   3.186  13.329 -2.2274 -3.5837  1.4569
 4564SOL    HW225326   2.515   3.087  13.354 -1.6683 -1.2459  1.2957
 4565SOL     OW25327   3.424   3.996  16.598  0.2092  0.3469 -0.2514
 4565SOL    HW125328   3.501   4.015  16.651 -0.8352  0.3866  1.2443
 4565SOL    HW225329   3.402   3.904  16.617  0.6736  0.7973  2.4749
 4566SOL     OW25330   1.260   1.962  12.010  0.0994 -0.0662 -0.2326
 4566SOL    HW125331   1.312   1.961  12.090  3.3298  1.1534 -2.3477
 4566SOL    HW225332   1.185   2.011  12.043  0.9326  0.3901  0.9564
 4567SOL     OW25333   4.430   2.819   6.731  0.3229  0.5487  0.7939
 4567SOL    HW125334   4.513   2.830   6.684  0.2365 -3.0265 -0.1385
 4567SOL    HW225335   4.374   2.840   6.656  0.5616 -1.6182  0.0209
 4568SOL     OW25336   3.506   0.129   5.080  0.4879 -0.0014  0.7807
 4568SOL    HW125337   3.525   0.043   5.044 -0.4944 -0.1508  0.6074
 4568SOL    HW225338   3.480   0.110   5.170  2.2749  1.7645  1.6689
 4569SOL     OW25339   0.948   0.050   1.466  0.2651 -0.7148 -0.0625
 4569SOL    HW125340   1.008   0.072   1.537 -1.2262  1.2340  0.5739
 4569SOL    HW225341   1.002   4.731   1.408 -0.7025  1.1501 -2.7156
 4570SOL     OW25342   4.504   3.043  14.876  0.3482  0.4583  0.4691
 4570SOL    HW125343   4.498   3.138  14.869  1.5292  0.4031 -1.4347
 4570SOL    HW225344   4.570   3.027  14.808 -0.4938  1.1799 -0.5038
 4571SOL     OW25345   1.946   3.095   0.330  0.0594  0.1217 -0.1363
 4571SOL    HW125346   1.874   3.083   0.268 -1.2051 -1.7727  1.6760
 4571SOL    HW225347   1.898   3.126   0.406  0.7907  2.7536 -0.7421
 4572SOL     OW25348   1.201   3.009   6.161  0.3167 -0.5666 -0.4234
 4572SOL    HW125349   1.150   2.934   6.131  1.9816 -1.9748  0.2523
 4572SOL    HW225350   1.250   3.023   6.080  0.2614 -0.7279 -0.4850
 4573SOL     OW25351   3.918   3.062   3.896 -0.0518  0.1767 -0.3360
 4573SOL    HW125352   3.957   3.107   3.821 -0.0268  1.0907  0.2333
 4573SOL    HW225353   3.876   3.134   3.942 -1.3323 -1.3932  0.9607
 4574SOL     OW25354   4.450   0.675   0.804  0.1513 -0.8282 -0.5505
 4574SOL    HW125355   4.370   0.627   0.822  2.4952 -3.0891  3.9067
 4574SOL    HW225356   4.450   0.707   0.714 -1.6737 -4.2607 -1.7343
 4575SOL     OW25357   4.411   1.088  12.115  0.3436 -0.4547  0.6149
 4575SOL    HW125358   4.319   1.109  12.097  0.3800  0.3055  1.2922
 4575SOL    HW225359   4.412   1.022  12.184  0.5187 -0.9939  0.0890
 4576SOL     OW25360   4.527   1.455   8.104 -0.8516 -0.0077 -0.2498
 4576SOL    HW125361   4.560   1.423   8.020 -1.1756 -0.0123 -0.3751
 4576SOL    HW225362   4.547   1.548   8.109  1.2691 -0.5751  1.9839
 4577SOL     OW25363   0.102   3.609   8.842  0.2879 -0.1571  0.0162
 4577SOL    HW125364   0.047   3.685   8.860 -1.2094 -1.3272  0.3493
 4577SOL    HW225365   0.158   3.643   8.772 -0.6764  2.5997  0.5540
 4578SOL     OW25366   2.708   1.523   6.750  0.5715  0.1689  0.6095
 4578SOL    HW125367   2.657   1.593   6.790  0.7326 -0.5672  2.1275
 4578SOL    HW225368   2.787   1.535   6.802  0.5725 -0.4411  0.7573
 4579SOL     OW25369   3.000   4.349   4.125  0.1500 -0.3654  0.3241
 4579SOL    HW125370   2.992   4.313   4.036  1.1136 -3.2442  1.3935
 4579SOL    HW225371   2.915   4.321   4.157  0.5029 -0.6393  1.0334
 4580SOL     OW25372   2.468   1.017   6.219 -0.4100  0.4304  0.0943
 4580SOL    HW125373   2.446   1.093   6.165 -0.0923 -0.3506 -1.1309
 4580SOL    HW225374   2.495   0.954   6.153 -1.2900  0.1439  0.0037
 4581SOL     OW25375   3.554   2.240   0.723 -0.3712 -0.1513  0.2292
 4581SOL    HW125376   3.616   2.295   0.676  0.3049 -1.0994  0.0050
 4581SOL    HW225377   3.538   2.186   0.646  1.3754  0.9204 -0.8791
 4582SOL     OW25378   0.049   3.948  11.948 -0.3393 -0.2860 -0.6323
 4582SOL    HW125379   0.020   3.889  12.017 -1.0095  0.4093 -0.3248
 4582SOL    HW225380   0.142   3.928  11.941 -0.1350  0.0380  1.2860
 4583SOL     OW25381   3.935   1.457   3.479 -0.3661 -0.0084  0.1401
 4583SOL    HW125382   4.017   1.493   3.446 -1.9996  2.3404 -1.3802
 4583SOL    HW225383   3.907   1.518   3.548  2.0462 -0.7067  1.7316
 4584SOL     OW25384   4.021   1.633   9.826  0.6952  0.6157 -0.5117
 4584SOL    HW125385   3.942   1.592   9.790  0.0534  0.4893  1.0225
 4584SOL    HW225386   3.995   1.625   9.918  2.8664 -0.4215  0.0125
 4585SOL     OW25387   0.786   0.331   5.998  0.5146  0.3470  0.3196
 4585SOL    HW125388   0.744   0.286   6.071 -0.3810  0.9443  0.1779
 4585SOL    HW225389   0.842   0.264   5.959  1.3486  1.4438 -0.3842
 4586SOL     OW25390   1.748   2.188   6.961  0.2134  0.2762  0.0460
 4586SOL    HW125391   1.783   2.275   6.941 -1.2807  1.0318  0.7531
 4586SOL    HW225392   1.688   2.206   7.033  0.7384 -0.5770  0.6856
 4587SOL     OW25393   1.508   0.532  13.205 -0.0854  0.3510 -0.3760
 4587SOL    HW125394   1.532   0.619  13.235 -1.1135  0.2459  0.7300
 4587SOL    HW225395   1.527   0.482  13.284 -0.7752  0.2417 -0.2780
 4588SOL     OW25396   2.976   3.853   8.971  0.4418 -0.2692  0.0404
 4588SOL    HW125397   3.007   3.927   9.023  0.2938 -0.4632  0.4121
 4588SOL    HW225398   2.933   3.894   8.896 -1.3109 -1.0253  0.6312
 4589SOL     OW25399   0.358   1.506  12.588 -0.3101  0.0004 -0.3989
 4589SOL    HW125400   0.416   1.431  12.598 -1.5243 -1.0776 -1.4681
 4589SOL    HW225401   0.380   1.546  12.672 -1.8247 -0.7196  0.3438
 4590SOL     OW25402   0.259   2.068   4.916 -0.1020 -0.0388 -0.1271
 4590SOL    HW125403   0.279   2.047   5.008 -0.8772 -0.5012 -0.0645
 4590SOL    HW225404   0.339   2.038   4.873  0.0263  0.3748 -0.1753
 4591SOL     OW25405   4.708   4.494   8.906 -0.5519 -0.2416 -0.0947
 4591SOL    HW125406   0.043   4.545   8.945  0.0161  0.3455 -1.9037
 4591SOL    HW225407   0.017   4.483   8.822 -1.3592  0.8486 -0.6675
 4592SOL     OW25408   3.677   3.117   8.737 -0.4157  0.2270  0.1746
 4592SOL    HW125409   3.651   3.111   8.645 -0.1380 -0.1618  0.1186
 4592SOL    HW225410   3.663   3.211   8.743 -1.0358  0.1621 -0.1970
 4593SOL     OW25411   0.891   1.416  15.000  0.6664 -0.6088 -0.2771
 4593SOL    HW125412   0.842   1.419  14.917  0.9741 -1.2327 -0.4786
 4593SOL    HW225413   0.846   1.492  15.038  0.6088 -0.6766 -0.2099
 4594SOL     OW25414   3.723   2.100  13.110  0.4508 -0.0279  0.1617
 4594SOL    HW125415   3.730   2.005  13.121  0.5220 -0.1606 -1.0355
 4594SOL    HW225416   3.647   2.114  13.166  0.7527  0.8626  0.3560
 4595SOL     OW25417   3.671   3.021   6.332 -0.0354  0.2939 -0.1928
 4595SOL    HW125418   3.696   3.001   6.422 -2.1247  2.1495  0.8211
 4595SOL    HW225419   3.583   2.984   6.333 -0.2145  0.6584 -2.4931
 4596SOL     OW25420   0.170   2.300   2.737  0.0571  0.2175 -0.1295
 4596SOL    HW125421   0.124   2.218   2.719  0.7836 -0.4227  0.9671
 4596SOL    HW225422   0.150   2.312   2.830  0.7715  0.2567  0.0132
 4597SOL     OW25423   2.668   0.749   5.613 -0.2084  1.0884  0.3354
 4597SOL    HW125424   2.626   0.681   5.664  1.9281 -0.7419 -0.3495
 4597SOL    HW225425   2.664   0.710   5.525  0.1687 -0.8285  1.1859
 4598SOL     OW25426   4.364   4.195   8.091  0.1315  0.1144 -0.3009
 4598SOL    HW125427   4.304   4.133   8.131 -0.1656  0.4868 -0.1695
 4598SOL    HW225428   4.409   4.239   8.163  1.7403 -2.4041  0.2321
 4599SOL     OW25429   0.373   3.116  14.704 -0.0844 -0.1971  0.1532
 4599SOL    HW125430   0.296   3.162  14.738 -0.0999  0.7336 -1.1677
 4599SOL    HW225431   0.404   3.062  14.776  0.1225 -0.4395 -0.1183
 4600SOL     OW25432   4.482   4.292   9.253 -0.1231 -0.0659 -0.0119
 4600SOL    HW125433   4.392   4.299   9.286  0.3585  2.6438  0.7235
 4600SOL    HW225434   4.474   4.296   9.158  0.9916  0.4303 -0.0850
 4601SOL     OW25435   0.124   0.401   3.056 -0.1415 -0.1460 -0.6203
 4601SOL    HW125436   0.098   0.311   3.038 -0.1781 -0.3559  0.4891
 4601SOL    HW225437   0.036   0.440   3.056  0.5156  1.3337 -1.1044
 4602SOL     OW25438   0.404   0.013   2.227 -0.1589 -0.2782  0.1796
 4602SOL    HW125439   0.353   0.072   2.283  1.2456  1.0480  0.0573
 4602SOL    HW225440   0.358   0.018   2.143 -0.0630 -0.3328  0.1246
 4603SOL     OW25441   4.275   2.166   7.998 -0.2222  0.1860  0.0835
 4603SOL    HW125442   4.206   2.102   7.980 -0.1559 -0.1149  0.8878
 4603SOL    HW225443   4.318   2.157   7.913  1.7361  1.5381  0.9522
 4604SOL     OW25444   1.610   1.178  10.149 -0.4797 -0.4640  0.3155
 4604SOL    HW125445   1.688   1.135  10.184 -0.0986 -2.4101 -2.8976
 4604SOL    HW225446   1.571   1.225  10.223 -1.2141  1.4965 -1.3302
 4605SOL     OW25447   1.575   3.354  12.155  0.1039 -0.3232 -0.5979
 4605SOL    HW125448   1.575   3.269  12.111 -1.3473 -0.4289 -0.4012
 4605SOL    HW225449   1.612   3.322  12.237  2.6599 -1.1798 -2.1041
 4606SOL     OW25450   4.647   1.668   4.863 -0.6099 -0.6070 -0.4540
 4606SOL    HW125451   4.656   1.740   4.926  0.2973 -1.6820  0.6474
 4606SOL    HW225452   4.555   1.667   4.838 -1.1994 -1.5551  1.8017
 4607SOL     OW25453   1.499   4.628   3.162 -0.2513 -0.0503 -0.5790
 4607SOL    HW125454   1.511   4.686   3.237  0.1461  0.2249 -0.8546
 4607SOL    HW225455   1.409   4.598   3.173 -0.5058  0.6861 -0.6969
 4608SOL     OW25456   0.289   2.980   5.160  0.2125  0.5184 -0.0614
 4608SOL    HW125457   0.288   2.930   5.078  1.5682  1.6728 -0.7863
 4608SOL    HW225458   0.228   2.942   5.222 -0.8359  0.9274 -0.8275
 4609SOL     OW25459   4.076   1.564   4.951 -0.1108 -0.0728  0.4473
 4609SOL    HW125460   4.071   1.608   5.036 -2.1938  1.1512 -0.3083
 4609SOL    HW225461   4.121   1.483   4.976 -0.6940 -0.9856 -1.4666
 4610SOL     OW25462   0.754   1.740   9.071  0.2663  0.2082 -0.0875
 4610SOL    HW125463   0.839   1.696   9.066 -0.1981 -0.5919 -0.7702
 4610SOL    HW225464   0.720   1.701   9.152 -0.5763  2.5847  0.6982
 4611SOL     OW25465   3.479   0.441  12.186  0.1919 -0.8155  0.2543
 4611SOL    HW125466   3.504   0.480  12.103 -2.8344  0.1776 -0.1965
 4611SOL    HW225467   3.557   0.452  12.240 -0.0478  0.4444  0.3337
 4612SOL     OW25468   3.770   3.708   2.848  0.2694  0.0241 -0.6246
 4612SOL    HW125469   3.687   3.753   2.832 -0.4395 -1.4109 -0.9800
 4612SOL    HW225470   3.781   3.647   2.775  1.2211 -0.1779 -0.3219
 4613SOL     OW25471   0.761   4.210   6.085 -0.7290 -0.4883  0.2916
 4613SOL    HW125472   0.789   4.297   6.056  0.3637 -1.1154 -0.5726
 4613SOL    HW225473   0.816   4.189   6.160 -0.0797  1.1152  0.2803
 4614SOL     OW25474   2.260   2.482   9.016 -0.0898 -0.2565  0.0216
 4614SOL    HW125475   2.301   2.397   9.032  0.7996  0.3423  0.8737
 4614SOL    HW225476   2.193   2.476   9.084 -0.1785 -2.7390 -0.2840
 4615SOL     OW25477   2.989   2.586  17.303  0.4296 -0.1159 -0.1303
 4615SOL    HW125478   2.928   2.605  17.374 -1.1936 -0.5366 -1.3970
 4615SOL    HW225479   2.964   2.652  17.238  1.8637 -0.6086 -1.1843
 4616SOL     OW25480   4.636   4.031  13.460 -0.7477 -0.0706  0.4423
 4616SOL    HW125481   4.660   4.108  13.409 -1.5535  1.1979  1.9472
 4616SOL    HW225482   4.683   3.963  13.413  0.6927  1.0767  0.2102
 4617SOL     OW25483   1.865   1.709   5.599  0.5132  0.0914 -0.4115
 4617SOL    HW125484   1.884   1.724   5.692 -1.6399 -1.4882  0.2878
 4617SOL    HW225485   1.887   1.616   5.601  1.2078  0.2522 -0.5675
 4618SOL     OW25486   3.905   1.763   6.843  0.4377  0.0987  0.5192
 4618SOL    HW125487   3.895   1.856   6.861 -0.2951  0.2730 -0.7630
 4618SOL    HW225488   3.865   1.751   6.757  2.3186  1.9090 -0.6053
 4619SOL     OW25489   4.310   4.648   5.465 -0.0767  0.5872 -0.3612
 4619SOL    HW125490   4.278   4.606   5.384 -1.0420  0.7512 -0.0703
 4619SOL    HW225491   4.232   4.690   5.502 -0.5692  1.0691 -1.9495
 4620SOL     OW25492   2.031   1.228   4.265 -0.2743 -0.0842 -0.2225
 4620SOL    HW125493   2.080   1.302   4.231  2.0879 -0.5357  2.2525
 4620SOL    HW225494   2.087   1.151   4.265  1.2117  1.0011  0.2567
 4621SOL     OW25495   4.392   1.625   4.794  0.6591 -0.2164 -0.0501
 4621SOL    HW125496   4.303   1.630   4.829  1.1966 -0.0436  1.3089
 4621SOL    HW225497   4.388   1.660   4.705  2.8288 -1.7052 -0.7238
 4622SOL     OW25498   0.873   3.773  10.524  0.2395  0.6817 -0.1681
 4622SOL    HW125499   0.883   3.853  10.576 -3.2070 -0.3812  2.1290
 4622SOL    HW225500   0.860   3.707  10.592 -0.0614  0.1193 -0.7766
 4623SOL     OW25501   1.154   3.947   7.053  0.0915 -0.2620 -0.0545
 4623SOL    HW125502   1.176   3.859   7.084  1.2662  0.9745  2.6039
 4623SOL    HW225503   1.062   3.949   7.079  0.3150 -1.5388  0.8727
 4624SOL     OW25504   2.876   2.229   1.163  0.1199  0.1948  0.1840
 4624SOL    HW125505   2.854   2.140   1.192 -0.8527  0.2959 -0.2252
 4624SOL    HW225506   2.951   2.251   1.219  0.9504 -0.7751 -0.5569
 4625SOL     OW25507   2.205   3.878  17.199 -0.0574 -0.3992 -0.2086
 4625SOL    HW125508   2.253   3.875  17.281  0.9036 -0.5683 -0.7697
 4625SOL    HW225509   2.114   3.897  17.221  0.0252 -0.5356  0.2354
 4626SOL     OW25510   4.000   3.554   5.447  0.5260  0.0996  0.1810
 4626SOL    HW125511   4.095   3.540   5.439  0.2659 -1.7066  0.3105
 4626SOL    HW225512   3.989   3.627   5.385  0.2958  0.7907  1.0362
 4627SOL     OW25513   1.789   0.692  11.636 -0.2943 -0.5498 -0.1742
 4627SOL    HW125514   1.881   0.664  11.637 -0.2957 -0.5492 -0.0001
 4627SOL    HW225515   1.791   0.767  11.577 -0.5262  0.8798  1.6065
 4628SOL     OW25516   0.296   3.112  13.846 -0.2238 -0.2456  0.6619
 4628SOL    HW125517   0.206   3.102  13.813 -0.0259 -0.6403  0.2416
 4628SOL    HW225518   0.313   3.032  13.897  2.6606  0.4285  0.7563
 4629SOL     OW25519   1.522   0.278  11.551  0.0450  0.1089 -0.1372
 4629SOL    HW125520   1.528   0.341  11.479  2.0384  0.6846  0.5302
 4629SOL    HW225521   1.590   0.214  11.529 -1.0870 -0.7886 -0.9431
 4630SOL     OW25522   4.512   1.484   2.458 -0.1175  0.2272 -0.3986
 4630SOL    HW125523   4.549   1.509   2.543 -0.4889  0.1303 -0.2068
 4630SOL    HW225524   4.585   1.430   2.427 -0.8907 -1.9270  1.5185
 4631SOL     OW25525   2.713   4.234   6.640  0.1535 -0.1919 -0.2043
 4631SOL    HW125526   2.673   4.151   6.664  2.1871 -1.1794 -0.1648
 4631SOL    HW225527   2.734   4.266   6.728  1.0913  1.1233 -0.9114
 4632SOL     OW25528   3.860   1.042   7.343  0.1775  0.5028 -0.5923
 4632SOL    HW125529   3.870   1.104   7.271  0.4497 -0.1926 -1.1484
 4632SOL    HW225530   3.911   0.967   7.311  2.0865  1.2022  0.7938
 4633SOL     OW25531   4.534   4.504  10.731  0.5541 -0.2402  0.3807
 4633SOL    HW125532   4.569   4.444  10.796  1.5426 -1.9618 -1.7308
 4633SOL    HW225533   4.477   4.548  10.794 -1.5230 -1.9137 -0.3408
 4634SOL     OW25534   0.745   2.117   1.335  0.7155  0.2831  0.4820
 4634SOL    HW125535   0.733   2.211   1.319 -1.1975  0.2737  1.7987
 4634SOL    HW225536   0.762   2.121   1.430 -0.7832 -2.1992  0.8427
 4635SOL     OW25537   4.676   2.983   4.953  0.4743  0.3485 -0.2402
 4635SOL    HW125538   4.658   2.914   5.016  0.5203  1.5300  1.0489
 4635SOL    HW225539   4.589   2.988   4.912  0.0393  0.2718  0.6914
 4636SOL     OW25540   1.106   3.189   7.295  0.1738 -0.1402  0.2996
 4636SOL    HW125541   1.165   3.223   7.228 -0.3197 -0.6732 -0.4102
 4636SOL    HW225542   1.030   3.248   7.298  0.1850 -0.1557  1.0125
 4637SOL     OW25543   2.655   3.437  17.333  0.0925 -0.8266 -0.3336
 4637SOL    HW125544   2.569   3.446  17.290  0.5438  0.1410 -1.0304
 4637SOL    HW225545   2.702   3.372  17.281  2.2993  0.4490  0.0670
 4638SOL     OW25546   2.132   1.173   1.841 -0.1931  0.5316  0.1452
 4638SOL    HW125547   2.039   1.168   1.816 -0.7185 -1.1015  2.4276
 4638SOL    HW225548   2.143   1.079   1.832 -0.4449  0.3413  1.8962
 4639SOL     OW25549   3.375   2.080  14.278  0.0751 -0.0505 -0.0376
 4639SOL    HW125550   3.457   2.032  14.289  0.7861  1.1497 -0.1007
 4639SOL    HW225551   3.307   2.013  14.271 -1.3606  1.3332  0.6498
 4640SOL     OW25552   4.621   3.650   0.909 -0.3970 -0.6064  0.0887
 4640SOL    HW125553   4.528   3.669   0.907 -0.1207  0.7427  0.3965
 4640SOL    HW225554   4.651   3.702   0.834 -2.2828  0.5820  0.1647
 4641SOL     OW25555   1.253   0.154  15.445 -0.3308 -0.0370 -0.3659
 4641SOL    HW125556   1.333   0.102  15.458 -1.9671 -2.2354  0.7612
 4641SOL    HW225557   1.283   0.243  15.465  0.1941 -0.3883  0.4074
 4642SOL     OW25558   2.328   1.964   9.866  0.0057  0.3407 -0.1082
 4642SOL    HW125559   2.320   2.050   9.906  1.4013 -0.0380  0.9624
 4642SOL    HW225560   2.407   1.979   9.814 -0.8029  1.8978 -0.8708
 4643SOL     OW25561   3.438   1.411  13.594  0.4417  0.3678 -0.4991
 4643SOL    HW125562   3.459   1.318  13.582 -3.4194 -0.5851  0.2716
 4643SOL    HW225563   3.473   1.425  13.682  0.8066  3.1802 -1.0848
 4644SOL     OW25564   2.089   3.885   5.355 -0.0092 -0.7829  0.2594
 4644SOL    HW125565   2.054   3.938   5.283 -1.3327 -0.6713  0.9867
 4644SOL    HW225566   2.173   3.859   5.318 -1.1984 -0.2686 -2.7719
 4645SOL     OW25567   2.002   2.218   2.295  0.5576  0.1829 -0.2902
 4645SOL    HW125568   2.041   2.281   2.234  0.2082  1.6005  0.9577
 4645SOL    HW225569   2.058   2.143   2.277 -1.5005 -2.0195  2.5614
 4646SOL     OW25570   0.146   4.371   7.169 -0.4563  0.3598  0.2847
 4646SOL    HW125571   0.123   4.297   7.225 -0.2220 -2.3573 -3.1952
 4646SOL    HW225572   0.072   4.428   7.188 -1.0891 -0.2039 -0.5293
 4647SOL     OW25573   4.241   1.435   2.481  0.4950  0.2777 -0.5404
 4647SOL    HW125574   4.334   1.433   2.460  0.1332  3.0192 -2.2974
 4647SOL    HW225575   4.257   1.415   2.574  0.7619 -0.4647 -0.7465
 4648SOL     OW25576   3.914   0.728   0.570  0.0732  0.6424 -0.7215
 4648SOL    HW125577   4.001   0.734   0.609  0.4506  0.9865 -1.6203
 4648SOL    HW225578   3.870   0.657   0.617  0.0807  1.2243  0.1760
 4649SOL     OW25579   3.800   4.601  12.076  0.2084 -0.0269 -0.1086
 4649SOL    HW125580   3.811   4.613  11.981  0.6667  1.0057  0.0779
 4649SOL    HW225581   3.731   4.535  12.082 -0.1678  0.7261  3.4205
 4650SOL     OW25582   2.052   0.128   3.843  0.6724  0.6745  0.1784
 4650SOL    HW125583   2.085   0.082   3.766 -2.0311 -2.8640  1.1211
 4650SOL    HW225584   2.115   0.094   3.906  1.8483  1.5937 -0.4938
 4651SOL     OW25585   4.511   2.571  14.216  0.0440  0.6634 -0.0505
 4651SOL    HW125586   4.474   2.605  14.298 -0.4915  0.9843 -0.4239
 4651SOL    HW225587   4.452   2.502  14.186  1.7248 -0.8067  0.0542
 4652SOL     OW25588   3.149   0.098   7.023 -0.2636 -0.9683 -0.0879
 4652SOL    HW125589   3.238   0.132   7.013 -1.1818  1.4462  0.0692
 4652SOL    HW225590   3.115   0.147   6.947 -1.7287  0.0608  1.2404
 4653SOL     OW25591   0.140   2.055   6.748 -0.3733 -0.2881  0.0457
 4653SOL    HW125592   0.111   2.007   6.825  1.0143  0.9663  1.3390
 4653SOL    HW225593   0.181   1.992   6.688  1.0781  2.2279 -1.5967
 4654SOL     OW25594   2.511   0.204   5.492 -0.1473  0.2361  0.5030
 4654SOL    HW125595   2.540   0.285   5.450 -3.6606  1.9612  1.4299
 4654SOL    HW225596   2.550   0.205   5.580 -0.2072  0.6857  0.5237
 4655SOL     OW25597   4.713   3.526   3.869  0.4501  0.0449 -0.2640
 4655SOL    HW125598   4.646   3.594   3.862  0.5888  0.0683 -1.2819
 4655SOL    HW225599   0.056   3.580   3.876  0.1943  0.4092 -0.1961
 4656SOL     OW25600   1.201   2.217   1.816  0.5059 -0.3109 -0.8302
 4656SOL    HW125601   1.269   2.247   1.757 -0.9313  1.5948 -1.4944
 4656SOL    HW225602   1.243   2.233   1.901 -0.1824 -0.7017 -0.4117
 4657SOL     OW25603   3.627   1.203   2.197 -0.8073 -0.3698 -0.5654
 4657SOL    HW125604   3.615   1.298   2.188  0.6052  0.0570  2.1826
 4657SOL    HW225605   3.591   1.171   2.114  1.9577 -0.7977 -1.5849
 4658SOL     OW25606   2.764   2.716   3.058 -0.1304 -0.3088  0.3085
 4658SOL    HW125607   2.752   2.640   3.002 -1.2428  2.1106 -2.7182
 4658SOL    HW225608   2.823   2.678   3.124  1.2701  1.8943  0.3280
 4659SOL     OW25609   2.958   2.725   2.644  0.4652  0.5492  0.1060
 4659SOL    HW125610   2.958   2.707   2.738 -0.5467 -0.9733 -0.1928
 4659SOL    HW225611   2.963   2.635   2.612 -0.7541  0.5549 -0.0915
 4660SOL     OW25612   4.368   1.024   4.938 -0.1428  0.3201 -0.0278
 4660SOL    HW125613   4.414   1.069   5.009 -0.5596  2.0210 -0.8496
 4660SOL    HW225614   4.378   0.932   4.964  0.5073  0.5754  0.6305
 4661SOL     OW25615   2.981   0.885   6.855  0.0712 -0.1508  0.3228
 4661SOL    HW125616   3.015   0.795   6.850  1.2858  0.4463 -2.0610
 4661SOL    HW225617   2.937   0.891   6.770 -1.3701  1.7889  1.2109
 4662SOL     OW25618   0.832   1.669   0.050 -0.2004  0.3956 -0.0079
 4662SOL    HW125619   0.793   1.604   0.109 -1.6457 -0.0538 -1.4751
 4662SOL    HW225620   0.769   1.741   0.044 -0.8126 -0.0079  1.4597
 4663SOL     OW25621   1.572   1.729   1.786 -0.5271  0.6049 -0.3740
 4663SOL    HW125622   1.650   1.755   1.736 -1.9202  2.5214 -1.5599
 4663SOL    HW225623   1.505   1.789   1.751  0.1723  1.4147 -0.3344
 4664SOL     OW25624   1.776   0.463   8.742 -0.0075 -0.3981 -0.3640
 4664SOL    HW125625   1.735   0.379   8.721 -2.7198  0.6772  0.6443
 4664SOL    HW225626   1.791   0.439   8.834  0.6471  0.8270 -0.1379
 4665SOL     OW25627   2.628   2.056   5.148  0.6761  0.0651 -0.0970
 4665SOL    HW125628   2.639   2.151   5.157  0.7767 -0.1161  1.6241
 4665SOL    HW225629   2.622   2.024   5.238 -0.0004 -1.2028 -0.5947
 4666SOL     OW25630   2.359   3.360   8.791 -0.1426  0.4737  0.3554
 4666SOL    HW125631   2.380   3.429   8.854  2.1270 -0.4143  0.5852
 4666SOL    HW225632   2.287   3.317   8.836  0.4157 -0.9650 -0.1309
 4667SOL     OW25633   1.462   4.070   4.573  0.1794  0.4219 -0.3992
 4667SOL    HW125634   1.443   4.156   4.611 -1.4666 -0.2802  0.3878
 4667SOL    HW225635   1.443   4.008   4.644 -0.7243  1.4434  0.2545
 4668SOL     OW25636   3.339   1.211   9.149  0.2116  0.0114  0.1924
 4668SOL    HW125637   3.434   1.219   9.140  0.0665 -0.5796 -1.8420
 4668SOL    HW225638   3.317   1.295   9.110  0.1296 -0.7662 -1.4531
 4669SOL     OW25639   1.715   2.089   9.590  0.0510  0.0359  0.4111
 4669SOL    HW125640   1.644   2.104   9.528  0.1437 -2.4713 -0.2629
 4669SOL    HW225641   1.772   2.155   9.549  1.1713 -1.2016 -0.0392
 4670SOL     OW25642   0.804   1.636   4.887 -0.1526 -0.1372 -0.4595
 4670SOL    HW125643   0.814   1.637   4.982  1.3151 -0.3327 -0.6104
 4670SOL    HW225644   0.893   1.630   4.852 -0.6388  1.2911 -1.9438
 4671SOL     OW25645   0.814   2.526   2.721 -0.2405 -0.3394 -0.1507
 4671SOL    HW125646   0.822   2.467   2.797  0.7775  0.7150  0.5593
 4671SOL    HW225647   0.818   2.613   2.761 -0.9498  0.4326 -1.7551
 4672SOL     OW25648   1.125   1.112  17.507  0.2335  0.2776  0.0030
 4672SOL    HW125649   1.177   1.063  17.443  0.4010  0.3661  0.0722
 4672SOL    HW225650   1.097   1.042  17.567  0.0557  0.3874  0.0484
 4673SOL     OW25651   0.507   3.659  12.269  0.4038  0.3445  0.4680
 4673SOL    HW125652   0.510   3.754  12.282 -0.2937  0.5552 -0.9205
 4673SOL    HW225653   0.473   3.644  12.182 -0.7966 -0.3373  1.0600
 4674SOL     OW25654   2.468   2.387   6.013  0.2177  0.1505  0.5778
 4674SOL    HW125655   2.526   2.328   6.063  0.9370 -0.5931 -1.1407
 4674SOL    HW225656   2.431   2.425   6.093 -1.0247 -2.7301  1.3652
 4675SOL     OW25657   4.729   4.151   5.868 -0.0979  0.5352  0.3360
 4675SOL    HW125658   4.711   4.060   5.892  1.5364  0.1198 -0.0392
 4675SOL    HW225659   4.673   4.149   5.790 -2.3310 -1.3163  1.9563
 4676SOL     OW25660   3.678   1.042   3.275  0.3725 -0.1690  0.1420
 4676SOL    HW125661   3.741   0.970   3.268  0.7399  0.2951 -1.3532
 4676SOL    HW225662   3.680   1.083   3.188  0.1632  0.1593  0.2925
 4677SOL     OW25663   3.334   2.615   2.462  0.2395  0.4548  0.3597
 4677SOL    HW125664   3.274   2.603   2.536 -1.8542 -2.0309 -1.7189
 4677SOL    HW225665   3.342   2.525   2.431 -0.3918 -0.4956  3.0014
 4678SOL     OW25666   0.766   3.526   4.735 -0.3081 -0.1373 -0.3859
 4678SOL    HW125667   0.715   3.585   4.792  2.0026  1.1130  0.3729
 4678SOL    HW225668   0.696   3.468   4.704 -0.9187 -0.0259  0.7661
 4679SOL     OW25669   0.180   1.503  15.980 -0.7382  0.5697 -0.2018
 4679SOL    HW125670   0.184   1.597  15.998  2.1439  0.7200 -1.6180
 4679SOL    HW225671   0.092   1.480  16.010 -0.4979  0.5619  0.5021
 4680SOL     OW25672   1.697   1.307  11.551 -0.1683 -0.3224  0.0463
 4680SOL    HW125673   1.717   1.289  11.459 -0.9578  3.3312 -0.8364
 4680SOL    HW225674   1.630   1.240  11.563  0.9121 -1.6699 -1.4005
 4681SOL     OW25675   1.625   4.068  13.227  0.0114  0.3591 -0.3820
 4681SOL    HW125676   1.548   4.013  13.245 -0.1631  0.8603  0.4351
 4681SOL    HW225677   1.633   4.080  13.133  2.1950  2.3997  0.0848
 4682SOL     OW25678   4.466   3.004  11.796 -0.3061  0.3882  0.1693
 4682SOL    HW125679   4.487   3.011  11.889  0.3944 -0.4827  0.0841
 4682SOL    HW225680   4.547   2.965  11.764 -1.4850 -1.0625 -1.0709
 4683SOL     OW25681   0.705   1.581   6.225  0.4805  0.5027  0.2780
 4683SOL    HW125682   0.737   1.624   6.146  2.1125  0.8563  1.1282
 4683SOL    HW225683   0.759   1.634   6.284 -0.1098  1.3110  0.0925
 4684SOL     OW25684   0.753   2.465   4.528 -0.0299 -0.4658  0.1050
 4684SOL    HW125685   0.678   2.441   4.474 -1.5555  0.0521  1.9612
 4684SOL    HW225686   0.773   2.553   4.496  2.9205 -1.4738 -0.7790
 4685SOL     OW25687   3.537   1.092   1.970 -0.6170  0.2622  0.4622
 4685SOL    HW125688   3.534   0.998   1.992  1.3656  0.1264  0.1579
 4685SOL    HW225689   3.446   1.105   1.943 -0.6103  0.6702  0.6390
 4686SOL     OW25690   2.073   4.604   3.030  0.4240 -0.0478  0.3878
 4686SOL    HW125691   1.986   4.625   2.996  1.0276  1.3702 -0.2778
 4686SOL    HW225692   2.052   4.529   3.086  1.7623 -0.2552  0.6144
 4687SOL     OW25693   2.231   1.969   1.888  0.4179  0.6263 -0.3129
 4687SOL    HW125694   2.317   2.002   1.862  0.8016 -1.6084 -1.8170
 4687SOL    HW225695   2.255   1.880   1.910 -0.5871  1.0374  2.4104
 4688SOL     OW25696   4.054   4.630   2.541 -0.5993  0.3195 -0.3362
 4688SOL    HW125697   4.058   4.625   2.636  0.6585  1.3543 -0.3426
 4688SOL    HW225698   4.147   4.649   2.534 -0.4366 -0.7885 -1.2223
 4689SOL     OW25699   2.560   1.117   0.722  0.1420 -0.1290 -0.5165
 4689SOL    HW125700   2.507   1.189   0.757  0.6162  0.2877 -0.6709
 4689SOL    HW225701   2.561   1.054   0.795 -1.3558  1.1732  0.6302
 4690SOL     OW25702   2.419   2.935   5.377 -0.2070  0.2348 -0.2633
 4690SOL    HW125703   2.428   2.943   5.472  0.1279  0.3530 -0.3066
 4690SOL    HW225704   2.512   2.947   5.359 -0.3992  0.7457 -0.8753
 4691SOL     OW25705   3.898   4.405   3.710 -0.9681 -0.2356  0.0048
 4691SOL    HW125706   3.829   4.441   3.766 -1.4568  0.7671 -1.2430
 4691SOL    HW225707   3.978   4.448   3.742 -1.5049 -0.1782  1.2468
 4692SOL     OW25708   4.552   3.171   5.780 -0.0926  0.3236 -0.4939
 4692SOL    HW125709   4.642   3.139   5.778  0.0282  0.6335  0.1215
 4692SOL    HW225710   4.529   3.166   5.873  0.3837  1.2741 -0.3344
 4693SOL     OW25711   2.893   2.539   4.066  0.2166 -0.9697  0.0612
 4693SOL    HW125712   2.944   2.468   4.107  0.2424 -1.3401 -0.6196
 4693SOL    HW225713   2.896   2.532   3.971  1.1968 -1.7573  0.1404
 4694SOL     OW25714   1.253   2.150   9.968  0.2336  0.4620 -0.0209
 4694SOL    HW125715   1.201   2.230   9.966 -0.5537 -0.0632 -0.7325
 4694SOL    HW225716   1.214   2.113   9.889 -1.7091  0.8049  0.7868
 4695SOL     OW25717   0.375   4.583   1.785 -0.1927  0.2410  0.0156
 4695SOL    HW125718   0.451   4.625   1.825 -1.7654  0.4413  2.7794
 4695SOL    HW225719   0.406   4.496   1.761  0.0891  0.6929 -1.2596
 4696SOL     OW25720   3.774   0.878   1.635 -0.4304  0.9053 -0.3579
 4696SOL    HW125721   3.791   0.823   1.711  2.7439  1.6292 -0.5301
 4696SOL    HW225722   3.796   0.810   1.571  2.8523 -0.4379  2.2009
 4697SOL     OW25723   1.233   3.518   6.921  0.2843 -0.3534  0.0638
 4697SOL    HW125724   1.169   3.474   6.977 -1.2265  0.4623 -1.0353
 4697SOL    HW225725   1.211   3.481   6.836  0.2312  0.5562 -0.3137
 4698SOL     OW25726   4.535   4.675   7.855  0.4979  0.0464 -0.4197
 4698SOL    HW125727   4.507   4.689   7.945 -0.5828  0.5721 -0.8405
 4698SOL    HW225728   4.458   4.655   7.801 -0.0897  0.2788  0.3263
 4699SOL     OW25729   1.170   0.678  14.763  0.0130  0.1610  0.2428
 4699SOL    HW125730   1.249   0.668  14.709 -0.2350  0.4574 -0.1815
 4699SOL    HW225731   1.175   0.771  14.784 -1.1122  0.9498 -2.9231
 4700SOL     OW25732   3.435   4.551   7.431  0.4504  0.1809 -0.5128
 4700SOL    HW125733   3.396   4.472   7.468  0.6113  0.7857  0.9255
 4700SOL    HW225734   3.514   4.562   7.484  1.1572 -1.4362 -1.2255
 4701SOL     OW25735   2.474   3.622   8.488  0.7158  0.3091 -1.1824
 4701SOL    HW125736   2.402   3.612   8.551  1.7486  2.6710  0.3770
 4701SOL    HW225737   2.525   3.542   8.500  0.9076  0.2481 -2.3821
 4702SOL     OW25738   1.583   0.272   3.815 -0.1886 -0.0193  0.3065
 4702SOL    HW125739   1.633   0.199   3.851  0.3173  0.2151  0.0752
 4702SOL    HW225740   1.531   0.226   3.749  2.6940 -1.4959 -0.9283
 4703SOL     OW25741   1.050   3.560   7.386 -0.1191 -0.0822 -0.3745
 4703SOL    HW125742   1.008   3.527   7.465 -0.7575  0.1513 -0.6168
 4703SOL    HW225743   0.979   3.547   7.324  0.3299  1.6113 -1.2345
 4704SOL     OW25744   2.669   3.519   5.337  0.7534 -0.3733  0.1144
 4704SOL    HW125745   2.683   3.516   5.432 -0.6657  2.5897  0.4121
 4704SOL    HW225746   2.581   3.484   5.331 -0.1291  1.4291  2.8283
 4705SOL     OW25747   3.395   4.173   6.665 -0.1687  0.2559  0.1056
 4705SOL    HW125748   3.345   4.194   6.586 -1.5873  1.9904  1.4549
 4705SOL    HW225749   3.322   4.143   6.720 -0.4632  2.4319  0.9290
 4706SOL     OW25750   4.529   2.915  17.019  0.6497 -0.0691  0.6224
 4706SOL    HW125751   4.448   2.882  17.059 -0.1879  2.5764  1.0952
 4706SOL    HW225752   4.483   2.959  16.948 -1.1045  0.3712  2.0269
 4707SOL     OW25753   0.784   2.077   5.540  0.4978 -0.0346  0.1302
 4707SOL    HW125754   0.799   2.158   5.590 -0.4566  1.3461 -1.8348
 4707SOL    HW225755   0.697   2.048   5.567 -0.4542  2.8039  0.1762
 4708SOL     OW25756   4.519   3.326  14.878 -0.2507  0.1521 -0.3067
 4708SOL    HW125757   4.590   3.379  14.844  0.2272  0.2493  0.8555
 4708SOL    HW225758   4.448   3.358  14.822 -0.9653 -0.1156  0.4435
 4709SOL     OW25759   2.061   1.741   4.851 -0.4103  0.5452  0.0389
 4709SOL    HW125760   2.050   1.800   4.925 -1.1771  0.5818 -0.0987
 4709SOL    HW225761   2.151   1.714   4.868 -0.2855 -0.3363 -1.9714
 4710SOL     OW25762   4.328   0.369   7.868 -0.0886  0.2340  0.0591
 4710SOL    HW125763   4.402   0.427   7.884  0.7961 -0.8568 -0.0897
 4710SOL    HW225764   4.382   0.294   7.844  1.0639  1.1394 -0.2039
 4711SOL     OW25765   4.275   2.872   7.221  0.1617  0.2015  0.6174
 4711SOL    HW125766   4.330   2.873   7.299  2.1989  0.4626 -0.8090
 4711SOL    HW225767   4.347   2.892   7.162 -0.8233  2.5461  0.2061
 4712SOL     OW25768   0.853   3.028   5.928 -0.2767  0.2313 -0.1941
 4712SOL    HW125769   0.854   2.941   5.968  1.4160 -0.7835 -2.4474
 4712SOL    HW225770   0.836   2.993   5.841  1.5410 -2.2775  0.4558
 4713SOL     OW25771   4.279   2.885  11.631 -0.5003 -0.3968  0.2729
 4713SOL    HW125772   4.341   2.921  11.694  0.3692  0.5925 -1.1432
 4713SOL    HW225773   4.250   2.969  11.596  0.4330 -1.8783 -4.0855
 4714SOL     OW25774   1.611   1.616   2.619 -0.4497  0.5849  0.1647
 4714SOL    HW125775   1.679   1.623   2.552 -0.8894  1.8731 -0.1582
 4714SOL    HW225776   1.545   1.672   2.577 -0.2618 -0.2465 -1.2103
 4715SOL     OW25777   1.875   2.083  15.629  0.4021 -0.2654 -0.3446
 4715SOL    HW125778   1.917   2.000  15.652 -0.2018 -0.2293  0.8934
 4715SOL    HW225779   1.941   2.139  15.589 -0.7536  0.6011 -1.0288
 4716SOL     OW25780   0.077   1.941   3.020  0.1198  0.2648 -0.4886
 4716SOL    HW125781   0.093   2.026   3.060  0.9909  0.0000 -0.2719
 4716SOL    HW225782   0.147   1.940   2.955 -0.4455  3.0222 -1.1317
 4717SOL     OW25783   1.724   2.668   4.437  0.0116  0.2399  0.5751
 4717SOL    HW125784   1.796   2.713   4.482  0.0503  1.1339 -0.3751
 4717SOL    HW225785   1.771   2.672   4.354  0.2774  0.2868  0.7253
 4718SOL     OW25786   1.535   4.091  14.494  0.7760 -0.4076 -0.3970
 4718SOL    HW125787   1.459   4.038  14.469  0.1759  0.0765  0.4254
 4718SOL    HW225788   1.535   4.089  14.589  0.6683  0.6818 -0.3773
 4719SOL     OW25789   4.026   4.498  12.225 -0.0247 -0.1327  0.4401
 4719SOL    HW125790   3.970   4.545  12.164  0.9140  0.8083  0.3051
 4719SOL    HW225791   4.034   4.410  12.189 -1.5564 -0.0450 -0.0988
 4720SOL     OW25792   2.847   2.007   2.495 -0.4743  0.0559  0.1061
 4720SOL    HW125793   2.870   1.987   2.586  0.6597 -2.4979 -0.7494
 4720SOL    HW225794   2.838   1.920   2.455 -0.4949  0.3206 -0.4678
 4721SOL     OW25795   0.694   0.012   5.728  0.5056 -0.4207 -0.2671
 4721SOL    HW125796   0.692   0.040   5.637 -0.3052 -0.1964 -0.1799
 4721SOL    HW225797   0.788   0.002   5.745  0.1923 -1.0715  1.1349
 4722SOL     OW25798   2.729   0.316   7.612 -0.0839 -0.6514 -0.0546
 4722SOL    HW125799   2.816   0.353   7.627  0.1597 -0.3401 -2.2799
 4722SOL    HW225800   2.747   0.222   7.622  1.9166 -0.3407 -0.8561
 4723SOL     OW25801   4.713   1.476  15.360  0.0729 -0.4026  0.3738
 4723SOL    HW125802   4.664   1.538  15.414  0.8757  0.8536 -0.3427
 4723SOL    HW225803   4.644   1.468  15.293 -0.9160  0.7767  1.2580
 4724SOL     OW25804   0.574   2.461  11.072 -0.4920  0.5480  0.1638
 4724SOL    HW125805   0.510   2.527  11.046 -0.7022  0.2449 -0.0870
 4724SOL    HW225806   0.605   2.503  11.152 -0.3411 -1.0091  0.9278
 4725SOL     OW25807   1.756   0.006   7.505  0.4200 -0.1811  0.2001
 4725SOL    HW125808   1.755   4.689   7.585  1.4225  0.7261  0.8072
 4725SOL    HW225809   1.754   4.666   7.446 -0.8441  0.6537 -0.8232
 4726SOL     OW25810   0.483   0.010  10.388  0.2063  0.1284  0.0844
 4726SOL    HW125811   0.576   0.032  10.395  0.3930 -0.8848  0.8868
 4726SOL    HW225812   0.476   4.730  10.294  1.0962  0.8656 -0.1048
 4727SOL     OW25813   0.635   2.186   6.989  0.2247 -0.0704 -0.3005
 4727SOL    HW125814   0.697   2.192   7.061 -0.8830  0.7463  0.5733
 4727SOL    HW225815   0.575   2.260   6.994  0.1148 -0.1970  0.2078
 4728SOL     OW25816   3.849   2.371  14.474  0.2949  0.1623  0.2833
 4728SOL    HW125817   3.877   2.308  14.540 -1.3757 -1.5697 -0.6491
 4728SOL    HW225818   3.920   2.432  14.493  0.1715  0.0589  1.0454
 4729SOL     OW25819   4.687   3.987   2.155 -0.2707 -0.3053 -0.8304
 4729SOL    HW125820   4.705   4.078   2.179 -1.2129 -0.7518  1.5950
 4729SOL    HW225821   4.628   3.962   2.227  0.6103 -1.2870 -0.4402
 4730SOL     OW25822   0.418   3.766   6.949 -0.7373  0.2182 -0.0754
 4730SOL    HW125823   0.490   3.757   7.012 -2.2843 -0.3793  1.6100
 4730SOL    HW225824   0.459   3.818   6.880 -1.0570 -0.5892 -0.8751
 4731SOL     OW25825   3.878   0.783   4.186  0.2088 -0.5688  0.1850
 4731SOL    HW125826   3.945   0.720   4.159 -0.0512 -0.8646  0.2237
 4731SOL    HW225827   3.805   0.761   4.127 -1.5393 -2.4677  3.0448
 4732SOL     OW25828   1.564   2.779   1.945  0.1720  0.2755  0.1912
 4732SOL    HW125829   1.487   2.772   2.002 -0.2112 -0.9340 -0.4660
 4732SOL    HW225830   1.557   2.709   1.880 -1.3357  0.1977  0.4200
 4733SOL     OW25831   1.223   3.677  10.734  0.2095  0.4038 -0.2143
 4733SOL    HW125832   1.222   3.726  10.652 -1.2049 -1.0696 -1.0824
 4733SOL    HW225833   1.177   3.735  10.795  0.0912 -1.5841  1.6169
 4734SOL     OW25834   1.986   3.454   6.897 -0.8469  0.5403  0.0795
 4734SOL    HW125835   2.066   3.450   6.949 -0.5074 -0.9407 -0.5653
 4734SOL    HW225836   2.033   3.465   6.815 -0.8784  0.5718  0.0658
 4735SOL     OW25837   1.524   0.439  16.582 -0.4849 -0.5130  0.0758
 4735SOL    HW125838   1.520   0.346  16.557 -1.5774 -0.6644  0.8242
 4735SOL    HW225839   1.432   0.462  16.575  0.1389  1.0861 -2.9152
 4736SOL     OW25840   2.854   1.355  17.263  0.3385  0.1389 -0.3524
 4736SOL    HW125841   2.902   1.307  17.330  1.6388  1.5846 -0.2467
 4736SOL    HW225842   2.792   1.291  17.228 -0.6627  0.1129  1.5336
 4737SOL     OW25843   0.856   1.199   4.958  0.1584 -0.1195 -0.1504
 4737SOL    HW125844   0.911   1.241   4.892 -0.1873 -0.3691 -0.6033
 4737SOL    HW225845   0.876   1.106   4.945  0.1733 -0.1946  0.4134
 4738SOL     OW25846   0.706   3.057  11.408  0.0855 -0.1847 -0.4383
 4738SOL    HW125847   0.792   3.026  11.436  0.2793 -1.5865 -2.6299
 4738SOL    HW225848   0.703   3.046  11.313  3.4038  0.4569 -0.6075
 4739SOL     OW25849   3.462   4.326  16.550 -0.6003  0.1164  0.2448
 4739SOL    HW125850   3.448   4.309  16.643 -0.3910  2.8192  0.7587
 4739SOL    HW225851   3.431   4.417  16.549  0.0793  0.3440 -0.2382
 4740SOL     OW25852   3.979   3.606   3.978  0.3010 -0.1532 -0.3194
 4740SOL    HW125853   3.883   3.610   3.979  0.3186 -0.1897  0.6393
 4740SOL    HW225854   3.989   3.696   3.947  1.4124 -0.3561 -0.5391
 4741SOL     OW25855   1.674   1.572  11.458  0.1585  0.7269  0.5988
 4741SOL    HW125856   1.678   1.490  11.508 -2.0149 -0.3892 -1.0605
 4741SOL    HW225857   1.588   1.561  11.417 -0.0845 -0.2066  1.3604
 4742SOL     OW25858   2.734   2.874   6.760 -0.2602  0.3075  0.4220
 4742SOL    HW125859   2.721   2.779   6.765 -3.5587  0.8052  1.1527
 4742SOL    HW225860   2.651   2.903   6.797 -0.8583  1.6530 -2.0298
 4743SOL     OW25861   2.215   3.898   8.766  0.4032 -0.1990 -0.0126
 4743SOL    HW125862   2.211   3.945   8.849  2.5640 -0.4250  0.2082
 4743SOL    HW225863   2.291   3.937   8.723  0.2551 -0.4302 -0.4854
 4744SOL     OW25864   3.772   0.487   4.450  0.9302  0.6828 -0.2954
 4744SOL    HW125865   3.837   0.549   4.416  2.5377 -0.8032  0.0975
 4744SOL    HW225866   3.819   0.452   4.526  0.9287  1.3829  0.0300
 4745SOL     OW25867   3.275   1.038   5.379 -0.9955  0.8233  0.1411
 4745SOL    HW125868   3.256   1.086   5.459  0.2697  3.1489 -0.9476
 4745SOL    HW225869   3.370   1.051   5.374 -0.6612 -0.5676  3.1341
 4746SOL     OW25870   2.338   2.461   8.622  0.1041 -0.1618  0.1476
 4746SOL    HW125871   2.272   2.400   8.589 -1.0469  2.0123 -1.4926
 4746SOL    HW225872   2.420   2.433   8.582 -0.9768 -1.2041 -1.3514
 4747SOL     OW25873   0.229   4.105   4.477  0.7739 -0.1306  0.5856
 4747SOL    HW125874   0.233   4.122   4.383 -0.8735  0.3377  0.5940
 4747SOL    HW225875   0.271   4.183   4.515 -1.0367  1.0128  0.2390
 4748SOL     OW25876   0.234   1.477  12.261 -0.2376  0.0811  0.0760
 4748SOL    HW125877   0.146   1.455  12.293 -0.6064  3.0296  1.0378
 4748SOL    HW225878   0.293   1.414  12.303 -1.4302 -0.7766  0.4634
 4749SOL     OW25879   2.732   1.653   3.930 -0.2635  0.3802  1.1842
 4749SOL    HW125880   2.668   1.709   3.887 -0.5884  0.1779  1.3994
 4749SOL    HW225881   2.787   1.632   3.855 -0.7122 -0.0352  0.9717
 4750SOL     OW25882   3.951   4.640  10.812  0.4997 -0.1115 -0.6400
 4750SOL    HW125883   3.909   4.715  10.855 -0.7760 -0.8911 -0.5237
 4750SOL    HW225884   4.032   4.678  10.777  0.2256  3.0213  2.1575
 4751SOL     OW25885   3.179   0.448   3.202  0.7894  0.2770 -0.1763
 4751SOL    HW125886   3.271   0.457   3.230  0.1855  0.3787  1.7394
 4751SOL    HW225887   3.168   0.517   3.136  0.5008 -0.8937 -1.3587
 4752SOL     OW25888   1.618   3.426   1.849 -0.2944 -0.0859 -0.7888
 4752SOL    HW125889   1.632   3.351   1.906 -0.6952 -0.5355 -1.2780
 4752SOL    HW225890   1.532   3.455   1.881  0.2770 -1.0211  1.5573
 4753SOL     OW25891   2.979   2.604   2.287 -0.2733  0.3687 -0.2583
 4753SOL    HW125892   2.916   2.552   2.238  2.4016 -1.3706 -1.8346
 4753SOL    HW225893   3.063   2.570   2.256 -0.3946  1.0482 -1.3472
 4754SOL     OW25894   3.028   3.633   9.136 -0.2372  0.9904 -0.0924
 4754SOL    HW125895   2.996   3.706   9.083 -1.2192  1.6583  1.4290
 4754SOL    HW225896   2.970   3.637   9.213 -0.2657 -0.8719 -0.0184
 4755SOL     OW25897   1.698   4.409   4.473  0.3985 -0.5184 -0.3049
 4755SOL    HW125898   1.766   4.447   4.528  1.1539 -2.3140 -0.0226
 4755SOL    HW225899   1.746   4.416   4.390  1.2081  1.8746  0.3606
 4756SOL     OW25900   0.145   3.155   3.554 -0.1149  0.0001  0.0209
 4756SOL    HW125901   0.052   3.144   3.576  0.2272 -0.9701  0.9941
 4756SOL    HW225902   0.145   3.203   3.472  1.2044  1.5677  0.9425
 4757SOL     OW25903   3.938   3.699   7.017  0.2734  0.4527 -0.2181
 4757SOL    HW125904   4.032   3.711   7.013  0.4019 -0.5456 -0.1709
 4757SOL    HW225905   3.917   3.793   7.011  2.0692  0.8654  0.0997
 4758SOL     OW25906   3.962   0.887   4.934 -0.3397 -0.5394 -0.1489
 4758SOL    HW125907   4.026   0.955   4.916 -1.1479  0.4966  0.9201
 4758SOL    HW225908   3.899   0.894   4.862 -0.1456  0.4649 -0.2138
 4759SOL     OW25909   2.866   3.376   7.848 -0.4950  0.2253  0.0051
 4759SOL    HW125910   2.787   3.408   7.890 -1.1668  1.0431 -1.8475
 4759SOL    HW225911   2.937   3.411   7.903 -1.2528  1.5096  0.1742
 4760SOL     OW25912   1.333   3.079   3.221  0.4629 -0.3012  0.5448
 4760SOL    HW125913   1.271   3.144   3.252  2.8644  1.2581  2.1370
 4760SOL    HW225914   1.419   3.122   3.221  0.7616 -0.8698 -1.4638
 4761SOL     OW25915   1.723   3.543   4.140  0.2162 -0.2441 -0.4979
 4761SOL    HW125916   1.736   3.472   4.202 -1.4929  0.5635  0.8179
 4761SOL    HW225917   1.710   3.505   4.053  2.7502 -1.6950 -0.2329
 4762SOL     OW25918   2.021   2.908   8.121  0.0883  0.3246 -0.4562
 4762SOL    HW125919   1.942   2.907   8.175  1.5030 -0.0789  1.6313
 4762SOL    HW225920   2.049   2.999   8.128 -1.0839  0.6247  0.3501
 4763SOL     OW25921   1.142   3.079   9.672 -0.1820  0.2126 -0.3439
 4763SOL    HW125922   1.190   3.161   9.681 -1.0109  0.5495  0.9275
 4763SOL    HW225923   1.170   3.033   9.751  1.0141  0.6599 -0.5045
 4764SOL     OW25924   1.721   2.889   2.975  0.4905  0.3055  0.2217
 4764SOL    HW125925   1.726   2.980   3.004 -1.5696  0.5436 -0.1598
 4764SOL    HW225926   1.626   2.881   2.968  0.3590  1.2036  1.1157
 4765SOL     OW25927   0.548   0.129   6.771 -0.3260 -0.2605  0.7434
 4765SOL    HW125928   0.565   0.037   6.755  0.3754 -0.0232  0.1036
 4765SOL    HW225929   0.494   0.154   6.695 -1.1199  1.5981  1.9127
 4766SOL     OW25930   1.957   2.254   0.871  0.1822  0.0944  0.3747
 4766SOL    HW125931   2.049   2.243   0.895  0.1273 -3.8844 -1.2755
 4766SOL    HW225932   1.931   2.311   0.943 -3.4063 -2.0628  0.7790
 4767SOL     OW25933   0.958   0.218   8.840  0.0285 -0.4264 -0.0163
 4767SOL    HW125934   1.015   0.194   8.767 -0.1644 -2.8953  0.6387
 4767SOL    HW225935   0.886   0.156   8.828 -0.9464 -0.0654  3.7331
 4768SOL     OW25936   0.281   4.076   7.801  0.2329 -0.5471  0.4691
 4768SOL    HW125937   0.294   4.128   7.880  1.2301  2.1587 -1.4766
 4768SOL    HW225938   0.208   4.022   7.831  0.8950 -0.3681  2.3659
 4769SOL     OW25939   4.651   1.520  10.883  0.8894  0.4552  0.6435
 4769SOL    HW125940   0.001   1.549  10.853  1.5272 -0.7935  1.2254
 4769SOL    HW225941   4.644   1.439  10.833  0.4462  1.1926 -0.4605
 4770SOL     OW25942   3.361   4.260   7.506  0.1405  0.1479 -0.4009
 4770SOL    HW125943   3.369   4.246   7.601 -1.9360  1.7352  0.0072
 4770SOL    HW225944   3.455   4.252   7.487 -0.0146  0.3276 -1.2392
 4771SOL     OW25945   1.021   3.079   2.980  0.5863 -0.2311  0.0581
 4771SOL    HW125946   1.032   3.162   3.027 -2.3523 -0.2642  0.8133
 4771SOL    HW225947   0.930   3.064   3.004  1.9334 -1.6752  4.2887
 4772SOL     OW25948   4.630   3.028  14.654  0.2270 -0.1691 -0.4183
 4772SOL    HW125949   4.649   3.116  14.621 -0.6990  0.5419  0.9431
 4772SOL    HW225950   4.585   2.996  14.576 -1.3544 -0.6100  0.6743
 4773SOL     OW25951   4.091   0.577   7.034 -0.0323  0.0769  0.2039
 4773SOL    HW125952   4.184   0.558   7.030  0.0842  0.7610 -0.3174
 4773SOL    HW225953   4.072   0.630   6.957 -0.8268  1.1067  1.1144
 4774SOL     OW25954   2.678   1.488  13.462 -0.3234 -0.2064 -0.1984
 4774SOL    HW125955   2.773   1.485  13.475 -0.1190 -0.3067 -1.8285
 4774SOL    HW225956   2.678   1.578  13.428 -0.7205 -0.1054  0.0699
 4775SOL     OW25957   4.548   0.327   4.938  0.3843  0.1073 -0.0385
 4775SOL    HW125958   4.466   0.356   4.897  0.4585 -1.6445 -1.4852
 4775SOL    HW225959   4.501   0.261   4.989  2.1098 -2.3951 -1.7005
 4776SOL     OW25960   2.441   2.624  13.023  0.5940  0.0658 -0.5958
 4776SOL    HW125961   2.350   2.632  12.994 -0.3623 -1.7433  1.8542
 4776SOL    HW225962   2.430   2.580  13.107 -0.8394 -0.1715 -0.9052
 4777SOL     OW25963   0.521   3.056   4.803  0.1854 -0.1747  0.1453
 4777SOL    HW125964   0.550   2.989   4.864 -1.1289 -1.1958 -0.3381
 4777SOL    HW225965   0.459   3.006   4.750  0.5249 -0.1221 -0.2951
 4778SOL     OW25966   3.932   3.002   5.920  0.0321 -0.2090  0.2576
 4778SOL    HW125967   3.903   3.091   5.899  0.2959  0.4034  2.4456
 4778SOL    HW225968   3.904   2.984   6.010  0.5382  1.8829  0.8462
 4779SOL     OW25969   4.037   0.724   6.813 -0.1803 -0.1226 -0.6706
 4779SOL    HW125970   3.946   0.732   6.783 -0.6152 -1.2936  0.3746
 4779SOL    HW225971   4.076   0.809   6.794 -0.0031 -0.0473  0.0625
 4780SOL     OW25972   0.505   2.980   7.673  0.2637  0.1029  0.1029
 4780SOL    HW125973   0.532   2.928   7.748 -0.9968  1.9770  1.8761
 4780SOL    HW225974   0.578   2.974   7.612  1.1090  2.5548  0.8748
 4781SOL     OW25975   3.312   4.354  16.280  0.1694 -0.6685 -0.2619
 4781SOL    HW125976   3.403   4.351  16.251  0.5483  1.4834  0.7130
 4781SOL    HW225977   3.320   4.344  16.375 -0.5342 -0.9139 -0.2326
 4782SOL     OW25978   1.079   1.495   1.162 -0.1987 -0.5335 -0.3902
 4782SOL    HW125979   1.031   1.535   1.234  1.0414  0.4930 -0.1266
 4782SOL    HW225980   1.043   1.542   1.087  0.3278 -0.4596 -0.5995
 4783SOL     OW25981   3.933   4.223  14.013 -0.4693 -0.3054 -0.3622
 4783SOL    HW125982   3.960   4.141  13.972  0.0297 -1.0446  1.4483
 4783SOL    HW225983   3.937   4.201  14.106  0.0505 -0.5537 -0.4435
 4784SOL     OW25984   0.314   0.716  12.645 -0.0845 -0.0574 -0.1742
 4784SOL    HW125985   0.318   0.772  12.567 -0.8857 -2.1591 -1.7187
 4784SOL    HW225986   0.407   0.694  12.652 -0.6171 -1.5787  2.0387
 4785SOL     OW25987   2.287   3.277  15.608  0.4033  0.3762 -0.3774
 4785SOL    HW125988   2.342   3.255  15.533 -1.3932 -1.5227 -1.1196
 4785SOL    HW225989   2.303   3.370  15.624  2.8592 -0.0950 -0.0577
 4786SOL     OW25990   0.449   1.431   4.971 -0.4845 -0.2534 -0.1480
 4786SOL    HW125991   0.398   1.358   5.005  0.9910 -1.4351 -0.4628
 4786SOL    HW225992   0.538   1.404   4.995  0.0959  1.7377 -0.0390
 4787SOL     OW25993   1.210   1.977   3.136 -0.2775 -0.3663 -0.2916
 4787SOL    HW125994   1.294   1.990   3.093  0.6602 -0.0281  1.6649
 4787SOL    HW225995   1.186   1.890   3.105  0.5820 -0.6806 -0.0486
 4788SOL     OW25996   3.776   1.439   4.197  0.5419 -0.0254 -0.1851
 4788SOL    HW125997   3.734   1.355   4.185 -0.1905  0.1041  1.4111
 4788SOL    HW225998   3.849   1.421   4.257 -1.2648 -0.9143  1.7398
 4789SOL     OW25999   1.939   0.640  15.460  0.6339  0.4255  0.3117
 4789SOL    HW126000   1.898   0.597  15.385  0.9627 -0.4386  0.6158
 4789SOL    HW226001   1.978   0.562  15.500 -0.1167  0.3148  0.8199
 4790SOL     OW26002   3.512   4.022   1.089 -0.3168 -0.0963  0.6995
 4790SOL    HW126003   3.514   4.065   1.174  1.2422 -1.5251  1.3926
 4790SOL    HW226004   3.445   4.073   1.043  1.4419  2.2471  0.7166
 4791SOL     OW26005   2.825   3.506   6.086 -0.1107 -0.0424 -0.3745
 4791SOL    HW126006   2.839   3.482   6.178  1.9797 -2.8099 -1.4177
 4791SOL    HW226007   2.842   3.600   6.080 -2.0554  0.4969  2.2553
 4792SOL     OW26008   3.938   2.222  14.225 -0.4004 -0.2264  0.0285
 4792SOL    HW126009   3.904   2.265  14.303 -0.2492  0.0305 -0.0486
 4792SOL    HW226010   4.024   2.262  14.217 -0.7801  0.5439 -0.1816
 4793SOL     OW26011   4.199   3.193   2.363  0.0740  0.0617  0.1093
 4793SOL    HW126012   4.124   3.249   2.345 -0.8360 -0.9047  0.8753
 4793SOL    HW226013   4.180   3.188   2.457  1.6161  3.4098  0.6238
 4794SOL     OW26014   2.556   3.405  10.916 -0.4060  0.2774  0.0025
 4794SOL    HW126015   2.474   3.354  10.918  0.9315 -1.9015 -0.7656
 4794SOL    HW226016   2.557   3.425  11.009 -1.9928  1.4794 -0.2389
 4795SOL     OW26017   3.739   0.238   5.159 -0.2498 -0.4158 -0.3585
 4795SOL    HW126018   3.694   0.318   5.186 -2.9488 -1.2284 -2.4481
 4795SOL    HW226019   3.680   0.214   5.087 -0.9308  1.8826 -0.5646
 4796SOL     OW26020   3.774   0.793   3.743  0.0666  0.4801 -0.1057
 4796SOL    HW126021   3.862   0.778   3.708 -0.6895 -1.6540 -1.0484
 4796SOL    HW226022   3.735   0.852   3.678  0.0905  2.2156  1.4408
 4797SOL     OW26023   3.097   2.362   3.807 -0.0001 -0.1355 -0.1888
 4797SOL    HW126024   3.087   2.446   3.852  1.9517 -0.9600  1.7547
 4797SOL    HW226025   3.012   2.363   3.762  1.1442 -1.6551 -2.3561
 4798SOL     OW26026   3.866   2.888   2.349  0.2350 -0.7536  0.5613
 4798SOL    HW126027   3.806   2.961   2.365 -1.2665 -1.8506 -0.0267
 4798SOL    HW226028   3.846   2.845   2.267  0.8892  0.6539 -0.3305
 4799SOL     OW26029   1.677   1.922   5.530  0.1178 -0.3493  0.4647
 4799SOL    HW126030   1.628   1.927   5.612 -0.3650  0.0726  0.1473
 4799SOL    HW226031   1.724   1.840   5.547  1.2760 -0.0839 -1.4900
 4800SOL     OW26032   2.365   2.827  11.724 -0.5842  0.4405 -0.3646
 4800SOL    HW126033   2.426   2.869  11.663 -0.1996 -0.7806 -0.8260
 4800SOL    HW226034   2.417   2.754  11.756  0.0523  0.1499 -2.0700
 4801SOL     OW26035   1.858   3.318   2.731 -0.9127  0.1337 -0.1905
 4801SOL    HW126036   1.890   3.232   2.704  2.2983  1.1549  0.3844
 4801SOL    HW226037   1.878   3.366   2.651  4.8480 -3.4537 -0.8485
 4802SOL     OW26038   2.109   2.532   9.667 -0.1253  0.2495  0.2369
 4802SOL    HW126039   2.165   2.545   9.590 -1.4874 -1.6932 -1.0960
 4802SOL    HW226040   2.145   2.599   9.725  0.2192  1.8819 -1.8534
 4803SOL     OW26041   2.461   4.437   9.261 -0.0208 -0.5635  0.5373
 4803SOL    HW126042   2.534   4.481   9.218 -0.4895 -2.4357 -2.1804
 4803SOL    HW226043   2.395   4.428   9.192  0.9186 -0.2033 -0.4087
 4804SOL     OW26044   4.177   3.864  11.830 -0.3140 -0.5540  0.1388
 4804SOL    HW126045   4.122   3.820  11.896  1.6008 -1.7272  0.9445
 4804SOL    HW226046   4.118   3.873  11.755  1.1703  0.8145 -0.8475
 4805SOL     OW26047   1.779   3.871   2.480  0.4504  0.2515  0.3265
 4805SOL    HW126048   1.706   3.851   2.537  0.7771 -2.1040 -0.0824
 4805SOL    HW226049   1.835   3.795   2.463  2.1063  1.2311  1.3372
 4806SOL     OW26050   4.654   3.136   0.880  0.2987  0.2651  0.2550
 4806SOL    HW126051   4.604   3.106   0.955 -0.0804  2.4653  0.8837
 4806SOL    HW226052   4.723   3.071   0.886  1.7020  1.6781 -0.3762
 4807SOL     OW26053   0.576   1.556   3.012  0.6534 -0.5300 -0.4365
 4807SOL    HW126054   0.646   1.541   3.075  0.2523 -0.6068 -0.0047
 4807SOL    HW226055   0.581   1.652   3.013 -2.1397 -0.3607 -1.0106
 4808SOL     OW26056   2.076   3.164  13.900  0.2167  0.2662 -0.1430
 4808SOL    HW126057   2.079   3.139  13.993 -2.6324 -0.1091 -0.1521
 4808SOL    HW226058   2.000   3.121  13.861  0.5379 -0.3507 -0.0907
 4809SOL     OW26059   2.998   1.845   8.357  0.3250 -0.0329  0.0985
 4809SOL    HW126060   2.918   1.894   8.374  0.0256 -0.1817 -0.8478
 4809SOL    HW226061   2.969   1.805   8.274 -1.1612 -0.2214  0.7030
 4810SOL     OW26062   2.215   1.035   0.510 -0.3279  0.6401  0.8030
 4810SOL    HW126063   2.224   0.962   0.571 -0.3055 -0.8023 -0.9061
 4810SOL    HW226064   2.261   1.105   0.555  1.1418 -0.7601  1.4749
 4811SOL     OW26065   2.297   1.486  16.296  0.4650 -0.1085  0.1643
 4811SOL    HW126066   2.364   1.418  16.291  0.7290  0.3393 -2.2561
 4811SOL    HW226067   2.257   1.444  16.372  2.1768 -2.2123 -0.0999
 4812SOL     OW26068   3.947   0.614   9.117 -0.1484  0.1212 -0.4721
 4812SOL    HW126069   3.896   0.692   9.096 -0.7043  0.0876  0.7348
 4812SOL    HW226070   4.034   0.650   9.136  0.4588 -1.7088  0.2342
 4813SOL     OW26071   3.286   1.811  10.736 -0.0598 -0.4566 -0.1178
 4813SOL    HW126072   3.251   1.722  10.744  3.1001 -1.3995  3.6533
 4813SOL    HW226073   3.379   1.790  10.748  0.3948  0.6044 -1.7950
 4814SOL     OW26074   2.504   0.100   8.471 -0.1381  0.4747  0.3958
 4814SOL    HW126075   2.529   0.192   8.478 -1.8016  0.9237  0.4789
 4814SOL    HW226076   2.531   0.071   8.383  2.2040  1.0024  0.9419
 4815SOL     OW26077   0.083   2.464   5.602 -0.5267  0.0445 -0.8134
 4815SOL    HW126078   0.075   2.527   5.674  0.4580 -0.8618  0.0856
 4815SOL    HW226079   0.139   2.404   5.651 -1.9323 -1.7409 -1.3991
 4816SOL     OW26080   0.418   4.405  16.851 -0.3791  0.0929  0.2963
 4816SOL    HW126081   0.447   4.322  16.813  1.6752  1.8782 -2.0768
 4816SOL    HW226082   0.422   4.396  16.946  2.7725 -0.5479  0.0848
 4817SOL     OW26083   4.098   2.292  17.590  0.4398  0.4631 -0.7963
 4817SOL    HW126084   4.051   2.258  17.667  0.8694 -1.8639 -1.5624
 4817SOL    HW226085   4.166   2.226  17.577  0.4955  0.2353  0.6349
 4818SOL     OW26086   1.382   1.242   9.070  0.0010  1.0687 -0.2358
 4818SOL    HW126087   1.322   1.174   9.102 -0.9017  1.4238 -1.1697
 4818SOL    HW226088   1.367   1.318   9.127 -4.0077 -0.4667  0.7807
 4819SOL     OW26089   4.355   0.973   2.724 -0.0749 -0.3366 -0.0521
 4819SOL    HW126090   4.276   0.920   2.733 -0.7483  0.5215 -0.9951
 4819SOL    HW226091   4.360   0.984   2.629  0.9332 -0.7075 -0.0435
 4820SOL     OW26092   3.125   3.699   2.539 -0.4939 -0.3637  0.1351
 4820SOL    HW126093   3.097   3.790   2.549  1.8371  0.2172  1.1771
 4820SOL    HW226094   3.181   3.693   2.616 -1.0774  1.6747  0.7189
 4821SOL     OW26095   3.605   3.690   8.199  0.5466 -0.1528 -0.0878
 4821SOL    HW126096   3.606   3.601   8.234 -0.2370 -1.4850 -3.5236
 4821SOL    HW226097   3.672   3.722   8.259  0.0203  2.3452 -0.8328
 4822SOL     OW26098   4.011   2.231   3.533 -0.2846  0.9001  0.3230
 4822SOL    HW126099   3.986   2.317   3.567 -0.6419  0.5407  0.9700
 4822SOL    HW226100   3.975   2.176   3.602 -2.1453  0.3988 -1.0315
 4823SOL     OW26101   0.519   1.860   5.355  0.0066 -0.6006  0.5192
 4823SOL    HW126102   0.519   1.873   5.450 -0.8262 -0.0632  0.4420
 4823SOL    HW226103   0.520   1.764   5.345 -1.4476 -0.5119 -0.4784
 4824SOL     OW26104   1.802   3.583   1.967  0.6700  0.2549 -0.3572
 4824SOL    HW126105   1.734   3.564   1.902 -1.2344  0.6370  1.5602
 4824SOL    HW226106   1.765   3.666   1.994 -3.5073 -1.7533  0.0264
 4825SOL     OW26107   4.102   2.356   8.131 -0.0145  0.1602 -0.6894
 4825SOL    HW126108   4.027   2.298   8.147  0.6637 -0.9438 -1.5217
 4825SOL    HW226109   4.164   2.299   8.086  2.0829  1.7423  0.1570
 4826SOL     OW26110   0.323   0.838   8.847 -0.1378  0.5940  0.4923
 4826SOL    HW126111   0.331   0.838   8.752 -1.4440 -0.2405  0.3811
 4826SOL    HW226112   0.276   0.921   8.858 -1.1126  0.4795 -2.8335
 4827SOL     OW26113   1.570   4.462  12.677  0.5328 -0.1100 -0.5000
 4827SOL    HW126114   1.499   4.406  12.645 -0.4906  0.4379  0.7932
 4827SOL    HW226115   1.513   4.539  12.685  0.2206 -0.4623  0.6579
 4828SOL     OW26116   3.222   3.878  10.107  0.2137 -0.0340 -0.2993
 4828SOL    HW126117   3.292   3.934  10.074  2.1639 -1.6694  1.0749
 4828SOL    HW226118   3.269   3.796  10.097  0.3119 -0.1183  0.9123
 4829SOL     OW26119   3.840   1.563  15.770  0.2333 -0.7811  0.2210
 4829SOL    HW126120   3.764   1.600  15.724 -0.7020 -0.7636  1.8022
 4829SOL    HW226121   3.856   1.484  15.718  1.0723  0.1950 -1.0166
 4830SOL     OW26122   1.554   3.709   2.089  0.0368  0.3590  0.2625
 4830SOL    HW126123   1.517   3.634   2.043 -0.5636  1.0789 -0.4117
 4830SOL    HW226124   1.495   3.784   2.079  0.5910  0.6592 -0.7250
 4831SOL     OW26125   4.559   1.699   7.960 -0.6528 -0.2882  0.3806
 4831SOL    HW126126   4.538   1.659   7.875  0.4556 -0.5866  0.2478
 4831SOL    HW226127   4.544   1.791   7.940  0.4378 -0.1055  0.4016
 4832SOL     OW26128   3.977   3.632   6.145 -0.6069  0.3004 -0.3690
 4832SOL    HW126129   3.978   3.680   6.228 -2.7368 -0.7509  0.2822
 4832SOL    HW226130   4.067   3.634   6.114 -1.0034  0.6272 -1.5161
 4833SOL     OW26131   3.949   0.375   8.970  0.2258 -0.0198  0.3575
 4833SOL    HW126132   3.950   0.436   9.043  1.1508  0.0493  0.2783
 4833SOL    HW226133   4.002   0.421   8.905 -1.3546 -0.9369 -1.5871
 4834SOL     OW26134   2.484   3.807  10.676  0.2695 -0.7085  0.0039
 4834SOL    HW126135   2.405   3.763  10.709 -0.6031  1.2385  0.4819
 4834SOL    HW226136   2.496   3.873  10.744  1.1704  0.4219 -1.2345
 4835SOL     OW26137   1.537   4.542   5.354 -0.0391 -0.5795 -0.4433
 4835SOL    HW126138   1.522   4.548   5.259 -0.9368 -3.6565 -0.4881
 4835SOL    HW226139   1.632   4.537   5.341  0.0720 -1.5826  0.7148
 4836SOL     OW26140   1.867   3.803  16.844  0.3948 -0.2675 -0.0133
 4836SOL    HW126141   1.842   3.853  16.766 -1.0662 -1.3511 -0.2470
 4836SOL    HW226142   1.822   3.839  16.920  0.5508 -0.3267  0.1094
 4837SOL     OW26143   1.455   1.877   3.931  0.3502  0.7194  0.3164
 4837SOL    HW126144   1.519   1.878   4.002  1.8571 -0.8320 -1.0246
 4837SOL    HW226145   1.464   1.790   3.892 -0.4173  1.2670 -1.0735
 4838SOL     OW26146   0.956   3.041   1.894 -0.4111 -0.4559 -0.3176
 4838SOL    HW126147   0.943   2.961   1.843 -2.0901  0.9694 -2.1228
 4838SOL    HW226148   1.048   3.033   1.919 -0.8364 -0.4066  1.2849
 4839SOL     OW26149   3.549   1.266   1.748 -0.0368 -0.3794 -0.4542
 4839SOL    HW126150   3.540   1.218   1.831  0.1624 -0.3878 -0.4384
 4839SOL    HW226151   3.622   1.220   1.706  0.2105 -1.0342  0.6791
 4840SOL     OW26152   1.738   3.214   7.215 -0.1254  0.1260  0.5544
 4840SOL    HW126153   1.728   3.301   7.254 -0.2964  0.5203 -0.3759
 4840SOL    HW226154   1.767   3.238   7.127  0.4727  1.3878  1.0970
 4841SOL     OW26155   2.579   2.752  17.406  0.2441  0.6649  0.0994
 4841SOL    HW126156   2.539   2.773  17.490  1.9225  1.8519  0.5914
 4841SOL    HW226157   2.508   2.783  17.350 -0.3235 -1.3571 -0.2966
 4842SOL     OW26158   2.931   4.236  14.761  0.5223  0.1349  0.0538
 4842SOL    HW126159   3.022   4.211  14.743  0.6709  1.2841 -0.7790
 4842SOL    HW226160   2.927   4.226  14.856  1.9689  1.3219  0.2348
 4843SOL     OW26161   0.851   4.493   6.263 -0.5719  0.1863  0.0257
 4843SOL    HW126162   0.868   4.572   6.211  0.3034  0.8754  1.3346
 4843SOL    HW226163   0.929   4.441   6.244 -0.4841  0.1479  0.4855
 4844SOL     OW26164   3.166   2.687   4.788  0.0642 -0.1515 -0.0991
 4844SOL    HW126165   3.140   2.764   4.736  1.2136  1.3586  1.5659
 4844SOL    HW226166   3.234   2.645   4.736 -1.1949 -0.3178 -1.6188
 4845SOL     OW26167   4.676   1.420  11.154 -0.3435 -0.3074 -0.2462
 4845SOL    HW126168   4.648   1.430  11.063  1.4176 -1.8496 -0.9291
 4845SOL    HW226169   4.729   1.342  11.143  0.5963  0.5342 -1.6795
 4846SOL     OW26170   0.172   4.451  16.705 -0.4609  0.0025 -0.5036
 4846SOL    HW126171   0.192   4.523  16.645 -0.7158  2.9062  2.8664
 4846SOL    HW226172   0.257   4.450  16.749 -0.2876 -0.7145 -0.8629
 4847SOL     OW26173   2.957   1.675   8.116  0.5039  0.8697 -0.1838
 4847SOL    HW126174   2.988   1.729   8.044 -0.2520 -1.5697 -2.3590
 4847SOL    HW226175   2.910   1.606   8.068  0.8625 -0.2055  0.9912
 4848SOL     OW26176   1.052   1.961   4.810  0.1501  0.1318 -0.5431
 4848SOL    HW126177   1.144   1.936   4.826 -0.6730 -1.1881  2.1357
 4848SOL    HW226178   1.021   1.940   4.898  1.2729  0.0389 -0.1710
 4849SOL     OW26179   3.911   1.270   6.178 -0.0041  0.0344  0.6651
 4849SOL    HW126180   3.859   1.308   6.107 -2.0873 -0.8967  1.6876
 4849SOL    HW226181   3.847   1.213   6.221  1.3449 -0.3294  2.1860
 4850SOL     OW26182   2.992   2.151  10.506  0.4997 -0.1057  0.0638
 4850SOL    HW126183   2.940   2.142  10.586 -0.1175  0.7715 -0.2522
 4850SOL    HW226184   3.075   2.107  10.524  0.0582 -1.1013 -0.3357
 4851SOL     OW26185   2.151   2.361  11.596 -0.7814  0.0532 -0.6747
 4851SOL    HW126186   2.137   2.345  11.690 -0.1393  2.1818 -0.2280
 4851SOL    HW226187   2.079   2.415  11.564 -2.6841 -1.5041  0.9919
 4852SOL     OW26188   2.008   0.888   7.090 -0.3988  0.4499 -0.3713
 4852SOL    HW126189   1.932   0.925   7.046 -1.5710 -2.4187 -0.7538
 4852SOL    HW226190   2.056   0.970   7.104  1.0219 -0.1908 -1.5131
 4853SOL     OW26191   0.214   1.509  14.694 -0.2687  0.5209  0.1392
 4853SOL    HW126192   0.187   1.516  14.786  0.9711  1.4522  0.4400
 4853SOL    HW226193   0.198   1.417  14.675  0.0592  0.4853  0.0302
 4854SOL     OW26194   0.079   3.921   7.876  0.4583 -0.0966  0.2561
 4854SOL    HW126195   0.144   3.851   7.874  0.6022  0.0699 -0.6892
 4854SOL    HW226196   4.735   3.882   7.839 -0.0800 -0.6515  1.9920
 4855SOL     OW26197   1.327   3.589  14.436 -0.1720 -0.4062  0.6507
 4855SOL    HW126198   1.280   3.619  14.358  1.6696  0.6271 -0.0733
 4855SOL    HW226199   1.341   3.668  14.487 -0.7568  1.8707 -2.7428
 4856SOL     OW26200   0.487   1.061   9.753 -0.8800  0.1285 -0.3988
 4856SOL    HW126201   0.431   0.992   9.718  1.5680 -2.2188  0.2555
 4856SOL    HW226202   0.464   1.067   9.845  1.9525  0.9454  0.2595
 4857SOL     OW26203   3.244   0.451   9.141  0.4489  0.2791  0.3820
 4857SOL    HW126204   3.218   0.473   9.051  1.6255  1.6713  0.3970
 4857SOL    HW226205   3.310   0.517   9.161  0.3118  0.2153  1.0340
 4858SOL     OW26206   1.937   3.344   5.617 -0.3460  0.1463 -0.5068
 4858SOL    HW126207   1.954   3.362   5.525 -2.9099 -1.1996 -1.2521
 4858SOL    HW226208   1.919   3.430   5.654  1.2664  1.0261 -1.7814
 4859SOL     OW26209   0.052   4.197  12.621 -0.3890  0.1057  0.2664
 4859SOL    HW126210   4.710   4.253  12.619 -0.7788 -0.3293  2.5724
 4859SOL    HW226211   0.075   4.181  12.530 -1.9654  0.5211 -0.2151
 4860SOL     OW26212   0.619   1.964  10.593 -0.0285 -0.2981  0.1440
 4860SOL    HW126213   0.584   1.952  10.504  0.8421 -0.5410 -0.1662
 4860SOL    HW226214   0.614   2.060  10.597 -1.2326 -0.3815  0.7060
 4861SOL     OW26215   3.249   0.382   8.315  0.3884 -0.0152  0.1745
 4861SOL    HW126216   3.303   0.439   8.371  1.6661  0.2923 -1.3527
 4861SOL    HW226217   3.174   0.370   8.373  0.9199 -0.5734  0.7486
 4862SOL     OW26218   0.023   0.012  11.959 -0.3350  0.1945 -0.3776
 4862SOL    HW126219   4.688   0.007  12.024 -1.8714  1.8024 -1.8925
 4862SOL    HW226220   0.106   0.018  12.005 -0.5159  1.2035 -0.1772
 4863SOL     OW26221   2.466   4.392   8.374  0.1319  0.5106 -1.0699
 4863SOL    HW126222   2.468   4.343   8.292  0.5516  1.9107 -1.8963
 4863SOL    HW226223   2.548   4.373   8.419 -0.9476 -1.0285  0.2601
 4864SOL     OW26224   1.956   3.511  11.657 -0.1831  0.0022 -0.3965
 4864SOL    HW126225   1.932   3.587  11.603 -1.3257 -2.2441 -2.9923
 4864SOL    HW226226   1.893   3.518  11.729  1.8710 -0.4318  1.4251
 4865SOL     OW26227   4.077   2.711   2.168 -0.1698  0.2577  0.0237
 4865SOL    HW126228   4.002   2.754   2.127  0.9954  0.0168 -2.3412
 4865SOL    HW226229   4.136   2.786   2.171  0.4674 -0.3784  4.2307
 4866SOL     OW26230   0.901   3.263   4.369 -0.0999 -0.3910  0.2144
 4866SOL    HW126231   0.986   3.271   4.413 -1.3297  0.7889  2.4205
 4866SOL    HW226232   0.888   3.356   4.348  0.5950 -0.0946  1.0891
 4867SOL     OW26233   0.267   0.329   0.477  0.2368 -0.0720 -0.2750
 4867SOL    HW126234   0.258   0.269   0.404 -1.7336  0.2723 -0.3168
 4867SOL    HW226235   0.306   0.275   0.546  0.6622 -0.6072 -0.9328
 4868SOL     OW26236   2.147   0.814  15.394 -0.5559  0.3189  0.4149
 4868SOL    HW126237   2.135   0.793  15.301 -2.0562  3.0074 -0.0144
 4868SOL    HW226238   2.079   0.752  15.422 -2.5776  2.1218 -0.4994
 4869SOL     OW26239   1.384   1.209   7.802  0.0738 -0.6393 -0.4713
 4869SOL    HW126240   1.464   1.198   7.854  0.9085  1.9887 -1.2021
 4869SOL    HW226241   1.350   1.120   7.799  0.6707 -0.8436 -1.2796
 4870SOL     OW26242   3.981   0.353   1.986 -0.5680  0.0145  0.0851
 4870SOL    HW126243   3.926   0.362   1.908  0.7332  1.9757 -0.6276
 4870SOL    HW226244   3.923   0.331   2.059 -0.7548  3.7049  1.0706
 4871SOL     OW26245   2.992   4.378   5.655 -0.1664  0.1491 -0.1322
 4871SOL    HW126246   3.067   4.318   5.661  0.9458  1.5494 -0.2054
 4871SOL    HW226247   2.974   4.389   5.562  0.1983 -0.7082 -0.3116
 4872SOL     OW26248   3.472   1.713  17.570 -0.0154  0.2391 -0.8982
 4872SOL    HW126249   3.535   1.687  17.502  1.5499  0.1004  0.6129
 4872SOL    HW226250   3.395   1.727  17.515  0.0853 -1.9998 -1.6365
 4873SOL     OW26251   3.586   0.365   1.665 -0.1436 -0.1004 -0.3037
 4873SOL    HW126252   3.522   0.299   1.691 -1.4164  0.9803 -0.6902
 4873SOL    HW226253   3.555   0.386   1.577 -0.6932 -0.6025 -0.2317
 4874SOL     OW26254   2.388   0.710   0.197 -0.4818 -0.0046  0.1241
 4874SOL    HW126255   2.376   0.803   0.176 -0.4574  0.1159  0.6547
 4874SOL    HW226256   2.335   0.674   0.126 -3.1392  3.4405  0.3894
 4875SOL     OW26257   2.403   3.449  13.208 -0.4330 -0.1849  0.2442
 4875SOL    HW126258   2.380   3.356  13.221  0.3921 -0.4419 -0.1682
 4875SOL    HW226259   2.496   3.435  13.227 -0.6326 -0.7666  0.7945
 4876SOL     OW26260   2.103   3.043   7.455 -0.6964 -0.3957  0.3151
 4876SOL    HW126261   2.021   3.054   7.406  0.3144  0.5718 -1.1752
 4876SOL    HW226262   2.074   2.993   7.531 -1.8041 -0.3452 -0.0670
 4877SOL     OW26263   0.558   4.427  15.904 -0.2625 -0.2956  0.2531
 4877SOL    HW126264   0.603   4.476  15.973  1.2065 -1.3296  0.0274
 4877SOL    HW226265   0.625   4.394  15.844  0.4962 -1.2295  1.5979
 4878SOL     OW26266   1.862   1.182   4.511 -0.3850  0.0253  0.1231
 4878SOL    HW126267   1.886   1.273   4.492 -0.8959  0.0345 -0.5079
 4878SOL    HW226268   1.847   1.191   4.605 -0.3020  0.5556  0.0857
 4879SOL     OW26269   0.667   3.946   2.377  0.1694 -0.3385 -0.9181
 4879SOL    HW126270   0.592   3.994   2.340 -0.7190  0.7615  2.3342
 4879SOL    HW226271   0.696   3.904   2.296  0.8710 -1.9435  0.1641
 4880SOL     OW26272   4.454   2.006   5.831  0.3592 -0.1385 -0.2164
 4880SOL    HW126273   4.394   2.078   5.817  3.3533  2.7722  1.9710
 4880SOL    HW226274   4.393   1.933   5.822 -0.5435  0.5764  0.1444
 4881SOL     OW26275   2.175   4.551   2.448  0.1993  0.4563 -0.4440
 4881SOL    HW126276   2.223   4.546   2.365  1.7096  1.5255  0.3673
 4881SOL    HW226277   2.103   4.614   2.438  0.9857  1.7375  1.9376
 4882SOL     OW26278   4.410   3.547   1.464  0.1604 -0.4111 -0.4093
 4882SOL    HW126279   4.461   3.484   1.414  2.2229  1.0557 -0.1521
 4882SOL    HW226280   4.324   3.550   1.421 -0.9388  0.0553  1.7874
 4883SOL     OW26281   4.298   0.106   8.436 -0.3196 -0.2551 -0.1853
 4883SOL    HW126282   4.307   0.182   8.379  1.8077 -0.1986  0.2253
 4883SOL    HW226283   4.202   0.101   8.433 -0.3392  0.6775 -0.9380
 4884SOL     OW26284   2.501   0.582   5.738  0.0585  0.1175 -0.2670
 4884SOL    HW126285   2.425   0.596   5.681 -0.2936  1.1652  0.4600
 4884SOL    HW226286   2.467   0.513   5.794  2.1193  0.2360  1.1056
 4885SOL     OW26287   3.889   3.280   2.358  0.2247 -0.4601 -0.2517
 4885SOL    HW126288   3.857   3.314   2.274  1.2123 -3.6278 -1.8984
 4885SOL    HW226289   3.826   3.210   2.374 -1.6223  1.9301  2.8811
 4886SOL     OW26290   2.053   2.684  14.640 -0.0191  0.0326  0.0621
 4886SOL    HW126291   2.086   2.741  14.571  0.7078 -2.0632 -1.3396
 4886SOL    HW226292   2.034   2.739  14.715  1.8621 -1.9240  1.9555
 4887SOL     OW26293   4.702   1.469   6.462 -0.2590 -0.1125 -0.4669
 4887SOL    HW126294   4.638   1.530   6.500 -0.0061 -1.3232  1.9364
 4887SOL    HW226295   4.679   1.445   6.372  2.1368 -0.2063 -1.0468
 4888SOL     OW26296   0.917   0.290  13.565  0.0378  0.6201  0.6162
 4888SOL    HW126297   0.998   0.328  13.532  0.0677 -0.3541 -0.4054
 4888SOL    HW226298   0.924   0.317  13.657  0.3701 -1.9058  1.3104
 4889SOL     OW26299   3.569   1.479   5.946  0.1409  0.4658  0.0534
 4889SOL    HW126300   3.589   1.479   5.852 -0.2916  2.5004 -0.0353
 4889SOL    HW226301   3.582   1.569   5.977  0.1433  0.8385 -1.0406
 4890SOL     OW26302   0.620   4.398   2.645 -0.0590 -0.5488  0.1325
 4890SOL    HW126303   0.569   4.472   2.611  0.0888 -1.9899 -3.2821
 4890SOL    HW226304   0.603   4.341   2.570  1.6844 -1.2669  0.2676
 4891SOL     OW26305   3.456   1.301   3.417 -0.3147 -0.0718  0.7837
 4891SOL    HW126306   3.536   1.250   3.405 -0.1322  0.2436  0.6747
 4891SOL    HW226307   3.506   1.381   3.433  0.0130 -0.5294  2.0255
 4892SOL     OW26308   1.918   3.342   8.195  0.0354  0.7298  0.0720
 4892SOL    HW126309   1.860   3.344   8.270 -1.4491 -0.1975 -1.0564
 4892SOL    HW226310   1.898   3.422   8.145  2.5476  0.6367 -1.0932
 4893SOL     OW26311   2.073   4.662   7.017  0.1328  0.3882 -0.6085
 4893SOL    HW126312   1.991   4.705   6.994 -0.3597 -0.4784 -0.4652
 4893SOL    HW226313   2.091   4.619   6.934  2.1238  1.3143 -0.6702
 4894SOL     OW26314   4.420   3.274   7.930  0.2090 -0.5990  0.0164
 4894SOL    HW126315   4.368   3.297   7.853  1.1844  4.5148  0.9481
 4894SOL    HW226316   4.450   3.362   7.952 -0.3483  0.0485 -1.8120
 4895SOL     OW26317   4.458   4.338   8.304 -0.0557 -0.3187  0.2902
 4895SOL    HW126318   4.446   4.432   8.314  0.2823 -0.3273  0.7722
 4895SOL    HW226319   4.469   4.300   8.391  2.3977 -0.1371  0.0592
 4896SOL     OW26320   0.671   4.446   4.413 -0.0664  0.1332  0.1333
 4896SOL    HW126321   0.735   4.503   4.371  1.0995 -1.7182 -0.6373
 4896SOL    HW226322   0.685   4.448   4.508  0.7756 -2.9042  0.0822
 4897SOL     OW26323   3.944   0.152  10.893  0.4964 -0.3997 -0.2572
 4897SOL    HW126324   3.852   0.179  10.889  0.6387  0.3770  1.7147
 4897SOL    HW226325   3.991   0.234  10.878  0.5448 -0.5197 -0.7744
 4898SOL     OW26326   4.694   3.480   7.592  0.3543  0.0981 -0.2094
 4898SOL    HW126327   4.609   3.522   7.578  2.0889  3.9051  0.4481
 4898SOL    HW226328   0.014   3.546   7.548  1.2355 -0.3825  0.1773
 4899SOL     OW26329   0.448   3.903   2.841  0.3317  0.3978  0.4258
 4899SOL    HW126330   0.482   3.992   2.831 -1.7208  1.2143  0.9020
 4899SOL    HW226331   0.508   3.864   2.905 -0.2641 -0.9598  0.1525
 4900SOL     OW26332   3.589   2.344  14.358 -0.0882 -0.1071 -0.1431
 4900SOL    HW126333   3.683   2.355  14.374 -0.2889  1.2237  0.1082
 4900SOL    HW226334   3.577   2.427  14.313 -0.8017 -0.6862 -1.0243
 4901SOL     OW26335   0.792   2.680  16.373  0.3178 -0.2154  0.0685
 4901SOL    HW126336   0.728   2.744  16.405  1.5692  1.6169 -1.1348
 4901SOL    HW226337   0.797   2.617  16.445  1.0897 -1.0093 -0.6866
 4902SOL     OW26338   4.293   2.166   5.344 -0.1343 -0.2294  0.8654
 4902SOL    HW126339   4.341   2.100   5.393  0.5352 -0.7330 -0.4792
 4902SOL    HW226340   4.330   2.164   5.256 -0.3026  2.3890  0.7398
 4903SOL     OW26341   0.168   4.371   7.443 -0.5264 -0.0933  0.2048
 4903SOL    HW126342   0.241   4.395   7.499  0.0631 -2.1870  0.3178
 4903SOL    HW226343   0.199   4.382   7.352  0.5694  1.8932  0.8068
 4904SOL     OW26344   0.181   0.447   8.433 -0.3087  0.3938 -0.3647
 4904SOL    HW126345   0.197   0.519   8.494 -2.1694  0.7159 -0.2658
 4904SOL    HW226346   0.207   0.380   8.496 -1.5262 -0.4183 -0.7218
 4905SOL     OW26347   4.090   0.438   0.792 -0.4600  0.0243  0.3121
 4905SOL    HW126348   4.175   0.464   0.827  0.3921 -1.6417 -0.5048
 4905SOL    HW226349   4.044   0.520   0.811 -1.7099 -0.4927 -0.4973
 4906SOL     OW26350   2.852   3.594   2.176 -0.5194 -0.6664 -0.4083
 4906SOL    HW126351   2.823   3.675   2.217 -0.9197 -2.0229  1.9914
 4906SOL    HW226352   2.909   3.557   2.243  0.5063  3.0418  0.7991
 4907SOL     OW26353   2.163   0.160   2.619 -0.0838  0.3519 -0.1234
 4907SOL    HW126354   2.230   0.159   2.552 -0.8667 -0.3267 -0.8960
 4907SOL    HW226355   2.156   0.073   2.660  0.8487  0.3282 -0.0200
 4908SOL     OW26356   3.870   4.728   5.238  0.1869 -0.3870  0.4273
 4908SOL    HW126357   3.799   4.696   5.295  0.4061 -1.1885  0.2432
 4908SOL    HW226358   3.826   0.071   5.204 -0.0649 -0.0411  1.5245
 4909SOL     OW26359   3.926   1.607  11.009  0.4644  0.3196 -0.5032
 4909SOL    HW126360   3.880   1.531  11.045 -0.4825  1.0850 -0.0939
 4909SOL    HW226361   3.939   1.584  10.917  1.5610  1.1416 -0.5411
 4910SOL     OW26362   3.224   0.259   5.693 -0.3115  0.1068  0.5250
 4910SOL    HW126363   3.190   0.320   5.628 -0.5055 -2.2169 -1.5878
 4910SOL    HW226364   3.155   0.265   5.758 -2.0492 -0.0390 -1.3233
 4911SOL     OW26365   3.720   3.995   4.890  0.8353  0.2152  0.0621
 4911SOL    HW126366   3.738   4.085   4.865  3.3224 -0.4204 -0.4224
 4911SOL    HW226367   3.652   3.995   4.958  1.8563 -2.9939  1.1266
 4912SOL     OW26368   2.539   1.028   5.678 -0.3169  0.1442 -0.0098
 4912SOL    HW126369   2.592   0.956   5.645  1.3833  0.7046  1.5109
 4912SOL    HW226370   2.493   0.967   5.736  0.8787 -0.5940  0.1712
 4913SOL     OW26371   4.496   2.950   2.889  0.5031 -0.0641 -0.6699
 4913SOL    HW126372   4.499   3.007   2.813  0.4139 -0.8272 -1.2425
 4913SOL    HW226373   4.578   2.902   2.881  0.0317 -1.1675  1.0138
 4914SOL     OW26374   4.366   0.169   2.223 -0.0678 -0.2751 -0.4514
 4914SOL    HW126375   4.348   0.079   2.248  0.2820 -0.6710 -1.6229
 4914SOL    HW226376   4.304   0.183   2.151 -0.3768  0.0777 -0.1201
 4915SOL     OW26377   3.679   0.988   3.548  0.6388 -0.2636  0.1548
 4915SOL    HW126378   3.682   1.025   3.460  0.9030  1.0082  0.6986
 4915SOL    HW226379   3.724   1.061   3.590 -0.5085  1.4401 -1.5871
 4916SOL     OW26380   2.928   1.756   9.753  0.1265  0.2816 -0.6141
 4916SOL    HW126381   2.997   1.707   9.797 -1.3939 -1.6456 -0.3662
 4916SOL    HW226382   2.859   1.711   9.802  0.0777 -0.1781 -1.1064
 4917SOL     OW26383   0.693   3.574  16.128 -0.0501 -0.8610  1.1975
 4917SOL    HW126384   0.603   3.568  16.096 -0.0174 -1.5675  1.2397
 4917SOL    HW226385   0.707   3.480  16.143 -0.4786 -0.8478  1.6828
 4918SOL     OW26386   3.627   4.488  12.369 -0.3133  0.4056 -0.5174
 4918SOL    HW126387   3.599   4.477  12.278 -1.6865  1.1415 -0.1746
 4918SOL    HW226388   3.641   4.399  12.401  1.3536  1.0144  0.4793
 4919SOL     OW26389   0.886   3.887   4.812 -0.3361 -0.3849 -0.4344
 4919SOL    HW126390   0.932   3.819   4.861  2.4105 -1.2478 -4.2473
 4919SOL    HW226391   0.934   3.969   4.824  0.4950 -1.1854  1.8225
 4920SOL     OW26392   2.319   0.952  17.680 -1.0406 -0.1487 -0.4361
 4920SOL    HW126393   2.263   0.935   0.015  0.8400  1.0662  1.2383
 4920SOL    HW226394   2.341   1.045  17.685  3.2370 -1.1758 -0.2646
 4921SOL     OW26395   2.983   3.283   6.579 -0.1684  0.0963  0.4573
 4921SOL    HW126396   3.046   3.337   6.628  0.0846 -2.0521  2.5565
 4921SOL    HW226397   2.940   3.238   6.653 -0.7584  0.6654  0.4582
 4922SOL     OW26398   1.031   0.379   3.064  0.6489 -0.2658 -0.4763
 4922SOL    HW126399   1.113   0.340   3.032  1.1187  0.4840 -0.1971
 4922SOL    HW226400   1.064   0.469   3.053  4.0052 -1.5116 -0.6377
 4923SOL     OW26401   1.389   3.656   7.687  0.1948 -0.1837  0.5222
 4923SOL    HW126402   1.410   3.565   7.706 -1.0092 -1.0331 -2.2316
 4923SOL    HW226403   1.370   3.650   7.593  1.3334 -0.9587  0.3415
 4924SOL     OW26404   1.493   3.463   8.337  0.0738  0.2295 -0.1337
 4924SOL    HW126405   1.461   3.425   8.255 -0.5495  0.4613  0.0019
 4924SOL    HW226406   1.489   3.557   8.318 -1.7182  0.4027  1.0775
 4925SOL     OW26407   1.135   3.441   6.022  0.5135 -0.2851 -0.1149
 4925SOL    HW126408   1.130   3.401   6.110 -2.1959  0.9795  0.3012
 4925SOL    HW226409   1.091   3.373   5.971  0.4322  0.2378 -0.7263
 4926SOL     OW26410   1.607   0.869  11.779 -0.1330 -0.1971  0.3076
 4926SOL    HW126411   1.598   0.794  11.721 -4.2827  0.7983 -0.3406
 4926SOL    HW226412   1.524   0.887  11.824 -1.5536 -0.3690 -2.2594
 4927SOL     OW26413   0.099   3.997   4.972 -0.1372  0.3537  0.0690
 4927SOL    HW126414   0.088   4.027   5.062  0.5240  2.6504 -0.6253
 4927SOL    HW226415   0.139   4.069   4.923  0.6915  1.2090  2.0570
 4928SOL     OW26416   0.379   3.301   7.415 -0.3466  0.1171  0.6023
 4928SOL    HW126417   0.324   3.236   7.458 -0.1359  0.3961  1.2894
 4928SOL    HW226418   0.383   3.371   7.479  0.8852  1.8658 -1.3794
 4929SOL     OW26419   1.692   2.116   2.027 -0.6551  0.0409  0.4060
 4929SOL    HW126420   1.708   2.194   2.080  1.5889  0.3837 -0.7949
 4929SOL    HW226421   1.607   2.146   1.992 -0.0622  2.8039  1.3853
 4930SOL     OW26422   3.943   0.846   1.009  0.4921  0.2598  0.0439
 4930SOL    HW126423   3.878   0.818   1.074 -0.3860 -0.2635 -1.0613
 4930SOL    HW226424   3.903   0.912   0.952  0.9587 -0.2892 -0.9068
 4931SOL     OW26425   4.012   4.381   1.639 -0.0064  0.4233  0.2337
 4931SOL    HW126426   4.054   4.466   1.625 -1.2295  0.9469 -0.2366
 4931SOL    HW226427   4.003   4.367   1.733  1.0887 -1.9312 -0.0072
 4932SOL     OW26428   2.127   1.655   2.348 -0.1529 -0.4237  0.6639
 4932SOL    HW126429   2.158   1.744   2.329  2.1330 -1.4040 -0.1996
 4932SOL    HW226430   2.080   1.633   2.268  0.3708  2.3993 -0.4385
 4933SOL     OW26431   2.493   3.409  15.967  0.0349 -0.3234  0.1588
 4933SOL    HW126432   2.456   3.495  15.948  2.7820  0.9305  0.5350
 4933SOL    HW226433   2.578   3.439  15.998 -0.5393  0.8932  0.5671
 4934SOL     OW26434   3.743   1.428   3.879  0.5118 -0.0287  0.3736
 4934SOL    HW126435   3.709   1.495   3.820  3.0554 -0.1809 -1.2535
 4934SOL    HW226436   3.707   1.461   3.962 -0.6536  0.4632 -0.3429
 4935SOL     OW26437   4.030   3.289   7.564 -0.2604 -0.5784 -0.3124
 4935SOL    HW126438   3.944   3.270   7.600 -1.1233  0.5250 -1.7938
 4935SOL    HW226439   4.012   3.373   7.522 -2.9785 -1.0664 -0.0971
 4936SOL     OW26440   4.008   0.407  13.394  0.4595  0.1802  0.7021
 4936SOL    HW126441   3.929   0.353  13.394 -0.2338  1.2383  3.9957
 4936SOL    HW226442   4.063   0.353  13.336  0.7675  0.4260  0.7661
 4937SOL     OW26443   0.231   1.521   0.502  0.0617 -0.5116  0.1514
 4937SOL    HW126444   0.149   1.510   0.454 -0.4286  0.0644  0.8602
 4937SOL    HW226445   0.250   1.609   0.470 -0.3001  0.1737  1.7865
 4938SOL     OW26446   2.749   0.904   9.359  0.8446  0.3208 -0.1018
 4938SOL    HW126447   2.742   0.957   9.438 -0.1433  2.5415 -1.6750
 4938SOL    HW226448   2.659   0.890   9.329  0.1594 -0.3404  2.2928
 4939SOL     OW26449   3.866   1.174   7.809 -0.4820  0.6175  0.0700
 4939SOL    HW126450   3.913   1.257   7.813 -1.0238  0.9639 -0.6570
 4939SOL    HW226451   3.806   1.206   7.741  1.9614  4.0337 -0.4506
 4940SOL     OW26452   1.478   3.268  13.006  0.1989  1.1623 -0.0442
 4940SOL    HW126453   1.555   3.293  13.056 -0.4178  0.4679  1.2442
 4940SOL    HW226454   1.430   3.350  12.990 -1.9248 -0.0615  0.0090
 4941SOL     OW26455   2.464   4.705  10.952 -0.2434 -0.2851 -0.6822
 4941SOL    HW126456   2.529   0.035  10.926  0.5758 -0.1549  1.6569
 4941SOL    HW226457   2.388   0.023  10.975  0.1767  0.0310 -0.0285
 4942SOL     OW26458   0.872   3.649  13.018 -0.6677 -0.0468  0.1819
 4942SOL    HW126459   0.862   3.672  13.111 -1.1606 -1.1479  0.4007
 4942SOL    HW226460   0.899   3.558  13.018  1.2865  0.5290  1.4000
 4943SOL     OW26461   1.019   0.153   3.220 -0.0089  0.4086 -0.0685
 4943SOL    HW126462   0.948   0.096   3.191  0.7772  0.2355 -1.6508
 4943SOL    HW226463   1.006   0.232   3.167 -1.2402  1.7915  2.2762
 4944SOL     OW26464   0.178   0.072  10.116  0.0054 -0.1202  0.0496
 4944SOL    HW126465   0.230   4.728  10.125 -0.7102 -0.7797 -1.6899
 4944SOL    HW226466   0.233   0.138  10.159 -1.4886  1.3628 -0.2812
 4945SOL     OW26467   1.720   1.754  16.694 -0.0904  0.2082  0.0257
 4945SOL    HW126468   1.811   1.723  16.693  0.2787  1.3109  0.1502
 4945SOL    HW226469   1.698   1.750  16.601 -0.2796 -4.2815  0.2600
 4946SOL     OW26470   0.131   3.970  17.728  0.0640  0.6146 -0.0402
 4946SOL    HW126471   0.207   3.967  17.671 -0.1346  1.8497 -0.3774
 4946SOL    HW226472   0.115   3.877   0.003  0.2220  0.5299 -0.3912
 4947SOL     OW26473   3.845   0.419   4.806  0.4282 -0.2904 -0.7862
 4947SOL    HW126474   3.762   0.466   4.810  0.4477 -0.1089 -2.7063
 4947SOL    HW226475   3.815   0.328   4.820  1.1435 -0.5414 -0.9013
 4948SOL     OW26476   0.392   3.780   6.527  0.3842  0.1590  0.1447
 4948SOL    HW126477   0.459   3.782   6.595 -0.0463 -1.2706  0.5931
 4948SOL    HW226478   0.314   3.754   6.575  0.3016 -0.4725 -0.3263
 4949SOL     OW26479   1.130   3.098   6.938 -0.4949  0.4104 -0.2350
 4949SOL    HW126480   1.223   3.078   6.949 -0.6579 -0.1267  0.1372
 4949SOL    HW226481   1.131   3.177   6.992  0.8877  2.1800 -2.8096
 4950SOL     OW26482   0.528   4.289   8.398  0.1945 -0.0214 -0.0198
 4950SOL    HW126483   0.440   4.255   8.416  0.4132 -1.1829 -1.1290
 4950SOL    HW226484   0.560   4.290   8.488 -2.2861 -1.8499  0.8890
 4951SOL     OW26485   4.517   3.013   1.051  0.3109  0.4062 -0.4432
 4951SOL    HW126486   4.432   3.057   1.041 -0.0424 -0.6011 -1.8478
 4951SOL    HW226487   4.494   2.927   1.087  2.4703 -0.3905 -0.9921
 4952SOL     OW26488   2.752   1.096   2.310  0.1202 -0.5820 -0.7237
 4952SOL    HW126489   2.725   1.159   2.376 -1.7663 -2.1357 -0.0126
 4952SOL    HW226490   2.817   1.154   2.268 -1.3718  1.1446 -0.6490
 4953SOL     OW26491   2.400   2.812  10.758 -0.2418 -0.3317  0.0878
 4953SOL    HW126492   2.423   2.749  10.690  1.1676 -0.4394  0.6683
 4953SOL    HW226493   2.422   2.890  10.708  0.8514 -0.2188  0.7467
 4954SOL     OW26494   0.367   0.796   8.560  0.3831 -0.0187  0.1009
 4954SOL    HW126495   0.435   0.731   8.579  2.7404  2.2912 -0.4687
 4954SOL    HW226496   0.403   0.835   8.481  0.8409  1.1217  0.8634
 4955SOL     OW26497   3.269   1.122  16.380 -0.5505  0.4305 -0.0299
 4955SOL    HW126498   3.230   1.050  16.331  2.8573 -1.5150  0.1228
 4955SOL    HW226499   3.244   1.199  16.329 -1.2462  0.6757  0.6820
 4956SOL     OW26500   0.349   1.712   5.078  0.0087  0.0853  0.6298
 4956SOL    HW126501   0.435   1.678   5.104  1.0355  0.9095 -1.6874
 4956SOL    HW226502   0.346   1.797   5.121 -2.5168  2.1299 -3.5532
 4957SOL     OW26503   2.784   2.419   6.574 -0.2837  0.3761  0.0731
 4957SOL    HW126504   2.719   2.349   6.568  0.6126 -0.4959  0.7761
 4957SOL    HW226505   2.841   2.410   6.497  1.8676 -1.3676  1.8730
 4958SOL     OW26506   4.186   3.008   2.798  0.2377 -0.1631  0.0298
 4958SOL    HW126507   4.278   3.034   2.789 -0.4511  1.9640 -0.7004
 4958SOL    HW226508   4.205   2.914   2.803  2.4789  0.3589  1.7394
 4959SOL     OW26509   3.450   2.165   8.289 -0.7478  0.3226  0.2826
 4959SOL    HW126510   3.451   2.188   8.381 -1.0128  0.4521  0.2525
 4959SOL    HW226511   3.492   2.078   8.291  0.2100  0.8471  2.2006
 4960SOL     OW26512   2.363   0.871   3.351 -0.3322  0.1152  0.2562
 4960SOL    HW126513   2.315   0.844   3.273  0.3855  1.2179 -0.5821
 4960SOL    HW226514   2.317   0.953   3.371  1.8876  1.0118  1.7995
 4961SOL     OW26515   4.542   0.627   6.474  0.5366 -0.5054  0.8327
 4961SOL    HW126516   4.476   0.684   6.513  0.1382  1.2993 -2.3796
 4961SOL    HW226517   4.535   0.548   6.527 -1.4703 -1.1732 -0.4165
 4962SOL     OW26518   2.097   3.652   4.446  0.2458 -0.2766 -0.3253
 4962SOL    HW126519   2.045   3.606   4.512  1.1533 -0.8671 -0.0148
 4962SOL    HW226520   2.034   3.721   4.425 -0.1252 -0.8653 -1.1258
 4963SOL     OW26521   3.666   4.321   5.760  0.5868 -0.2482 -0.4839
 4963SOL    HW126522   3.623   4.300   5.844 -0.9523 -0.0905 -1.2333
 4963SOL    HW226523   3.613   4.392   5.724  0.4486 -0.5382 -0.8476
 4964SOL     OW26524   1.125   1.746   6.064 -0.1947  0.1917  0.1789
 4964SOL    HW126525   1.151   1.661   6.101  1.1636  0.2470 -0.6268
 4964SOL    HW226526   1.090   1.797   6.137 -1.2007 -1.5642  0.9357
 4965SOL     OW26527   3.659   3.469   3.841  0.3066  0.2052 -0.2012
 4965SOL    HW126528   3.692   3.517   3.918  0.1742 -1.8515  1.1307
 4965SOL    HW226529   3.629   3.383   3.870  0.9328  0.4202  1.1323
 4966SOL     OW26530   3.611   4.185   9.697  0.1699 -0.2457 -0.3076
 4966SOL    HW126531   3.638   4.157   9.610 -0.8420  2.4475 -1.4986
 4966SOL    HW226532   3.518   4.168   9.705  0.3097 -1.5847 -1.5492
 4967SOL     OW26533   2.156   4.230   2.247  0.3376  0.3391 -0.7140
 4967SOL    HW126534   2.118   4.255   2.331 -1.3636 -0.1229 -1.3463
 4967SOL    HW226535   2.083   4.186   2.204  1.0977 -1.9722  0.4005
 4968SOL     OW26536   4.215   3.147   9.069  0.0429  0.8920  0.1464
 4968SOL    HW126537   4.129   3.105   9.068  0.0491  0.8845 -0.1399
 4968SOL    HW226538   4.248   3.106   8.989 -1.0408  1.2066 -0.4704
 4969SOL     OW26539   2.391   0.095  13.998 -0.1325 -0.9776  0.0797
 4969SOL    HW126540   2.427   0.045  13.925  0.7029 -1.4661  0.8336
 4969SOL    HW226541   2.406   0.188  13.978 -2.7974 -0.3779  0.7591
 4970SOL     OW26542   0.593   2.068   0.961  0.2591 -0.1624 -0.1541
 4970SOL    HW126543   0.528   2.134   0.939 -1.2881 -1.9464 -0.9746
 4970SOL    HW226544   0.543   2.006   1.014  1.2201  0.3208  1.3407
 4971SOL     OW26545   0.893   0.503   7.885  0.1277  0.0204  0.7544
 4971SOL    HW126546   0.849   0.573   7.934 -1.6406  0.0824 -0.9239
 4971SOL    HW226547   0.840   0.499   7.806 -1.2700  1.9699  1.6083
 4972SOL     OW26548   2.789   4.702   4.906  0.1620 -0.1353 -0.4929
 4972SOL    HW126549   2.780   0.055   4.940 -0.2940 -0.0650 -0.7909
 4972SOL    HW226550   2.875   4.710   4.864  0.1159  2.0493 -0.1724
 4973SOL     OW26551   2.678   1.563   6.476  0.0585 -0.3022  0.0823
 4973SOL    HW126552   2.773   1.571   6.470 -0.1244  0.3526 -1.9468
 4973SOL    HW226553   2.665   1.552   6.570 -0.4478 -3.1581 -0.3238
 4974SOL     OW26554   0.690   2.882   5.731 -0.0304  0.1698  0.1359
 4974SOL    HW126555   0.693   2.803   5.785  2.0781  1.6446  2.1467
 4974SOL    HW226556   0.694   2.841   5.644 -0.0500  0.7241 -0.1229
 4975SOL     OW26557   1.169   0.664   4.880 -0.1123 -0.3623  0.5261
 4975SOL    HW126558   1.200   0.701   4.962 -1.6366 -0.1311  1.0049
 4975SOL    HW226559   1.165   0.572   4.907 -0.2541 -0.6894 -0.6139
 4976SOL     OW26560   1.823   4.685   4.295 -0.1803 -0.4171 -0.2279
 4976SOL    HW126561   1.841   4.596   4.265 -1.7951 -0.9146  0.2687
 4976SOL    HW226562   1.767   4.720   4.225 -1.2829 -2.0368 -0.1670
 4977SOL     OW26563   0.703   4.698   2.905 -0.0309 -0.3714 -0.5770
 4977SOL    HW126564   0.611   4.686   2.925 -0.7367  1.9254 -2.4769
 4977SOL    HW226565   0.698   0.039   2.848  2.0420 -0.4952 -0.9420
 4978SOL     OW26566   0.470   0.947  12.038  0.6538 -0.6188 -0.1596
 4978SOL    HW126567   0.399   1.008  12.062  1.1683 -1.0363  2.4393
 4978SOL    HW226568   0.491   0.904  12.121 -0.5386 -1.4464 -0.2800
 4979SOL     OW26569   0.473   2.305  10.859  0.1606 -0.6795  0.0148
 4979SOL    HW126570   0.486   2.355  10.940 -1.3497  0.1174 -0.2283
 4979SOL    HW226571   0.384   2.338  10.841  1.4487  1.0233 -3.2516
 4980SOL     OW26572   4.402   4.613   1.669  0.4403 -0.0612  0.3634
 4980SOL    HW126573   4.375   4.523   1.650  1.0832 -0.0026 -0.8603
 4980SOL    HW226574   4.475   4.599   1.729  1.0198 -0.7579 -0.5005
 4981SOL     OW26575   1.364   2.111   3.334  0.7322 -0.2318  0.1204
 4981SOL    HW126576   1.305   2.072   3.270 -0.2833  0.7007  0.5040
 4981SOL    HW226577   1.323   2.197   3.343  0.7864 -0.1172 -0.6688
 4982SOL     OW26578   1.191   4.682  16.529 -0.0267  0.2796  0.1843
 4982SOL    HW126579   1.181   4.731  16.448 -0.0056 -0.0592 -0.0194
 4982SOL    HW226580   1.118   4.621  16.534 -0.6181  1.0582  1.0313
 4983SOL     OW26581   4.382   1.838  15.628  0.2411  0.0184  0.4275
 4983SOL    HW126582   4.308   1.809  15.682 -0.1381  0.0029 -0.1018
 4983SOL    HW226583   4.392   1.929  15.656 -0.0119 -0.0569  0.7613
 4984SOL     OW26584   4.561   0.809   7.845 -0.5205 -0.1942 -0.0924
 4984SOL    HW126585   4.471   0.791   7.817 -1.0611  0.1132  1.4417
 4984SOL    HW226586   4.610   0.831   7.766  0.5402  0.8098  0.8515
 4985SOL     OW26587   1.524   2.440   2.839 -0.2225  0.1028 -0.0097
 4985SOL    HW126588   1.545   2.533   2.851  1.6904 -0.0428 -2.1660
 4985SOL    HW226589   1.584   2.421   2.767 -0.2632  0.0022 -0.0167
 4986SOL     OW26590   1.566   4.396   3.040  0.1176 -0.2623  0.7653
 4986SOL    HW126591   1.565   4.474   3.096  2.1888 -0.9392  1.7560
 4986SOL    HW226592   1.564   4.433   2.952 -2.3684 -0.4977  0.7098
 4987SOL     OW26593   1.599   1.728   0.358  0.3299 -0.0070  0.1427
 4987SOL    HW126594   1.660   1.748   0.429 -0.5802  1.4931  0.4798
 4987SOL    HW226595   1.517   1.769   0.383  0.1192 -0.3653  0.0380
 4988SOL     OW26596   1.065   4.381   3.422  0.2866 -0.6717  0.0152
 4988SOL    HW126597   1.083   4.453   3.483  0.3963 -1.2462  0.6630
 4988SOL    HW226598   0.992   4.332   3.461 -0.4006  0.2771 -0.0585
 4989SOL     OW26599   4.173   4.344   9.402  0.5715  0.6546 -0.7057
 4989SOL    HW126600   4.198   4.323   9.492 -1.2021 -1.8990 -0.7990
 4989SOL    HW226601   4.175   4.440   9.403  2.5610  0.6269 -1.4288
 4990SOL     OW26602   0.226   1.899   5.869  0.1677  0.0862  0.1057
 4990SOL    HW126603   0.164   1.968   5.847 -0.2843 -0.5002 -0.4464
 4990SOL    HW226604   0.185   1.862   5.947 -0.1040  1.0078  0.3970
 4991SOL     OW26605   0.635   0.182   6.226 -0.7574  0.0614 -0.2986
 4991SOL    HW126606   0.586   0.142   6.298  0.9058 -2.9615 -0.8291
 4991SOL    HW226607   0.621   0.275   6.245  1.4009  0.1446  0.8623
 4992SOL     OW26608   1.410   3.929   2.021 -0.3557 -0.1282 -0.1373
 4992SOL    HW126609   1.323   3.969   2.014 -0.6658 -1.0251 -1.5294
 4992SOL    HW226610   1.430   3.907   1.929 -0.7116 -2.0883  0.2604
 4993SOL     OW26611   0.665   3.133   7.231 -0.7253  0.9204 -0.3445
 4993SOL    HW126612   0.598   3.195   7.203  1.7833  4.2198  1.0015
 4993SOL    HW226613   0.629   3.081   7.303 -2.0255 -0.8834 -2.2995
 4994SOL     OW26614   4.261   4.524   4.045 -0.2910  0.2667  0.6011
 4994SOL    HW126615   4.336   4.579   4.069 -0.3539 -0.0523  1.5481
 4994SOL    HW226616   4.237   4.491   4.131  1.1913 -2.8493 -0.2102
 4995SOL     OW26617   2.171   2.063  15.505 -0.4721 -0.1304 -0.0650
 4995SOL    HW126618   2.258   2.024  15.506 -0.9469 -1.1672  2.5096
 4995SOL    HW226619   2.117   2.001  15.457 -2.3214  2.8154 -1.7592
 4996SOL     OW26620   2.393   1.054  11.357 -0.2893  0.3268 -0.3228
 4996SOL    HW126621   2.329   1.058  11.286  0.1895  0.3756 -0.7528
 4996SOL    HW226622   2.363   0.980  11.410  0.6796  0.9853  1.1577
 4997SOL     OW26623   0.974   4.632  16.305 -0.3691 -0.3000 -0.0752
 4997SOL    HW126624   0.994   4.586  16.223  0.6927  0.0332 -0.0017
 4997SOL    HW226625   0.927   4.568  16.357 -0.5983 -0.3946 -0.3944
 4998SOL     OW26626   2.573   0.035  14.460  0.1180 -0.1424 -0.3449
 4998SOL    HW126627   2.490   0.022  14.416  1.0840 -1.3106 -1.7943
 4998SOL    HW226628   2.584   0.128  14.439 -1.2202  0.0278 -0.2852
 4999SOL     OW26629   0.942   2.310   3.962 -0.6396  0.1831 -0.3487
 4999SOL    HW126630   0.856   2.353   3.960 -0.5002  0.5703  1.9311
 4999SOL    HW226631   0.918   2.219   3.975  1.7264 -0.7109 -2.2373
 5000SOL     OW26632   1.388   4.609   4.230  0.3739 -0.3236 -0.1374
 5000SOL    HW126633   1.324   4.557   4.277 -2.3346  1.5946 -1.7272
 5000SOL    HW226634   1.340   4.628   4.149 -0.6566  0.2581  0.6106
 5001SOL     OW26635   2.354   3.485   7.402 -0.1704  0.1633 -0.1155
 5001SOL    HW126636   2.420   3.441   7.456 -0.5175  1.8519  1.6586
 5001SOL    HW226637   2.363   3.426   7.327  3.4425 -1.2679  1.4694
 5002SOL     OW26638   1.204   0.141   1.516  0.0711 -0.1656 -0.1989
 5002SOL    HW126639   1.161   0.157   1.432 -1.7502 -0.8200  0.6039
 5002SOL    HW226640   1.212   0.221   1.568  1.9235 -0.6299  0.2066
 5003SOL     OW26641   1.797   2.238  12.449 -0.2494  0.4296  0.4613
 5003SOL    HW126642   1.802   2.197  12.535 -0.8104  0.5314  0.5445
 5003SOL    HW226643   1.741   2.312  12.475  0.1192  0.6184  0.7146
 5004SOL     OW26644   1.347   0.233   7.076  0.1126  0.2113  0.2990
 5004SOL    HW126645   1.323   0.302   7.014 -0.5705  0.5740  0.9628
 5004SOL    HW226646   1.343   0.263   7.167  1.2333 -2.0711  1.0848
 5005SOL     OW26647   3.906   4.407   9.112 -0.5954 -0.3846  0.0487
 5005SOL    HW126648   3.904   4.395   9.017  1.1280 -0.7459  0.0576
 5005SOL    HW226649   3.965   4.481   9.125  1.5966 -2.4029  1.6505
 5006SOL     OW26650   3.017   0.496   6.213  0.6359 -0.2504  0.1845
 5006SOL    HW126651   3.061   0.569   6.170 -0.6914 -0.0800 -0.8963
 5006SOL    HW226652   3.064   0.423   6.173 -1.5803 -1.2739 -0.5468
 5007SOL     OW26653   0.596   0.312   3.707 -0.1819 -0.2858  0.0915
 5007SOL    HW126654   0.531   0.337   3.773  0.7248  2.1069  0.0892
 5007SOL    HW226655   0.673   0.357   3.743 -1.1945  0.3393  1.4764
 5008SOL     OW26656   3.575   0.026   1.082  0.5146 -0.2771 -0.8370
 5008SOL    HW126657   3.530   4.677   1.087  0.7484 -0.4361 -1.3906
 5008SOL    HW226658   3.554   0.050   0.992  2.4159  2.7551 -0.4643
 5009SOL     OW26659   0.273   3.115   8.000  0.5295 -0.4106  0.1369
 5009SOL    HW126660   0.184   3.151   8.007 -0.7956 -4.2768  3.2347
 5009SOL    HW226661   0.256   3.025   7.973 -0.7397 -0.8111  2.2476
 5010SOL     OW26662   4.305   0.476   4.931  0.0291  0.1896 -0.4615
 5010SOL    HW126663   4.255   0.401   4.900  0.3551  0.6621 -2.1345
 5010SOL    HW226664   4.238   0.544   4.930  0.8663  0.9923 -1.8526
 5011SOL     OW26665   1.977   2.601   1.408 -0.4336 -0.0290  0.3021
 5011SOL    HW126666   2.063   2.635   1.432 -0.6888  0.7284  0.1377
 5011SOL    HW226667   1.939   2.586   1.494  1.0376 -3.7173  0.2969
 5012SOL     OW26668   4.329   3.097  12.991  0.1801 -0.5051 -0.0628
 5012SOL    HW126669   4.321   3.191  12.974  1.5370 -0.2066  1.0278
 5012SOL    HW226670   4.416   3.084  12.953  0.2250 -1.4582  0.3564
 5013SOL     OW26671   0.374   1.170   6.312  0.0918 -0.1025  0.1266
 5013SOL    HW126672   0.447   1.216   6.270  0.1004 -0.2253  0.0061
 5013SOL    HW226673   0.307   1.238   6.317 -0.0996 -0.2981  0.2378
 5014SOL     OW26674   4.312   1.891   8.756 -0.3264 -0.5602  0.0278
 5014SOL    HW126675   4.326   1.819   8.817 -2.0179  0.8175  2.0128
 5014SOL    HW226676   4.371   1.880   8.681 -1.4418  0.4668 -1.0010
 5015SOL     OW26677   2.491   2.319   4.373  0.1034  0.3385  0.0370
 5015SOL    HW126678   2.458   2.291   4.459 -1.6495 -1.1183 -1.1215
 5015SOL    HW226679   2.420   2.379   4.348  1.1332  2.3863  2.0396
 5016SOL     OW26680   0.949   0.894   8.297 -0.0564  0.1762  0.1198
 5016SOL    HW126681   0.876   0.860   8.348 -0.6143 -0.8922 -1.4162
 5016SOL    HW226682   0.975   0.966   8.355 -0.6414  1.1962 -0.8732
 5017SOL     OW26683   0.933   1.740   8.762 -0.5776  0.1266 -0.1141
 5017SOL    HW126684   1.012   1.793   8.752  0.7386 -1.5350  1.5136
 5017SOL    HW226685   0.957   1.673   8.826  0.3516 -0.7523 -1.3853
 5018SOL     OW26686   3.746   4.240   9.920  0.1482 -0.0784 -0.3916
 5018SOL    HW126687   3.661   4.266   9.956  0.3547 -0.2709  0.2400
 5018SOL    HW226688   3.727   4.216   9.829 -1.5642 -0.8889  0.1812
 5019SOL     OW26689   2.770   2.827  14.818 -0.1048 -0.1421 -0.7409
 5019SOL    HW126690   2.804   2.744  14.852 -0.3565 -0.1930 -0.6139
 5019SOL    HW226691   2.810   2.818  14.732  0.6237  0.2524 -0.4460
 5020SOL     OW26692   2.845   2.027  15.582  0.3740  0.1807  0.4273
 5020SOL    HW126693   2.930   2.062  15.558  0.9693 -0.8047  1.1130
 5020SOL    HW226694   2.869   2.001  15.671 -1.1557 -1.1883  0.4298
 5021SOL     OW26695   1.715   3.116   7.788  0.4968  0.4433  0.3859
 5021SOL    HW126696   1.743   3.044   7.844 -0.3869 -1.3408 -1.4357
 5021SOL    HW226697   1.773   3.187   7.813  0.7759  0.7259 -1.0668
 5022SOL     OW26698   1.764   1.672   0.815 -0.4437  0.2893  0.5667
 5022SOL    HW126699   1.843   1.626   0.842  0.0794  1.3786  0.9321
 5022SOL    HW226700   1.752   1.738   0.884 -0.1779  0.2438  0.6542
 5023SOL     OW26701   2.721   3.912   7.974 -0.0694  0.1990  0.1354
 5023SOL    HW126702   2.631   3.942   7.960 -0.1331 -0.4843 -0.9181
 5023SOL    HW226703   2.734   3.826   7.935 -0.3491  0.7986 -1.2623
 5024SOL     OW26704   2.821   2.325   3.099  0.3076 -1.3678  0.0435
 5024SOL    HW126705   2.824   2.390   3.169  0.2592 -1.7589  0.4089
 5024SOL    HW226706   2.864   2.251   3.141 -0.0163 -1.7596 -0.3105
 5025SOL     OW26707   4.720   3.406   2.641 -0.0696 -0.1931  0.4061
 5025SOL    HW126708   4.710   3.501   2.634 -4.4174 -0.8812 -2.4865
 5025SOL    HW226709   4.657   3.381   2.573  0.0209  2.3779 -0.6323
 5026SOL     OW26710   3.336   3.484  15.281  0.4561  0.6031 -0.7218
 5026SOL    HW126711   3.297   3.465  15.366 -1.6020 -0.5609 -1.9435
 5026SOL    HW226712   3.430   3.482  15.300  0.3579 -2.1620 -0.4059
 5027SOL     OW26713   4.369   2.030   3.236 -0.3918 -0.8890 -0.1877
 5027SOL    HW126714   4.359   2.118   3.199 -0.8487 -0.2621  1.4377
 5027SOL    HW226715   4.331   2.046   3.323 -0.7218 -0.1693 -0.4635
 5028SOL     OW26716   3.002   2.998   1.371  0.0772 -0.1382  0.4209
 5028SOL    HW126717   3.045   2.913   1.362 -0.7794 -0.6208  0.8840
 5028SOL    HW226718   3.068   3.066   1.385 -1.1239  1.4433 -1.7312
 5029SOL     OW26719   3.075   2.832   5.959 -0.4850 -0.4310 -0.0016
 5029SOL    HW126720   3.168   2.813   5.972 -0.2956  0.8474  0.4724
 5029SOL    HW226721   3.048   2.743   5.984  1.6319 -0.9154  0.5725
 5030SOL     OW26722   1.116   0.700   7.788  0.2046 -0.1706 -0.3490
 5030SOL    HW126723   1.178   0.673   7.856  1.0473  2.2760 -0.1710
 5030SOL    HW226724   1.054   0.628   7.803  1.0982 -1.4064 -2.6038
 5031SOL     OW26725   0.663   2.253   2.419  0.3473  0.4646  0.2607
 5031SOL    HW126726   0.698   2.172   2.457 -0.7814 -1.5226 -2.8892
 5031SOL    HW226727   0.725   2.279   2.351 -2.0942  1.5231 -1.5246
 5032SOL     OW26728   2.762   3.101   9.868 -0.3687 -0.3146 -0.1411
 5032SOL    HW126729   2.712   3.039   9.920 -0.2114 -0.6348 -0.3703
 5032SOL    HW226730   2.775   3.166   9.937  1.5941  0.8097 -1.5503
 5033SOL     OW26731   1.923   3.070   6.292  0.1729 -0.0543  0.4394
 5033SOL    HW126732   1.929   3.164   6.280 -1.1325 -0.1622 -1.0245
 5033SOL    HW226733   1.854   3.068   6.359 -1.8914 -1.2196 -1.7404
 5034SOL     OW26734   4.370   3.430   6.393  0.0809  0.1729  0.2016
 5034SOL    HW126735   4.391   3.524   6.398 -0.8809  0.2562  2.3812
 5034SOL    HW226736   4.441   3.403   6.335 -1.9117 -0.4299 -1.9419
 5035SOL     OW26737   0.089   1.985   1.478 -0.4270 -0.1578 -0.3832
 5035SOL    HW126738   0.029   2.038   1.531  1.4256 -0.0724  1.6427
 5035SOL    HW226739   0.039   1.972   1.398  0.9813 -0.8149 -1.1538
 5036SOL     OW26740   3.125   1.521   4.333  0.5884 -0.0031  0.2832
 5036SOL    HW126741   3.040   1.557   4.312  0.9015  0.7749  0.3602
 5036SOL    HW226742   3.179   1.572   4.272  1.9398 -1.4274  0.2856
 5037SOL     OW26743   4.547   2.620   3.000 -0.2741  0.3602 -0.7614
 5037SOL    HW126744   4.499   2.703   3.000 -0.8853  0.0035 -0.2915
 5037SOL    HW226745   4.511   2.566   2.929  0.6430  0.0859 -1.0246
 5038SOL     OW26746   2.042   1.256   8.093  0.1674  0.0110 -0.0641
 5038SOL    HW126747   2.126   1.213   8.102  0.3432  0.2826 -0.4257
 5038SOL    HW226748   1.984   1.181   8.082  0.8366 -0.8169  1.9540
 5039SOL     OW26749   2.650   1.512   5.631 -0.1819  0.3780 -0.2057
 5039SOL    HW126750   2.619   1.519   5.721  1.1484  0.0546  0.2658
 5039SOL    HW226751   2.570   1.542   5.588  0.5317 -0.8015 -2.3609
 5040SOL     OW26752   4.452   1.956   8.192 -0.8976  0.5177  0.0598
 5040SOL    HW126753   4.367   1.949   8.147 -0.5591 -0.3840 -0.4486
 5040SOL    HW226754   4.516   1.941   8.123 -1.1694 -2.7170  0.4771
 5041SOL     OW26755   0.211   4.513   1.471 -0.0037 -0.2012 -0.5813
 5041SOL    HW126756   0.174   4.497   1.558 -2.4234  0.4186 -1.4840
 5041SOL    HW226757   0.272   4.581   1.500 -1.2164 -0.4448  2.6050
 5042SOL     OW26758   1.375   2.773   4.608 -0.1340 -0.6646  0.1796
 5042SOL    HW126759   1.281   2.783   4.590  0.4593 -0.2890 -2.7009
 5042SOL    HW226760   1.360   2.799   4.699 -0.5614 -0.7923  0.1478
 5043SOL     OW26761   4.482   3.298  11.239  0.4089 -0.1207  0.3370
 5043SOL    HW126762   4.388   3.301  11.257  0.2586  1.1227 -0.7554
 5043SOL    HW226763   4.524   3.273  11.322 -1.9243 -2.3869  0.8333
 5044SOL     OW26764   2.136   2.438   2.403 -0.8262  0.4551 -0.1546
 5044SOL    HW126765   2.118   2.346   2.386  0.8850  0.5277 -2.2940
 5044SOL    HW226766   2.047   2.474   2.409 -0.5248  1.2499 -0.4863
 5045SOL     OW26767   0.281   4.276   5.406 -0.5612  0.0683  0.0907
 5045SOL    HW126768   0.247   4.365   5.415 -0.8822 -0.0045 -0.4403
 5045SOL    HW226769   0.264   4.245   5.318 -0.2857  0.8798 -0.2472
 5046SOL     OW26770   4.142   2.079  11.547 -0.3565  0.1911 -0.0321
 5046SOL    HW126771   4.071   2.131  11.584 -0.3993 -0.6643  1.0843
 5046SOL    HW226772   4.131   1.996  11.594  0.7878  1.3233  2.2384
 5047SOL     OW26773   1.948   3.407   2.497  0.8144 -0.1717 -0.4097
 5047SOL    HW126774   2.023   3.356   2.465  0.8202 -0.4216  0.0030
 5047SOL    HW226775   1.892   3.395   2.420  1.7886  1.6222 -1.4137
 5048SOL     OW26776   2.946   1.062   8.110  0.4844  0.3267  0.0199
 5048SOL    HW126777   2.870   1.006   8.123 -0.7028  1.9897  0.2405
 5048SOL    HW226778   2.947   1.051   8.015  1.4319 -2.1375  0.3076
 5049SOL     OW26779   4.547   1.378   9.001 -0.1248  0.3347 -0.4637
 5049SOL    HW126780   4.487   1.428   8.945  0.1692  0.0392 -1.0390
 5049SOL    HW226781   4.495   1.369   9.081  0.8186 -3.4509 -0.2830
 5050SOL     OW26782   1.018   1.350   1.960 -0.1630 -0.3469 -0.3250
 5050SOL    HW126783   0.957   1.381   2.027 -1.4603 -0.8114 -1.2848
 5050SOL    HW226784   1.016   1.428   1.905 -0.6719 -1.1263 -1.3959
 5051SOL     OW26785   1.448   1.011   0.310  0.4298  0.1213 -0.4428
 5051SOL    HW126786   1.388   1.042   0.242 -1.6089  2.5034  2.4758
 5051SOL    HW226787   1.519   1.074   0.297 -1.1378  2.6354  3.4255
 5052SOL     OW26788   0.213   3.660   1.522 -0.3882  0.1007  0.4898
 5052SOL    HW126789   0.257   3.675   1.606 -0.2907 -1.4047  0.7074
 5052SOL    HW226790   0.289   3.662   1.464  0.2313 -0.2343  1.2945
 5053SOL     OW26791   1.366   1.118   1.652  0.0958 -0.5265  0.1163
 5053SOL    HW126792   1.458   1.093   1.642 -0.0356 -1.1320  0.4372
 5053SOL    HW226793   1.324   1.040   1.616 -0.6399 -0.7013  1.3476
 5054SOL     OW26794   3.782   1.467   6.763 -0.2435  0.2888 -0.0253
 5054SOL    HW126795   3.761   1.559   6.782  0.6040  0.7486 -1.3214
 5054SOL    HW226796   3.875   1.457   6.782 -0.7622 -2.7928  0.9316
 5055SOL     OW26797   2.482   3.971   1.992  0.1063  0.0387 -0.3106
 5055SOL    HW126798   2.566   4.017   1.986  0.7087 -1.1276 -0.9239
 5055SOL    HW226799   2.481   3.955   1.898  0.7515  1.9273 -0.6493
 5056SOL     OW26800   1.958   1.564   0.437 -0.2859  0.3058  0.5283
 5056SOL    HW126801   1.995   1.510   0.506 -2.0006  0.2389  1.3872
 5056SOL    HW226802   1.928   1.499   0.373  0.5077  1.9282 -1.5176
 5057SOL     OW26803   2.592   1.417   7.207  0.2412  0.2543 -0.1251
 5057SOL    HW126804   2.568   1.362   7.132 -1.3427 -0.8715  1.1989
 5057SOL    HW226805   2.592   1.346   7.271  0.8047  2.0020  1.8187
 5058SOL     OW26806   3.924   4.354   5.899  0.5196  0.0148 -0.3597
 5058SOL    HW126807   3.966   4.399   5.825 -0.4927 -0.9691 -1.5470
 5058SOL    HW226808   3.837   4.347   5.860  2.1492 -0.1170 -4.0614
 5059SOL     OW26809   4.497   0.521   8.433  0.5042 -0.4271  0.0630
 5059SOL    HW126810   4.536   0.507   8.519 -1.6969  0.3315  1.2039
 5059SOL    HW226811   4.567   0.557   8.378 -1.5427  2.6320 -0.5671
 5060SOL     OW26812   1.710   4.261   0.366  0.4999  0.1787  0.2003
 5060SOL    HW126813   1.711   4.349   0.327  2.1236  1.0967  2.3103
 5060SOL    HW226814   1.655   4.282   0.441 -0.1372 -1.6531  0.2441
 5061SOL     OW26815   3.289   3.664   9.275  0.3762  0.4856 -0.4568
 5061SOL    HW126816   3.322   3.692   9.190 -0.7450  1.0872 -0.6875
 5061SOL    HW226817   3.194   3.669   9.266  0.0778 -2.0525  1.0660
 5062SOL     OW26818   1.826   0.943   7.401 -0.1257 -0.2461  0.4373
 5062SOL    HW126819   1.820   1.019   7.344 -0.3839 -0.6134 -0.0227
 5062SOL    HW226820   1.758   0.973   7.463  0.7013  0.2325  1.1113
 5063SOL     OW26821   2.815   1.315  14.545  0.1461 -0.2214  0.5037
 5063SOL    HW126822   2.844   1.382  14.484  0.3274 -0.1302  0.6938
 5063SOL    HW226823   2.898   1.273  14.566  0.4453  0.6897  1.1182
 5064SOL     OW26824   2.852   3.184   4.584  0.5792 -0.3475 -0.5257
 5064SOL    HW126825   2.763   3.208   4.559  0.4742 -2.8248 -2.4517
 5064SOL    HW226826   2.888   3.272   4.600  0.7531 -0.7659  1.3828
 5065SOL     OW26827   3.409   0.698   4.931 -0.1094  0.5039  0.8432
 5065SOL    HW126828   3.423   0.770   4.993 -1.4483 -1.6079  3.5532
 5065SOL    HW226829   3.337   0.740   4.884  2.3061  2.4437 -1.1459
 5066SOL     OW26830   3.639   2.951   5.356  0.6747 -0.0453  0.2042
 5066SOL    HW126831   3.695   3.028   5.345 -0.7547  1.1188  0.9509
 5066SOL    HW226832   3.556   2.995   5.374  0.9541  0.0504  1.2231
 5067SOL     OW26833   0.525   4.254   5.551  0.0325  0.7816 -0.0023
 5067SOL    HW126834   0.440   4.277   5.516 -0.9874 -0.4663  1.6593
 5067SOL    HW226835   0.530   4.160   5.532 -0.1764  0.7120  0.2869
 5068SOL     OW26836   1.789   4.541   7.330  0.2316  0.1606 -0.3127
 5068SOL    HW126837   1.845   4.486   7.276 -1.3834 -1.5356 -0.2492
 5068SOL    HW226838   1.707   4.515   7.288  0.3724 -1.1803  0.2503
 5069SOL     OW26839   2.806   1.554   8.462 -0.0470  0.7072  0.3356
 5069SOL    HW126840   2.734   1.491   8.470  0.1985  0.1509 -1.7925
 5069SOL    HW226841   2.867   1.518   8.398  0.5387  3.3972 -0.6174
 5070SOL     OW26842   2.179   1.978   8.857  0.6842  0.2599 -0.3123
 5070SOL    HW126843   2.228   1.965   8.777  0.6407  1.0949 -0.4761
 5070SOL    HW226844   2.239   1.947   8.925  1.7213  1.0607 -0.8600
 5071SOL     OW26845   4.121   1.651   2.748  0.4681 -0.2870  0.2379
 5071SOL    HW126846   4.042   1.628   2.796  1.0379 -2.3245  0.2244
 5071SOL    HW226847   4.171   1.569   2.758  0.9566 -0.3366 -2.6062
 5072SOL     OW26848   3.169   4.414   4.316 -0.6104  0.6895  0.2860
 5072SOL    HW126849   3.129   4.386   4.233  0.4233  2.4001 -0.7860
 5072SOL    HW226850   3.175   4.509   4.307  1.4876  0.4692 -0.6701
 5073SOL     OW26851   0.794   3.127  10.556 -0.3723 -0.1941  0.2842
 5073SOL    HW126852   0.815   3.216  10.529 -0.0017 -0.1801  0.6170
 5073SOL    HW226853   0.864   3.113  10.620 -0.9715  0.2699  1.0405
 5074SOL     OW26854   2.058   1.805   6.793  0.0245  0.1800  0.2488
 5074SOL    HW126855   2.145   1.768   6.780  0.3617  1.7592 -1.9414
 5074SOL    HW226856   2.071   1.893   6.830 -1.8844  0.9258 -0.8656
 5075SOL     OW26857   4.398   1.302   8.625  0.2134 -0.0482 -0.0265
 5075SOL    HW126858   4.478   1.325   8.673  0.3862 -0.6385 -0.0333
 5075SOL    HW226859   4.408   1.321   8.532 -2.2667 -1.3359 -0.5627
 5076SOL     OW26860   1.969   0.797   4.194 -0.1728  0.1662 -0.0264
 5076SOL    HW126861   2.035   0.825   4.257  0.0240  0.7845 -0.5060
 5076SOL    HW226862   1.996   0.705   4.192  1.6627  0.6953  0.4900
 5077SOL     OW26863   3.959   1.871  10.982 -0.6077 -0.4244  0.0378
 5077SOL    HW126864   3.959   1.776  10.990  2.1292 -0.1825  2.5707
 5077SOL    HW226865   3.869   1.897  11.002 -1.0493 -1.6225 -0.3711
 5078SOL     OW26866   3.091   0.075  12.063  0.2326 -0.5528  0.7216
 5078SOL    HW126867   2.996   0.080  12.049  0.0086 -2.1290  1.6165
 5078SOL    HW226868   3.121   0.151  12.013 -1.8836 -0.1490  0.0826
 5079SOL     OW26869   1.605   2.680  11.838 -0.3582  0.4751 -0.0492
 5079SOL    HW126870   1.595   2.668  11.933  4.2837 -0.4322  0.3239
 5079SOL    HW226871   1.698   2.702  11.828 -0.1270 -0.8215 -0.8081
 5080SOL     OW26872   1.345   2.760   5.293  0.1226 -0.1109  0.3591
 5080SOL    HW126873   1.352   2.817   5.370  1.1587  0.6408 -0.2780
 5080SOL    HW226874   1.252   2.770   5.274  0.4643  0.3833 -1.1262
 5081SOL     OW26875   2.520   0.564   3.883 -0.0592  0.0915  0.4182
 5081SOL    HW126876   2.436   0.609   3.879 -0.4635 -0.6866  0.3282
 5081SOL    HW226877   2.531   0.554   3.977  1.5609 -0.7897  0.1400
 5082SOL     OW26878   1.825   2.395  16.702  0.1116 -0.2085 -0.1560
 5082SOL    HW126879   1.826   2.489  16.687  0.0081 -0.0171  1.0489
 5082SOL    HW226880   1.780   2.364  16.624 -0.8347  0.5907  0.0722
 5083SOL     OW26881   2.939   2.412   5.769 -0.3591  0.8236 -0.8900
 5083SOL    HW126882   3.002   2.481   5.790 -1.1163  1.4690 -0.7285
 5083SOL    HW226883   3.002   2.340   5.764  2.1924  2.9706  0.7450
 5084SOL     OW26884   0.879   1.476  11.594  0.0794 -0.1024  0.1721
 5084SOL    HW126885   0.808   1.435  11.643  0.0515 -0.7075 -0.3607
 5084SOL    HW226886   0.952   1.470  11.655 -0.4015 -1.3107  0.6398
 5085SOL     OW26887   2.723   2.604   5.963 -0.2113 -0.5122 -0.1969
 5085SOL    HW126888   2.661   2.603   6.035 -3.1940 -0.6402 -2.7933
 5085SOL    HW226889   2.803   2.573   6.006  1.9517 -0.0976 -3.8383
 5086SOL     OW26890   1.724   3.560   4.516 -0.1112 -0.2002 -0.2722
 5086SOL    HW126891   1.754   3.621   4.448  0.2805 -1.9707 -1.6985
 5086SOL    HW226892   1.797   3.566   4.577 -0.4387 -1.4030  0.2439
 5087SOL     OW26893   0.598   3.935   5.731  0.4816  0.6337  0.1952
 5087SOL    HW126894   0.583   4.022   5.693 -0.9146 -0.0078 -0.7291
 5087SOL    HW226895   0.558   3.880   5.663  0.3166 -0.6050  1.2946
 5088SOL     OW26896   2.129   2.903   0.912 -0.0630 -0.2012  0.4916
 5088SOL    HW126897   2.115   2.957   0.834 -1.1465  1.5682  1.9123
 5088SOL    HW226898   2.168   2.831   0.862 -1.6374  0.0415 -1.1256
 5089SOL     OW26899   1.652   3.566   3.102 -0.2117  0.2289 -0.9442
 5089SOL    HW126900   1.703   3.555   3.021  1.8313  0.1048  0.3652
 5089SOL    HW226901   1.646   3.661   3.099 -1.4977  0.2725  3.2754
 5090SOL     OW26902   0.833   3.957   2.605 -0.3084 -0.1089  0.5359
 5090SOL    HW126903   0.761   3.959   2.543  0.0064  0.7456  0.2116
 5090SOL    HW226904   0.820   3.864   2.628  1.2219 -0.3097  0.6312
 5091SOL     OW26905   1.353   3.463  15.489  0.2252 -0.0983  0.1004
 5091SOL    HW126906   1.448   3.471  15.480  0.0754  0.5884 -0.9432
 5091SOL    HW226907   1.342   3.419  15.404 -1.7236 -0.1464  0.3891
 5092SOL     OW26908   4.731   1.494   5.875 -0.0054 -0.1746  0.6163
 5092SOL    HW126909   0.052   1.488   5.952  0.5357  1.1731  0.3314
 5092SOL    HW226910   4.648   1.527   5.909 -0.1281  0.5431 -0.3686
 5093SOL     OW26911   3.943   2.474   7.184 -0.0699  0.0027  0.1836
 5093SOL    HW126912   4.016   2.534   7.197  0.0467  0.0175 -0.5423
 5093SOL    HW226913   3.960   2.435   7.099 -1.4199  0.0486 -0.1100
 5094SOL     OW26914   2.735   2.415   3.343 -0.3651 -0.1253 -0.1980
 5094SOL    HW126915   2.655   2.383   3.302 -1.1737 -1.8223  2.6712
 5094SOL    HW226916   2.731   2.378   3.431 -1.6511 -0.9081 -0.5772
 5095SOL     OW26917   4.037   2.171   4.235 -0.2182 -0.5130  0.5296
 5095SOL    HW126918   4.011   2.263   4.238 -1.9142 -1.0150  1.3400
 5095SOL    HW226919   4.133   2.170   4.232 -0.2030  0.2029  0.9039
 5096SOL     OW26920   0.733   1.011   7.467 -0.5568  0.3222 -0.3928
 5096SOL    HW126921   0.657   0.983   7.517 -0.0969 -1.6244 -0.7875
 5096SOL    HW226922   0.806   0.981   7.520 -0.3090  0.6878 -0.5240
 5097SOL     OW26923   0.535   4.365   4.059  0.2114 -0.2905 -0.3876
 5097SOL    HW126924   0.466   4.330   4.004  1.4655 -1.2536 -1.3528
 5097SOL    HW226925   0.566   4.289   4.109 -2.1011  0.3321  1.9855
 5098SOL     OW26926   2.081   3.523  11.354  0.0832 -0.2467 -0.3344
 5098SOL    HW126927   2.034   3.482  11.427 -0.4141 -3.0745 -2.2556
 5098SOL    HW226928   2.086   3.612  11.389 -0.9615 -0.1552 -0.4228
 5099SOL     OW26929   1.791   0.516   0.055 -0.1297  0.1958  0.6054
 5099SOL    HW126930   1.743   0.578   0.001  0.4711 -0.4195 -0.6348
 5099SOL    HW226931   1.874   0.555   0.083  0.9978 -0.3222 -2.0167
 5100SOL     OW26932   3.675   1.510   8.921  0.2427 -0.2864  0.9872
 5100SOL    HW126933   3.717   1.496   9.005 -2.6925 -2.1738  2.1454
 5100SOL    HW226934   3.583   1.516   8.946  0.2545  0.3426  0.8729
 5101SOL     OW26935   1.971   0.871   6.758 -0.1193 -0.3809  0.0133
 5101SOL    HW126936   2.031   0.798   6.776 -1.4383 -1.0239  1.8142
 5101SOL    HW226937   1.916   0.829   6.692  1.0559  1.2066 -1.9603
 5102SOL     OW26938   0.956   0.766   3.915 -0.1195  0.2237  0.4601
 5102SOL    HW126939   0.962   0.861   3.924 -0.4497  0.3734 -0.8936
 5102SOL    HW226940   0.870   0.739   3.883  1.1304 -1.3274 -1.6061
 5103SOL     OW26941   0.490   4.555   8.961  0.0447  0.0491  0.2133
 5103SOL    HW126942   0.582   4.529   8.955  0.3799  1.4630 -0.6642
 5103SOL    HW226943   0.485   4.553   9.057  1.5777  1.9279  0.3306
 5104SOL     OW26944   3.194   2.456  12.502  0.1131  0.4999 -0.6948
 5104SOL    HW126945   3.279   2.429  12.467  1.0284  1.8573  0.4765
 5104SOL    HW226946   3.224   2.519  12.567  0.0634  0.8531 -1.0176
 5105SOL     OW26947   2.342   3.100  10.690 -0.2921  0.5749 -0.1694
 5105SOL    HW126948   2.280   3.085  10.762 -0.9972  3.8257 -0.1008
 5105SOL    HW226949   2.335   3.196  10.685  2.0231  0.7777  0.4534
 5106SOL     OW26950   3.478   1.631   6.727  0.3571 -0.2107 -0.2849
 5106SOL    HW126951   3.394   1.622   6.771  0.1602 -0.8734 -0.7781
 5106SOL    HW226952   3.483   1.543   6.687 -0.4386 -0.5028  0.2677
 5107SOL     OW26953   0.714   1.386   5.348 -0.5014  0.0683 -0.4425
 5107SOL    HW126954   0.624   1.354   5.352 -0.9345  1.2661 -0.7635
 5107SOL    HW226955   0.733   1.393   5.442  2.9956 -0.3452 -1.1053
 5108SOL     OW26956   4.540   4.646   2.777  0.7235  0.2158 -0.6304
 5108SOL    HW126957   4.617   4.637   2.833  1.4306 -0.8365 -1.7853
 5108SOL    HW226958   4.505   4.559   2.757  3.5163 -1.4809  1.9613
 5109SOL     OW26959   0.317   4.388   9.948  0.5634  0.1869  0.2400
 5109SOL    HW126960   0.277   4.385  10.035  0.6423  1.2492  0.3176
 5109SOL    HW226961   0.407   4.407   9.975  1.4040 -0.8489 -1.8398
 5110SOL     OW26962   3.267   2.277   4.034  0.1763 -0.6412 -0.3173
 5110SOL    HW126963   3.205   2.240   4.097  1.4810  0.7481  1.7791
 5110SOL    HW226964   3.215   2.335   3.979  1.7681  0.3377 -0.7888
 5111SOL     OW26965   4.104   1.441   5.417 -0.4689  0.1603  0.0630
 5111SOL    HW126966   4.039   1.377   5.387 -1.2467  0.2938  1.4526
 5111SOL    HW226967   4.091   1.500   5.342  1.5269  1.3107  0.6365
 5112SOL     OW26968   2.395   4.518   1.793 -0.0470 -0.2167  0.1672
 5112SOL    HW126969   2.359   4.474   1.716  0.8858 -0.7231  0.0264
 5112SOL    HW226970   2.344   4.599   1.790 -0.0427 -0.2760 -1.6531
 5113SOL     OW26971   0.280   1.690   5.558  0.0020 -0.3860  0.1461
 5113SOL    HW126972   0.286   1.672   5.464 -0.2924 -1.3008  0.3028
 5113SOL    HW226973   0.187   1.713   5.560 -0.3876 -1.8767 -1.2322
 5114SOL     OW26974   3.312   2.719  16.335 -0.2726 -0.6089 -0.3048
 5114SOL    HW126975   3.299   2.731  16.241 -4.1120 -0.2276  0.2624
 5114SOL    HW226976   3.282   2.806  16.358 -1.4972 -1.1685  0.2182
 5115SOL     OW26977   4.678   0.849   1.403 -0.6852  0.1435 -0.3225
 5115SOL    HW126978   4.699   0.757   1.416 -0.8175 -0.5430 -5.0043
 5115SOL    HW226979   4.637   0.860   1.489 -0.4931 -0.7676 -0.1192
 5116SOL     OW26980   0.927   3.588   7.118 -0.2117  0.3254  0.0119
 5116SOL    HW126981   0.905   3.592   7.025  2.8357 -0.1359 -0.7412
 5116SOL    HW226982   0.850   3.541   7.149 -2.5211  2.1178 -3.0647
 5117SOL     OW26983   4.243   2.271   6.491  0.4504  0.2026  0.7369
 5117SOL    HW126984   4.166   2.214   6.502  1.3174 -0.7286  1.8961
 5117SOL    HW226985   4.304   2.213   6.446  1.2913  0.4957  1.4979
 5118SOL     OW26986   1.419   1.402   5.715  0.4179 -0.1129 -0.2486
 5118SOL    HW126987   1.398   1.476   5.772 -0.0201 -0.1170 -0.4052
 5118SOL    HW226988   1.455   1.452   5.641  2.2923 -2.2013 -0.7703
 5119SOL     OW26989   0.212   1.819   6.615 -0.2124  0.5956  0.7228
 5119SOL    HW126990   0.306   1.835   6.610  0.0389 -1.7784 -2.0908
 5119SOL    HW226991   0.204   1.725   6.600  1.1583  0.6862 -0.4894
 5120SOL     OW26992   2.263   4.439   4.891 -0.2196  0.0497  0.0933
 5120SOL    HW126993   2.191   4.377   4.903  0.4615 -0.8651 -0.6120
 5120SOL    HW226994   2.276   4.477   4.978 -1.9309 -0.0155  0.3808
 5121SOL     OW26995   0.500   0.562   8.662  0.2369 -0.6560 -0.7561
 5121SOL    HW126996   0.523   0.567   8.569 -1.4169 -1.1148 -1.1832
 5121SOL    HW226997   0.582   0.543   8.708  0.1410  2.3897  0.6539
 5122SOL     OW26998   1.740   4.664   6.256 -0.3537  0.1558 -0.0827
 5122SOL    HW126999   1.827   4.633   6.228  0.1403  2.6080 -1.1842
 5122SOL    HW227000   1.693   4.583   6.277  0.9552 -0.5134  0.3022
 5123SOL     OW27001   0.418   3.150  12.413  0.1465 -0.4332  0.2053
 5123SOL    HW127002   0.362   3.190  12.480  0.2931  1.4838 -0.8187
 5123SOL    HW227003   0.394   3.202  12.337 -2.3232 -1.5447  0.1955
 5124SOL     OW27004   2.625   1.825  11.651  0.7698 -0.0973  0.5054
 5124SOL    HW127005   2.566   1.859  11.584 -0.2363 -0.7588  1.0629
 5124SOL    HW227006   2.661   1.747  11.607 -0.2621  0.3510 -1.1485
 5125SOL     OW27007   4.575   3.464   7.299  0.0249  0.1933  0.1969
 5125SOL    HW127008   4.527   3.401   7.352 -1.7572  0.7228 -0.7757
 5125SOL    HW227009   4.535   3.546   7.328  0.3913 -0.1539  1.6711
 5126SOL     OW27010   2.173   3.926   3.385 -0.5364  0.2724 -0.2304
 5126SOL    HW127011   2.142   4.013   3.360  1.3883  2.0151  3.5136
 5126SOL    HW227012   2.140   3.918   3.475  3.8115  0.4151  1.3415
 5127SOL     OW27013   1.366   2.079   9.089  0.2751 -0.0992 -0.0047
 5127SOL    HW127014   1.395   1.989   9.077 -1.0480 -0.8358  2.2994
 5127SOL    HW227015   1.293   2.092   9.028 -0.2789  0.5582  0.7927
 5128SOL     OW27016   0.458   2.416  14.584  0.0706  0.3759 -1.0415
 5128SOL    HW127017   0.496   2.503  14.589  2.3729 -0.6134 -1.5119
 5128SOL    HW227018   0.399   2.420  14.509 -0.6344 -0.0958 -0.5203
 5129SOL     OW27019   2.537   0.913   9.014  0.0423 -0.2085 -0.2772
 5129SOL    HW127020   2.605   0.979   9.000 -0.1145 -0.3811 -1.8505
 5129SOL    HW227021   2.465   0.975   9.001 -0.5780 -1.3106 -2.0789
 5130SOL     OW27022   3.235   0.406   5.230 -0.1159 -0.0226 -0.5623
 5130SOL    HW127023   3.240   0.316   5.262 -0.2278  0.4133  0.6644
 5130SOL    HW227024   3.151   0.442   5.256  0.2605  0.7808 -0.4585
 5131SOL     OW27025   3.291   0.880   5.742 -0.1829  0.5313  0.5420
 5131SOL    HW127026   3.312   0.966   5.780 -0.3558 -0.3609  2.6627
 5131SOL    HW227027   3.293   0.895   5.648  0.0775 -1.4441  0.2312
 5132SOL     OW27028   1.422   0.719   3.879  0.3887 -0.6950 -0.2669
 5132SOL    HW127029   1.414   0.632   3.919 -1.1256  0.3378  1.6504
 5132SOL    HW227030   1.413   0.777   3.954  1.4958  1.3508 -1.7188
 5133SOL     OW27031   0.898   3.450   3.320 -0.4240  0.0397  0.1831
 5133SOL    HW127032   0.838   3.525   3.324  0.7954  1.1685 -2.1244
 5133SOL    HW227033   0.983   3.495   3.316 -0.4080  0.0031  0.0925
 5134SOL     OW27034   2.176   3.016   4.450 -0.1162 -0.1375 -0.0881
 5134SOL    HW127035   2.191   3.109   4.471  0.1896 -0.0966 -0.4880
 5134SOL    HW227036   2.086   3.002   4.479  0.4236  1.9185  2.5717
 5135SOL     OW27037   3.928   1.286  14.651 -0.0037  0.1504  0.1049
 5135SOL    HW127038   4.005   1.295  14.595 -2.0315  1.5103 -2.4551
 5135SOL    HW227039   3.948   1.195  14.673 -1.6144  0.3201  2.1648
 5136SOL     OW27040   1.404   3.894   8.638  0.7508 -1.2268  0.2505
 5136SOL    HW127041   1.357   3.883   8.556 -2.8408 -0.1173  2.1409
 5136SOL    HW227042   1.496   3.873   8.622  0.4450  0.2739 -3.3892
 5137SOL     OW27043   2.960   2.476  15.303  0.1360  0.2939 -0.1868
 5137SOL    HW127044   2.867   2.487  15.323 -0.1979 -0.5491 -1.2502
 5137SOL    HW227045   2.962   2.401  15.243  1.0869 -0.8576  1.2664
 5138SOL     OW27046   2.113   1.717   9.954  0.0278  0.0252  0.2283
 5138SOL    HW127047   2.190   1.699  10.009 -0.0525 -1.0240 -0.0108
 5138SOL    HW227048   2.116   1.647   9.889 -0.3501  1.2223 -1.0624
 5139SOL     OW27049   0.165   0.456  16.265  0.2305 -0.3262  0.2575
 5139SOL    HW127050   0.260   0.450  16.259  0.1544  0.1622 -1.5674
 5139SOL    HW227051   0.122   0.370  16.265  1.0339 -0.7279 -0.6788
 5140SOL     OW27052   1.035   2.010   8.289  0.2312  0.2146  0.2678
 5140SOL    HW127053   1.012   2.068   8.362  0.5976  1.6271 -0.7309
 5140SOL    HW227054   1.016   1.922   8.322  1.6951  1.1938  3.7712
 5141SOL     OW27055   4.184   4.080   2.859 -0.3633 -0.0293  0.3408
 5141SOL    HW127056   4.169   4.173   2.876 -0.4572 -0.2706  1.5841
 5141SOL    HW227057   4.250   4.064   2.927 -0.6234 -1.6918  0.1800
 5142SOL     OW27058   4.221   4.525   1.309 -0.1176 -0.0621  0.0041
 5142SOL    HW127059   4.310   4.497   1.286 -0.8146  0.1968 -2.9517
 5142SOL    HW227060   4.175   4.443   1.328 -0.0207  0.2512  1.5817
 5143SOL     OW27061   3.637   1.595   9.683  0.2485  0.4788  0.7171
 5143SOL    HW127062   3.650   1.621   9.774 -1.6793 -0.5618  1.2881
 5143SOL    HW227063   3.727   1.599   9.651  0.4386 -0.2359  1.1715
 5144SOL     OW27064   3.730   1.845  12.329  0.1980  0.1976 -0.6569
 5144SOL    HW127065   3.731   1.918  12.390 -0.0503 -0.3107 -0.0496
 5144SOL    HW227066   3.770   1.775  12.381  1.5256  1.1745 -0.3765
 5145SOL     OW27067   4.218   0.337  12.949 -0.4138 -0.2562 -0.1153
 5145SOL    HW127068   4.266   0.327  12.867 -1.8031 -1.0512 -0.8191
 5145SOL    HW227069   4.295   0.324  13.006  0.0459 -2.2270 -1.1657
 5146SOL     OW27070   4.362   3.926  10.168  0.3248 -0.5320  0.3016
 5146SOL    HW127071   4.316   3.875  10.101 -0.2553 -0.6338  0.7813
 5146SOL    HW227072   4.377   4.011  10.126 -0.9142 -0.3473  0.2300
 5147SOL     OW27073   0.144   1.834  11.672 -0.4167  0.2536  0.8248
 5147SOL    HW127074   0.222   1.813  11.723 -1.0083 -1.3129  1.0818
 5147SOL    HW227075   0.198   1.813  11.595 -2.9260 -1.7368 -0.4064
 5148SOL     OW27076   2.832   3.456   6.964  0.4958 -0.7819 -0.3542
 5148SOL    HW127077   2.896   3.514   7.005 -0.1847 -0.5758  0.4319
 5148SOL    HW227078   2.753   3.480   7.013 -1.1920 -3.4565 -1.8021
 5149SOL     OW27079   2.433   2.041   6.135  0.1474 -0.4789 -0.2184
 5149SOL    HW127080   2.347   2.081   6.126 -0.5282 -1.7233  0.6646
 5149SOL    HW227081   2.412   1.963   6.186  2.0034 -0.1447  1.0618
 5150SOL     OW27082   3.098   3.874  17.374 -0.2031  0.0919  0.2418
 5150SOL    HW127083   3.050   3.854  17.293 -0.1004 -2.6966  0.8389
 5150SOL    HW227084   3.045   3.943  17.413 -1.0867  0.7346 -2.1018
 5151SOL     OW27085   3.559   4.491   3.529  0.3924 -0.0995 -0.1368
 5151SOL    HW127086   3.467   4.513   3.548  0.8122  1.4621  0.1229
 5151SOL    HW227087   3.606   4.565   3.567  0.3945 -0.0187 -0.2975
 5152SOL     OW27088   4.383   3.912   5.878  0.7385 -0.6185  0.4211
 5152SOL    HW127089   4.479   3.914   5.881  0.7370  0.2164 -0.1546
 5152SOL    HW227090   4.350   3.830   5.840  2.8690 -2.1538  1.8508
 5153SOL     OW27091   2.784   3.319  14.686  0.1731 -0.7212 -0.0599
 5153SOL    HW127092   2.713   3.258  14.669 -1.1060  0.3572  1.2694
 5153SOL    HW227093   2.823   3.335  14.600  2.5619 -0.0502  1.1406
 5154SOL     OW27094   2.736   2.116  17.643  0.2321  0.5633  0.1017
 5154SOL    HW127095   2.768   2.027  17.633  1.1951  1.1035 -1.6027
 5154SOL    HW227096   2.677   2.107  17.568  0.5238  0.6010 -0.1330
 5155SOL     OW27097   3.271   1.386   6.878  0.5626  0.1932 -0.8108
 5155SOL    HW127098   3.321   1.360   6.800 -1.3945  2.6287 -2.8522
 5155SOL    HW227099   3.341   1.432   6.924  1.3944 -1.5023 -0.3655
 5156SOL     OW27100   0.646   2.019   8.250  0.1606 -0.2816 -0.5326
 5156SOL    HW127101   0.692   1.985   8.327 -1.5166 -2.5523 -0.5538
 5156SOL    HW227102   0.570   1.961   8.248  1.4658 -2.0316  1.3312
 5157SOL     OW27103   2.144   0.511   2.312 -0.1210  0.6183 -0.6698
 5157SOL    HW127104   2.066   0.501   2.259 -1.6152 -1.6281  1.9768
 5157SOL    HW227105   2.113   0.487   2.399  1.3476  2.3204  0.3257
 5158SOL     OW27106   0.237   1.836  10.934 -0.3348 -0.3113 -0.4764
 5158SOL    HW127107   0.306   1.807  10.993 -0.4948  0.3786  0.0526
 5158SOL    HW227108   0.261   1.929  10.941 -0.8479 -0.1857 -0.3619
 5159SOL     OW27109   0.917   0.019   1.037 -0.5529  0.3112  0.3820
 5159SOL    HW127110   0.995   4.708   1.068  0.1000  1.1066 -0.0695
 5159SOL    HW227111   0.853   4.684   1.038  0.0543 -0.2640 -0.9139
 5160SOL     OW27112   3.224   2.311  15.023 -0.7467 -0.1694 -0.5843
 5160SOL    HW127113   3.213   2.389  15.077 -1.2969 -2.0074  1.9353
 5160SOL    HW227114   3.301   2.337  14.973  0.9873 -1.8099  1.2306
 5161SOL     OW27115   0.135   3.158   6.399  0.6735 -0.4593  0.5325
 5161SOL    HW127116   0.200   3.229   6.397  1.2602 -1.0733 -2.4873
 5161SOL    HW227117   0.075   3.197   6.462 -1.0716 -3.6430  0.7924
 5162SOL     OW27118   0.492   3.374   5.637  0.0432 -0.2885 -0.1992
 5162SOL    HW127119   0.538   3.447   5.595  0.3112 -0.1735  0.2874
 5162SOL    HW227120   0.526   3.297   5.591  2.6213 -0.2371  1.5714
 5163SOL     OW27121   2.715   3.230   7.583  0.3215 -0.1752  0.1800
 5163SOL    HW127122   2.739   3.302   7.642 -0.2238 -0.0152  0.2052
 5163SOL    HW227123   2.752   3.154   7.627  0.3878 -0.7398 -0.8526
 5164SOL     OW27124   4.313   0.048   2.858  0.4245  0.3519 -0.1472
 5164SOL    HW127125   4.302   0.132   2.903 -2.6488 -0.3366  0.3726
 5164SOL    HW227126   4.405   0.025   2.844  0.9886  0.6421  3.1240
 5165SOL     OW27127   4.051   4.036   4.841  0.5595 -0.5722 -0.2837
 5165SOL    HW127128   3.977   3.999   4.889  0.3707  0.3561  0.1434
 5165SOL    HW227129   4.125   4.031   4.902  1.1500 -2.4963 -1.1673
 5166SOL     OW27130   3.938   4.358   8.823  0.1536 -0.4842 -0.2040
 5166SOL    HW127131   3.941   4.280   8.767 -0.8604  0.9264 -2.2349
 5166SOL    HW227132   4.016   4.407   8.796 -0.8487  0.4534 -1.4251
 5167SOL     OW27133   2.046   3.743  15.211 -0.2452  0.0677 -0.5550
 5167SOL    HW127134   2.112   3.710  15.151  0.9449  0.5272  0.4750
 5167SOL    HW227135   2.021   3.821  15.161  0.2647  1.3737  1.2112
 5168SOL     OW27136   4.529   1.426   4.976 -0.3398  0.2899  0.2065
 5168SOL    HW127137   4.580   1.423   5.057 -2.7264 -2.4053  1.5834
 5168SOL    HW227138   4.564   1.508   4.942 -0.6016  1.1325  1.9261
 5169SOL     OW27139   3.128   1.852   5.137  0.6165 -0.7034  0.1512
 5169SOL    HW127140   3.102   1.921   5.198  0.8829 -1.0378  0.6517
 5169SOL    HW227141   3.181   1.892   5.068  1.8473 -0.2054  1.3850
 5170SOL     OW27142   3.129   0.381   0.310 -0.1189  0.6887  0.2751
 5170SOL    HW127143   3.075   0.459   0.322 -0.9462  0.5026 -2.2138
 5170SOL    HW227144   3.084   0.332   0.379 -1.5389  0.5727 -0.7286
 5171SOL     OW27145   3.075   3.114   5.898  0.5732  0.2788  0.2305
 5171SOL    HW127146   3.170   3.119   5.902  0.6597 -1.7007  0.4680
 5171SOL    HW227147   3.063   3.019   5.899  0.1773  0.3268  0.0907
 5172SOL     OW27148   2.223   4.334   6.457  0.1571  0.0918 -0.3552
 5172SOL    HW127149   2.205   4.339   6.363  0.6488  1.4477 -0.3815
 5172SOL    HW227150   2.152   4.386   6.494  1.8614  1.3646  1.1412
 5173SOL     OW27151   2.725   3.963   3.993 -0.1925 -0.2672  0.3050
 5173SOL    HW127152   2.714   3.892   3.930 -1.9797  1.6337 -1.5125
 5173SOL    HW227153   2.805   3.942   4.040  1.3430 -0.3705 -2.3795
 5174SOL     OW27154   3.802   4.256   5.524  0.0081  0.0071  0.1997
 5174SOL    HW127155   3.755   4.248   5.606 -1.6491 -0.6509 -0.8168
 5174SOL    HW227156   3.874   4.195   5.536 -0.9576 -1.1351  0.2080
 5175SOL     OW27157   2.851   3.711   4.669 -0.8336 -0.0254 -0.5785
 5175SOL    HW127158   2.878   3.774   4.603  1.7437 -0.7713 -0.2279
 5175SOL    HW227159   2.762   3.735   4.696 -0.0760  0.5005  1.4608
 5176SOL     OW27160   2.575   1.286   5.281  0.3065  0.1103  0.3030
 5176SOL    HW127161   2.501   1.249   5.328  1.3198 -2.0723  0.1941
 5176SOL    HW227162   2.643   1.283   5.348  0.3129  1.7034  0.3790
 5177SOL     OW27163   4.231   0.211   1.984  0.1886 -0.1993  0.0449
 5177SOL    HW127164   4.221   0.179   1.894 -0.9635 -0.1411  0.1448
 5177SOL    HW227165   4.145   0.253   1.983 -0.3271 -1.2395  1.8482
 5178SOL     OW27166   1.838   2.078   1.205 -0.3116 -0.2323 -0.0594
 5178SOL    HW127167   1.757   2.129   1.206 -2.0699 -3.0535 -0.2880
 5178SOL    HW227168   1.899   2.139   1.247 -1.5325 -1.0609  2.9092
 5179SOL     OW27169   2.880   2.147  15.885 -0.1414  0.1173  0.1940
 5179SOL    HW127170   2.788   2.170  15.885 -0.2993 -0.4924  3.0154
 5179SOL    HW227171   2.867   2.064  15.930 -2.8023  0.1463 -0.5650
 5180SOL     OW27172   2.901   2.794   5.401 -0.1455  0.8375  0.5006
 5180SOL    HW127173   2.963   2.797   5.473  0.0219 -1.6314  0.4574
 5180SOL    HW227174   2.858   2.709   5.415 -1.2925  1.3179 -0.0458
 5181SOL     OW27175   1.540   2.922   7.426 -0.7663 -0.0739 -1.0083
 5181SOL    HW127176   1.490   2.885   7.498  2.0567 -2.5033 -0.2937
 5181SOL    HW227177   1.609   2.856   7.419  0.0241  0.8059 -1.5792
 5182SOL     OW27178   3.261   2.316  14.713  0.3574 -0.1392  0.0394
 5182SOL    HW127179   3.329   2.376  14.743 -0.2638  1.1326 -1.0849
 5182SOL    HW227180   3.307   2.276  14.639 -1.6259 -0.3660 -1.0730
 5183SOL     OW27181   0.924   0.889   7.609 -0.1658 -0.2320 -1.0676
 5183SOL    HW127182   0.930   0.865   7.701  0.4226 -3.7010 -1.9913
 5183SOL    HW227183   0.951   0.803   7.574  0.8515 -0.1970 -0.3526
 5184SOL     OW27184   3.021   2.915   7.411  0.5262  0.3302  0.6293
 5184SOL    HW127185   3.052   2.928   7.322  0.4856 -0.9279  0.4229
 5184SOL    HW227186   2.966   2.993   7.419 -1.2378 -0.8530 -0.0979
 5185SOL     OW27187   1.384   4.667  12.673 -0.2113  0.3503  0.0924
 5185SOL    HW127188   1.427   0.017  12.683  0.7364 -0.1610  0.4157
 5185SOL    HW227189   1.382   4.655  12.578 -2.2751 -0.6057  0.2728
 5186SOL     OW27190   0.921   1.796   1.858  0.4689 -0.0895 -0.1881
 5186SOL    HW127191   0.914   1.891   1.860  1.5114 -0.0095 -0.4846
 5186SOL    HW227192   0.910   1.789   1.763 -0.8367  1.2593 -0.1335
 5187SOL     OW27193   0.925   1.961   9.066  0.6851 -0.4000 -0.1508
 5187SOL    HW127194   0.917   1.922   9.153  0.4543  2.2322  1.0066
 5187SOL    HW227195   0.861   1.909   9.017  0.7152  0.8987 -1.5976
 5188SOL     OW27196   2.182   2.956   4.957 -0.3336  0.1552 -0.1729
 5188SOL    HW127197   2.216   2.995   5.037 -1.5488 -0.7174  0.7535
 5188SOL    HW227198   2.141   2.876   4.988 -0.4093  0.0677 -0.5013
 5189SOL     OW27199   4.226   3.558  15.750  0.0133  0.0062 -0.4400
 5189SOL    HW127200   4.228   3.536  15.657 -0.5541 -1.7815 -0.0297
 5189SOL    HW227201   4.313   3.538  15.786  0.8058  2.4675 -1.0112
 5190SOL     OW27202   3.158   1.363   2.035 -0.4653 -0.1814 -0.2693
 5190SOL    HW127203   3.225   1.415   2.078 -0.6469  1.1404 -1.5951
 5190SOL    HW227204   3.155   1.401   1.947 -0.2266  0.4759  0.0077
 5191SOL     OW27205   2.179   2.302   8.506  0.3484  0.4503 -0.3469
 5191SOL    HW127206   2.209   2.211   8.497  1.5746  0.7577  0.5563
 5191SOL    HW227207   2.086   2.283   8.505  0.0476  1.9660 -0.8507
 5192SOL     OW27208   2.692   4.444   3.759  0.1384  0.1614  0.2531
 5192SOL    HW127209   2.714   4.367   3.706  1.9830  0.0472  1.1782
 5192SOL    HW227210   2.628   4.497   3.712  0.6090  0.0354 -0.5390
 5193SOL     OW27211   4.330   0.754   3.258  0.3775 -0.0958  0.6085
 5193SOL    HW127212   4.315   0.848   3.251  3.8131  0.3448 -0.8124
 5193SOL    HW227213   4.425   0.749   3.250  0.4280 -0.1865  1.2777
 5194SOL     OW27214   1.505   2.877   0.134 -0.2473  0.1412  0.4833
 5194SOL    HW127215   1.477   2.806   0.191 -3.8289  1.3475  0.2752
 5194SOL    HW227216   1.421   2.923   0.127  0.1125  0.3807 -2.3104
 5195SOL     OW27217   0.507   2.566   4.093  0.3207  0.3154  0.1051
 5195SOL    HW127218   0.472   2.547   4.006  1.8327  2.0417 -0.8696
 5195SOL    HW227219   0.435   2.558   4.155 -0.9801  2.2263 -1.1351
 5196SOL     OW27220   0.357   2.758   5.526 -0.4815  0.0438 -0.1197
 5196SOL    HW127221   0.279   2.807   5.502  0.0828 -0.3713 -2.7692
 5196SOL    HW227222   0.387   2.816   5.596  0.2181  0.0603 -0.4307
 5197SOL     OW27223   2.053   4.615   0.061  0.4043  0.1782  0.3466
 5197SOL    HW127224   2.040   4.701   0.021  1.7910  0.0947 -0.2833
 5197SOL    HW227225   2.141   4.616   0.100 -1.2277 -1.5699  3.9834
 5198SOL     OW27226   0.857   4.207   2.745  0.4322  0.3760 -0.4332
 5198SOL    HW127227   0.832   4.134   2.689 -0.7059  0.1428  0.3714
 5198SOL    HW227228   0.784   4.269   2.739  1.1893  1.3199  0.0533
 5199SOL     OW27229   0.928   1.169   5.222  0.1563 -0.1921 -0.2622
 5199SOL    HW127230   1.014   1.155   5.183  0.6086 -0.9378  1.0095
 5199SOL    HW227231   0.885   1.182   5.137 -1.1729  1.5864  0.6662
 5200SOL     OW27232   4.591   1.861   2.842  0.5755  0.4599 -0.2195
 5200SOL    HW127233   4.656   1.909   2.893  1.6400  0.3556 -1.4747
 5200SOL    HW227234   4.548   1.825   2.919 -0.2220  0.4012 -0.6946
 5201SOL     OW27235   3.748   2.419   7.383 -0.5088 -0.0606  0.4826
 5201SOL    HW127236   3.762   2.429   7.289 -1.3096  2.0833  0.5883
 5201SOL    HW227237   3.837   2.404   7.414 -1.9190 -3.5746  2.8281
 5202SOL     OW27238   0.782   3.065   9.892  0.0165 -0.0880 -0.2959
 5202SOL    HW127239   0.715   3.054   9.825 -0.0651 -0.8369 -0.0862
 5202SOL    HW227240   0.804   3.158   9.880  1.8658 -0.4192  0.5002
 5203SOL     OW27241   0.370   2.876   2.632 -0.6904  0.7943 -0.1525
 5203SOL    HW127242   0.415   2.800   2.668 -1.9457  0.8918  1.6362
 5203SOL    HW227243   0.324   2.829   2.562 -2.5127 -0.8654  2.1560
 5204SOL     OW27244   1.573   2.004   6.228  0.3877  0.1758 -0.3325
 5204SOL    HW127245   1.646   2.067   6.231  0.6112 -0.1270  0.6860
 5204SOL    HW227246   1.563   1.976   6.319  0.2393 -1.9202 -0.9882
 5205SOL     OW27247   3.999   1.384   8.011  0.5960 -0.3206  0.7324
 5205SOL    HW127248   4.095   1.386   8.013  0.5973  1.5172 -1.1128
 5205SOL    HW227249   3.976   1.468   8.049 -0.4647 -0.7432  1.0172
 5206SOL     OW27250   3.993   4.092   8.735 -0.0975  0.0169  0.7800
 5206SOL    HW127251   4.080   4.107   8.699  0.1930 -0.8366  1.1328
 5206SOL    HW227252   4.004   4.092   8.830 -0.0232 -0.4592  0.7690
 5207SOL     OW27253   1.232   1.177   8.539 -0.1666  0.5395  0.0279
 5207SOL    HW127254   1.278   1.166   8.623  0.7915  0.6298 -0.4881
 5207SOL    HW227255   1.237   1.272   8.536  1.6129  0.4133 -1.2529
 5208SOL     OW27256   3.891   1.331   4.833  0.0184  0.1673 -0.0933
 5208SOL    HW127257   3.858   1.420   4.823 -2.8697 -0.6164  2.3852
 5208SOL    HW227258   3.968   1.334   4.777  1.3460  1.8403  1.8128
 5209SOL     OW27259   0.056   2.328  15.372 -0.3594 -0.2543 -0.3780
 5209SOL    HW127260   0.033   2.273  15.447 -3.0447  1.4465  0.0483
 5209SOL    HW227261   0.147   2.344  15.398 -1.0364  3.0728  0.0635
 5210SOL     OW27262   2.708   4.163   8.782  0.6254  0.1210 -0.3151
 5210SOL    HW127263   2.759   4.244   8.785  1.3336 -0.3709  1.1404
 5210SOL    HW227264   2.672   4.167   8.871 -0.7869 -1.6719 -0.7974
 5211SOL     OW27265   3.835   4.272  14.791  0.1896 -0.0831  0.0505
 5211SOL    HW127266   3.873   4.340  14.735 -0.8374  0.3220 -0.1452
 5211SOL    HW227267   3.776   4.225  14.733 -0.5017  2.2024 -1.0960
 5212SOL     OW27268   3.313   2.262   6.430  0.1601 -0.3080  0.6883
 5212SOL    HW127269   3.376   2.330   6.405 -0.7325 -0.4194 -1.8768
 5212SOL    HW227270   3.343   2.203   6.361 -2.2096 -1.8235  0.9296
 5213SOL     OW27271   1.617   0.458  11.988  0.1412 -0.4475  0.0662
 5213SOL    HW127272   1.589   0.378  11.944  0.7028 -0.1762 -0.7938
 5213SOL    HW227273   1.562   0.459  12.066 -0.4765  1.7263 -0.3722
 5214SOL     OW27274   0.081   2.217   8.553  0.1791  0.3702  0.1177
 5214SOL    HW127275   0.001   2.182   8.593 -1.2374  0.3131 -2.7384
 5214SOL    HW227276   0.042   2.233   8.467  1.6729  0.1843 -0.5851
 5215SOL     OW27277   2.219   4.559   4.644  0.7404  0.2208 -0.1396
 5215SOL    HW127278   2.276   4.514   4.582 -0.4168 -1.0264 -0.2782
 5215SOL    HW227279   2.259   4.534   4.728 -0.3006  4.7464  1.7477
 5216SOL     OW27280   1.723   1.318  16.900  0.1629  0.3399 -1.3728
 5216SOL    HW127281   1.684   1.296  16.984  0.0693  0.2494 -1.4412
 5216SOL    HW227282   1.681   1.248  16.851  0.6527  0.9390 -2.6537
 5217SOL     OW27283   0.543   0.559   2.777 -0.2647 -0.2264 -0.2824
 5217SOL    HW127284   0.629   0.588   2.809 -0.6934  0.2884  0.4037
 5217SOL    HW227285   0.517   0.632   2.722  0.9665  0.3460 -0.1197
 5218SOL     OW27286   0.049   0.302   8.847  0.1055 -0.1664 -0.1468
 5218SOL    HW127287   4.691   0.310   8.831 -0.2470 -2.9119  0.4983
 5218SOL    HW227288   0.077   0.393   8.846 -0.3351 -0.0492 -2.0692
 5219SOL     OW27289   3.543   4.009   2.798 -0.1727  0.2571 -0.3978
 5219SOL    HW127290   3.601   4.083   2.814 -1.1082  0.9254 -0.0965
 5219SOL    HW227291   3.558   3.951   2.872 -0.9086  0.1681 -0.3116
 5220SOL     OW27292   1.421   0.835   5.564 -0.0372 -0.2314  0.1753
 5220SOL    HW127293   1.351   0.862   5.504  2.7974  0.3301 -2.9311
 5220SOL    HW227294   1.373   0.828   5.646 -0.3573 -2.1738 -0.1891
 5221SOL     OW27295   2.755   1.348  14.810  0.6981  0.1461 -0.0011
 5221SOL    HW127296   2.751   1.346  14.715 -2.0832 -1.8491  0.1536
 5221SOL    HW227297   2.666   1.370  14.838  1.0055  0.5468  0.6653
 5222SOL     OW27298   2.271   4.378   7.024  0.0028 -0.3665  0.4169
 5222SOL    HW127299   2.347   4.435   7.037  1.1301 -2.0090  0.9335
 5222SOL    HW227300   2.214   4.431   6.968  2.3078  3.6540  1.8075
 5223SOL     OW27301   2.385   1.346   3.296 -0.0390 -0.1855 -0.3544
 5223SOL    HW127302   2.407   1.262   3.257 -0.1873 -1.4428  2.3125
 5223SOL    HW227303   2.460   1.397   3.265 -0.0313 -1.5722 -2.6612
 5224SOL     OW27304   2.815   1.187  13.056 -0.9605  0.0657  0.3760
 5224SOL    HW127305   2.837   1.228  13.140  0.8898 -1.4245  0.6184
 5224SOL    HW227306   2.732   1.234  13.045 -1.1358 -0.5908 -0.9790
 5225SOL     OW27307   1.694   4.480   2.461 -0.1339  0.9959 -0.0371
 5225SOL    HW127308   1.749   4.415   2.505 -1.5298  0.3157  0.6793
 5225SOL    HW227309   1.697   4.556   2.518 -1.7007  0.6285  0.5268
 5226SOL     OW27310   3.732   3.974   8.188  0.5476  0.0102  0.2720
 5226SOL    HW127311   3.678   4.000   8.113 -0.7903 -0.3133  1.1131
 5226SOL    HW227312   3.666   3.936   8.247  2.0009 -4.5595 -1.0011
 5227SOL     OW27313   0.608   0.543   5.051 -0.1775  0.7736 -0.5485
 5227SOL    HW127314   0.535   0.521   5.109  0.0040  0.0071 -0.6045
 5227SOL    HW227315   0.656   0.595   5.115 -1.5869 -0.7484  1.7182
 5228SOL     OW27316   2.080   2.236   8.897  0.1509 -0.3693 -0.6745
 5228SOL    HW127317   2.109   2.146   8.892  0.2596 -0.4085  0.6287
 5228SOL    HW227318   2.155   2.275   8.943 -0.2370  0.2656 -0.5729
 5229SOL     OW27319   3.656   4.606   4.121 -0.4979  0.6100  0.2035
 5229SOL    HW127320   3.581   4.655   4.153  0.0974  1.1377  0.7915
 5229SOL    HW227321   3.710   4.679   4.089  1.8275 -0.7903  0.9185
 5230SOL     OW27322   1.007   4.314   8.108 -0.0150 -0.5536 -0.1924
 5230SOL    HW127323   0.998   4.384   8.173 -0.7674 -1.1388  0.3347
 5230SOL    HW227324   0.916   4.291   8.090 -0.6861  1.7908  0.1580
 5231SOL     OW27325   0.139   0.738  14.413 -0.2242  0.2535 -0.6550
 5231SOL    HW127326   0.077   0.764  14.481  0.8765  2.1024 -0.3308
 5231SOL    HW227327   0.077   0.746  14.341  0.0548  0.3757 -0.8839
 5232SOL     OW27328   3.907   3.231   3.106  0.0434 -0.5865  0.7746
 5232SOL    HW127329   3.995   3.259   3.081  0.2062 -1.7964 -0.0268
 5232SOL    HW227330   3.914   3.140   3.078 -1.4391  0.3688 -2.8333
 5233SOL     OW27331   1.870   0.179   4.444 -0.2969  0.6397  0.4364
 5233SOL    HW127332   1.870   0.104   4.385 -0.7648 -0.0665  1.3295
 5233SOL    HW227333   1.819   0.238   4.387  0.5464 -0.6324 -1.6221
 5234SOL     OW27334   0.142   4.549  15.751  0.7687 -0.2885 -0.1345
 5234SOL    HW127335   0.065   4.553  15.808  0.0269 -1.0591 -1.0756
 5234SOL    HW227336   0.154   4.643  15.746 -4.9409  0.4327 -0.5624
 5235SOL     OW27337   4.019   1.384   7.714 -0.5639 -0.2128  0.0930
 5235SOL    HW127338   4.053   1.436   7.641 -0.0420 -1.1922 -0.3611
 5235SOL    HW227339   4.026   1.448   7.785  3.9460  0.3178 -0.7865
 5236SOL     OW27340   2.417   0.469   6.240 -0.1896 -0.2887 -0.2863
 5236SOL    HW127341   2.337   0.516   6.263 -0.0612 -0.1838 -0.0521
 5236SOL    HW227342   2.401   0.376   6.259  2.1765 -0.5387  0.5205
 5237SOL     OW27343   1.008   4.496  16.077  0.0569 -0.4649 -0.3019
 5237SOL    HW127344   0.988   4.549  16.000 -0.6014  0.6442  0.6291
 5237SOL    HW227345   1.052   4.421  16.038 -0.2258 -0.1455 -1.2566
 5238SOL     OW27346   0.016   1.441   2.638  0.3312 -0.0423 -0.4169
 5238SOL    HW127347   0.078   1.475   2.702 -1.2166 -1.2806  1.7241
 5238SOL    HW227348   0.040   1.348   2.639 -0.6756 -0.3065 -0.1980
 5239SOL     OW27349   2.390   4.419   0.756 -0.1047  0.3366 -0.2837
 5239SOL    HW127350   2.297   4.410   0.732  0.3832 -1.6747 -1.4630
 5239SOL    HW227351   2.430   4.385   0.676  2.0110  3.4027 -0.5123
 5240SOL     OW27352   4.043   1.404   6.862  0.1208 -0.3688  0.0246
 5240SOL    HW127353   4.030   1.400   6.957 -1.9010 -1.0618 -0.2753
 5240SOL    HW227354   4.066   1.313   6.844 -0.4806 -0.8043  1.4739
 5241SOL     OW27355   0.733   1.575   1.593  0.1501 -0.6179 -0.3770
 5241SOL    HW127356   0.716   1.565   1.686 -1.3449 -2.1192 -0.8095
 5241SOL    HW227357   0.729   1.483   1.565 -0.6390 -0.0304 -2.2437
 5242SOL     OW27358   4.556   3.356   4.650 -0.4089 -0.3565 -0.2020
 5242SOL    HW127359   4.538   3.269   4.685 -1.9551  0.0006 -0.1298
 5242SOL    HW227360   4.632   3.338   4.594 -0.9852  1.4543 -1.5821
 5243SOL     OW27361   4.304   2.036   0.891  0.1725  0.2044 -0.3772
 5243SOL    HW127362   4.287   2.080   0.807 -0.2042 -0.3353 -0.5828
 5243SOL    HW227363   4.399   2.041   0.885  0.1174  1.8476 -0.0080
 5244SOL     OW27364   0.641   1.766  11.231 -0.3180  0.0456 -0.4996
 5244SOL    HW127365   0.634   1.678  11.269  1.4324  0.9334  1.9081
 5244SOL    HW227366   0.682   1.819  11.300 -0.2227 -1.4978  0.6510
 5245SOL     OW27367   1.508   1.790  16.203  0.3872  0.2934  0.2600
 5245SOL    HW127368   1.434   1.851  16.212 -0.7161 -0.7508 -1.7611
 5245SOL    HW227369   1.479   1.725  16.267  1.4671  0.8120  1.2678
 5246SOL     OW27370   0.325   0.891   7.274  0.4273 -0.0327 -0.6317
 5246SOL    HW127371   0.374   0.827   7.222  1.9697 -1.3759  2.5098
 5246SOL    HW227372   0.250   0.839   7.303  0.0016  0.2895 -1.1595
 5247SOL     OW27373   0.953   1.809   8.462 -0.0798  0.1554  0.0783
 5247SOL    HW127374   0.966   1.802   8.557 -0.4124  0.9264  0.1797
 5247SOL    HW227375   0.862   1.838   8.466 -0.0964 -0.3093  3.0089
 5248SOL     OW27376   1.305   4.084   7.442  0.4649  0.2834 -0.2883
 5248SOL    HW127377   1.306   4.170   7.484  0.0810  1.1240 -1.9885
 5248SOL    HW227378   1.330   4.108   7.353  0.3364 -0.9626 -0.6623
 5249SOL     OW27379   1.820   1.984   3.090 -0.3831 -0.1520 -0.1267
 5249SOL    HW127380   1.879   2.059   3.089 -1.1791  0.5092  1.8898
 5249SOL    HW227381   1.742   2.014   3.137 -0.0900  0.6992 -0.1785
 5250SOL     OW27382   1.990   2.914   4.738  0.5177  0.3462  0.2243
 5250SOL    HW127383   2.008   2.857   4.664  0.9127 -0.4749  0.9643
 5250SOL    HW227384   2.080   2.936   4.761  0.2372  0.9685  0.7312
 5251SOL     OW27385   2.967   0.740  11.751 -0.3561 -0.3619  0.0034
 5251SOL    HW127386   3.036   0.674  11.751  0.3392  0.3712  1.6621
 5251SOL    HW227387   2.893   0.680  11.762 -0.9433  0.2917 -0.3401
 5252SOL     OW27388   2.893   2.431  10.427  0.3366  0.6117 -0.1334
 5252SOL    HW127389   2.933   2.351  10.462  0.2113  1.1234  1.1778
 5252SOL    HW227390   2.854   2.397  10.346 -0.8558  1.1605  0.2063
 5253SOL     OW27391   0.984   2.414   7.334 -0.5244  0.3137  0.2743
 5253SOL    HW127392   0.997   2.495   7.284 -0.5653 -1.2817 -2.3550
 5253SOL    HW227393   0.987   2.435   7.427 -0.8422 -0.0255  0.3599
 5254SOL     OW27394   1.597   0.931  15.913  0.6769 -0.4036 -0.1822
 5254SOL    HW127395   1.534   0.894  15.975 -1.5649  1.5529 -1.2424
 5254SOL    HW227396   1.558   1.011  15.878  1.2474 -1.1192 -2.3950
 5255SOL     OW27397   2.748   1.337   3.292  0.9591  0.0412  0.4024
 5255SOL    HW127398   2.683   1.334   3.222  1.8402  0.3785 -0.4341
 5255SOL    HW227399   2.804   1.264   3.265  1.3285  0.2183  0.6825
 5256SOL     OW27400   0.539   2.899   8.058 -0.3786  0.5911 -0.4000
 5256SOL    HW127401   0.518   2.828   7.997  1.2033 -0.3236  0.1271
 5256SOL    HW227402   0.589   2.966   8.012 -2.2470  2.0737 -0.2758
 5257SOL     OW27403   2.120   1.795   0.495 -0.1049 -0.6176  0.0127
 5257SOL    HW127404   2.074   1.715   0.469 -0.4512 -0.5611  0.4551
 5257SOL    HW227405   2.053   1.840   0.547 -1.6882 -0.1262 -2.4779
 5258SOL     OW27406   1.932   2.599   2.141  0.0168  0.3218 -0.2125
 5258SOL    HW127407   1.994   2.529   2.120 -0.7050  0.1939 -1.8265
 5258SOL    HW227408   1.984   2.676   2.116  1.0154 -0.5829 -0.9263
 5259SOL     OW27409   4.492   4.137   8.779 -0.2213 -0.2423 -0.0416
 5259SOL    HW127410   4.429   4.158   8.848 -1.1825 -0.2092 -0.9315
 5259SOL    HW227411   4.487   4.041   8.772 -0.1892 -0.0861 -2.1083
 5260SOL     OW27412   3.363   2.230   7.864 -0.8844 -0.7371 -0.4079
 5260SOL    HW127413   3.291   2.181   7.904  0.1819 -1.2259  0.8849
 5260SOL    HW227414   3.317   2.255   7.783 -0.3635 -0.4103 -0.6053
 5261SOL     OW27415   4.717   0.018   0.171 -0.3069 -0.5257 -0.1526
 5261SOL    HW127416   4.670   4.670   0.162  0.2303 -1.4661  6.0888
 5261SOL    HW227417   0.053   0.003   0.109 -0.4351  0.9151 -0.6684
 5262SOL     OW27418   0.139   3.316   5.841 -0.4988 -0.0422 -0.2025
 5262SOL    HW127419   0.223   3.321   5.885 -0.9330  1.4195  0.4374
 5262SOL    HW227420   0.143   3.225   5.811 -1.9845 -0.3201  0.4133
 5263SOL     OW27421   2.844   2.300   3.563  0.0698  0.4443  0.1819
 5263SOL    HW127422   2.778   2.275   3.627  1.3618 -1.6386  0.6938
 5263SOL    HW227423   2.893   2.218   3.560 -0.4288  0.1191  0.9250
 5264SOL     OW27424   1.080   2.104  10.394  0.2920  0.3199 -0.0230
 5264SOL    HW127425   1.141   2.176  10.380 -0.5802  1.1269  0.3275
 5264SOL    HW227426   1.002   2.157  10.414  0.8374  0.4824  1.6722
 5265SOL     OW27427   3.702   2.797   2.926  0.0150  0.1733  0.5432
 5265SOL    HW127428   3.632   2.791   2.861 -0.7386 -1.9846  1.5316
 5265SOL    HW227429   3.658   2.862   2.980  0.5828 -0.1945  1.4425
 5266SOL     OW27430   1.299   1.476   9.736  0.1491 -0.7097  0.1845
 5266SOL    HW127431   1.228   1.412   9.734 -1.1927  0.8205 -1.9386
 5266SOL    HW227432   1.361   1.441   9.673 -0.7899 -0.8234 -0.6882
 5267SOL     OW27433   4.621   0.486   8.691 -0.3051  0.3629 -0.4808
 5267SOL    HW127434   4.632   0.581   8.694 -2.6035  0.6053  0.2536
 5267SOL    HW227435   4.548   0.466   8.751  0.2203 -1.9402 -0.5858
 5268SOL     OW27436   0.532   2.868  16.180 -0.1462  0.3331 -0.3957
 5268SOL    HW127437   0.527   2.798  16.246 -1.0122 -1.5245 -2.4423
 5268SOL    HW227438   0.464   2.845  16.116 -0.6315 -2.8012  1.2254
 5269SOL     OW27439   2.178   3.751   7.763 -0.1657  0.3278  0.6517
 5269SOL    HW127440   2.090   3.748   7.802 -0.3505  1.4370  0.2978
 5269SOL    HW227441   2.205   3.840   7.782  0.7360  0.0276  0.7812
 5270SOL     OW27442   2.596   2.262   7.824  0.0880  0.0709 -0.3434
 5270SOL    HW127443   2.570   2.351   7.849  0.4593  0.4591 -1.3618
 5270SOL    HW227444   2.556   2.214   7.897 -0.2556  0.2742 -0.3990
 5271SOL     OW27445   1.040   2.694   4.025 -0.1175  0.0923  0.3119
 5271SOL    HW127446   0.950   2.669   4.045 -0.1956  2.3335  2.7255
 5271SOL    HW227447   1.018   2.770   3.971 -0.7234 -0.6279 -0.4482
 5272SOL     OW27448   3.924   1.725   8.290 -0.4199 -0.3524  0.4246
 5272SOL    HW127449   3.898   1.634   8.305 -1.2761 -0.1104  0.4130
 5272SOL    HW227450   4.017   1.705   8.299 -0.3524  0.0345  0.5948
 5273SOL     OW27451   0.002   3.209   3.304  0.2991 -0.0641  0.3095
 5273SOL    HW127452   4.654   3.254   3.320  0.6676  0.5164  0.6256
 5273SOL    HW227453   4.729   3.114   3.303  1.2300 -0.1713  1.7898
 5274SOL     OW27454   0.353   0.741   3.589  0.2943 -0.1594  0.0278
 5274SOL    HW127455   0.280   0.698   3.634 -1.3681  1.9147 -0.6956
 5274SOL    HW227456   0.322   0.785   3.510 -0.3352 -0.5058  0.0865
 5275SOL     OW27457   1.903   3.339  11.964  0.0262 -1.1059  0.0837
 5275SOL    HW127458   1.994   3.345  11.935 -1.1446  0.0920 -3.2901
 5275SOL    HW227459   1.895   3.417  12.019 -0.0718 -1.1294  0.1019
 5276SOL     OW27460   2.167   0.792   6.539  0.0563  0.2229  0.1035
 5276SOL    HW127461   2.239   0.854   6.529  0.2736 -0.3212 -1.6101
 5276SOL    HW227462   2.183   0.756   6.627  0.0559 -0.2866 -0.1030
 5277SOL     OW27463   1.781   2.708   6.614  0.5224  0.0291  0.0670
 5277SOL    HW127464   1.770   2.748   6.700 -2.1549  1.7008 -1.0486
 5277SOL    HW227465   1.875   2.721   6.602  0.7196 -1.3710  0.1696
 5278SOL     OW27466   2.036   1.099   6.489  0.5080 -0.0405  0.0536
 5278SOL    HW127467   2.018   1.044   6.566 -1.8763  0.1826 -0.3390
 5278SOL    HW227468   2.074   1.175   6.532 -1.7292  1.0481  0.1077
 5279SOL     OW27469   4.356   2.679  14.434 -0.6192 -0.3645  0.4923
 5279SOL    HW127470   4.355   2.775  14.431 -1.1496 -0.4456 -1.7604
 5279SOL    HW227471   4.299   2.659  14.509 -0.4119 -1.2673  0.4085
 5280SOL     OW27472   0.715   1.141   3.089 -0.3374 -0.0924 -0.6643
 5280SOL    HW127473   0.705   1.048   3.069  2.3352 -0.3501 -0.8012
 5280SOL    HW227474   0.630   1.164   3.127 -0.8602 -0.6040 -1.5251
 5281SOL     OW27475   0.271   3.023   8.552 -0.2494  0.1376 -0.4831
 5281SOL    HW127476   0.251   2.937   8.514 -2.7192  0.6817 -0.4070
 5281SOL    HW227477   0.308   3.008   8.638 -2.3120 -3.5231 -0.2455
 5282SOL     OW27478   3.163   1.739   6.259 -0.0499  0.0109  0.4355
 5282SOL    HW127479   3.086   1.732   6.315 -1.7221 -0.1691 -1.9108
 5282SOL    HW227480   3.228   1.712   6.325 -0.7349 -2.4525  0.1075
 5283SOL     OW27481   2.221   3.281   5.462  0.0850 -0.8543  0.2720
 5283SOL    HW127482   2.145   3.336   5.448  1.0373  0.1321 -0.9414
 5283SOL    HW227483   2.183   3.194   5.478  1.4073 -1.5419 -0.2942
 5284SOL     OW27484   3.440   2.807   3.461  0.2166 -0.4549 -0.0726
 5284SOL    HW127485   3.446   2.842   3.550 -0.9623 -0.0470 -0.1515
 5284SOL    HW227486   3.405   2.724   3.494 -0.8682  0.4502  1.0740
 5285SOL     OW27487   3.184   0.260   2.547 -0.1172  0.2904 -0.0582
 5285SOL    HW127488   3.206   0.173   2.580  1.4056  0.5017 -0.5401
 5285SOL    HW227489   3.089   0.256   2.563  0.2655  1.6464  2.5191
 5286SOL     OW27490   4.270   4.659   7.736  0.4385 -0.7599  0.4807
 5286SOL    HW127491   4.234   4.572   7.718  1.2884 -0.5157 -2.5268
 5286SOL    HW227492   4.200   4.699   7.788  1.7107 -0.0251  1.6173
 5287SOL     OW27493   0.956   0.992   9.114  0.8672  0.3785  0.0831
 5287SOL    HW127494   0.940   0.899   9.128 -0.1054  0.5745  0.2942
 5287SOL    HW227495   0.955   1.019   9.206  0.4783  1.3874 -0.2168
 5288SOL     OW27496   0.823   0.214  14.729  0.3613  0.0875  0.0107
 5288SOL    HW127497   0.886   0.145  14.752  0.0801 -0.2781 -0.3074
 5288SOL    HW227498   0.841   0.282  14.794  0.0594  0.6323 -0.4827
 5289SOL     OW27499   0.819   1.754   2.806 -0.4659 -0.2734 -0.4208
 5289SOL    HW127500   0.736   1.750   2.853 -0.0900 -0.3026  0.2523
 5289SOL    HW227501   0.801   1.712   2.722 -0.1775 -1.2262 -0.0028
 5290SOL     OW27502   1.332   4.716   2.824  0.3444 -0.3742 -0.2121
 5290SOL    HW127503   1.250   4.707   2.874  1.4541 -2.7207  1.1700
 5290SOL    HW227504   1.293   4.731   2.738 -0.0387  0.6075  0.1354
 5291SOL     OW27505   0.101   0.752   5.065 -0.2081 -0.0660  0.7951
 5291SOL    HW127506   0.089   0.802   4.984 -1.3141  0.8054  1.4957
 5291SOL    HW227507   0.038   0.681   5.050 -1.9689  1.5924  0.2340
 5292SOL     OW27508   2.803   2.597   9.422  0.5478 -0.4133  0.0483
 5292SOL    HW127509   2.714   2.629   9.429  1.0892  0.9454  0.6988
 5292SOL    HW227510   2.805   2.567   9.331  1.0100  2.2190 -0.8130
 5293SOL     OW27511   3.838   4.114   5.240 -0.3067  0.0916 -0.2179
 5293SOL    HW127512   3.921   4.105   5.288  0.1820  1.8572 -0.7312
 5293SOL    HW227513   3.868   4.162   5.163 -2.3151  0.0414 -1.0256
 5294SOL     OW27514   0.308   4.728  11.983 -0.5023 -0.2424 -0.3841
 5294SOL    HW127515   0.322   4.648  11.931 -0.9594  0.0154 -0.9069
 5294SOL    HW227516   0.395   0.027  11.961 -1.1951  0.6012 -1.8650
 5295SOL     OW27517   3.315   1.615   3.424 -0.2824 -0.5065 -0.0698
 5295SOL    HW127518   3.375   1.684   3.455  0.3525 -0.1748 -2.0596
 5295SOL    HW227519   3.333   1.607   3.331  1.7114 -0.7970  0.3300
 5296SOL     OW27520   2.962   2.341  10.848 -0.0720 -0.1638 -0.1239
 5296SOL    HW127521   2.888   2.280  10.842  0.1570 -0.6159  1.6108
 5296SOL    HW227522   2.917   2.424  10.864 -0.8904 -0.4079 -1.1281
 5297SOL     OW27523   4.109   2.391   4.932  0.2773  0.4204 -0.8913
 5297SOL    HW127524   4.040   2.328   4.910 -0.0125  0.7646 -0.9759
 5297SOL    HW227525   4.157   2.399   4.849 -0.7035  0.3388 -1.4713
 5298SOL     OW27526   2.425   1.511   7.741 -0.1057  0.2185  0.3417
 5298SOL    HW127527   2.517   1.493   7.725 -0.8499 -0.8947 -2.6863
 5298SOL    HW227528   2.424   1.479   7.832 -0.1645  0.0722  0.2882
 5299SOL     OW27529   2.536   2.259   3.663 -0.2051 -0.3817  0.7659
 5299SOL    HW127530   2.548   2.353   3.645 -2.5167 -0.9663 -3.9403
 5299SOL    HW227531   2.464   2.274   3.724  1.1038 -1.2673  2.5187
 5300SOL     OW27532   0.046   0.146   3.019 -0.1763  0.0631  0.1832
 5300SOL    HW127533   4.698   0.109   3.046 -0.6449  0.6478 -0.4629
 5300SOL    HW227534   0.107   0.082   3.057 -0.7646 -1.3870 -1.3292
 5301SOL     OW27535   4.519   1.181   3.139 -0.4198 -0.4342 -0.6253
 5301SOL    HW127536   4.553   1.192   3.050 -0.0981 -3.7167 -0.9044
 5301SOL    HW227537   4.443   1.129   3.112 -0.0282 -2.3188  1.8517
 5302SOL     OW27538   4.658   0.462   0.801 -0.2399  0.1007  0.0800
 5302SOL    HW127539   4.593   0.531   0.795 -0.0976  0.0090 -2.4840
 5302SOL    HW227540   4.711   0.503   0.869 -0.6843  0.0999  0.4252
 5303SOL     OW27541   3.966   0.397   7.934 -0.4154 -0.3360 -0.0441
 5303SOL    HW127542   4.000   0.434   7.852 -1.0873 -1.6575 -0.9199
 5303SOL    HW227543   3.886   0.451   7.935 -0.6122 -0.6416  1.1311
 5304SOL     OW27544   0.152   2.865   5.919  0.0954 -0.2748 -0.2110
 5304SOL    HW127545   0.232   2.916   5.927 -2.0445  3.2759 -1.7998
 5304SOL    HW227546   0.110   2.880   6.004 -0.3954  1.3930 -0.7531
 5305SOL     OW27547   2.188   0.838   5.433 -0.4040 -0.1411 -1.2172
 5305SOL    HW127548   2.152   0.765   5.383  0.0879 -0.6495 -0.8334
 5305SOL    HW227549   2.281   0.845   5.412 -0.5705 -2.6019 -2.8217
 5306SOL     OW27550   1.453   2.903   2.970 -0.2222  0.9159 -0.4565
 5306SOL    HW127551   1.392   2.881   3.040 -0.6402 -1.5501 -1.5975
 5306SOL    HW227552   1.397   2.960   2.918  0.3525 -1.2132 -3.4148
 5307SOL     OW27553   2.945   1.638  16.606 -0.5060  0.4270  0.4534
 5307SOL    HW127554   3.011   1.659  16.672 -1.1306  0.0370  1.2029
 5307SOL    HW227555   2.927   1.548  16.635 -1.8520  0.3273 -0.6781
 5308SOL     OW27556   1.806   1.568   9.814  0.8230 -1.2405  0.4666
 5308SOL    HW127557   1.736   1.624   9.779  2.1298  0.3903  0.4406
 5308SOL    HW227558   1.828   1.607   9.898  1.0500  2.1157 -1.1462
 5309SOL     OW27559   1.794   0.481  16.580  0.4171  0.0347  0.4526
 5309SOL    HW127560   1.698   0.478  16.573  0.3859  0.3342  0.7741
 5309SOL    HW227561   1.806   0.404  16.635  1.4667 -0.1229 -0.0086
 5310SOL     OW27562   3.405   2.936   9.319  0.4572 -0.2419  0.4327
 5310SOL    HW127563   3.341   2.961   9.252 -0.3375  0.2721  1.3904
 5310SOL    HW227564   3.418   3.008   9.380 -1.3441  0.8777 -0.5095
 5311SOL     OW27565   0.708   1.582  16.253  0.3094  0.7417 -0.1018
 5311SOL    HW127566   0.689   1.535  16.334  0.4524 -1.8298 -1.5613
 5311SOL    HW227567   0.651   1.658  16.262 -0.3393  0.4973 -2.0908
 5312SOL     OW27568   2.370   2.547  14.686 -0.0146 -0.1937  0.8001
 5312SOL    HW127569   2.409   2.478  14.739 -0.4138 -1.4170 -0.4965
 5312SOL    HW227570   2.397   2.630  14.725  0.0930  0.5880 -0.9089
 5313SOL     OW27571   4.379   3.271   7.353  1.1219  0.0235  0.0932
 5313SOL    HW127572   4.327   3.192   7.370 -1.3267  1.8607  1.2608
 5313SOL    HW227573   4.304   3.323   7.325  1.5186  0.7402  0.3738
 5314SOL     OW27574   3.084   4.537   7.530 -0.3701  1.2865 -0.1240
 5314SOL    HW127575   3.154   4.596   7.558  0.3323  1.0476 -1.3575
 5314SOL    HW227576   3.112   4.511   7.442  0.6326  0.7196  0.3517
 5315SOL     OW27577   3.333   3.371  12.724  0.1161  0.3437 -0.1883
 5315SOL    HW127578   3.302   3.438  12.663 -2.6456 -1.3590 -0.6773
 5315SOL    HW227579   3.252   3.320  12.717 -0.6971  1.4921  0.8942
 5316SOL     OW27580   1.636   0.217   8.643  0.0834  0.0602 -0.0773
 5316SOL    HW127581   1.594   0.145   8.691 -1.4887  0.6354 -0.5988
 5316SOL    HW227582   1.703   0.173   8.591  0.6524  1.6669 -0.7022
 5317SOL     OW27583   1.203   0.270  11.654 -0.1875  0.0573  0.0764
 5317SOL    HW127584   1.230   0.320  11.731 -0.3680 -0.6950  0.6274
 5317SOL    HW227585   1.136   0.215  11.695  1.0867  0.1519  2.2757
 5318SOL     OW27586   3.977   3.741   2.213 -0.2135 -0.4808  0.3865
 5318SOL    HW127587   4.021   3.707   2.135 -2.5334 -1.9402 -0.3050
 5318SOL    HW227588   3.904   3.791   2.177 -0.4320  0.7143  2.5419
 5319SOL     OW27589   1.722   2.736   7.274 -0.2979 -0.2967  0.5363
 5319SOL    HW127590   1.735   2.672   7.345 -1.8210 -2.8919 -1.5497
 5319SOL    HW227591   1.743   2.680   7.200 -3.1892 -1.2623  0.4586
 5320SOL     OW27592   4.385   0.122   5.018  0.1170  0.6131 -0.2852
 5320SOL    HW127593   4.464   0.093   4.974 -0.5039 -1.0078 -0.3289
 5320SOL    HW227594   4.399   0.116   5.112  0.8361 -1.8200 -0.5540
 5321SOL     OW27595   0.498   1.242  15.873  0.1273  0.0452  0.1514
 5321SOL    HW127596   0.443   1.313  15.838 -0.7918 -0.7750 -0.0748
 5321SOL    HW227597   0.543   1.278  15.949  0.2768  0.6304 -0.2158
 5322SOL     OW27598   3.288   1.357  16.250  0.3693  0.1872 -0.2367
 5322SOL    HW127599   3.370   1.405  16.244  0.7416 -0.3201  0.7726
 5322SOL    HW227600   3.272   1.328  16.161 -1.7779 -0.2385  0.2761
 5323SOL     OW27601   1.856   3.406   1.678 -0.1925 -0.1364  0.3220
 5323SOL    HW127602   1.789   3.394   1.745  1.1677 -1.7097  1.4002
 5323SOL    HW227603   1.815   3.463   1.613  1.7476  1.0454  0.1324
 5324SOL     OW27604   3.817   1.373   7.402  0.1731 -0.2434 -0.6873
 5324SOL    HW127605   3.774   1.310   7.460 -3.4871  2.4474 -0.5027
 5324SOL    HW227606   3.775   1.457   7.419  1.7616  0.6832 -1.3818
 5325SOL     OW27607   4.551   4.129  16.222 -0.3862 -0.4193 -0.6476
 5325SOL    HW127608   4.578   4.201  16.165  1.2042 -1.2383 -0.9237
 5325SOL    HW227609   4.456   4.144  16.225 -0.4350 -1.0669  0.7994
 5326SOL     OW27610   1.725   1.863   2.515  0.4346 -0.3170  0.1611
 5326SOL    HW127611   1.706   1.913   2.435  0.6409  3.7739  2.6845
 5326SOL    HW227612   1.793   1.803   2.483 -0.3739 -0.5739 -1.0831
 5327SOL     OW27613   0.919   0.841  10.685 -0.2345  0.6108  0.7573
 5327SOL    HW127614   0.865   0.767  10.711  1.5234 -1.5960 -1.8255
 5327SOL    HW227615   0.908   0.835  10.590 -0.7616 -2.2591  1.0133
 5328SOL     OW27616   0.978   3.093   5.518  0.0477 -0.0130 -0.2520
 5328SOL    HW127617   0.928   3.116   5.439  1.1479  0.0641 -0.9208
 5328SOL    HW227618   0.973   3.175   5.566  2.6082  0.0744 -0.1566
 5329SOL     OW27619   1.671   1.328   9.873  0.2240  0.0489  0.9185
 5329SOL    HW127620   1.714   1.412   9.858 -0.9348  0.3463 -0.7679
 5329SOL    HW227621   1.635   1.341   9.961  4.6212  0.4244  2.6415
 5330SOL     OW27622   1.977   2.579   5.499 -0.0537  0.7397 -0.3162
 5330SOL    HW127623   2.015   2.518   5.561 -1.0261 -1.5180 -1.9416
 5330SOL    HW227624   1.990   2.547   5.410  0.2952 -1.9161  0.6968
 5331SOL     OW27625   2.168   2.728   5.106  0.0314  0.1481  0.4390
 5331SOL    HW127626   2.197   2.735   5.197 -3.1764 -1.8183  1.5810
 5331SOL    HW227627   2.218   2.651   5.079  0.0030  0.2573  0.0743
 5332SOL     OW27628   2.358   2.483   4.768 -0.0812 -0.0930  0.2707
 5332SOL    HW127629   2.288   2.539   4.736 -1.1208 -0.8260  1.2422
 5332SOL    HW227630   2.439   2.534   4.774 -1.7408  2.7970 -2.5711
 5333SOL     OW27631   1.280   2.813   3.206  0.0537  0.3502 -0.9800
 5333SOL    HW127632   1.359   2.778   3.247 -1.2055 -0.2026  0.9553
 5333SOL    HW227633   1.283   2.907   3.226  0.6610 -0.0850  0.9276
 5334SOL     OW27634   2.013   3.182   1.794  0.1328  0.5507 -0.5258
 5334SOL    HW127635   2.012   3.227   1.878  0.5360  0.6317 -0.5642
 5334SOL    HW227636   2.065   3.240   1.739  1.1091  0.9040  0.7864
 5335SOL     OW27637   3.305   0.639   1.940 -0.2698  0.0117  0.2862
 5335SOL    HW127638   3.213   0.628   1.965  0.2765 -0.7979  1.9460
 5335SOL    HW227639   3.296   0.691   1.860  0.2985  0.5647  0.5825
 5336SOL     OW27640   1.628   1.348   7.406  0.3495 -0.3777 -0.1477
 5336SOL    HW127641   1.678   1.402   7.466 -0.0298  0.1811 -0.3382
 5336SOL    HW227642   1.626   1.414   7.337 -0.3321 -1.0377 -0.7688
 5337SOL     OW27643   3.509   2.257  16.304  0.4575  0.1759 -0.1340
 5337SOL    HW127644   3.584   2.252  16.244  2.4369  0.2539  2.3460
 5337SOL    HW227645   3.506   2.351  16.322  0.8703 -0.0894  1.2707
 5338SOL     OW27646   1.138   1.099   5.972 -0.1527 -0.0811 -0.3648
 5338SOL    HW127647   1.143   1.157   5.896 -1.7489  0.5413  0.0153
 5338SOL    HW227648   1.057   1.055   5.945 -1.2348  2.7581 -1.7870
 5339SOL     OW27649   2.908   0.209  10.961  0.2899 -0.1263  0.0474
 5339SOL    HW127650   2.938   0.122  10.986  0.2005 -0.6342 -1.5897
 5339SOL    HW227651   2.959   0.218  10.880 -0.2791  3.7662  0.1078
 5340SOL     OW27652   3.677   4.657   0.488  0.5000  0.1682  0.0722
 5340SOL    HW127653   3.756   4.687   0.532  0.0049  0.5364  0.7161
 5340SOL    HW227654   3.645   0.010   0.472  1.2642  0.6151  1.0997
 5341SOL     OW27655   1.842   1.176   1.829  0.1374 -0.0152  0.7906
 5341SOL    HW127656   1.752   1.145   1.817  0.5480 -1.0610  0.4147
 5341SOL    HW227657   1.838   1.249   1.767 -1.2695  2.0651  3.3361
 5342SOL     OW27658   2.206   2.993   1.657  0.1044  0.3031  0.1277
 5342SOL    HW127659   2.127   3.033   1.694 -0.4889 -0.0253 -0.7879
 5342SOL    HW227660   2.252   2.971   1.738  0.5831 -2.0705 -0.8033
 5343SOL     OW27661   2.528   2.123   9.700 -0.3943  0.4605  0.1658
 5343SOL    HW127662   2.592   2.087   9.762 -0.8720  0.9053  0.9126
 5343SOL    HW227663   2.547   2.072   9.621  1.5167  0.0324  0.8978
 5344SOL     OW27664   3.486   3.618  16.900  0.7172  0.0217  0.5603
 5344SOL    HW127665   3.562   3.651  16.949  0.9745 -2.2059  1.6657
 5344SOL    HW227666   3.519   3.607  16.811  0.7250  1.6796  0.3654
 5345SOL     OW27667   0.517   3.108  10.608  0.0016 -0.0125  0.0699
 5345SOL    HW127668   0.612   3.098  10.605 -0.1628 -2.0063  1.5590
 5345SOL    HW227669   0.495   3.154  10.689  0.9202 -0.1520  0.3934
 5346SOL     OW27670   2.969   3.611   0.242 -0.0357  0.4797 -0.0623
 5346SOL    HW127671   2.896   3.586   0.297 -0.9017  1.8318 -0.5908
 5346SOL    HW227672   2.956   3.706   0.236 -0.1568  0.5079  0.7009
 5347SOL     OW27673   0.031   3.606   6.352  0.6491 -0.2267 -0.0023
 5347SOL    HW127674   4.687   3.604   6.406 -0.1934  1.3719 -1.1976
 5347SOL    HW227675   0.002   3.549   6.281 -4.6247  1.6936  0.6010
 5348SOL     OW27676   4.135   0.457   9.810 -0.0105 -0.0793 -0.1537
 5348SOL    HW127677   4.091   0.540   9.825  0.8120  0.3789 -0.2977
 5348SOL    HW227678   4.214   0.478   9.760  0.7406 -0.0924  1.0284
 5349SOL     OW27679   2.871   0.288  14.482  0.3111 -0.1071  0.5612
 5349SOL    HW127680   2.831   0.365  14.523  0.1040 -0.9019  1.8099
 5349SOL    HW227681   2.793   0.258  14.435  0.1753  0.8194  0.1887
 5350SOL     OW27682   0.722   0.831   4.698  0.3589  0.2349  0.3777
 5350SOL    HW127683   0.794   0.789   4.651 -0.8620  2.6881 -3.7207
 5350SOL    HW227684   0.649   0.769   4.700  1.0111 -0.6089 -1.3260
 5351SOL     OW27685   0.269   1.076  15.698  0.5980 -0.0401  0.0990
 5351SOL    HW127686   0.363   1.093  15.705  0.8375 -0.8450 -1.1213
 5351SOL    HW227687   0.258   1.111  15.609  1.1269 -0.6294 -0.1969
 5352SOL     OW27688   0.968   1.487   6.084  0.2496  0.4286 -0.2922
 5352SOL    HW127689   0.994   1.482   5.992  0.4181 -1.3858 -0.1533
 5352SOL    HW227690   0.893   1.545   6.073  1.7468  2.5621  0.6902
 5353SOL     OW27691   2.891   0.157   1.813  0.1871  0.0458 -0.5205
 5353SOL    HW127692   2.923   0.242   1.782  1.1355  0.0907  0.5460
 5353SOL    HW227693   2.849   0.172   1.898  0.6725  1.5687 -0.5494
 5354SOL     OW27694   1.152   1.447   7.987 -0.3526 -0.2007 -0.5616
 5354SOL    HW127695   1.072   1.395   8.001  0.3814 -1.2190 -0.1552
 5354SOL    HW227696   1.175   1.425   7.897 -1.6354 -0.6271 -0.7962
 5355SOL     OW27697   4.726   4.263  17.359  0.3875 -0.0686 -0.3139
 5355SOL    HW127698   4.715   4.263  17.264  2.1906  1.9976 -0.5412
 5355SOL    HW227699   0.019   4.173  17.374 -1.3099 -0.4144  0.8844
 5356SOL     OW27700   3.667   0.635   3.170 -0.6156 -0.1244 -0.1320
 5356SOL    HW127701   3.688   0.542   3.182 -1.1289 -0.1341  0.6833
 5356SOL    HW227702   3.660   0.637   3.075  0.3572  0.2828 -0.1960
 5357SOL     OW27703   0.913   2.877   9.728  0.4840  0.0215 -0.6587
 5357SOL    HW127704   0.860   2.931   9.787 -0.0412  0.8381 -1.8682
 5357SOL    HW227705   0.997   2.923   9.724 -0.2685  1.3479 -1.2655
 5358SOL     OW27706   0.885   3.608   2.306  0.5247 -0.0700  0.1291
 5358SOL    HW127707   0.850   3.690   2.271 -1.3031 -0.8947  0.0260
 5358SOL    HW227708   0.945   3.583   2.235 -1.0886  0.9277 -1.5781
 5359SOL     OW27709   2.070   2.060   6.970  0.3480  0.2093 -0.7350
 5359SOL    HW127710   2.093   2.127   6.905 -0.0391 -1.4899 -2.5986
 5359SOL    HW227711   1.979   2.085   6.983 -0.2562 -1.0296 -2.7056
 5360SOL     OW27712   2.027   4.349  11.438 -0.3165 -0.0810 -0.1212
 5360SOL    HW127713   2.049   4.325  11.528  1.1034  1.5458 -0.0440
 5360SOL    HW227714   2.014   4.442  11.456  0.0988 -0.1613  0.5897
 5361SOL     OW27715   0.265   3.496   9.677  0.0728  0.6683  1.0398
 5361SOL    HW127716   0.271   3.411   9.634  3.4948  0.0404  2.7125
 5361SOL    HW227717   0.290   3.554   9.605 -1.7161  0.5971  0.3780
 5362SOL     OW27718   2.593   4.111   3.173  0.1431  0.2491 -0.4609
 5362SOL    HW127719   2.519   4.055   3.196  1.3673 -1.3732 -0.5014
 5362SOL    HW227720   2.618   4.130   3.263 -3.0664 -0.3439  0.5314
 5363SOL     OW27721   2.720   2.693   3.443 -0.0660 -0.1190  0.1398
 5363SOL    HW127722   2.747   2.614   3.397 -0.1550 -1.0216  1.6413
 5363SOL    HW227723   2.639   2.712   3.395  0.2203 -0.5855 -0.5194
 5364SOL     OW27724   3.747   4.187   2.746  0.4756 -0.0777 -0.4014
 5364SOL    HW127725   3.836   4.183   2.712  0.8406  1.2398  0.3644
 5364SOL    HW227726   3.728   4.277   2.719  0.1270  0.3282  1.1983
 5365SOL     OW27727   3.594   4.126  16.424  0.5945 -0.2206 -0.0025
 5365SOL    HW127728   3.548   4.190  16.477  0.7207 -0.9274  0.9715
 5365SOL    HW227729   3.569   4.047  16.474 -2.5290  1.6163  1.3100
 5366SOL     OW27730   2.551   1.996   3.772 -0.0883  0.1993 -0.6826
 5366SOL    HW127731   2.646   1.984   3.767 -0.2391 -1.8200  1.2291
 5366SOL    HW227732   2.544   2.088   3.749  0.0222  0.0166 -1.4231
 5367SOL     OW27733   0.760   4.006   1.998  0.2566 -0.4923  0.1749
 5367SOL    HW127734   0.803   4.044   1.921  0.0720 -0.0833  0.2726
 5367SOL    HW227735   0.681   4.061   1.996 -0.1211 -1.0754 -0.8979
 5368SOL     OW27736   2.680   0.104  10.391  1.2628 -0.0079  0.3990
 5368SOL    HW127737   2.705   0.167  10.458 -0.6371 -0.3878  1.4797
 5368SOL    HW227738   2.688   0.020  10.438 -0.9223  0.0499  0.8788
 5369SOL     OW27739   3.746   3.163   9.119 -0.0203  0.0577 -0.0367
 5369SOL    HW127740   3.780   3.250   9.095  2.3527 -0.4189  1.5235
 5369SOL    HW227741   3.654   3.183   9.134 -0.0630 -1.5950  1.8545
 5370SOL     OW27742   2.131   2.097   1.139  0.3625  0.0606 -0.1033
 5370SOL    HW127743   2.192   2.036   1.099  0.2910  0.5787 -0.9929
 5370SOL    HW227744   2.122   2.164   1.071  0.3691  0.3780  0.2078
 5371SOL     OW27745   3.595   0.665   2.923  0.0315 -0.6930  0.0925
 5371SOL    HW127746   3.590   0.685   2.829  1.3308  1.0438  0.3943
 5371SOL    HW227747   3.506   0.634   2.937 -0.4665 -0.0072 -1.5172
 5372SOL     OW27748   0.042   2.749   2.599 -0.0262  0.3189 -0.0570
 5372SOL    HW127749   0.042   2.759   2.694  0.0286 -2.8987  0.2556
 5372SOL    HW227750   0.010   2.840   2.592  0.6605  0.6531  1.1552
 5373SOL     OW27751   1.489   4.274  15.050  0.1543 -0.4489  0.0904
 5373SOL    HW127752   1.505   4.364  15.080  2.0084 -1.2077  1.3228
 5373SOL    HW227753   1.547   4.271  14.973 -0.0084 -0.0269 -0.0531
 5374SOL     OW27754   0.954   4.544   6.548 -0.7378 -0.0500 -0.3849
 5374SOL    HW127755   1.013   4.528   6.475  1.1022 -1.0967  1.3405
 5374SOL    HW227756   0.877   4.585   6.508 -2.6257 -0.6280  2.5737
 5375SOL     OW27757   2.901   1.098   5.262  0.2280  0.2625 -0.4814
 5375SOL    HW127758   2.939   1.172   5.310  0.5349 -0.5554  0.5602
 5375SOL    HW227759   2.920   1.118   5.171 -0.0653  1.4092 -0.2878
 5376SOL     OW27760   2.293   0.024   6.342  0.1973  0.4696 -0.2680
 5376SOL    HW127761   2.294   4.724   6.431  2.6017  3.9057  1.0617
 5376SOL    HW227762   2.366   4.710   6.305  2.2072  2.0117  1.6247
 5377SOL     OW27763   0.400   4.609  10.165 -0.1192 -0.4382 -0.0786
 5377SOL    HW127764   0.437   4.558  10.093 -0.2509 -0.5760 -0.0511
 5377SOL    HW227765   0.379   4.537  10.224  0.0455 -0.1133  0.3747
 5378SOL     OW27766   0.334   2.504   8.105 -0.3454 -0.1315  0.0497
 5378SOL    HW127767   0.351   2.589   8.146 -1.6312  0.2320 -0.1606
 5378SOL    HW227768   0.417   2.457   8.111  1.3413  2.7292 -0.6687
 5379SOL     OW27769   3.146   3.494   7.422  0.2144 -0.2050  0.6199
 5379SOL    HW127770   3.055   3.469   7.403  0.3523 -0.3988  0.2226
 5379SOL    HW227771   3.158   3.575   7.373 -2.4923  0.1867  0.5776
 5380SOL     OW27772   3.519   1.756   4.762 -0.3045 -0.0208 -0.6141
 5380SOL    HW127773   3.441   1.810   4.748 -1.6512 -1.8172 -0.0096
 5380SOL    HW227774   3.591   1.818   4.752 -1.8691  1.6958 -1.3032
 5381SOL     OW27775   1.142   1.718   5.263  0.4499 -0.0245  0.6856
 5381SOL    HW127776   1.190   1.636   5.267 -0.3908 -0.5301  0.5365
 5381SOL    HW227777   1.079   1.699   5.333 -1.5856 -2.4393 -1.7677
 5382SOL     OW27778   1.685   2.087  16.157  0.5474  0.4172 -0.0422
 5382SOL    HW127779   1.624   2.114  16.225  0.3662  2.7116 -1.1305
 5382SOL    HW227780   1.726   2.173  16.149 -2.0657  1.7598  1.0027
 5383SOL     OW27781   2.880   4.012   6.515  0.2373  0.0233  0.4122
 5383SOL    HW127782   2.904   3.992   6.424  0.2913 -1.6579  0.7969
 5383SOL    HW227783   2.816   4.084   6.514  0.2946  0.0845  1.1921
 5384SOL     OW27784   1.757   1.299   5.926  0.2442  0.1088  0.8033
 5384SOL    HW127785   1.808   1.229   5.886  1.2941  1.5594 -0.4123
 5384SOL    HW227786   1.676   1.249   5.931  0.2278  0.0312 -0.3973
 5385SOL     OW27787   2.507   4.200  13.586 -0.2293  0.4921 -0.0722
 5385SOL    HW127788   2.443   4.166  13.648  1.2456  1.0407  1.7469
 5385SOL    HW227789   2.459   4.237  13.512 -0.5050  1.4048  0.5741
 5386SOL     OW27790   3.774   0.142   8.592  0.2277  0.0990  0.5720
 5386SOL    HW127791   3.769   0.219   8.649 -1.7813  1.3757 -1.3373
 5386SOL    HW227792   3.827   0.081   8.644  1.1656  0.1546 -0.3208
 5387SOL     OW27793   4.681   0.442   6.073  0.6733  0.2559  0.4499
 5387SOL    HW127794   4.651   0.530   6.095  1.4707  0.3920  1.0180
 5387SOL    HW227795   4.602   0.391   6.091 -0.6176  1.5621 -1.5275
 5388SOL     OW27796   4.687   4.184   3.108  0.5321 -0.3210 -0.6966
 5388SOL    HW127797   4.677   4.093   3.079  0.7236 -0.8474  0.8514
 5388SOL    HW227798   4.706   4.171   3.201  0.1779 -0.5738 -0.6553
 5389SOL     OW27799   3.603   2.720   8.980 -0.0393 -0.4014  0.2760
 5389SOL    HW127800   3.511   2.746   8.981 -0.0927 -0.3790 -3.9064
 5389SOL    HW227801   3.638   2.801   8.943 -0.4985 -0.4562 -0.2829
 5390SOL     OW27802   4.688   0.979   4.593 -0.0470  0.2579 -0.0287
 5390SOL    HW127803   4.727   0.989   4.681  3.7979  0.6620 -1.7737
 5390SOL    HW227804   4.599   1.011   4.607  0.0929  0.6880 -0.1218
 5391SOL     OW27805   4.631   2.497   2.599  0.4447 -0.0907 -0.2185
 5391SOL    HW127806   4.675   2.581   2.586  2.0096 -1.0080 -0.7267
 5391SOL    HW227807   4.710   2.444   2.607  0.5194 -0.0496 -0.7141
 5392SOL     OW27808   3.764   3.386   7.504 -0.2556 -0.0118 -0.9578
 5392SOL    HW127809   3.811   3.437   7.438  1.0637  0.0515  0.0422
 5392SOL    HW227810   3.764   3.303   7.456  1.4644  1.3519 -3.3320
 5393SOL     OW27811   0.294   3.466   8.272 -0.0280  0.4734 -0.3184
 5393SOL    HW127812   0.206   3.427   8.267  1.1363 -1.9978 -1.5289
 5393SOL    HW227813   0.344   3.394   8.234  1.2633  0.3548  1.6070
 5394SOL     OW27814   4.703   1.695  15.779  0.4192 -0.2693 -1.1485
 5394SOL    HW127815   4.701   1.693  15.683 -1.2375 -1.9048 -1.0684
 5394SOL    HW227816   4.734   1.609  15.808  1.9842  0.5556 -0.3728
 5395SOL     OW27817   1.502   0.277   3.177  0.1212  0.0867  0.2472
 5395SOL    HW127818   1.498   0.241   3.088 -1.3438  0.8242  0.0079
 5395SOL    HW227819   1.438   0.220   3.220  1.2464  0.4983  2.4338
 5396SOL     OW27820   4.136   1.099   4.811  0.2799  0.2257 -0.9279
 5396SOL    HW127821   4.157   1.193   4.807 -0.7307  0.4469 -1.0057
 5396SOL    HW227822   4.203   1.075   4.876  0.6668 -1.7145 -2.0499
 5397SOL     OW27823   4.539   3.715   5.369  0.2454 -0.4694  0.0959
 5397SOL    HW127824   4.617   3.691   5.418 -0.3123 -1.2363  0.5902
 5397SOL    HW227825   4.518   3.637   5.318  0.1444 -0.5150  0.2070
 5398SOL     OW27826   0.375   0.068   4.462 -0.3636  0.1097 -0.5026
 5398SOL    HW127827   0.429   0.011   4.517 -0.8927  0.8863  0.8270
 5398SOL    HW227828   0.444   0.095   4.402  1.1508  0.3153  1.3399
 5399SOL     OW27829   2.776   2.735   4.559 -0.0764  0.2106  1.0841
 5399SOL    HW127830   2.732   2.773   4.483 -1.5021 -2.3344  0.6320
 5399SOL    HW227831   2.842   2.682   4.514 -0.3021  1.9903 -1.3410
 5400SOL     OW27832   3.450   4.102   2.173  0.2012 -0.2902 -0.1392
 5400SOL    HW127833   3.480   4.153   2.248 -3.1496  1.2680  0.1202
 5400SOL    HW227834   3.409   4.030   2.221 -0.9635 -1.5389 -3.0193
 5401SOL     OW27835   4.046   4.480   8.510  0.7241 -0.0393 -0.6533
 5401SOL    HW127836   3.977   4.414   8.509 -0.3295  1.1047 -2.5650
 5401SOL    HW227837   4.006   4.566   8.501  1.0252 -0.0009 -1.6516
 5402SOL     OW27838   0.116   2.832   3.283  0.5007 -0.0571 -0.2674
 5402SOL    HW127839   0.034   2.869   3.250  0.1940 -1.3937 -1.0152
 5402SOL    HW227840   0.083   2.752   3.325 -0.4112  1.8127  2.6021
 5403SOL     OW27841   3.199   3.190  15.406  0.0914 -0.0294  0.2368
 5403SOL    HW127842   3.291   3.173  15.385  0.1684  0.5250  0.1246
 5403SOL    HW227843   3.222   3.260  15.468  2.3575 -1.5476  1.0823
 5404SOL     OW27844   2.257   1.556   7.286 -0.2932  0.0111  0.3882
 5404SOL    HW127845   2.288   1.639   7.324 -1.6277  1.2464 -1.2104
 5404SOL    HW227846   2.340   1.526   7.251 -0.1864 -0.4480  1.0412
 5405SOL     OW27847   0.538   1.093  11.816  0.2039 -0.0663  1.0571
 5405SOL    HW127848   0.548   1.047  11.733 -1.7736 -2.4163  2.1344
 5405SOL    HW227849   0.507   1.024  11.874  0.4041  0.5037  1.8520
 5406SOL     OW27850   0.203   1.231   1.269 -0.2833 -0.1698  0.2573
 5406SOL    HW127851   0.184   1.139   1.250 -2.0710  0.3005 -0.1922
 5406SOL    HW227852   0.266   1.236   1.341  0.3167 -1.9647 -0.1324
 5407SOL     OW27853   4.568   0.170   8.524 -0.3203  0.1326 -0.3348
 5407SOL    HW127854   4.488   0.132   8.487 -0.6631  0.4203  0.1127
 5407SOL    HW227855   4.579   0.125   8.608 -1.3375  0.9497  0.2389
 5408SOL     OW27856   3.760   2.696  11.792 -0.0851 -0.3611  0.4902
 5408SOL    HW127857   3.826   2.764  11.784 -0.3203  0.1443  2.7883
 5408SOL    HW227858   3.781   2.673  11.882  1.4968  2.9372  0.9715
 5409SOL     OW27859   0.956   3.964   7.389 -0.0911  0.3210  0.2095
 5409SOL    HW127860   1.037   3.931   7.429  1.1207 -0.7712 -3.1621
 5409SOL    HW227861   0.968   4.058   7.402 -1.0499  0.4253  0.3413
 5410SOL     OW27862   4.657   4.542   7.186  0.0040 -0.5411  0.3052
 5410SOL    HW127863   4.623   4.534   7.097  0.1038  0.1947  0.2010
 5410SOL    HW227864   4.597   4.478   7.226 -1.6561  0.4069 -0.6656
 5411SOL     OW27865   4.611   2.474   1.152 -0.0384 -0.2947 -0.3201
 5411SOL    HW127866   4.574   2.386   1.145  0.5743 -0.6083  0.4103
 5411SOL    HW227867   4.697   2.461   1.112  1.5776 -0.5585  3.2181
 5412SOL     OW27868   3.311   2.856   5.243 -0.2946  0.6301 -0.1774
 5412SOL    HW127869   3.266   2.927   5.290 -1.2378 -1.0763  1.4691
 5412SOL    HW227870   3.330   2.798   5.316  0.5695 -0.0068 -0.9160
 5413SOL     OW27871   3.849   0.596   7.706 -0.5826  0.0420 -0.2083
 5413SOL    HW127872   3.839   0.545   7.626 -2.0450 -1.5899  1.0261
 5413SOL    HW227873   3.909   0.666   7.677  0.6139 -0.9360 -0.0903
 5414SOL     OW27874   4.036   0.739   5.389 -0.2937  0.1013 -0.4954
 5414SOL    HW127875   4.009   0.654   5.353 -0.9495  0.8530 -1.7736
 5414SOL    HW227876   4.060   0.797   5.317  1.4371  2.9095  2.3392
 5415SOL     OW27877   2.271   0.266   5.041  0.1361  0.2776  0.4003
 5415SOL    HW127878   2.325   0.187   5.032  0.2272  0.3820  0.0011
 5415SOL    HW227879   2.266   0.301   4.952  0.0310 -1.4148 -0.2685
 5416SOL     OW27880   1.660   0.755  13.329  0.0575 -0.2737  0.8308
 5416SOL    HW127881   1.673   0.834  13.381 -0.5296  0.1009  0.4099
 5416SOL    HW227882   1.752   0.729  13.332  0.6527  1.4169 -3.5260
 5417SOL     OW27883   1.239   2.838   8.619 -0.2503  0.2470  0.0715
 5417SOL    HW127884   1.327   2.806   8.602 -1.1493 -2.0606 -0.1603
 5417SOL    HW227885   1.249   2.933   8.620 -3.1202  0.5713 -0.5216
 5418SOL     OW27886   3.356   2.433   7.202 -0.7347  0.5001  0.3699
 5418SOL    HW127887   3.271   2.407   7.237  0.1035 -0.6059  1.5669
 5418SOL    HW227888   3.328   2.458   7.114 -2.0385 -1.2561  0.2783
 5419SOL     OW27889   0.000   3.656  15.884  0.3776 -0.2447  0.0627
 5419SOL    HW127890   4.683   3.576  15.881  0.7888 -0.5074 -0.0012
 5419SOL    HW227891   4.684   3.726  15.844  1.1460 -0.5450 -1.4282
 5420SOL     OW27892   3.085   3.136   6.891  0.4984 -0.0797  0.2599
 5420SOL    HW127893   3.000   3.179   6.882  1.5674  2.0959  0.5707
 5420SOL    HW227894   3.110   3.167   6.979 -0.1763 -0.4443  0.5740
 5421SOL     OW27895   1.592   0.529   0.262 -0.6826  0.6823 -0.2054
 5421SOL    HW127896   1.643   0.515   0.182 -0.0542  0.4260  0.2388
 5421SOL    HW227897   1.546   0.609   0.236 -2.8081 -1.2292 -2.3783
 5422SOL     OW27898   1.704   2.671   5.515  0.4566 -0.4209 -0.0253
 5422SOL    HW127899   1.624   2.628   5.484  0.6790  1.0304 -2.5617
 5422SOL    HW227900   1.764   2.619   5.462  2.3833  0.1643  1.5869
 5423SOL     OW27901   1.854   0.359   5.982 -0.7878 -0.4608  0.4214
 5423SOL    HW127902   1.789   0.329   6.046 -3.0668 -0.3741 -1.8509
 5423SOL    HW227903   1.803   0.372   5.902  0.2438  0.1965 -0.1332
 5424SOL     OW27904   3.422   2.946   2.425  0.7301  0.0796  0.0957
 5424SOL    HW127905   3.359   3.008   2.462 -1.2742 -0.5680 -2.2787
 5424SOL    HW227906   3.382   2.924   2.341 -0.2491 -1.8889  1.0815
 5425SOL     OW27907   0.669   4.534  10.315  0.0425  0.3787 -0.5874
 5425SOL    HW127908   0.635   4.600  10.375  0.5157  0.3339 -0.2674
 5425SOL    HW227909   0.606   4.463  10.327 -0.1055  0.3571 -1.4708
 5426SOL     OW27910   1.211   1.145   8.271 -0.2963  0.2688 -0.3311
 5426SOL    HW127911   1.203   1.240   8.280 -1.5410  0.1693 -0.3947
 5426SOL    HW227912   1.257   1.124   8.352  0.6142  0.1066 -0.8918
 5427SOL     OW27913   0.642   0.733   1.000  0.7030 -0.3505 -0.3866
 5427SOL    HW127914   0.625   0.763   0.911 -1.2932 -1.3663 -0.3536
 5427SOL    HW227915   0.670   0.642   0.989 -0.0721 -0.7138  0.6338
 5428SOL     OW27916   2.960   2.098  13.930  0.2286 -0.3172  0.2561
 5428SOL    HW127917   3.053   2.077  13.928  0.2032 -0.1473 -2.2913
 5428SOL    HW227918   2.943   2.143  13.847  3.3365 -0.8784 -0.6790
 5429SOL     OW27919   2.844   2.510   5.209  0.1319 -0.0918  0.1875
 5429SOL    HW127920   2.763   2.464   5.186  0.1536 -0.1947  0.3176
 5429SOL    HW227921   2.827   2.558   5.290  1.5872  3.4866 -1.6335
 5430SOL     OW27922   4.013   4.191   9.233  0.3495  0.2318 -0.4232
 5430SOL    HW127923   4.070   4.231   9.299 -2.0086  2.1488  0.4755
 5430SOL    HW227924   3.968   4.269   9.202 -1.6796 -1.0779 -0.8169
 5431SOL     OW27925   3.291   1.154   7.373 -0.0432 -0.2554  0.1420
 5431SOL    HW127926   3.320   1.078   7.422 -1.7321 -1.4765 -0.7621
 5431SOL    HW227927   3.261   1.111   7.293  0.7984  0.0465 -0.3469
 5432SOL     OW27928   0.119   1.578   2.894  0.2414  0.1428 -0.0814
 5432SOL    HW127929   0.048   1.522   2.927  0.0374  0.0685 -0.6461
 5432SOL    HW227930   0.164   1.586   2.978  2.0780  1.2471 -1.1901
 5433SOL     OW27931   3.902   0.339   1.407  0.2734 -0.6411  0.4117
 5433SOL    HW127932   3.929   0.316   1.319 -0.2093 -1.2402  0.4247
 5433SOL    HW227933   3.955   0.418   1.420 -0.9235  0.2128  0.1354
 5434SOL     OW27934   3.292   3.365   5.276  0.1362  0.2225  0.5880
 5434SOL    HW127935   3.308   3.337   5.366  0.3558  0.7139  0.7054
 5434SOL    HW227936   3.324   3.301   5.212 -0.7693 -0.3881  0.7545
 5435SOL     OW27937   0.350   2.682  17.284  0.4646  0.2546 -0.4369
 5435SOL    HW127938   0.363   2.659  17.192  0.9313  1.8298 -0.7622
 5435SOL    HW227939   0.431   2.729  17.304  0.4251  1.8560 -3.8801
 5436SOL     OW27940   4.695   2.315   5.392 -0.0720  0.3361 -0.2555
 5436SOL    HW127941   4.606   2.338   5.417  0.8786  1.6252  1.9034
 5436SOL    HW227942   0.012   2.385   5.430  2.5350  0.7291 -4.4936
 5437SOL     OW27943   3.583   0.703  13.116 -0.2448 -0.2781  0.5224
 5437SOL    HW127944   3.674   0.673  13.116 -0.3454 -0.5876  0.2847
 5437SOL    HW227945   3.547   0.619  13.086  0.1526 -0.6003  0.9405
 5438SOL     OW27946   2.683   3.274   6.630 -0.2542  0.2006 -0.0769
 5438SOL    HW127947   2.656   3.203   6.572  0.3013 -0.1164  0.0571
 5438SOL    HW227948   2.714   3.336   6.564  3.2131 -2.0789 -0.6073
 5439SOL     OW27949   3.945   3.334  14.327 -0.3343 -0.5990  0.1967
 5439SOL    HW127950   3.972   3.425  14.317 -1.6051 -0.2367  0.0594
 5439SOL    HW227951   4.020   3.284  14.293 -0.2426  0.0377 -0.5311
 5440SOL     OW27952   0.990   0.595   1.962  0.0282  0.3189  0.0637
 5440SOL    HW127953   1.033   0.671   2.001  0.3132  0.6915 -0.9691
 5440SOL    HW227954   0.903   0.596   2.002  0.5230 -1.2082  1.2072
 5441SOL     OW27955   1.346   1.270   6.490 -0.2661  0.2890 -0.1428
 5441SOL    HW127956   1.430   1.237   6.460  0.1150 -0.0955  1.3189
 5441SOL    HW227957   1.281   1.223   6.437  0.4255 -0.7344 -0.0783
 5442SOL     OW27958   2.963   4.626   5.960  0.0237 -0.2530 -0.0114
 5442SOL    HW127959   2.880   4.600   6.000 -0.3653  1.2490  0.1625
 5442SOL    HW227960   2.988   4.698   6.018  1.1251 -1.1040  0.5777
 5443SOL     OW27961   4.534   4.341   7.343  0.0470 -0.5424 -0.3935
 5443SOL    HW127962   4.511   4.326   7.251  2.9803 -0.3317 -1.1381
 5443SOL    HW227963   4.447   4.334   7.384 -0.1861  0.1443 -0.7784
 5444SOL     OW27964   4.291   0.753   9.659  0.1051 -0.2218 -0.3924
 5444SOL    HW127965   4.336   0.800   9.729  0.1725  0.1940 -0.7155
 5444SOL    HW227966   4.201   0.754   9.690  0.9886  2.7338  2.1730
 5445SOL     OW27967   4.325   1.344   4.791  0.1293  0.2129 -0.1566
 5445SOL    HW127968   4.365   1.315   4.709  0.1470 -0.5314  0.1137
 5445SOL    HW227969   4.362   1.430   4.809 -0.6162  0.1138  1.8281
 5446SOL     OW27970   0.689   3.500   7.701  0.3074  0.4616  0.6052
 5446SOL    HW127971   0.595   3.495   7.717  0.8638  0.1026  3.7720
 5446SOL    HW227972   0.707   3.426   7.758  0.6873 -0.0588 -0.1831
 5447SOL     OW27973   4.724   3.258   7.751  0.3612 -0.0881 -0.4565
 5447SOL    HW127974   4.725   3.346   7.713  0.4111 -0.4010 -1.1880
 5447SOL    HW227975   4.649   3.240   7.695 -0.3064  3.1227 -0.6000
 5448SOL     OW27976   0.142   2.851   9.291  0.1303 -0.1741  0.3017
 5448SOL    HW127977   0.128   2.760   9.264 -2.4193 -0.0976  1.3095
 5448SOL    HW227978   0.148   2.899   9.209  0.1423  0.0914  0.4567
 5449SOL     OW27979   2.151   0.249   5.757  0.5658 -0.0846 -0.0251
 5449SOL    HW127980   2.156   0.244   5.852 -0.3497 -0.9492 -0.0242
 5449SOL    HW227981   2.073   0.193   5.753 -0.3915  1.3227 -1.2345
 5450SOL     OW27982   0.739   0.458   4.354 -0.0091 -0.4991 -0.3321
 5450SOL    HW127983   0.797   0.530   4.331 -0.7280 -0.0543 -0.7330
 5450SOL    HW227984   0.719   0.421   4.268 -1.1418 -0.3661 -0.1333
 5451SOL     OW27985   2.693   1.604   4.608 -0.3559  0.8038 -0.0855
 5451SOL    HW127986   2.726   1.636   4.691  0.5240 -1.4943  0.4472
 5451SOL    HW227987   2.615   1.659   4.602 -0.3637  0.6702 -1.3072
 5452SOL     OW27988   1.269   1.560   7.081  0.2438  0.8192 -0.1907
 5452SOL    HW127989   1.362   1.538   7.074  0.4279  2.6707 -3.5067
 5452SOL    HW227990   1.245   1.618   7.008 -2.3134  1.0568  0.8516
 5453SOL     OW27991   0.595   0.139   0.407 -0.2575  0.4624 -0.0794
 5453SOL    HW127992   0.509   0.099   0.394  0.7967 -1.3722 -1.3615
 5453SOL    HW227993   0.581   0.230   0.379 -2.7479 -0.4538 -1.8592
 5454SOL     OW27994   3.243   3.021   9.696  0.0400 -0.2366 -0.2224
 5454SOL    HW127995   3.279   2.936   9.723  0.2614  0.1419  0.6624
 5454SOL    HW227996   3.210   3.042   9.784 -1.5652  0.1828 -0.9153
 5455SOL     OW27997   2.920   2.277   2.438  0.2606 -0.1196 -0.4610
 5455SOL    HW127998   2.926   2.262   2.344 -3.6770 -0.7629 -0.5928
 5455SOL    HW227999   2.911   2.189   2.475  1.9503 -1.7144 -3.8595
 5456SOL     OW28000   0.585   3.685   9.108 -0.7967  0.1281  0.2853
 5456SOL    HW128001   0.491   3.680   9.126  0.1867 -3.1717  4.5277
 5456SOL    HW228002   0.580   3.681   9.013 -1.7711 -0.7138  0.3749
 5457SOL     OW28003   2.276   1.510   3.957 -0.0353 -0.0143  1.1452
 5457SOL    HW128004   2.245   1.589   3.913  0.6666  0.2581  1.1344
 5457SOL    HW228005   2.337   1.559   4.012 -1.5533  2.0490  0.9486
 5458SOL     OW28006   2.577   2.901   7.722  0.3139  0.2271 -0.3874
 5458SOL    HW128007   2.614   2.921   7.808  0.2195 -0.1699 -0.2532
 5458SOL    HW228008   2.508   2.967   7.715 -2.0920 -2.2708 -0.2323
 5459SOL     OW28009   1.587   2.102   6.774  0.1696  0.5343  0.8906
 5459SOL    HW128010   1.630   2.163   6.834 -0.4991 -0.1231  2.0428
 5459SOL    HW228011   1.649   2.030   6.787 -0.5337 -0.2394 -0.0849
 5460SOL     OW28012   1.799   4.293   2.062  0.1314  0.1484  0.8019
 5460SOL    HW128013   1.810   4.223   2.127  1.0090  0.2353  0.7455
 5460SOL    HW228014   1.859   4.265   1.994 -1.8871  0.5279 -1.1341
 5461SOL     OW28015   1.629   3.889   7.228  0.0252 -0.3168  0.2307
 5461SOL    HW128016   1.645   3.825   7.296 -0.4421  0.1313  0.7625
 5461SOL    HW228017   1.552   3.855   7.183  0.0681 -3.1006  2.2746
 5462SOL     OW28018   2.398   3.878   0.454  0.2837  0.2348  0.4100
 5462SOL    HW128019   2.354   3.931   0.520  0.1551  2.1725 -1.2237
 5462SOL    HW228020   2.377   3.932   0.377 -2.1286 -0.4284  0.6178
 5463SOL     OW28021   1.455   2.054   8.022  0.0135  0.7519  0.1963
 5463SOL    HW128022   1.414   2.062   8.108 -0.6637 -1.0258  0.0354
 5463SOL    HW228023   1.532   1.998   8.036 -1.4104 -0.9310  1.2201
 5464SOL     OW28024   2.565   4.675   1.947  0.6067  0.2805  0.5925
 5464SOL    HW128025   2.496   4.621   1.907  0.7702 -0.1073  0.8360
 5464SOL    HW228026   2.520   0.014   1.988 -0.6905  0.0245 -0.3412
 5465SOL     OW28027   1.272   3.280   7.090 -0.4857  0.3151  0.3689
 5465SOL    HW128028   1.315   3.316   7.012 -1.1844  1.7988  0.6704
 5465SOL    HW228029   1.349   3.287   7.147 -1.2068  0.5099  1.3051
 5466SOL     OW28030   3.243   0.658  11.944  0.3009 -0.0577  0.2074
 5466SOL    HW128031   3.318   0.692  11.894  0.5799 -1.3835 -0.2797
 5466SOL    HW228032   3.232   0.720  12.016 -2.2161  0.0178 -0.2595
 5467SOL     OW28033   2.445   3.249   8.304 -0.3624  0.2088 -0.3358
 5467SOL    HW128034   2.527   3.286   8.271  1.7333 -0.8474  3.7022
 5467SOL    HW228035   2.443   3.172   8.247 -0.8641 -0.5502  0.7044
 5468SOL     OW28036   2.154   4.692   5.275 -0.1986 -0.3796  0.2204
 5468SOL    HW128037   2.244   4.698   5.307 -0.9381  1.2717  2.0131
 5468SOL    HW228038   2.106   4.702   5.358 -0.3638  0.6934 -0.0018
 5469SOL     OW28039   1.119   0.929   2.366  0.3509  0.0728  0.0505
 5469SOL    HW128040   1.161   0.916   2.451  0.9305  1.5222 -0.0193
 5469SOL    HW228041   1.169   1.009   2.349 -1.7111  1.8247  2.2399
 5470SOL     OW28042   0.454   3.636  10.030 -0.0699 -0.4073  0.2414
 5470SOL    HW128043   0.372   3.602  10.065 -1.1565  2.0967  0.1078
 5470SOL    HW228044   0.505   3.632  10.111 -1.2020  0.5360  0.9954
 5471SOL     OW28045   4.350   3.708   3.055 -0.2383  0.0276  0.1288
 5471SOL    HW128046   4.264   3.672   3.073 -1.3486  1.7851 -1.7552
 5471SOL    HW228047   4.387   3.723   3.143  2.9677 -1.9809 -0.8511
 5472SOL     OW28048   4.177   3.936   0.868 -0.5915  0.0456  0.1428
 5472SOL    HW128049   4.100   3.930   0.924 -0.0294 -1.2008  0.7915
 5472SOL    HW228050   4.156   4.000   0.801  2.9288  1.1742  0.0866
 5473SOL     OW28051   3.457   3.280   6.619 -0.1463 -0.1416 -0.0277
 5473SOL    HW128052   3.509   3.224   6.677  0.2872  0.3037  0.0150
 5473SOL    HW228053   3.508   3.361   6.626 -2.6716  1.5280 -0.8574
 5474SOL     OW28054   2.420   4.027   4.969 -0.2813  0.1771 -0.0267
 5474SOL    HW128055   2.358   4.072   5.027  1.1274  1.2188  0.6469
 5474SOL    HW228056   2.458   4.100   4.920  1.7241 -0.0758  1.1912
 5475SOL     OW28057   1.107   1.336   6.913 -0.5550  0.3849  0.0815
 5475SOL    HW128058   1.085   1.291   6.995 -0.3349 -2.1190 -1.2270
 5475SOL    HW228059   1.132   1.423   6.943 -1.5343  0.8676 -0.4932
 5476SOL     OW28060   2.428   3.890   8.128 -0.0690 -0.0308  0.0075
 5476SOL    HW128061   2.437   3.796   8.144 -0.1101 -0.0938 -0.3514
 5476SOL    HW228062   2.450   3.900   8.035  1.7065 -0.3622  0.3827
 5477SOL     OW28063   3.180   3.864   6.243  0.2013  0.2793 -0.4183
 5477SOL    HW128064   3.219   3.936   6.192  2.5086 -1.3497 -0.9822
 5477SOL    HW228065   3.254   3.849   6.301 -0.7617 -1.5092  0.3229
 5478SOL     OW28066   3.442   1.799   3.552  0.0014 -0.0856  0.3344
 5478SOL    HW128067   3.509   1.792   3.619  0.3038  1.1750  0.1666
 5478SOL    HW228068   3.368   1.824   3.607 -1.4063 -1.2448 -1.0443
 5479SOL     OW28069   4.449   0.490   3.617  0.6972  0.4618 -0.5766
 5479SOL    HW128070   4.512   0.562   3.625 -0.3266  1.5230 -1.9317
 5479SOL    HW228071   4.464   0.470   3.524 -0.2109 -0.1288 -0.6013
 5480SOL     OW28072   3.770   4.376   3.979  0.0205  0.1426 -0.2752
 5480SOL    HW128073   3.751   4.445   4.043 -2.0172 -0.2350 -0.4689
 5480SOL    HW228074   3.686   4.368   3.933 -0.8230 -0.5880  1.4065
 5481SOL     OW28075   1.471   2.275  13.545  0.6566  0.6125 -0.2075
 5481SOL    HW128076   1.435   2.346  13.491 -0.9654  0.1070  0.2022
 5481SOL    HW228077   1.413   2.203  13.520  1.2817 -0.2821  0.9431
 5482SOL     OW28078   3.584   1.301  14.528 -0.2953  0.3489 -0.4678
 5482SOL    HW128079   3.616   1.234  14.589  0.2830  0.3506 -0.7720
 5482SOL    HW228080   3.627   1.382  14.556 -1.9527  1.2125 -0.4523
 5483SOL     OW28081   3.831   2.750   7.974  0.1894 -0.4724  0.1996
 5483SOL    HW128082   3.774   2.811   8.020 -2.2200 -3.9658  1.8779
 5483SOL    HW228083   3.781   2.668   7.970 -0.8482  0.1827 -0.2665
 5484SOL     OW28084   0.676   0.772   5.995  0.3637  0.5447  0.4257
 5484SOL    HW128085   0.719   0.836   5.938  0.9939  0.7231  1.0996
 5484SOL    HW228086   0.682   0.686   5.954 -0.7375  1.3626 -1.4754
 5485SOL     OW28087   3.661   2.237   4.833  0.3769  0.3114  0.3515
 5485SOL    HW128088   3.602   2.191   4.893 -0.3283 -0.7088 -1.1327
 5485SOL    HW228089   3.693   2.308   4.889 -1.5735  0.6287  1.0455
 5486SOL     OW28090   2.579   2.965   1.884  0.5940  0.0707  0.4335
 5486SOL    HW128091   2.585   3.060   1.897 -0.5452  0.3590 -1.0213
 5486SOL    HW228092   2.492   2.943   1.917 -0.5329  3.0893 -0.5010
 5487SOL     OW28093   1.974   1.116   0.424  0.1414 -0.0171 -0.2776
 5487SOL    HW128094   2.058   1.091   0.463  0.0112  1.3816  0.8942
 5487SOL    HW228095   1.911   1.067   0.478 -0.5291  0.3522 -0.7338
 5488SOL     OW28096   4.293   0.826  13.396  0.5560  0.0719 -0.1156
 5488SOL    HW128097   4.202   0.810  13.369  0.1506  2.3805 -0.1685
 5488SOL    HW228098   4.335   0.742  13.382  0.1721 -0.4294  1.6628
 5489SOL     OW28099   3.751   1.218  12.774  0.0014  0.2364 -0.0772
 5489SOL    HW128100   3.726   1.292  12.829  2.2215  0.4286  0.6562
 5489SOL    HW228101   3.669   1.169  12.767  0.1642 -0.0918  0.3189
 5490SOL     OW28102   1.850   2.053  14.047 -0.0722 -0.2178 -0.0471
 5490SOL    HW128103   1.941   2.070  14.074  0.5691 -2.6267 -0.6855
 5490SOL    HW228104   1.817   2.142  14.058  0.5898  0.0776 -0.4687
 5491SOL     OW28105   1.877   1.872   8.453  0.1789  0.4294  0.3799
 5491SOL    HW128106   1.938   1.904   8.387  0.5778 -1.2543 -0.0673
 5491SOL    HW228107   1.898   1.778   8.460  1.2468  0.4863 -2.0433
 5492SOL     OW28108   3.202   1.978   5.648 -0.0743  0.2551 -0.4481
 5492SOL    HW128109   3.267   1.917   5.683 -0.1464 -0.7249 -2.0299
 5492SOL    HW228110   3.154   1.926   5.585  1.5435 -0.7615 -0.8535
 5493SOL     OW28111   1.085   2.829  11.377 -0.3421 -0.6685 -0.0927
 5493SOL    HW128112   1.167   2.826  11.425  0.2675  2.1607 -0.9776
 5493SOL    HW228113   1.030   2.754  11.401  0.6679 -0.7703  1.9134
 5494SOL     OW28114   2.038   4.199   4.639 -0.0606 -0.3049  0.0279
 5494SOL    HW128115   2.061   4.252   4.715  0.8929  1.4558 -1.4778
 5494SOL    HW228116   1.960   4.247   4.610  0.0686  0.2596  0.6243
 5495SOL     OW28117   3.790   1.599   4.821  0.3712 -0.2987 -0.1152
 5495SOL    HW128118   3.728   1.666   4.849  0.2236 -1.2805  1.9656
 5495SOL    HW228119   3.855   1.605   4.891  1.1094 -0.7151 -0.7741
 5496SOL     OW28120   0.993   4.485   2.070 -0.3053 -0.2407  0.0805
 5496SOL    HW128121   0.905   4.517   2.091 -0.9747 -1.4613 -0.8630
 5496SOL    HW228122   0.994   4.402   2.118 -2.0144  0.1938  0.8478
 5497SOL     OW28123   2.251   0.784   8.781  0.0919  0.0443  0.2994
 5497SOL    HW128124   2.291   0.851   8.837 -0.0784 -0.1127  0.6074
 5497SOL    HW228125   2.190   0.833   8.726 -0.2032 -0.0536  0.5429
 5498SOL     OW28126   0.551   0.672   7.544  0.6197  0.1272 -1.0668
 5498SOL    HW128127   0.561   0.762   7.575 -2.0300  0.7887 -2.1717
 5498SOL    HW228128   0.456   0.667   7.545  0.5217  1.9852 -0.7797
 5499SOL     OW28129   4.084   0.962  16.150  0.1300  0.4240 -0.2576
 5499SOL    HW128130   4.014   0.912  16.192 -1.3252 -0.2748 -3.5364
 5499SOL    HW228131   4.060   0.958  16.057 -1.3503 -1.0180  0.1872
 5500SOL     OW28132   4.591   4.465   1.828  0.1605  0.2666  0.2471
 5500SOL    HW128133   4.529   4.394   1.810 -0.2725  0.6739  0.1045
 5500SOL    HW228134   4.550   4.525   1.891  0.2009  0.2747  0.2656
 5501SOL     OW28135   2.030   0.158   3.122 -0.4472  0.1380 -0.2775
 5501SOL    HW128136   2.059   0.068   3.104  1.3372  0.1774  2.3882
 5501SOL    HW228137   2.005   0.158   3.214  1.7085  0.6359  0.3076
 5502SOL     OW28138   1.627   1.028   9.474 -0.7162  0.5608  0.0232
 5502SOL    HW128139   1.560   1.069   9.529  0.8026 -1.8347  3.6395
 5502SOL    HW228140   1.702   1.014   9.531  0.4256  1.0501 -1.3583
 5503SOL     OW28141   1.180   2.384   4.535 -0.1087  0.0351  0.2286
 5503SOL    HW128142   1.227   2.312   4.577 -0.6630  0.4933  1.6673
 5503SOL    HW228143   1.221   2.410   4.453 -1.2774  0.4998 -0.2206
 5504SOL     OW28144   3.030   0.765   1.289  0.3846  0.4249  0.5405
 5504SOL    HW128145   3.114   0.732   1.257 -1.6693 -3.0485 -1.2434
 5504SOL    HW228146   3.024   0.701   1.360 -1.0638 -0.8504 -0.7374
 5505SOL     OW28147   2.058   0.181   6.017 -0.1215 -0.1385  0.3728
 5505SOL    HW128148   1.974   0.217   5.988  0.7358  2.1710  0.8131
 5505SOL    HW228149   2.039   0.090   6.040 -1.7752  0.9454  3.2057
 5506SOL     OW28150   4.280   4.476  16.645  0.2785  0.6161  0.5512
 5506SOL    HW128151   4.251   4.563  16.617 -2.1050  0.2823  1.9659
 5506SOL    HW228152   4.196   4.430  16.636 -0.2152  2.0440 -2.3485
 5507SOL     OW28153   3.015   2.699   0.088  0.3524 -0.1222 -0.3329
 5507SOL    HW128154   3.031   2.750   0.167  0.8334 -0.4753 -0.2089
 5507SOL    HW228155   2.929   2.730   0.058  1.1450  1.4003 -1.0376
 5508SOL     OW28156   0.897   1.512   3.534 -0.1898 -0.4250  0.2318
 5508SOL    HW128157   0.924   1.603   3.519  0.3836 -0.2640  2.2682
 5508SOL    HW228158   0.864   1.494   3.446  2.0288 -0.3909 -0.6187
 5509SOL     OW28159   2.203   0.998  13.336  0.7582  0.1565 -0.4622
 5509SOL    HW128160   2.299   1.000  13.347  0.4340  1.4164  2.2219
 5509SOL    HW228161   2.169   1.079  13.375 -0.9308  0.6432 -2.9305
 5510SOL     OW28162   3.539   0.529   2.054 -0.0760  0.3990 -0.1811
 5510SOL    HW128163   3.451   0.554   2.025  0.3266  1.2143 -0.6886
 5510SOL    HW228164   3.525   0.434   2.049  2.6131  0.0856 -1.5038
 5511SOL     OW28165   3.135   0.060   9.795 -0.3870  0.1810  0.1593
 5511SOL    HW128166   3.212   0.039   9.742  0.0878  1.1463  0.4515
 5511SOL    HW228167   3.058   0.053   9.739 -0.4357 -1.0222  0.3832
 5512SOL     OW28168   2.238   4.482   7.778  0.3760  0.3380  0.5167
 5512SOL    HW128169   2.148   4.461   7.754  0.5795 -0.4940  0.5088
 5512SOL    HW228170   2.284   4.404   7.747 -2.9715 -2.0490  1.6455
 5513SOL     OW28171   3.820   1.205   2.375 -0.0465  0.4989 -0.0386
 5513SOL    HW128172   3.785   1.233   2.460 -0.4249  1.2949 -0.4623
 5513SOL    HW228173   3.753   1.222   2.309 -0.4627  1.9474  0.7500
 5514SOL     OW28174   1.122   0.074   4.705 -0.7923 -0.4367  0.5648
 5514SOL    HW128175   1.075   0.029   4.635  0.1562  0.6909 -0.8009
 5514SOL    HW228176   1.184   0.006   4.733 -0.1182  1.0237  2.7021
 5515SOL     OW28177   1.690   3.846  14.895 -0.2894  0.8519  0.0848
 5515SOL    HW128178   1.640   3.818  14.971  2.6179  0.1492  1.7451
 5515SOL    HW228179   1.697   3.759  14.857 -0.8989  1.4309 -1.3746
 5516SOL     OW28180   2.499   3.005   8.188  0.2630 -0.1456 -0.2411
 5516SOL    HW128181   2.453   2.936   8.141 -0.3760  0.4122 -0.4476
 5516SOL    HW228182   2.543   3.052   8.118  1.2826 -0.8684 -0.0844
 5517SOL     OW28183   2.048   0.860   9.709 -0.2804 -0.1490 -0.8972
 5517SOL    HW128184   2.066   0.883   9.618  0.9586  0.0643 -0.6014
 5517SOL    HW228185   2.052   0.946   9.750  3.2924 -0.1089 -1.2967
 5518SOL     OW28186   4.386   4.283  10.216  0.3438 -1.2588 -0.0826
 5518SOL    HW128187   4.477   4.253  10.218  0.0209 -2.2318 -0.3041
 5518SOL    HW228188   4.364   4.318  10.303 -1.1761 -3.5163  0.4154
 5519SOL     OW28189   3.927   4.426   7.346 -0.4888 -0.0815  0.2667
 5519SOL    HW128190   3.942   4.380   7.429 -1.2686 -0.0942  0.4077
 5519SOL    HW228191   4.007   4.407   7.298 -0.3303 -1.6147  1.1416
 5520SOL     OW28192   0.162   1.338  15.174  0.2580  0.7939 -0.0201
 5520SOL    HW128193   0.114   1.385  15.243  1.7020  1.0413  0.8038
 5520SOL    HW228194   0.091   1.312  15.115  2.1294  0.4025 -2.0980
 5521SOL     OW28195   4.095   2.194   3.186 -0.5683  0.0513  0.5258
 5521SOL    HW128196   4.000   2.199   3.182 -0.4652  1.4587 -0.2510
 5521SOL    HW228197   4.107   2.124   3.250 -0.9168  0.7737  1.3736
 5522SOL     OW28198   0.082   4.715   7.291 -0.2234  0.9820 -0.5040
 5522SOL    HW128199   0.018   4.654   7.254  0.3184  0.5376 -0.6918
 5522SOL    HW228200   0.084   4.698   7.385 -0.9629  0.3520 -0.6019
 5523SOL     OW28201   4.465   1.299   5.288  0.0493  0.1490 -0.3902
 5523SOL    HW128202   4.553   1.323   5.258 -0.0761  2.6513  1.2660
 5523SOL    HW228203   4.478   1.256   5.372  1.4412  1.3736  0.0280
 5524SOL     OW28204   3.106   4.564   1.642  0.0452 -0.2109  0.6356
 5524SOL    HW128205   3.108   4.515   1.724  0.4984 -1.6407 -0.2350
 5524SOL    HW228206   3.111   4.489   1.583 -2.1980 -0.6835  1.0206
 5525SOL     OW28207   3.274   1.994   6.698 -0.3980 -0.0401 -0.0830
 5525SOL    HW128208   3.262   2.087   6.716  1.2013  0.1780 -0.1432
 5525SOL    HW228209   3.188   1.964   6.670 -0.2012 -0.1691 -0.5607
 5526SOL     OW28210   3.998   0.089   4.573  0.5951  0.3504 -0.0622
 5526SOL    HW128211   3.937   0.034   4.523  0.2991 -0.6004  1.3366
 5526SOL    HW228212   4.038   0.147   4.509  0.4969 -0.0028 -0.4438
 5527SOL     OW28213   0.576   2.429   4.784  0.1500  0.2434 -0.3941
 5527SOL    HW128214   0.661   2.472   4.771  1.3363 -1.9077  0.2730
 5527SOL    HW228215   0.594   2.340   4.754 -0.5338  0.0814 -0.3055
 5528SOL     OW28216   0.308   2.252   1.609  0.4349  0.3144 -0.1984
 5528SOL    HW128217   0.365   2.188   1.567 -2.6441 -1.0314 -2.3078
 5528SOL    HW228218   0.300   2.327   1.549  0.0280 -0.0263 -0.5704
 5529SOL     OW28219   1.359   3.040  15.927 -0.0721  0.1628 -0.1030
 5529SOL    HW128220   1.360   3.128  15.963 -1.6492 -0.2041  0.8120
 5529SOL    HW228221   1.276   3.008  15.963  1.0231 -3.4542 -0.7476
 5530SOL     OW28222   1.240   0.394   3.535 -0.3757  0.3841 -0.1861
 5530SOL    HW128223   1.260   0.412   3.443 -1.0489 -4.7543 -1.3660
 5530SOL    HW228224   1.284   0.469   3.575 -0.9128  1.1943 -1.1254
 5531SOL     OW28225   1.212   2.367   7.054  0.4025 -0.0642 -0.2527
 5531SOL    HW128226   1.248   2.355   7.142 -1.4912 -0.3533  0.4809
 5531SOL    HW228227   1.133   2.417   7.074 -0.6900 -0.7885 -2.7862
 5532SOL     OW28228   2.428   2.570   9.910 -0.4574 -0.1493  0.2771
 5532SOL    HW128229   2.421   2.475   9.911  2.2013 -0.3517 -0.5303
 5532SOL    HW228230   2.356   2.587   9.971 -1.2318 -1.8122 -0.1592
 5533SOL     OW28231   3.175   2.669  14.877 -0.3197 -0.3780 -0.5410
 5533SOL    HW128232   3.219   2.730  14.818  1.5977 -0.9402  0.2991
 5533SOL    HW228233   3.133   2.730  14.938  2.1133  0.0331  0.7478
 5534SOL     OW28234   1.935   3.515  16.651  0.1069  0.7999  0.0811
 5534SOL    HW128235   1.916   3.439  16.706 -1.0042  1.7799  1.0648
 5534SOL    HW228236   1.852   3.564  16.657 -0.2376 -0.1854  3.2458
 5535SOL     OW28237   3.446   4.252   8.928  0.7231  0.2501  0.3052
 5535SOL    HW128238   3.526   4.298   8.899  0.1055  1.6763  0.8813
 5535SOL    HW228239   3.382   4.322   8.913  0.7056  0.2058  0.1707
 5536SOL     OW28240   4.273   2.131   2.823  0.4288  0.1790  1.1424
 5536SOL    HW128241   4.282   2.038   2.802 -0.3822  0.1093  1.0707
 5536SOL    HW228242   4.361   2.165   2.807  0.1464 -0.4020 -1.7273
 5537SOL     OW28243   1.102   3.222   3.300 -0.0641 -0.0712 -0.0870
 5537SOL    HW128244   1.031   3.161   3.320 -0.8208  1.4985  1.9635
 5537SOL    HW228245   1.077   3.251   3.213  0.0905  1.0886  0.2553
 5538SOL     OW28246   3.564   1.907   3.806  0.2218 -0.3216  0.4129
 5538SOL    HW128247   3.653   1.882   3.832  0.1443 -1.3176 -0.3047
 5538SOL    HW228248   3.585   1.968   3.735  0.3523  0.9413  1.5259
 5539SOL     OW28249   2.991   0.475   9.239 -0.1809 -0.4503  0.0055
 5539SOL    HW128250   2.996   0.566   9.269  0.5474 -0.9849  1.5021
 5539SOL    HW228251   3.085   0.461   9.225 -0.1393 -0.1389 -0.0317
 5540SOL     OW28252   2.685   3.329   1.478  0.6131 -0.3186 -0.8677
 5540SOL    HW128253   2.751   3.286   1.532  1.3696  0.2682 -1.3354
 5540SOL    HW228254   2.629   3.252   1.472  0.7495 -0.3297 -1.9684
 5541SOL     OW28255   4.167   1.607   8.360  0.4417 -0.3151  0.2695
 5541SOL    HW128256   4.254   1.608   8.400  0.4010  1.2728  0.3020
 5541SOL    HW228257   4.162   1.519   8.321  1.8827  0.3159 -1.3181
 5542SOL     OW28258   1.920   4.007   2.708  0.1416  0.5357  0.4997
 5542SOL    HW128259   1.882   3.936   2.656 -0.6248  1.1276  0.2489
 5542SOL    HW228260   1.909   3.970   2.795  2.0507  0.6389  0.7826
 5543SOL     OW28261   2.637   2.801   1.591 -0.6362  0.6524 -0.5067
 5543SOL    HW128262   2.618   2.863   1.662  2.0655 -0.0445  0.8365
 5543SOL    HW228263   2.671   2.863   1.526  1.5321  1.2852  1.2164
 5544SOL     OW28264   3.192   4.462   1.355 -0.3368 -0.1783  0.0638
 5544SOL    HW128265   3.100   4.485   1.342 -0.0693  0.3203 -0.9884
 5544SOL    HW228266   3.228   4.537   1.308 -2.3812  2.7692  3.2305
 5545SOL     OW28267   3.219   2.701   4.340  0.0225  0.3941 -0.2489
 5545SOL    HW128268   3.294   2.753   4.310  1.7983 -1.8363  0.3165
 5545SOL    HW228269   3.240   2.622   4.390 -0.8655 -1.2223 -2.4518
 5546SOL     OW28270   1.268   0.414   6.803 -0.2668 -0.5971  0.1854
 5546SOL    HW128271   1.269   0.470   6.881 -1.0863 -0.1020 -0.1586
 5546SOL    HW228272   1.330   0.460   6.747 -1.6070 -0.9232 -1.5324
 5547SOL     OW28273   1.107   1.223   7.188  0.7108 -0.2827 -0.7150
 5547SOL    HW128274   1.130   1.225   7.280 -0.9979 -0.8703 -0.2700
 5547SOL    HW228275   1.021   1.181   7.191 -0.3411  1.8478 -0.8699
 5548SOL     OW28276   1.779   4.424   1.589 -0.6421  0.0944  0.1276
 5548SOL    HW128277   1.708   4.372   1.628 -0.6553 -1.0826 -1.4934
 5548SOL    HW228278   1.844   4.431   1.659  0.8101  2.1557 -1.4616
 5549SOL     OW28279   1.662   0.001   5.735 -0.5520 -0.1192  0.3989
 5549SOL    HW128280   1.567   4.722   5.739 -0.5997  0.5488  1.6760
 5549SOL    HW228281   1.697   4.654   5.703  0.7559  1.1518 -1.4262
 5550SOL     OW28282   2.805   0.320   8.789 -0.2109 -0.1667  0.4393
 5550SOL    HW128283   2.720   0.364   8.778  0.5725  1.3594  0.5674
 5550SOL    HW228284   2.811   0.323   8.884  1.0060 -2.3025  0.4230
 5551SOL     OW28285   3.227   0.362   9.805  0.1942  0.5287  0.3069
 5551SOL    HW128286   3.220   0.341   9.712  1.0921 -0.0594  0.3670
 5551SOL    HW228287   3.220   0.275   9.847  1.1760  0.2270 -0.1505
 5552SOL     OW28288   4.080   0.542  17.407  0.5432  0.7965 -0.0048
 5552SOL    HW128289   4.119   0.621  17.369  2.8330 -1.9158 -3.2648
 5552SOL    HW228290   4.059   0.564  17.498 -3.8454 -0.0307 -0.8623
 5553SOL     OW28291   2.905   0.690   5.140  0.2511  0.0111  0.0787
 5553SOL    HW128292   2.986   0.669   5.093  0.4081 -0.4410  0.5554
 5553SOL    HW228293   2.866   0.742   5.070 -1.3499 -0.9572  0.2533
 5554SOL     OW28294   4.300   3.045   7.682 -0.0949  0.2750 -0.0986
 5554SOL    HW128295   4.271   3.039   7.591 -2.9709  0.4617  0.8345
 5554SOL    HW228296   4.258   3.128   7.704 -0.5838  0.4033 -1.4986
 5555SOL     OW28297   1.614   0.544   4.116 -0.4620 -0.6160 -0.4345
 5555SOL    HW128298   1.686   0.521   4.057  1.0691  0.6162  0.9641
 5555SOL    HW228299   1.540   0.521   4.059 -0.7768 -0.8923  0.0853
 5556SOL     OW28300   2.583   0.807   6.527  0.0827 -0.1374  0.0662
 5556SOL    HW128301   2.564   0.744   6.457 -1.2937  1.3793 -0.9105
 5556SOL    HW228302   2.673   0.834   6.506 -0.0840  0.4032  0.0450
 5557SOL     OW28303   2.645   2.141   6.492  0.1408  0.4673  0.1314
 5557SOL    HW128304   2.689   2.117   6.573 -0.9261  1.5611  1.0345
 5557SOL    HW228305   2.704   2.088   6.438  0.0392 -0.4490  0.9273
 5558SOL     OW28306   2.350   1.623   8.753 -0.3295 -0.7750 -0.4343
 5558SOL    HW128307   2.434   1.651   8.715 -0.9423 -0.6619 -1.6839
 5558SOL    HW228308   2.376   1.622   8.846  2.2306  0.7541 -1.1174
 5559SOL     OW28309   1.450   0.001  11.549  0.0066  0.8366 -0.7732
 5559SOL    HW128310   1.430   0.034  11.637 -1.3379  4.2469 -2.3548
 5559SOL    HW228311   1.447   0.076  11.489 -0.5226 -0.8457 -2.8201
 5560SOL     OW28312   4.367   2.647  15.337  0.4005 -0.1526  0.1509
 5560SOL    HW128313   4.377   2.613  15.248 -0.5741 -2.1428  0.8052
 5560SOL    HW228314   4.411   2.732  15.341 -0.4251  0.3237 -0.6596
 5561SOL     OW28315   4.056   1.100   8.465 -0.8137  0.4990 -0.4879
 5561SOL    HW128316   4.102   1.059   8.392 -0.7941 -0.7269  0.2155
 5561SOL    HW228317   4.131   1.106   8.523 -1.3653  1.8939  0.0720
 5562SOL     OW28318   3.501   3.424   4.962  0.0260  0.3576  0.2506
 5562SOL    HW128319   3.522   3.445   5.053 -0.5722  1.5060  0.1201
 5562SOL    HW228320   3.590   3.396   4.940 -0.2490 -1.2580  1.2206
 5563SOL     OW28321   0.403   2.197   7.763 -0.3908 -0.8120 -0.4694
 5563SOL    HW128322   0.361   2.155   7.837  1.0721 -0.2866  0.6572
 5563SOL    HW228323   0.358   2.281   7.771 -0.7286 -0.7707 -2.8550
 5564SOL     OW28324   1.059   0.184   2.007 -0.0836 -0.3432  0.3500
 5564SOL    HW128325   1.033   0.219   2.092  1.8565 -0.9719  1.2023
 5564SOL    HW228326   1.110   0.109   2.036 -0.6845 -1.1813 -0.7389
 5565SOL     OW28327   0.324   3.203   2.972  0.0419  0.0681  0.1988
 5565SOL    HW128328   0.289   3.165   2.892  0.8413 -0.5538  0.1451
 5565SOL    HW228329   0.395   3.257   2.937 -0.6880  0.2473 -0.9924
 5566SOL     OW28330   4.252   0.736   4.697 -0.7374  0.2730  0.0048
 5566SOL    HW128331   4.335   0.697   4.724 -0.4406  0.1038 -1.1269
 5566SOL    HW228332   4.191   0.704   4.763  1.1366  0.7543  1.9588
 5567SOL     OW28333   3.784   2.456  16.256  0.6942  0.0755  0.0750
 5567SOL    HW128334   3.823   2.398  16.321  1.2829  0.6193  0.2034
 5567SOL    HW228335   3.692   2.459  16.281 -0.2972 -4.3790 -3.0363
 5568SOL     OW28336   3.350   0.593  15.884  0.1983 -0.0019  0.0292
 5568SOL    HW128337   3.269   0.558  15.921  1.9174 -1.4995  2.4374
 5568SOL    HW228338   3.384   0.615  15.971  1.2811 -0.4708 -0.2732
 5569SOL     OW28339   2.169   2.917  16.727  0.1645  0.7128  0.0031
 5569SOL    HW128340   2.078   2.926  16.753  0.5771 -1.0094  1.9907
 5569SOL    HW228341   2.165   2.882  16.638  3.0361  0.0653  0.1187
 5570SOL     OW28342   0.647   1.697   8.732  0.1234 -0.3401  0.2557
 5570SOL    HW128343   0.736   1.732   8.732  0.5987 -1.5473  0.1773
 5570SOL    HW228344   0.605   1.780   8.755  1.2045  0.5118 -0.8760
 5571SOL     OW28345   1.531   3.864   5.907  0.5653  0.3348 -0.2118
 5571SOL    HW128346   1.462   3.804   5.933  1.2141  0.5034  1.8943
 5571SOL    HW228347   1.491   3.915   5.837  3.8232 -0.8829 -2.9500
 5572SOL     OW28348   1.388   2.228   0.990  0.7173  0.1429 -0.3058
 5572SOL    HW128349   1.361   2.319   0.989 -1.6140 -0.5641 -0.5083
 5572SOL    HW228350   1.352   2.194   0.908  1.0825 -1.4204  0.1848
 5573SOL     OW28351   2.876   0.442   6.449 -0.2004 -0.0096  0.0100
 5573SOL    HW128352   2.970   0.462   6.449  0.5702 -3.6410 -2.0410
 5573SOL    HW228353   2.855   0.486   6.367 -0.1131  0.5416  0.2851
 5574SOL     OW28354   0.560   1.362  10.684  0.1500  0.4672  0.3645
 5574SOL    HW128355   0.551   1.404  10.599  1.3547 -0.0579 -0.0357
 5574SOL    HW228356   0.540   1.274  10.651 -0.0194  0.4372  0.5481
 5575SOL     OW28357   2.830   3.692   7.809 -0.5399  0.3798 -0.2953
 5575SOL    HW128358   2.812   3.633   7.883 -0.1195 -0.2361 -0.6765
 5575SOL    HW228359   2.925   3.682   7.821 -0.4328  3.2310  1.1039
 5576SOL     OW28360   3.482   3.554   5.236 -0.7223  0.2023  0.4115
 5576SOL    HW128361   3.416   3.488   5.256  0.9341 -1.6207 -0.1511
 5576SOL    HW228362   3.426   3.625   5.205 -0.3488  1.7115  3.1287
 5577SOL     OW28363   1.036   1.323   4.764 -0.0390 -0.1266  0.0503
 5577SOL    HW128364   1.020   1.292   4.675 -0.3430  1.4762 -0.4452
 5577SOL    HW228365   1.024   1.417   4.752  0.4656 -0.0609  0.0367
 5578SOL     OW28366   3.802   2.995   3.655  0.4743  0.0978 -0.0077
 5578SOL    HW128367   3.724   2.952   3.689  1.1792 -2.2420 -1.3327
 5578SOL    HW228368   3.833   3.029   3.740 -1.0035  1.3127  0.0327
 5579SOL     OW28369   1.243   3.079   1.859 -0.0417 -0.2574  0.2951
 5579SOL    HW128370   1.260   3.056   1.767  1.0895 -2.2571  1.0018
 5579SOL    HW228371   1.320   3.050   1.909 -0.1884 -0.1661  0.5736
 5580SOL     OW28372   1.229   3.256   2.703 -0.6438  0.2913 -0.4477
 5580SOL    HW128373   1.254   3.314   2.775  1.6965 -0.9822 -0.2121
 5580SOL    HW228374   1.265   3.302   2.628  2.2055  0.4015  1.0025
 5581SOL     OW28375   2.474   1.157   2.637  1.0147 -0.2538  0.3905
 5581SOL    HW128376   2.411   1.148   2.566  0.1679 -1.3912  1.2951
 5581SOL    HW228377   2.532   1.087   2.606 -0.4082 -0.5911 -1.5126
 5582SOL     OW28378   4.120   3.469  10.840  0.5003 -0.2342 -0.2370
 5582SOL    HW128379   4.124   3.463  10.936 -3.0943 -0.5690 -0.1240
 5582SOL    HW228380   4.035   3.506  10.817  0.8094 -0.5200 -1.8387
 5583SOL     OW28381   0.436   1.670  14.659  0.2014  0.0977  0.1131
 5583SOL    HW128382   0.359   1.614  14.674 -1.2904  1.7654 -1.2370
 5583SOL    HW228383   0.450   1.708  14.745  3.0777 -0.0588 -0.3093
 5584SOL     OW28384   1.145   4.176   3.269  0.3476 -0.2153 -0.0565
 5584SOL    HW128385   1.110   4.196   3.183 -1.4518 -1.2278  0.4385
 5584SOL    HW228386   1.123   4.253   3.321  0.5306 -1.1998  1.4938
 5585SOL     OW28387   2.563   4.564  14.792  0.0894  0.4338  0.8950
 5585SOL    HW128388   2.634   4.627  14.805 -0.0656  1.2645 -2.2880
 5585SOL    HW228389   2.575   4.506  14.867  1.5402  1.3513  1.3644
 5586SOL     OW28390   4.524   3.884   6.198 -0.1585 -0.0653 -0.0324
 5586SOL    HW128391   4.476   3.916   6.121 -1.2668  0.9208  1.0826
 5586SOL    HW228392   4.538   3.793   6.173  1.1180 -0.1974  1.1823
 5587SOL     OW28393   4.350   3.859  12.100  0.1379  0.3137  0.3199
 5587SOL    HW128394   4.358   3.946  12.060 -1.3570  0.1308 -0.3796
 5587SOL    HW228395   4.413   3.872  12.171  0.4049 -0.5791  0.2400
 5588SOL     OW28396   2.111   1.908   7.842  0.5701  0.5508  0.3849
 5588SOL    HW128397   2.190   1.869   7.880 -1.0838 -1.1109  2.0459
 5588SOL    HW228398   2.123   1.994   7.882  1.3256  0.6543 -0.0602
 5589SOL     OW28399   2.411   2.807  12.717  0.2377 -0.3372 -0.6022
 5589SOL    HW128400   2.421   2.718  12.682 -0.6663 -0.8169  0.3622
 5589SOL    HW228401   2.316   2.815  12.726  0.6522  1.3710  2.0501
 5590SOL     OW28402   0.678   0.034   2.193  0.2500  0.1017 -0.2954
 5590SOL    HW128403   0.585   0.024   2.214  0.6071 -0.3885  1.0205
 5590SOL    HW228404   0.713   4.682   2.211 -0.7397 -0.5684 -1.6213
 5591SOL     OW28405   4.599   0.734   3.525 -0.5305 -0.1973  0.4314
 5591SOL    HW128406   4.624   0.809   3.579 -2.2793 -0.9662  2.3068
 5591SOL    HW228407   4.675   0.679   3.545 -0.5183 -1.3643 -2.7523
 5592SOL     OW28408   4.362   3.735   1.221 -0.0436  0.2978  0.1000
 5592SOL    HW128409   4.387   3.655   1.175 -0.5436  0.4861 -0.4946
 5592SOL    HW228410   4.372   3.801   1.153 -1.9349 -1.4636 -1.9104
 5593SOL     OW28411   0.966   0.546  16.480  0.1546 -0.0330 -0.1185
 5593SOL    HW128412   0.884   0.596  16.486  0.9282  0.9991  1.7825
 5593SOL    HW228413   0.964   0.526  16.387 -1.7613  1.9464 -0.5133
 5594SOL     OW28414   2.542   4.574   4.910 -0.2522  0.1213 -0.0015
 5594SOL    HW128415   2.565   4.582   4.818  0.7688  0.8259  0.3122
 5594SOL    HW228416   2.625   4.556   4.954 -0.5212  1.3014  0.9903
 5595SOL     OW28417   1.234   1.013   6.387 -0.3857  0.2392  0.0989
 5595SOL    HW128418   1.177   0.947   6.346 -2.5608  0.3128  2.9510
 5595SOL    HW228419   1.215   1.095   6.342 -1.6991 -0.8099 -1.2759
 5596SOL     OW28420   4.166   0.799   6.471 -0.1311  0.0361  0.1679
 5596SOL    HW128421   4.084   0.840   6.497  1.7990  3.9883  0.0666
 5596SOL    HW228422   4.153   0.707   6.494 -1.8605 -0.0537 -1.1870
 5597SOL     OW28423   3.822   4.051   6.352 -0.4920  0.4589 -0.1868
 5597SOL    HW128424   3.906   4.071   6.311 -0.2415 -1.2331 -0.4990
 5597SOL    HW228425   3.804   3.971   6.302 -0.1308 -0.1821  0.6927
 5598SOL     OW28426   4.334   2.437   1.358 -0.7182 -0.6083  0.4954
 5598SOL    HW128427   4.396   2.367   1.336  0.9352  1.2476 -0.7156
 5598SOL    HW228428   4.394   2.504   1.389  0.5982 -0.7589 -1.7473
 5599SOL     OW28429   3.443   3.244   9.917 -0.1505  0.7693 -0.9322
 5599SOL    HW128430   3.430   3.262  10.011  3.5940 -0.2044 -0.2482
 5599SOL    HW228431   3.406   3.320   9.872  1.7679  2.7624  0.8513
 5600SOL     OW28432   3.377   4.229   4.282  0.0946  0.3227  0.6045
 5600SOL    HW128433   3.372   4.144   4.326 -2.2055  0.2958  0.2839
 5600SOL    HW228434   3.286   4.251   4.263  0.6056  1.6014 -0.3407
 5601SOL     OW28435   3.105   2.015   4.442  0.8567 -0.4741 -0.2043
 5601SOL    HW128436   3.079   2.107   4.454  0.0001 -0.7794  0.3420
 5601SOL    HW228437   3.126   2.009   4.349  0.8642 -0.2582 -0.2170
 5602SOL     OW28438   4.651   0.295   9.943  0.2088  0.1413 -0.1045
 5602SOL    HW128439   4.599   0.370   9.974 -1.0206 -1.4777  1.7281
 5602SOL    HW228440   4.651   0.236  10.018 -0.3318  0.9530  0.5304
 5603SOL     OW28441   3.367   3.172   9.500  0.2666  0.4650  0.5406
 5603SOL    HW128442   3.283   3.204   9.468 -0.7103  0.0415  2.6585
 5603SOL    HW228443   3.345   3.115   9.574 -1.1395  0.4818  0.1417
 5604SOL     OW28444   0.850   0.414   3.829 -0.4952  0.2206  0.2940
 5604SOL    HW128445   0.815   0.503   3.819  0.5356  0.9256  2.8609
 5604SOL    HW228446   0.879   0.402   3.738  2.4678  1.6239  1.0427
 5605SOL     OW28447   0.057   0.357   2.242  0.7124  0.1436  0.0818
 5605SOL    HW128448   0.076   0.423   2.308 -1.7326  0.6412  0.2604
 5605SOL    HW228449   4.697   0.357   2.243  0.7282  0.7367  1.7298
 5606SOL     OW28450   3.738   4.376  11.930  0.5575  0.2571  0.0837
 5606SOL    HW128451   3.758   4.315  11.859 -0.0047  0.6132 -0.3844
 5606SOL    HW228452   3.694   4.445  11.881 -1.6682 -1.6011 -0.5252
 5607SOL     OW28453   0.788   2.429   7.973 -0.3041  0.3004  0.2682
 5607SOL    HW128454   0.797   2.483   8.051  0.0881 -1.1511  1.2285
 5607SOL    HW228455   0.792   2.338   8.001  1.2913 -0.6157 -2.9034
 5608SOL     OW28456   1.137   1.625   8.401 -0.4869 -0.3335 -0.4041
 5608SOL    HW128457   1.101   1.712   8.419  1.2764  0.4891 -0.8432
 5608SOL    HW228458   1.062   1.581   8.361 -0.2770 -1.3183  0.2862
 5609SOL     OW28459   0.541   1.234   3.840  0.3751 -0.7396  0.2212
 5609SOL    HW128460   0.619   1.288   3.824  0.5745 -1.4616 -1.2558
 5609SOL    HW228461   0.471   1.293   3.865 -0.1807 -1.4944  0.4335
 5610SOL     OW28462   2.659   2.179   9.244  0.0336 -0.0834  0.4346
 5610SOL    HW128463   2.619   2.138   9.167 -0.9438  2.0504 -0.1973
 5610SOL    HW228464   2.682   2.264   9.206 -0.3904 -0.2071 -0.0972
 5611SOL     OW28465   3.368   0.158   2.840  0.3538  0.1206 -0.1939
 5611SOL    HW128466   3.367   0.250   2.812 -0.7708  0.2137  0.1494
 5611SOL    HW228467   3.457   0.151   2.874 -0.6265  0.7672  2.4537
 5612SOL     OW28468   0.413   2.638  16.253 -0.0786 -0.5860 -0.3450
 5612SOL    HW128469   0.397   2.675  16.166 -1.9952  1.1611  0.7562
 5612SOL    HW228470   0.332   2.671  16.292 -0.6710 -2.2445 -0.1777
 5613SOL     OW28471   1.734   2.699  13.176 -0.0567 -0.2198  0.8325
 5613SOL    HW128472   1.670   2.759  13.139  0.8309  0.9308  1.1640
 5613SOL    HW228473   1.682   2.679  13.254 -0.1434  1.2897  1.1609
 5614SOL     OW28474   0.067   0.609  13.919  0.0278 -0.8350 -0.2091
 5614SOL    HW128475   4.711   0.586  13.934  0.1345 -0.4845  0.9822
 5614SOL    HW228476   0.075   0.702  13.943 -0.2191 -0.6842 -0.6902
 5615SOL     OW28477   1.924   0.680  13.374 -0.5839 -0.3973 -0.1851
 5615SOL    HW128478   1.997   0.665  13.313 -0.3081 -0.0998  0.0693
 5615SOL    HW228479   1.967   0.740  13.435  1.6978 -0.5373 -1.6692
 5616SOL     OW28480   1.096   2.191  16.077  0.6199  0.2262 -0.7584
 5616SOL    HW128481   1.137   2.250  16.014  0.8591 -1.3093 -2.0353
 5616SOL    HW228482   1.040   2.249  16.127  0.8265 -1.5312  1.5455
 5617SOL     OW28483   2.818   3.402   9.485  0.5269 -1.1058  0.1238
 5617SOL    HW128484   2.764   3.456   9.543  0.6380  0.2473 -1.0232
 5617SOL    HW228485   2.850   3.335   9.546  2.2106 -1.8593 -1.5821
 5618SOL     OW28486   4.674   0.154   2.760  0.3179 -0.4068 -0.1437
 5618SOL    HW128487   4.730   0.128   2.833  1.9742  2.0095 -0.5427
 5618SOL    HW228488   4.639   0.067   2.742  3.2854 -1.1653 -2.4039
 5619SOL     OW28489   4.386   2.522   6.384  0.5225  0.0720  0.1511
 5619SOL    HW128490   4.362   2.445   6.434 -1.8472  0.5610 -0.2227
 5619SOL    HW228491   4.471   2.497   6.347 -0.0651 -2.3576  0.4661
 5620SOL     OW28492   4.436   3.939   4.630  0.2891  0.0840  0.0720
 5620SOL    HW128493   4.510   3.913   4.575  2.0703  1.0004  2.0267
 5620SOL    HW228494   4.365   3.910   4.573  1.3548 -0.0829 -1.1617
 5621SOL     OW28495   0.123   3.049   9.100 -0.7714 -0.6454 -0.0916
 5621SOL    HW128496   0.201   3.105   9.106 -0.0192 -1.6065 -0.8398
 5621SOL    HW228497   0.094   3.026   9.012 -1.4302 -0.9762  0.2075
 5622SOL     OW28498   2.674   4.383   4.481  0.2557  0.5528  0.9337
 5622SOL    HW128499   2.673   4.299   4.527 -0.3478 -0.6517 -1.2805
 5622SOL    HW228500   2.768   4.398   4.475  0.3461 -0.4026 -0.2096
 5623SOL     OW28501   0.201   0.390   7.785  0.4594  0.5942  0.7330
 5623SOL    HW128502   0.107   0.381   7.775  0.5496  2.6903 -1.8610
 5623SOL    HW228503   0.225   0.314   7.732 -1.3196  0.8133 -0.3701
 5624SOL     OW28504   4.384   4.663   8.785 -0.5732  0.0742 -0.3734
 5624SOL    HW128505   4.406   4.592   8.724  0.2103  1.8265 -2.1459
 5624SOL    HW228506   4.471   4.694   8.811  0.9564 -2.4805 -2.4099
 5625SOL     OW28507   4.414   3.218  12.713 -0.2188 -0.3530  0.3668
 5625SOL    HW128508   4.359   3.286  12.754  0.0610 -1.4076  2.5061
 5625SOL    HW228509   4.347   3.157  12.681  0.6395 -0.7839 -0.5918
 5626SOL     OW28510   4.407   0.073   8.090  0.0037  0.6081  0.3572
 5626SOL    HW128511   4.422   0.155   8.138  0.0043  0.9317 -0.1951
 5626SOL    HW228512   4.324   0.092   8.048  1.0585 -0.3994 -2.1485
 5627SOL     OW28513   1.920   1.891   7.187  0.2330  0.1358  0.2002
 5627SOL    HW128514   2.015   1.884   7.173  0.4328 -1.3562  2.2511
 5627SOL    HW228515   1.908   1.916   7.278  1.4704 -0.5602  0.5467
 5628SOL     OW28516   3.391   2.673   6.395 -0.5206  0.4252 -0.5135
 5628SOL    HW128517   3.362   2.644   6.309 -4.6339 -1.1857  1.3489
 5628SOL    HW228518   3.481   2.644   6.389 -0.2151  1.0456  1.0523
 5629SOL     OW28519   2.254   2.608   7.179 -0.4869 -0.3050 -0.1020
 5629SOL    HW128520   2.161   2.590   7.163 -0.8683  1.8094 -0.2610
 5629SOL    HW228521   2.258   2.669   7.253 -1.6041 -1.6790  1.1052
 5630SOL     OW28522   4.565   4.703  16.871 -0.1658 -0.0710 -0.0707
 5630SOL    HW128523   4.473   4.706  16.895 -0.0038  1.5761  0.3653
 5630SOL    HW228524   4.602   0.038  16.925  0.3216 -0.3003 -0.1013
 5631SOL     OW28525   3.394   0.360   4.345  0.1093  0.5232 -0.3216
 5631SOL    HW128526   3.333   0.414   4.294 -0.0402  0.9453  0.3099
 5631SOL    HW228527   3.471   0.415   4.328 -0.6490  1.6274 -0.2193
 5632SOL     OW28528   1.376   4.251  14.317 -0.0639 -0.0620 -0.1680
 5632SOL    HW128529   1.460   4.228  14.357  0.5948  1.3771 -0.7224
 5632SOL    HW228530   1.333   4.167  14.331  1.5517 -1.1698 -1.9452
 5633SOL     OW28531   3.317   4.487   3.586  0.3416 -0.3667  0.0731
 5633SOL    HW128532   3.246   4.435   3.547 -0.3095 -0.1787  1.0135
 5633SOL    HW228533   3.307   4.463   3.678 -1.7647  1.4009  0.3222
 5634SOL     OW28534   3.668   2.616   6.361  0.0771 -0.0460  0.2718
 5634SOL    HW128535   3.761   2.626   6.379  0.1698 -1.5544  0.6195
 5634SOL    HW228536   3.650   2.555   6.432 -0.3151 -1.4363 -1.0308
 5635SOL     OW28537   0.493   0.154  17.129  0.1318  0.8572  0.4483
 5635SOL    HW128538   0.458   0.067  17.109 -0.1386  1.5888 -2.3473
 5635SOL    HW228539   0.581   0.135  17.161 -0.5603 -1.1070  1.2185
 5636SOL     OW28540   3.089   0.924   9.663 -0.5479 -0.0068 -0.3467
 5636SOL    HW128541   3.087   0.840   9.616 -0.1250  0.8436 -1.8658
 5636SOL    HW228542   3.102   0.988   9.593  2.2871  1.9877  1.9851
 5637SOL     OW28543   3.143   2.242   7.266  0.2821  0.0943 -0.4787
 5637SOL    HW128544   3.085   2.313   7.292 -0.5498 -1.2522  1.3506
 5637SOL    HW228545   3.101   2.216   7.184  1.5750 -2.7173 -0.2620
 5638SOL     OW28546   3.619   4.202  10.838 -0.2819 -0.2129  0.0352
 5638SOL    HW128547   3.679   4.276  10.826  0.1295 -0.5771 -0.1406
 5638SOL    HW228548   3.546   4.245  10.882  0.0318 -1.5096  1.8281
 5639SOL     OW28549   3.290   3.646   1.724 -0.5024 -0.0972 -0.7652
 5639SOL    HW128550   3.252   3.571   1.770 -0.6196 -0.5118 -1.5369
 5639SOL    HW228551   3.364   3.667   1.782 -0.5306  1.0432 -1.1334
 5640SOL     OW28552   2.224   2.922   5.653 -0.5127 -0.1955 -0.0705
 5640SOL    HW128553   2.232   2.997   5.713 -0.1177 -1.6622  1.7344
 5640SOL    HW228554   2.316   2.897   5.646 -0.5387  0.4444 -2.5858
 5641SOL     OW28555   1.893   3.819   6.196 -0.2163 -0.1025  0.1091
 5641SOL    HW128556   1.983   3.837   6.170 -0.5849  0.3250 -0.8737
 5641SOL    HW228557   1.903   3.784   6.285  2.3165 -2.6015 -1.1622
 5642SOL     OW28558   1.847   1.442   7.537 -0.4958 -0.0919  0.4894
 5642SOL    HW128559   1.896   1.488   7.469  1.2109 -0.0640  1.7417
 5642SOL    HW228560   1.882   1.491   7.612 -1.8852  0.3706  0.8462
 5643SOL     OW28561   4.025   2.382   7.548 -0.5413  0.3567 -0.0147
 5643SOL    HW128562   4.106   2.401   7.500 -1.0150 -0.2813 -1.0464
 5643SOL    HW228563   4.044   2.409   7.638  1.0065  1.8131 -0.7691
 5644SOL     OW28564   1.506   1.186   5.824  0.3472 -0.1505 -0.1612
 5644SOL    HW128565   1.551   1.155   5.745 -0.0068 -1.6607  0.2276
 5644SOL    HW228566   1.475   1.271   5.792 -0.7736 -0.0694  1.0999
 5645SOL     OW28567   1.129   2.143   5.360  0.1561 -0.0901  0.0550
 5645SOL    HW128568   1.059   2.092   5.321  2.2990 -1.9397 -1.4058
 5645SOL    HW228569   1.084   2.228   5.367  2.1437  1.0245 -0.6123
 5646SOL     OW28570   1.394   1.876   0.439  0.3003  0.1799 -0.3342
 5646SOL    HW128571   1.441   1.929   0.504 -2.3293  0.8432  1.0556
 5646SOL    HW228572   1.305   1.882   0.475  0.6613  1.2032  0.3820
 5647SOL     OW28573   0.405   0.994   6.526 -0.6154  0.1351  0.0504
 5647SOL    HW128574   0.378   1.049   6.453 -0.2586  1.4153  0.8771
 5647SOL    HW228575   0.345   0.921   6.516 -0.5966 -0.1420  1.8353
 5648SOL     OW28576   1.819   4.430   4.220 -0.3454 -0.6182  0.0871
 5648SOL    HW128577   1.854   4.342   4.203  1.2281  0.1720 -0.8433
 5648SOL    HW228578   1.754   4.430   4.150  0.2439 -2.8137 -0.4778
 5649SOL     OW28579   0.401   3.023  14.452 -0.3698  0.2360 -0.4661
 5649SOL    HW128580   0.338   2.957  14.424  3.2660 -2.1061 -3.0042
 5649SOL    HW228581   0.384   3.043  14.544 -1.0384  2.1639 -0.9916
 5650SOL     OW28582   4.571   4.597   3.596  0.1615  0.2181 -0.0264
 5650SOL    HW128583   4.648   4.554   3.558  0.5881  2.9713 -2.2359
 5650SOL    HW228584   4.580   4.546   3.677 -1.3365  0.8551  0.5257
 5651SOL     OW28585   3.958   3.490   4.877 -0.2201 -0.1338  0.2085
 5651SOL    HW128586   3.902   3.563   4.849  1.3103  0.6475 -0.8117
 5651SOL    HW228587   4.027   3.496   4.811  0.7952 -2.5370  1.0749
 5652SOL     OW28588   2.770   4.216   3.625 -0.0880 -0.3745 -0.6017
 5652SOL    HW128589   2.831   4.180   3.689  0.2272  0.6988 -0.3050
 5652SOL    HW228590   2.802   4.179   3.542 -2.8614 -1.2649 -1.2664
 5653SOL     OW28591   1.778   3.324  16.834  0.0946  0.2925  0.4158
 5653SOL    HW128592   1.688   3.355  16.828  0.9285  2.6173 -0.3914
 5653SOL    HW228593   1.762   3.233  16.857 -1.0542  0.4573  0.2741
 5654SOL     OW28594   0.145   0.769  10.942 -0.2514  0.9467 -0.4499
 5654SOL    HW128595   0.114   0.833  11.007 -2.7087  0.0022 -0.6999
 5654SOL    HW228596   0.089   0.792  10.868  1.9934 -0.3731 -2.5476
 5655SOL     OW28597   2.304   1.936   6.604 -0.2080  0.8810  0.3248
 5655SOL    HW128598   2.276   1.849   6.634 -0.5509  1.8208  2.7142
 5655SOL    HW228599   2.337   1.915   6.517  1.7355 -3.2845  2.0261
 5656SOL     OW28600   3.874   1.809   4.355 -0.1265  0.0210  0.1387
 5656SOL    HW128601   3.882   1.904   4.364 -1.5946  0.0597  1.1940
 5656SOL    HW228602   3.863   1.781   4.446  0.8159  0.4934  0.3900
 5657SOL     OW28603   4.180   2.648   2.599  0.1270  0.4373 -0.1164
 5657SOL    HW128604   4.223   2.584   2.541 -0.2464  2.2518 -2.3648
 5657SOL    HW228605   4.088   2.645   2.576 -0.2488 -1.0068  1.5546
 5658SOL     OW28606   2.990   0.296   8.495 -0.4042  1.0988 -0.3663
 5658SOL    HW128607   2.968   0.209   8.527 -0.1825  1.1181 -0.1619
 5658SOL    HW228608   3.050   0.329   8.561 -2.0611  0.3662  1.4937
 5659SOL     OW28609   2.145   1.320  16.464  0.0948  0.4214  0.4768
 5659SOL    HW128610   2.069   1.344  16.411 -0.1614 -0.5245  0.4280
 5659SOL    HW228611   2.102   1.292  16.544 -0.6194  1.3204  0.4043
 5660SOL     OW28612   2.730   2.737   4.111 -0.1999  0.7655  0.3151
 5660SOL    HW128613   2.758   2.826   4.090 -3.6407  1.4384 -1.3941
 5660SOL    HW228614   2.810   2.687   4.093 -0.2837  0.5584  0.5098
 5661SOL     OW28615   0.919   4.172   2.421  0.6485  0.1149  0.1984
 5661SOL    HW128616   1.006   4.191   2.457  0.0978 -0.8577  2.0429
 5661SOL    HW228617   0.885   4.093   2.464 -0.8525  0.4056 -0.4461
 5662SOL     OW28618   2.509   2.120   1.878  0.1637 -0.1121  0.2576
 5662SOL    HW128619   2.448   2.160   1.816 -1.1052 -0.7361  1.0893
 5662SOL    HW228620   2.595   2.120   1.836  0.5649 -1.1192  1.0702
 5663SOL     OW28621   2.993   3.069   4.358 -0.1431 -0.2158  0.4289
 5663SOL    HW128622   3.069   3.106   4.403 -1.1290 -1.9111  3.5235
 5663SOL    HW228623   2.929   3.114   4.414 -1.3510 -0.3207 -0.8440
 5664SOL     OW28624   4.005   2.025   7.051  0.1961  0.1872  0.0955
 5664SOL    HW128625   4.023   2.076   7.130 -0.4089  1.3314 -0.5120
 5664SOL    HW228626   3.912   2.049   7.046 -0.1218 -1.2402 -0.9846
 5665SOL     OW28627   4.389   0.456   2.077 -0.2113  0.0223 -0.3068
 5665SOL    HW128628   4.335   0.383   2.045 -1.7024  0.7785  0.4726
 5665SOL    HW228629   4.327   0.526   2.099  0.5397 -0.4616  3.3137
 5666SOL     OW28630   4.693   2.351   7.323  0.3725 -0.1194  0.0385
 5666SOL    HW128631   0.052   2.367   7.333  0.1760 -0.1656  1.8799
 5666SOL    HW228632   4.696   2.284   7.254  0.1667  0.2099 -0.2871
 5667SOL     OW28633   2.989   4.631   9.197 -0.4657  0.0801  0.1695
 5667SOL    HW128634   2.972   4.718   9.160  2.9346  1.2090  1.3016
 5667SOL    HW228635   3.075   4.606   9.164  0.7363  2.3591  1.5840
 5668SOL     OW28636   1.369   1.164   3.146  0.1495 -0.1515  0.3307
 5668SOL    HW128637   1.390   1.126   3.231 -0.9133 -0.7665  0.3183
 5668SOL    HW228638   1.273   1.162   3.148  0.2091 -1.4283  1.3746
 5669SOL     OW28639   1.725   3.504  11.804 -0.2316 -0.0728  0.2971
 5669SOL    HW128640   1.679   3.548  11.876  0.6395 -1.6225  1.8097
 5669SOL    HW228641   1.751   3.425  11.853 -3.2765 -0.9822  0.4542
 5670SOL     OW28642   3.970   1.325   9.042  0.1078 -0.4001  0.6047
 5670SOL    HW128643   3.908   1.253   9.054 -1.9817  0.8926 -2.6227
 5670SOL    HW228644   4.058   1.288   9.055  1.3520  2.4357  0.2581
 5671SOL     OW28645   4.144   1.308   3.015 -0.3009  0.6892  0.0155
 5671SOL    HW128646   4.149   1.233   3.073 -0.1970  1.2328  0.7120
 5671SOL    HW228647   4.075   1.361   3.056 -0.4323  0.2870  0.3158
 5672SOL     OW28648   1.670   1.363   6.399  0.4206  0.1741  0.0454
 5672SOL    HW128649   1.670   1.410   6.316 -0.9741  0.5846  0.2759
 5672SOL    HW228650   1.602   1.297   6.384 -2.0109  2.8526 -0.7188
 5673SOL     OW28651   3.180   3.728   5.567  0.3075  0.2318 -0.0748
 5673SOL    HW128652   3.144   3.816   5.552 -1.0450 -0.3355 -0.0938
 5673SOL    HW228653   3.110   3.690   5.619  0.7721 -0.8206 -0.2321
 5674SOL     OW28654   3.359   1.232   0.672  0.2724 -0.6867 -0.0290
 5674SOL    HW128655   3.310   1.223   0.754 -3.3587  4.2127 -1.6872
 5674SOL    HW228656   3.327   1.313   0.632  0.2276 -0.5439  0.2940
 5675SOL     OW28657   0.095   3.645  13.691 -0.1941 -0.4204 -0.1487
 5675SOL    HW128658   0.098   3.738  13.714 -0.7805 -0.9732  2.1301
 5675SOL    HW228659   0.142   3.601  13.761  1.8133  2.2692  0.1887
 5676SOL     OW28660   0.928   2.608  11.125 -0.3906 -0.0063  0.3576
 5676SOL    HW128661   0.908   2.701  11.120 -1.0074 -0.2365 -1.4985
 5676SOL    HW228662   0.877   2.596  11.205  0.3113  1.5169  1.0231
 5677SOL     OW28663   2.853   4.252   2.587  0.2994  0.3081  0.0615
 5677SOL    HW128664   2.760   4.255   2.565  0.1807 -0.8571  0.3990
 5677SOL    HW228665   2.857   4.328   2.644 -1.1680 -0.0103  0.6098
 5678SOL     OW28666   0.952   4.614   5.653  0.6408 -0.6669 -0.2483
 5678SOL    HW128667   0.936   4.534   5.603 -1.0532  0.1593 -1.0408
 5678SOL    HW228668   1.016   4.590   5.720 -0.2895 -1.9952  0.1628
 5679SOL     OW28669   1.679   3.983   0.006  0.6758 -0.2389  0.1572
 5679SOL    HW128670   1.750   4.030   0.049 -0.9785  1.9517  0.4835
 5679SOL    HW228671   1.605   4.019   0.055  0.2213 -1.3639  0.2877
 5680SOL     OW28672   3.377   3.923   9.732 -0.5539  0.3580 -0.1326
 5680SOL    HW128673   3.396   3.922   9.638 -0.3057  0.0737 -0.0802
 5680SOL    HW228674   3.319   3.851   9.755 -1.5891  0.6106 -1.9615
 5681SOL     OW28675   3.262   4.436   3.874 -0.4352 -0.2765  0.0198
 5681SOL    HW128676   3.171   4.464   3.866  0.2589  2.0982  0.5659
 5681SOL    HW228677   3.306   4.505   3.924  2.7437 -0.0260 -3.1516
 5682SOL     OW28678   2.477   3.300   3.840 -0.5209  1.0843 -0.2751
 5682SOL    HW128679   2.426   3.290   3.760 -0.6107 -0.9951  0.0538
 5682SOL    HW228680   2.428   3.251   3.906  4.3034 -2.6198  0.5781
 5683SOL     OW28681   3.592   3.407   1.401 -0.1783  0.0383  0.1763
 5683SOL    HW128682   3.636   3.481   1.360 -0.3207 -0.1434 -0.3003
 5683SOL    HW228683   3.642   3.401   1.483  0.7109 -0.3219 -0.3898
 5684SOL     OW28684   2.975   0.757   9.271  0.8542  0.2778  0.0457
 5684SOL    HW128685   3.021   0.836   9.242  1.3649  0.2152  0.6827
 5684SOL    HW228686   2.884   0.782   9.288  1.1802  0.7842  1.0212
 5685SOL     OW28687   1.426   3.713   7.098  0.0906  0.1247  0.9338
 5685SOL    HW128688   1.406   3.644   7.034 -0.6556  1.0415  0.1967
 5685SOL    HW228689   1.340   3.708   7.139  0.1825 -0.4906  1.0559
 5686SOL     OW28690   2.962   1.500   0.563  0.0492 -0.0346  0.0426
 5686SOL    HW128691   2.959   1.531   0.473 -1.0614 -0.9095 -0.2146
 5686SOL    HW228692   2.911   1.572   0.599  0.2755 -1.2675  2.8645
 5687SOL     OW28693   2.537   0.797   1.677 -0.1019  0.2104  0.1766
 5687SOL    HW128694   2.442   0.806   1.666 -0.3218 -1.4031  0.7529
 5687SOL    HW228695   2.540   0.730   1.745  0.3056 -0.7957 -0.8493
 5688SOL     OW28696   2.973   4.564  12.543  0.2995  0.3999 -0.1112
 5688SOL    HW128697   2.885   4.556  12.580  0.4569  0.8522  0.3664
 5688SOL    HW228698   2.994   4.471  12.533  3.4367  1.1466 -0.2299
 5689SOL     OW28699   2.872   3.622   6.443  0.0357  0.2925  0.3025
 5689SOL    HW128700   2.967   3.616   6.455  0.2178  0.5027 -1.1000
 5689SOL    HW228701   2.868   3.541   6.393 -0.1073  1.1472 -1.0469
 5690SOL     OW28702   2.395   1.244   4.145  0.1637 -0.2928 -0.5225
 5690SOL    HW128703   2.425   1.329   4.177 -1.7500  0.5044 -0.7956
 5690SOL    HW228704   2.397   1.255   4.050  0.4898  0.7998 -0.3889
 5691SOL     OW28705   3.539   1.131   3.917  0.1091 -0.2518 -0.0734
 5691SOL    HW128706   3.526   1.225   3.906 -2.9244 -0.5701  0.7679
 5691SOL    HW228707   3.497   1.094   3.840  0.1213  1.3950 -0.8702
 5692SOL     OW28708   4.011   1.842  10.070 -0.1564  0.8953  0.2744
 5692SOL    HW128709   3.966   1.896  10.135 -1.6855  0.3456 -0.3236
 5692SOL    HW228710   3.960   1.761  10.062 -1.0263  1.2655  2.0799
 5693SOL     OW28711   1.596   1.155  10.499  0.3195 -0.2145  0.4218
 5693SOL    HW128712   1.570   1.081  10.553 -1.0832  0.9793  1.3634
 5693SOL    HW228713   1.515   1.203  10.512 -0.4038 -1.6296  1.1250
 5694SOL     OW28714   0.453   0.107   8.391 -0.2400  0.5556 -0.3842
 5694SOL    HW128715   0.486   0.025   8.356 -0.1747 -1.5900  4.7178
 5694SOL    HW228716   0.368   0.073   8.420  0.5858 -0.6693  0.5909
 5695SOL     OW28717   4.263   1.059   3.359  0.2672  0.1328 -0.1372
 5695SOL    HW128718   4.179   1.015   3.376 -0.3262  0.7190 -1.5979
 5695SOL    HW228719   4.249   1.102   3.275  1.7568  0.3450 -0.2683
 5696SOL     OW28720   4.446   0.069   1.497 -0.2800  0.1845 -0.6226
 5696SOL    HW128721   4.506   0.133   1.536 -1.2687  0.8813 -0.2507
 5696SOL    HW228722   4.436   0.009   1.571 -1.3159  2.5583  1.1498
 5697SOL     OW28723   1.778   1.819  16.367 -0.2720  0.3253 -0.1420
 5697SOL    HW128724   1.785   1.732  16.405 -4.6327 -0.5380 -1.3090
 5697SOL    HW228725   1.694   1.809  16.321 -0.8655  1.1866  0.7404
 5698SOL     OW28726   2.085   0.934   0.185 -0.3819  0.1756  0.1805
 5698SOL    HW128727   1.990   0.942   0.196 -0.4733 -0.6256 -0.0435
 5698SOL    HW228728   2.110   1.018   0.223  2.7535 -0.0910 -1.2847
 5699SOL     OW28729   2.675   1.286   9.151 -0.1797  0.6227  0.4023
 5699SOL    HW128730   2.657   1.238   9.232  1.5186  0.3239  0.6059
 5699SOL    HW228731   2.742   1.347   9.181 -0.2501  0.8460  0.1031
 5700SOL     OW28732   4.107   2.680   7.302  0.0127  0.2704 -0.0005
 5700SOL    HW128733   4.112   2.693   7.397 -0.2675  1.4667 -0.1418
 5700SOL    HW228734   4.161   2.756   7.282 -1.0287  0.0777 -3.4552
 5701SOL     OW28735   3.237   0.545  11.153 -0.1199  0.4346 -0.2894
 5701SOL    HW128736   3.147   0.577  11.149 -0.2232 -0.1078 -2.3835
 5701SOL    HW228737   3.253   0.531  11.060 -0.3892 -0.9890 -0.1080
 5702SOL     OW28738   2.114   0.490  15.657  0.4946 -0.1453 -0.3281
 5702SOL    HW128739   2.128   0.573  15.704  0.3568  0.0155 -0.5773
 5702SOL    HW228740   2.192   0.471  15.605 -0.3560 -0.1867 -1.5722
 5703SOL     OW28741   2.289   2.220   7.680 -0.4803  0.7817 -0.4306
 5703SOL    HW128742   2.349   2.212   7.754  2.4265  3.1784 -2.4982
 5703SOL    HW228743   2.300   2.132   7.643  0.2664  1.4972 -1.9398
 5704SOL     OW28744   1.360   3.392   2.491 -0.6155  0.1045 -0.3444
 5704SOL    HW128745   1.343   3.470   2.438  0.3293  0.6487  0.1388
 5704SOL    HW228746   1.444   3.422   2.525 -1.4744 -0.5178  2.3397
 5705SOL     OW28747   1.076   0.233  16.692 -0.1035 -0.7767  0.2124
 5705SOL    HW128748   1.105   0.173  16.760  2.8657 -0.6954 -0.9864
 5705SOL    HW228749   0.993   0.195  16.661  0.0432 -1.8373  1.1162
 5706SOL     OW28750   3.460   3.577   5.592  0.2367  0.1215 -0.0600
 5706SOL    HW128751   3.398   3.638   5.553  1.0368  0.8901 -0.1305
 5706SOL    HW228752   3.523   3.562   5.522  1.5276 -1.1795  1.3857
 5707SOL     OW28753   1.678   3.721   1.687  0.8562 -0.3731 -0.3464
 5707SOL    HW128754   1.693   3.673   1.606  1.3532 -0.0855 -0.4212
 5707SOL    HW228755   1.759   3.765   1.710  0.3269 -0.2421  1.3532
 5708SOL     OW28756   3.357   4.077   8.693  1.1333  0.3177  0.2681
 5708SOL    HW128757   3.389   4.136   8.762 -0.7114  0.4960  0.9865
 5708SOL    HW228758   3.404   4.103   8.614  1.9477  1.7783  1.2322
 5709SOL     OW28759   0.245   3.688   3.148 -0.0509 -0.0106  1.3158
 5709SOL    HW128760   0.314   3.625   3.129 -0.4869  0.1334 -0.7171
 5709SOL    HW228761   0.177   3.632   3.186 -0.2292 -1.9504 -1.8763
 5710SOL     OW28762   1.478   4.290   3.317  0.3064  0.4414  0.4762
 5710SOL    HW128763   1.407   4.324   3.262  0.3228  0.7677  0.6579
 5710SOL    HW228764   1.483   4.359   3.382 -3.3084  0.0965  1.1220
 5711SOL     OW28765   1.620   0.552   1.901 -0.1723 -0.6744  0.2976
 5711SOL    HW128766   1.577   0.612   1.840  2.8217  1.7452  0.5846
 5711SOL    HW228767   1.708   0.552   1.864 -0.1505  1.1559  0.3321
 5712SOL     OW28768   1.530   1.357   8.554  0.1733  0.6086 -0.3918
 5712SOL    HW128769   1.436   1.371   8.564  0.5445  1.1788  2.3317
 5712SOL    HW228770   1.545   1.328   8.644 -0.1694 -1.4207 -0.9953
 5713SOL     OW28771   1.430   4.609  15.924  0.1189  0.0071  0.4761
 5713SOL    HW128772   1.464   4.521  15.907  0.1968 -0.1089  1.2410
 5713SOL    HW228773   1.496   4.673  15.899 -0.5535  1.2085  1.8182
 5714SOL     OW28774   1.655   1.282   6.757  0.1960  0.2601  0.0466
 5714SOL    HW128775   1.678   1.283   6.664 -2.1214 -1.6904 -0.5346
 5714SOL    HW228776   1.713   1.211   6.784 -0.4395 -0.6308 -0.9729
 5715SOL     OW28777   3.303   4.202   5.634 -0.0535 -0.5820 -0.0361
 5715SOL    HW128778   3.304   4.292   5.601  0.3868 -0.7875 -0.5969
 5715SOL    HW228779   3.371   4.149   5.591  0.1395 -1.8100  1.7483
 5716SOL     OW28780   2.938   1.742   9.484  0.2520 -0.0274 -0.4337
 5716SOL    HW128781   3.027   1.770   9.461  0.9495 -2.2999 -0.5727
 5716SOL    HW228782   2.942   1.756   9.578 -1.9541  1.3548 -0.5456
 5717SOL     OW28783   2.047   0.959   4.407  0.3607 -0.2246 -0.0184
 5717SOL    HW128784   1.993   1.037   4.393 -0.0293 -0.7072 -1.2039
 5717SOL    HW228785   2.129   0.989   4.447 -0.1391 -0.3393  1.1143
 5718SOL     OW28786   3.055   3.708  12.168 -0.2613  0.0371 -0.0611
 5718SOL    HW128787   3.124   3.641  12.161 -1.2353 -0.9319 -0.5298
 5718SOL    HW228788   2.990   3.659  12.218  0.8412 -1.3617  0.0100
 5719SOL     OW28789   1.246   2.383   7.344 -0.3262 -0.5739  0.1109
 5719SOL    HW128790   1.151   2.378   7.345 -0.3162 -0.5334  1.1513
 5719SOL    HW228791   1.264   2.290   7.358  1.8755 -0.4316 -1.7687
 5720SOL     OW28792   2.622   2.104   7.593 -0.2401  0.6699  0.3471
 5720SOL    HW128793   2.619   2.171   7.661 -3.0128 -2.6368  3.4839
 5720SOL    HW228794   2.572   2.033   7.634  0.9303 -0.4643 -0.1731
 5721SOL     OW28795   1.955   3.178   7.957  0.1686 -0.0311  0.0662
 5721SOL    HW128796   1.984   3.257   7.911  0.4459 -1.2236 -1.8090
 5721SOL    HW228797   1.919   3.207   8.041 -0.2196  1.2638 -0.5395
 5722SOL     OW28798   2.822   4.476   7.678 -0.3624 -0.0127 -0.5440
 5722SOL    HW128799   2.862   4.456   7.763  0.2077  0.8010 -0.6181
 5722SOL    HW228800   2.895   4.466   7.617 -0.0730  0.6590 -0.3031
 5723SOL     OW28801   1.017   1.602   7.686 -0.2495 -0.0411  0.5147
 5723SOL    HW128802   1.061   1.658   7.750 -2.2043 -1.0459  2.7487
 5723SOL    HW228803   1.067   1.521   7.678  0.9948  0.9296 -1.6105
 5724SOL     OW28804   3.175   0.994   9.056 -0.0213 -0.3473  0.0558
 5724SOL    HW128805   3.192   1.081   9.022 -2.2459  0.0928  0.1026
 5724SOL    HW228806   3.123   1.021   9.132 -2.7507  1.2024 -2.3805
 5725SOL     OW28807   4.696   4.103   0.919 -0.5479  0.0067 -0.1213
 5725SOL    HW128808   4.623   4.164   0.931  0.4562  1.1358  0.2798
 5725SOL    HW228809   4.681   4.030   0.979  1.0508  0.4718  0.8426
 5726SOL     OW28810   3.274   3.603  13.509 -0.3794  0.2997 -0.6792
 5726SOL    HW128811   3.249   3.660  13.437 -0.3064 -1.7811 -2.3371
 5726SOL    HW228812   3.256   3.659  13.585 -1.4336 -1.2976  0.2457
 5727SOL     OW28813   3.620   2.943   8.028 -0.0301 -0.0218 -0.4416
 5727SOL    HW128814   3.606   3.015   8.089  0.5518 -1.5791  1.5067
 5727SOL    HW228815   3.533   2.905   8.039  0.3667 -1.1688 -1.1860
 5728SOL     OW28816   2.604   2.360  11.241 -0.3342 -0.5608 -0.3554
 5728SOL    HW128817   2.546   2.436  11.248  1.7097  0.9850 -0.1991
 5728SOL    HW228818   2.691   2.381  11.276 -0.7458  1.4571 -0.4976
 5729SOL     OW28819   4.510   2.549   4.670 -0.1999  1.2391 -0.7223
 5729SOL    HW128820   4.580   2.614   4.678  0.3263  0.6858 -0.7909
 5729SOL    HW228821   4.554   2.470   4.703 -2.2936  2.0907  4.0081
 5730SOL     OW28822   2.101   2.276  12.332  0.4686  0.3140  0.3105
 5730SOL    HW128823   2.115   2.236  12.246 -1.5707 -0.8893  0.5440
 5730SOL    HW228824   2.043   2.346  12.305 -0.1526  0.5785  2.3361
 5731SOL     OW28825   3.528   0.242   6.377 -0.0513  0.1788  0.1187
 5731SOL    HW128826   3.591   0.170   6.372  0.6263  0.9200 -2.3221
 5731SOL    HW228827   3.453   0.196   6.413  0.2492 -1.4750 -1.3744
 5732SOL     OW28828   2.376   4.536   7.466  0.5765 -0.4015 -0.5044
 5732SOL    HW128829   2.330   4.620   7.460 -0.2738 -0.8474 -0.3367
 5732SOL    HW228830   2.446   4.552   7.528  0.6743 -1.2158 -0.3992
 5733SOL     OW28831   1.453   1.094   4.860 -0.1099 -0.3381  0.0315
 5733SOL    HW128832   1.548   1.085   4.851 -0.0003  0.2362  0.5955
 5733SOL    HW228833   1.426   1.034   4.791 -0.9189  1.2784 -1.0672
 5734SOL     OW28834   1.160   2.235   0.543  0.2739 -0.9289 -0.2302
 5734SOL    HW128835   1.234   2.270   0.495  2.4078 -2.3074  2.0673
 5734SOL    HW228836   1.142   2.149   0.504  1.6713 -0.7355 -1.2924
 5735SOL     OW28837   0.750   0.765   3.327 -0.1557  0.0172 -0.3687
 5735SOL    HW128838   0.763   0.859   3.315  2.7685 -0.1465  1.3247
 5735SOL    HW228839   0.706   0.759   3.412  1.1251 -1.0682  0.2177
 5736SOL     OW28840   3.356   1.698  13.698  0.0783 -0.1006  0.9299
 5736SOL    HW128841   3.330   1.666  13.785 -1.8522 -0.0667  0.3662
 5736SOL    HW228842   3.452   1.702  13.704  0.2318  0.8726 -2.4245
 5737SOL     OW28843   2.569   4.011   6.695  0.1507 -0.0924  0.1085
 5737SOL    HW128844   2.480   4.044   6.708  0.3761  0.6118 -0.1358
 5737SOL    HW228845   2.549   3.920   6.674 -0.7264 -0.0378  0.7121
 5738SOL     OW28846   1.288   0.168   4.423 -0.5484 -0.5426 -0.5612
 5738SOL    HW128847   1.294   0.240   4.485 -1.3322 -1.5395  0.6693
 5738SOL    HW228848   1.194   0.181   4.417 -0.6967 -1.3055  0.0957
 5739SOL     OW28849   3.739   3.419   1.650  0.1994 -0.0631 -0.1808
 5739SOL    HW128850   3.826   3.419   1.610  0.4289 -0.4012  0.3193
 5739SOL    HW228851   3.731   3.334   1.692 -0.0056 -0.2721 -0.6570
 5740SOL     OW28852   2.848   0.670   9.613  0.1215  0.5759  0.0917
 5740SOL    HW128853   2.776   0.613   9.586 -0.1770  0.4971  1.0732
 5740SOL    HW228854   2.889   0.611   9.676  1.5451 -0.4333 -1.7948
 5741SOL     OW28855   1.464   3.126  12.707 -0.1370  0.0627  0.0207
 5741SOL    HW128856   1.516   3.198  12.742 -0.0488 -0.2735  0.5889
 5741SOL    HW228857   1.376   3.163  12.716 -0.6933 -1.3247  0.3743
 5742SOL     OW28858   1.081   0.463   6.041  0.0325 -0.1289  0.4150
 5742SOL    HW128859   1.031   0.438   6.119 -1.1095 -1.1886 -0.6625
 5742SOL    HW228860   1.099   0.377   6.003  0.4477  1.0187 -1.9608
 5743SOL     OW28861   4.016   3.564   5.130  0.1528  0.0670 -0.4058
 5743SOL    HW128862   3.994   3.555   5.037  1.3157  1.0174 -0.7716
 5743SOL    HW228863   4.095   3.510   5.137  0.4207  0.5826  0.5182
 5744SOL     OW28864   1.690   4.705   4.835 -0.4449  0.4760  0.2185
 5744SOL    HW128865   1.683   0.019   4.917 -2.8126  0.8264 -0.2061
 5744SOL    HW228866   1.743   0.032   4.785  0.8587 -0.2797  0.6343
 5745SOL     OW28867   0.688   2.219   9.407  0.2496  0.1734  0.6278
 5745SOL    HW128868   0.660   2.299   9.453  0.5459 -0.2061  1.4721
 5745SOL    HW228869   0.708   2.241   9.316  1.2416  2.2975  1.3583
 5746SOL     OW28870   4.430   0.256  10.178  0.1567  0.8466 -0.4806
 5746SOL    HW128871   4.460   0.272  10.268  0.4878  0.5490 -0.5387
 5746SOL    HW228872   4.484   0.182  10.153  0.2253  0.5517  0.5355
 5747SOL     OW28873   0.740   0.662   9.644  0.2412  0.4515  0.5279
 5747SOL    HW128874   0.758   0.731   9.707  0.8393  1.0117 -0.2669
 5747SOL    HW228875   0.784   0.594   9.695  0.2111  0.8066  1.0264
 5748SOL     OW28876   4.630   1.019   3.334 -0.2223 -0.5782  0.4883
 5748SOL    HW128877   4.599   1.092   3.280 -0.6269 -0.7092  0.5414
 5748SOL    HW228878   4.584   1.037   3.416 -0.3790 -0.8717  0.4657
 5749SOL     OW28879   1.522   4.269   2.704  1.0222 -0.0233 -0.2512
 5749SOL    HW128880   1.467   4.300   2.632 -0.2027  0.6510  0.9732
 5749SOL    HW228881   1.540   4.353   2.746  2.0514 -1.3156  1.8814
 5750SOL     OW28882   3.226   2.781  10.208 -0.4910 -0.0170  0.4100
 5750SOL    HW128883   3.133   2.759  10.206 -0.3125 -0.8347  1.1909
 5750SOL    HW228884   3.242   2.781  10.114 -1.8474  0.5998  0.1823
 5751SOL     OW28885   3.001   3.133   1.803  0.1596 -0.1443 -0.0989
 5751SOL    HW128886   3.032   3.213   1.762 -0.6147 -0.2635 -0.9090
 5751SOL    HW228887   2.953   3.169   1.878 -1.5757  1.0717 -1.7961
 5752SOL     OW28888   2.829   3.825   4.248 -0.8101  0.0311 -0.0110
 5752SOL    HW128889   2.913   3.832   4.294 -0.7989  2.5611 -0.4136
 5752SOL    HW228890   2.853   3.770   4.174 -2.8596 -0.2366 -0.4725
 5753SOL     OW28891   0.965   1.439   8.290  0.7145 -0.3597 -0.1812
 5753SOL    HW128892   0.906   1.383   8.342  0.4765  0.0352 -0.0211
 5753SOL    HW228893   0.947   1.402   8.204  3.7855 -2.6643  0.1905
 5754SOL     OW28894   1.527   0.690   1.655  0.2350  0.0299  0.1016
 5754SOL    HW128895   1.496   0.755   1.719  0.8194 -2.3286  2.7596
 5754SOL    HW228896   1.579   0.753   1.606 -1.2696 -0.2416 -1.8078
 5755SOL     OW28897   2.902   3.219   9.674 -0.4151 -0.1352  0.1621
 5755SOL    HW128898   2.863   3.191   9.756 -1.9348  1.0179 -0.1514
 5755SOL    HW228899   2.934   3.134   9.646  0.4067 -0.0061  0.6994
 5756SOL     OW28900   0.969   3.567   9.722  0.0276 -0.0766  0.0967
 5756SOL    HW128901   0.888   3.618   9.723  0.2520  0.2723  0.7184
 5756SOL    HW228902   1.031   3.640   9.717 -0.6390  0.4193 -0.8731
 5757SOL     OW28903   0.947   4.726  10.319 -0.0800 -0.1493 -0.0487
 5757SOL    HW128904   0.953   4.640  10.277  0.3781 -1.5614  2.9202
 5757SOL    HW228905   1.027   4.728  10.371 -0.3094 -0.4107  0.3242
 5758SOL     OW28906   1.460   3.531  10.729  0.1467  0.2710 -0.0648
 5758SOL    HW128907   1.391   3.591  10.757  0.2546  0.0277  0.7132
 5758SOL    HW228908   1.490   3.489  10.810  1.9168  1.6449 -0.0034
 5759SOL     OW28909   3.083   0.515   7.858  0.1180 -0.1407 -0.0059
 5759SOL    HW128910   3.134   0.591   7.828  1.5888 -0.9521  0.4322
 5759SOL    HW228911   3.155   0.458   7.884  0.5447  1.4802  2.2865
 5760SOL     OW28912   0.482   3.155  11.816 -0.0224 -0.2710 -0.7169
 5760SOL    HW128913   0.562   3.190  11.854 -1.0514  1.3470 -0.0620
 5760SOL    HW228914   0.517   3.118  11.734  3.4565  0.2429  0.5421
 5761SOL     OW28915   0.540   2.616   5.343  0.5446  0.3497  0.4433
 5761SOL    HW128916   0.480   2.621   5.269  0.2553  1.1064  0.7283
 5761SOL    HW228917   0.485   2.655   5.410 -0.1386  1.6418 -0.8579
 5762SOL     OW28918   2.913   1.380   5.139 -0.2576  0.1202 -0.1707
 5762SOL    HW128919   2.989   1.419   5.095  0.2191 -0.3488  0.2481
 5762SOL    HW228920   2.840   1.391   5.077  0.7018 -0.7283 -1.4505
 5763SOL     OW28921   4.509   0.924  12.679 -0.4621  0.7007 -0.1741
 5763SOL    HW128922   4.424   0.953  12.648  0.0754  0.8672 -1.4864
 5763SOL    HW228923   4.488   0.834  12.704  0.5914  0.7664  1.0011
 5764SOL     OW28924   0.466   3.898   7.324 -0.3142  0.0826 -0.1507
 5764SOL    HW128925   0.535   3.963   7.340  0.0935 -1.1758  3.1458
 5764SOL    HW228926   0.513   3.825   7.285  2.2348  0.4204  2.2774
 5765SOL     OW28927   2.625   1.234   5.870  0.4693 -0.1429  0.0087
 5765SOL    HW128928   2.545   1.226   5.923  0.0344 -2.1410 -0.9454
 5765SOL    HW228929   2.615   1.168   5.801 -1.1036 -1.8495  1.8299
 5766SOL     OW28930   2.184   2.539  12.768 -0.2770 -0.1583 -0.8828
 5766SOL    HW128931   2.152   2.629  12.761 -0.2747 -0.0784  0.2416
 5766SOL    HW228932   2.273   2.542  12.733 -0.0613 -1.2873 -0.4363
 5767SOL     OW28933   4.690   0.807  12.042 -0.0317  0.1269 -0.1555
 5767SOL    HW128934   4.703   0.835  12.132  0.1669 -1.2263  0.2338
 5767SOL    HW228935   0.004   0.726  12.053 -0.9454 -0.2384  1.1776
 5768SOL     OW28936   4.247   1.136   6.393 -0.0764 -0.2859 -0.3094
 5768SOL    HW128937   4.266   1.042   6.391 -0.9823 -0.4785  0.2927
 5768SOL    HW228938   4.283   1.163   6.308  1.5888  0.8522  0.7521
 5769SOL     OW28939   1.310   4.082   5.989 -0.6097  0.4468 -0.1924
 5769SOL    HW128940   1.235   4.090   5.931 -1.3134  0.9821  0.7963
 5769SOL    HW228941   1.389   4.094   5.936 -0.5227  0.2051 -0.1178
 5770SOL     OW28942   3.657   4.725  10.846  0.3045 -0.4573  0.2034
 5770SOL    HW128943   3.650   0.080  10.816  2.1683 -0.5311 -0.4537
 5770SOL    HW228944   3.699   4.683  10.770  2.5063  1.9557  0.0798
 5771SOL     OW28945   1.099   4.259   6.652 -0.1371 -0.2275  0.0181
 5771SOL    HW128946   1.016   4.302   6.631 -1.2250 -0.6968  3.4136
 5771SOL    HW228947   1.161   4.328   6.626  0.7599 -0.0816  2.4945
 5772SOL     OW28948   0.745   2.020   6.313 -0.2642  0.2891  0.5141
 5772SOL    HW128949   0.702   2.101   6.340 -0.8610 -0.1859  0.9931
 5772SOL    HW228950   0.815   2.019   6.377  0.4530  2.8639 -0.2236
 5773SOL     OW28951   3.835   0.948   6.025 -0.0857 -0.0593  0.2634
 5773SOL    HW128952   3.919   0.977   5.990  0.8767 -0.9044  1.8681
 5773SOL    HW228953   3.859   0.902   6.105  2.4442  0.1927 -0.3574
 5774SOL     OW28954   1.572   2.652   6.150 -0.2959 -0.2646 -0.0796
 5774SOL    HW128955   1.513   2.630   6.221 -0.3203 -0.8759 -0.2934
 5774SOL    HW228956   1.510   2.642   6.078  0.7470 -2.2913 -0.7005
 5775SOL     OW28957   3.307   2.248   5.081 -0.3493  0.0066  0.0720
 5775SOL    HW128958   3.246   2.256   5.007  1.1641 -0.9123 -1.2776
 5775SOL    HW228959   3.266   2.251   5.167 -0.6275  0.1207 -0.0648
 5776SOL     OW28960   4.230   3.494  10.134 -0.1696 -0.6630 -0.2924
 5776SOL    HW128961   4.201   3.425  10.194  1.0319 -0.8549  0.0820
 5776SOL    HW228962   4.262   3.435  10.065  2.7327  1.4241 -0.7711
 5777SOL     OW28963   0.073   0.899   3.653  0.2621 -0.2714 -0.2085
 5777SOL    HW128964   0.090   0.833   3.721  3.4262  0.6298 -0.1216
 5777SOL    HW228965   0.114   0.971   3.702 -1.0734 -0.0773  0.6423
 5778SOL     OW28966   4.670   2.494   6.317 -0.5905 -0.8350  0.2147
 5778SOL    HW128967   0.000   2.425   6.310  0.3725  0.3871 -2.7431
 5778SOL    HW228968   4.701   2.558   6.380 -3.6604 -1.5574  2.4810
 5779SOL     OW28969   2.423   1.746   0.387 -0.1559 -0.4675  0.1228
 5779SOL    HW128970   2.412   1.776   0.297  1.4009  1.1402  0.4857
 5779SOL    HW228971   2.437   1.831   0.428 -0.3510 -1.1389  1.5904
 5780SOL     OW28972   4.423   4.355  10.507 -0.2066  0.3685  0.1535
 5780SOL    HW128973   4.460   4.396  10.585  0.2938  3.9156 -1.9471
 5780SOL    HW228974   4.332   4.356  10.537 -0.4514  3.1387 -0.6375
 5781SOL     OW28975   0.769   0.011   8.817 -0.0343  0.0481  0.1668
 5781SOL    HW128976   0.687   4.733   8.771  0.2556 -0.0759 -0.3076
 5781SOL    HW228977   0.774   4.668   8.873 -2.6477  0.9434  1.6715
 5782SOL     OW28978   2.648   3.764   6.216 -0.1502  0.3857  0.0041
 5782SOL    HW128979   2.571   3.709   6.205  0.9724 -1.2641  0.4038
 5782SOL    HW228980   2.672   3.744   6.307  1.4942 -2.5945 -1.1253
 5783SOL     OW28981   3.655   1.478   3.358 -0.0459 -0.1140  0.0388
 5783SOL    HW128982   3.748   1.490   3.379 -0.2580  0.1425  0.8570
 5783SOL    HW228983   3.634   1.567   3.329 -3.6488 -1.1641 -0.6075
 5784SOL     OW28984   4.123   3.672   1.649  0.4672 -0.2543  0.2268
 5784SOL    HW128985   4.174   3.686   1.729  0.8594 -1.1014  0.1260
 5784SOL    HW228986   4.172   3.726   1.586 -2.1519  1.4723 -0.3146
 5785SOL     OW28987   0.304   1.245   4.080  0.6112 -0.9802  0.4111
 5785SOL    HW128988   0.291   1.282   3.993  0.6014 -0.9339  0.4324
 5785SOL    HW228989   0.335   1.323   4.125 -0.2153 -0.7960  0.6614
 5786SOL     OW28990   1.549   1.732  17.058 -0.0164  0.5834 -0.3576
 5786SOL    HW128991   1.626   1.676  17.071  0.3756  0.8722 -1.4017
 5786SOL    HW228992   1.518   1.736  17.148  1.5537  0.8914  0.1731
 5787SOL     OW28993   4.232   1.819   7.451 -0.0688  0.3151 -0.8845
 5787SOL    HW128994   4.316   1.779   7.431  0.7967  1.3940  0.5172
 5787SOL    HW228995   4.181   1.801   7.373 -1.4561 -0.2003  0.1437
 5788SOL     OW28996   1.321   1.325  14.247 -0.0332 -0.6275 -0.3745
 5788SOL    HW128997   1.246   1.266  14.247  0.5328 -1.3558 -1.6940
 5788SOL    HW228998   1.312   1.360  14.335 -0.4660 -0.6745 -0.3993
 5789SOL     OW28999   2.779   1.062   0.570 -0.3740  0.0845 -0.3322
 5789SOL    HW129000   2.760   1.068   0.477 -1.6420 -1.6856 -0.1940
 5789SOL    HW229001   2.704   1.107   0.610 -0.2001 -0.5311  0.6868
 5790SOL     OW29002   4.491   2.543   7.338  0.5928 -0.0098 -0.3411
 5790SOL    HW129003   4.570   2.491   7.324  0.1219 -0.7405 -0.2794
 5790SOL    HW229004   4.466   2.566   7.248 -1.5471  1.0912  0.5325
 5791SOL     OW29005   4.597   4.602  10.468 -0.0959  0.4550 -0.3886
 5791SOL    HW129006   4.683   4.560  10.470 -0.3170  0.0712  1.3930
 5791SOL    HW229007   4.565   4.586  10.557  1.0062  3.1186  0.5112
 5792SOL     OW29008   4.052   4.297  17.328  0.3607 -0.0447 -0.4194
 5792SOL    HW129009   4.108   4.301  17.251 -1.9724 -0.8671 -2.1730
 5792SOL    HW229010   3.974   4.266  17.282 -1.0362  2.7982 -0.0303
 5793SOL     OW29011   0.275   2.454   4.226 -0.1461  0.5677 -0.1029
 5793SOL    HW129012   0.273   2.508   4.304 -0.5989  1.2306 -0.5726
 5793SOL    HW229013   0.183   2.430   4.236 -0.3510  2.3068  1.9734
 5794SOL     OW29014   0.548   0.487   8.020 -0.3562 -0.0066 -0.6552
 5794SOL    HW129015   0.636   0.488   8.055 -1.5304 -2.6139  2.3649
 5794SOL    HW229016   0.507   0.415   8.069 -1.3706 -0.0660 -1.5733
 5795SOL     OW29017   4.492   1.369   1.840 -0.4017 -0.5672 -0.4410
 5795SOL    HW129018   4.519   1.400   1.927  0.0783  2.1070 -1.5478
 5795SOL    HW229019   4.509   1.446   1.785 -1.9076 -0.6883 -1.0739
 5796SOL     OW29020   1.130   1.874   6.335  0.4213  0.1346  0.5070
 5796SOL    HW129021   1.168   1.962   6.339 -1.8204  1.1439 -0.1832
 5796SOL    HW229022   1.192   1.815   6.378 -3.2458 -3.8163  0.3635
 5797SOL     OW29023   1.980   3.213   1.481  0.1422  0.2375  0.1874
 5797SOL    HW129024   1.929   3.262   1.417  0.2230  0.0497 -0.0204
 5797SOL    HW229025   1.962   3.255   1.565  2.6962  0.5063  0.6245
 5798SOL     OW29026   0.111   4.208  12.979 -0.3906 -0.2302 -0.0769
 5798SOL    HW129027   0.166   4.267  13.030  0.4316  0.7854 -2.1505
 5798SOL    HW229028   0.083   4.152  13.051  0.1300  0.0767  0.3554
 5799SOL     OW29029   2.489   0.603  15.780  0.3254  0.0832  0.2276
 5799SOL    HW129030   2.457   0.693  15.785 -3.3003 -1.2654  1.1880
 5799SOL    HW229031   2.460   0.593  15.689  0.9936  1.4888 -0.1459
 5800SOL     OW29032   3.207   2.539  15.216 -0.4515  0.2764  0.0728
 5800SOL    HW129033   3.123   2.507  15.247 -0.1111 -2.9020 -2.2388
 5800SOL    HW229034   3.169   2.619  15.179 -0.0520  0.7671  0.7283
 5801SOL     OW29035   3.896   4.220   4.691  0.8175 -0.0633 -0.0339
 5801SOL    HW129036   3.868   4.156   4.626 -0.4932  1.3054 -0.8097
 5801SOL    HW229037   3.967   4.188   4.747  0.4749  1.1370  1.0950
 5802SOL     OW29038   1.527   0.834   2.677  0.1361  0.3603 -0.1432
 5802SOL    HW129039   1.568   0.918   2.656 -1.0909  0.9731 -0.0920
 5802SOL    HW229040   1.608   0.787   2.694 -0.2647 -0.6189 -0.9485
 5803SOL     OW29041   0.349   0.401   3.811 -0.6314  0.4996 -0.2658
 5803SOL    HW129042   0.393   0.485   3.818 -0.9446  0.6139  0.2879
 5803SOL    HW229043   0.264   0.412   3.855 -2.2282 -0.7167 -2.9926
 5804SOL     OW29044   2.244   3.241   2.775  0.8864  0.2027  0.4244
 5804SOL    HW129045   2.270   3.206   2.861 -0.9495 -0.1591  0.8291
 5804SOL    HW229046   2.312   3.299   2.742  1.1436  0.5547  1.5500
 5805SOL     OW29047   3.946   1.802   8.919 -0.4511  0.0595  0.7335
 5805SOL    HW129048   3.944   1.886   8.873 -2.1727  1.0595  2.6137
 5805SOL    HW229049   3.877   1.807   8.986 -0.9150 -0.0665  0.2710
 5806SOL     OW29050   0.981   0.912   3.018  0.4770  0.2199 -0.9990
 5806SOL    HW129051   0.888   0.927   3.029  0.7093  0.8291  0.1451
 5806SOL    HW229052   1.001   0.967   2.943  0.1929  0.9062 -0.5659
 5807SOL     OW29053   0.447   1.875   1.053  0.1741  0.6099 -0.8727
 5807SOL    HW129054   0.460   1.820   1.131 -1.8106 -0.8846 -1.5828
 5807SOL    HW229055   0.352   1.875   1.061  0.0442 -0.5715 -2.4878
 5808SOL     OW29056   3.196   4.285   2.212  0.0237 -0.3820 -0.0972
 5808SOL    HW129057   3.219   4.193   2.228 -0.0619 -0.5853 -1.1083
 5808SOL    HW229058   3.101   4.277   2.199 -0.0716 -1.2538  1.0519
 5809SOL     OW29059   2.658   3.359  10.665  0.4218  0.3844 -0.8942
 5809SOL    HW129060   2.637   3.267  10.649  0.2958  0.1209  0.7383
 5809SOL    HW229061   2.640   3.364  10.759  2.2754 -0.8323 -0.4912
 5810SOL     OW29062   3.776   0.191  13.736  0.2421 -0.1542 -0.0616
 5810SOL    HW129063   3.857   0.184  13.786  2.0027  1.9401 -2.6210
 5810SOL    HW229064   3.720   0.225  13.805  1.3186 -0.2528  0.8507
 5811SOL     OW29065   4.710   1.306   7.109 -0.0487 -0.2309 -0.2815
 5811SOL    HW129066   0.044   1.313   7.043  1.3480  2.0055  1.3873
 5811SOL    HW229067   4.651   1.240   7.073 -0.9258 -0.0923  0.9136
 5812SOL     OW29068   2.048   0.021  10.956  0.1726  0.1822  0.1549
 5812SOL    HW129069   2.133   0.056  10.978  0.2711 -0.6871  1.1407
 5812SOL    HW229070   2.075   4.667  10.976  1.9656  0.3887 -1.3628
 5813SOL     OW29071   1.448   1.801   6.915 -0.2822  0.2027  0.3646
 5813SOL    HW129072   1.505   1.743   6.966  0.2001 -1.3717 -1.9736
 5813SOL    HW229073   1.503   1.807   6.836  0.7700 -0.0026  1.0753
 5814SOL     OW29074   2.639   2.518   6.238 -0.1746 -0.3399  0.2407
 5814SOL    HW129075   2.613   2.426   6.247  0.5042 -0.4989  0.5542
 5814SOL    HW229076   2.731   2.520   6.266 -0.3100  0.3729  0.6336
 5815SOL     OW29077   0.223   3.750  11.810  0.1543 -0.1473  0.3279
 5815SOL    HW129078   0.165   3.766  11.735  2.3855  2.1247 -0.9112
 5815SOL    HW229079   0.195   3.665  11.843  0.8753 -0.6716 -0.4205
 5816SOL     OW29080   3.630   2.455   5.010  0.3179  0.1151 -0.5972
 5816SOL    HW129081   3.665   2.405   5.084 -0.1314  0.1930 -0.3344
 5816SOL    HW229082   3.556   2.494   5.057 -0.2394  0.5703 -1.8695
 5817SOL     OW29083   3.229   4.308   8.048 -0.0719  0.6344 -0.7750
 5817SOL    HW129084   3.240   4.312   7.953  1.2105  0.6036 -0.6279
 5817SOL    HW229085   3.206   4.216   8.058 -3.2762  1.6679  1.2657
 5818SOL     OW29086   3.541   0.651  13.942  0.6991 -0.2544 -0.2541
 5818SOL    HW129087   3.460   0.702  13.934 -0.1693 -1.2598  2.1894
 5818SOL    HW229088   3.542   0.642  14.037  0.6855  0.7699 -0.1564
 5819SOL     OW29089   3.914   4.575   3.472 -0.0128 -0.6131 -0.9921
 5819SOL    HW129090   3.882   4.492   3.435 -1.0740  0.4129 -2.3866
 5819SOL    HW229091   3.933   4.543   3.560 -1.3810  0.0067 -0.4769
 5820SOL     OW29092   0.483   3.195   7.848 -0.0316  0.6462  0.2612
 5820SOL    HW129093   0.391   3.176   7.868  0.5735 -0.6304  1.8678
 5820SOL    HW229094   0.496   3.131   7.779 -0.5891 -0.2370  0.9771
 5821SOL     OW29095   2.665   0.984   3.961  0.2207 -0.1690 -0.0451
 5821SOL    HW129096   2.664   1.078   3.976  0.1863 -0.0388 -0.8917
 5821SOL    HW229097   2.722   0.982   3.884  1.1271 -1.7180  0.6687
 5822SOL     OW29098   1.855   4.494   4.947  0.8087  0.2630 -0.5878
 5822SOL    HW129099   1.904   4.566   4.986 -0.5564  2.5025 -2.9954
 5822SOL    HW229100   1.797   4.548   4.893  1.3178  1.5144  0.1315
 5823SOL     OW29101   2.263   1.373   8.653  0.5571  0.6445  0.1629
 5823SOL    HW129102   2.172   1.396   8.633  0.3496  0.4897  0.9141
 5823SOL    HW229103   2.289   1.450   8.703 -2.0468 -0.1184  2.7483
 5824SOL     OW29104   4.513   0.263   6.859  0.3284  0.0954 -0.5791
 5824SOL    HW129105   4.564   0.196   6.905  0.3378  0.7375  0.3378
 5824SOL    HW229106   4.541   0.339   6.911  0.1423  0.0704 -0.4421
 5825SOL     OW29107   3.487   0.580   7.897 -0.1262 -0.0552  0.0239
 5825SOL    HW129108   3.447   0.572   7.983  0.2594 -1.0420  0.1068
 5825SOL    HW229109   3.449   0.504   7.854  0.3562 -0.5263  0.4361
 5826SOL     OW29110   3.325   1.742   5.356  0.7128 -0.2958  0.3336
 5826SOL    HW129111   3.413   1.731   5.320  0.3473 -2.0552 -0.0609
 5826SOL    HW229112   3.295   1.814   5.300 -2.7115 -0.9767  1.2594
 5827SOL     OW29113   3.770   3.327  10.848 -0.0106 -0.3385 -0.3230
 5827SOL    HW129114   3.800   3.418  10.847  1.0571 -0.6909  0.6950
 5827SOL    HW229115   3.768   3.296  10.938 -0.9217  0.9841  0.1205
 5828SOL     OW29116   4.128   0.334  10.363 -0.4343  0.1944  0.6190
 5828SOL    HW129117   4.039   0.323  10.399 -0.5053 -0.3936  0.2609
 5828SOL    HW229118   4.170   0.283  10.432 -0.3964 -0.0409  0.4202
 5829SOL     OW29119   1.361   0.913   7.706  0.2249 -0.5150 -0.1905
 5829SOL    HW129120   1.279   0.874   7.739  0.1410  1.4553  1.9632
 5829SOL    HW229121   1.336   0.947   7.621  0.6950 -0.4958 -0.3188
 5830SOL     OW29122   1.928   4.712  13.386 -0.6447  0.1819  0.1006
 5830SOL    HW129123   1.949   4.625  13.352  1.6555  1.5647 -1.9903
 5830SOL    HW229124   1.832   4.712  13.387 -0.6562  1.5932 -1.1066
 5831SOL     OW29125   3.630   2.471   8.424 -0.2369  0.2997  0.3824
 5831SOL    HW129126   3.710   2.489   8.375 -0.5849 -0.1131 -0.3231
 5831SOL    HW229127   3.569   2.461   8.351  0.5347  0.7255 -0.3221
 5832SOL     OW29128   1.034   0.070   1.756 -0.4393 -0.4957  0.2169
 5832SOL    HW129129   1.018   0.119   1.837  1.0034 -1.3587  1.0040
 5832SOL    HW229130   1.129   0.067   1.755 -0.4417  0.3555 -1.3017
 5833SOL     OW29131   0.815   2.863  11.046 -0.2784  0.0621  0.3476
 5833SOL    HW129132   0.902   2.897  11.067 -0.2247  0.7374 -0.9923
 5833SOL    HW229133   0.798   2.894  10.957 -1.2866  1.5985  1.0718
 5834SOL     OW29134   0.799   4.527   7.651  0.6256  0.9232 -0.3463
 5834SOL    HW129135   0.760   4.561   7.732  0.8698  0.6272 -0.1008
 5834SOL    HW229136   0.731   4.472   7.611  1.1490  2.6509 -3.5298
 5835SOL     OW29137   2.782   0.930   8.766 -0.4382 -0.2126 -0.3286
 5835SOL    HW129138   2.832   0.955   8.689  1.1092  0.4680  0.9050
 5835SOL    HW229139   2.812   0.995   8.830 -1.0513  0.2797 -0.5497
 5836SOL     OW29140   3.296   2.135  12.060 -0.6444  0.4915 -0.3922
 5836SOL    HW129141   3.337   2.222  12.060 -0.2004  0.2835 -0.1910
 5836SOL    HW229142   3.206   2.149  12.089 -0.3801 -0.9620  1.0994
 5837SOL     OW29143   3.477   2.864  10.678 -0.1605  0.0996 -0.3040
 5837SOL    HW129144   3.456   2.860  10.585  2.5193 -2.9608 -0.7553
 5837SOL    HW229145   3.516   2.778  10.691 -1.7389 -0.4914  0.5217
 5838SOL     OW29146   2.172   3.967   5.895  0.4107  0.0419 -0.9991
 5838SOL    HW129147   2.255   4.002   5.929 -0.0764 -1.4036  1.6686
 5838SOL    HW229148   2.203   3.893   5.842 -1.6107 -1.0523 -0.6365
 5839SOL     OW29149   4.693   3.466   1.812  0.6731 -0.2418 -0.3347
 5839SOL    HW129150   0.011   3.393   1.845  0.6622 -0.9467 -1.9164
 5839SOL    HW229151   0.025   3.531   1.792  0.7016  0.0564  0.6950
 5840SOL     OW29152   0.349   3.677   5.129  0.0190 -0.2610  0.8326
 5840SOL    HW129153   0.254   3.667   5.118  0.0732  0.6022 -0.4330
 5840SOL    HW229154   0.369   3.713   5.042 -0.4284 -0.8419  0.4820
 5841SOL     OW29155   2.536   4.532   7.677  0.2153  0.1256  0.3499
 5841SOL    HW129156   2.623   4.502   7.702  1.2923  2.1675 -0.9624
 5841SOL    HW229157   2.534   4.596   7.748 -0.8665 -0.9684  1.3044
 5842SOL     OW29158   4.269   3.434   8.142  0.2600 -0.4656  0.1421
 5842SOL    HW129159   4.302   3.446   8.052  1.6154  1.6601  0.9088
 5842SOL    HW229160   4.345   3.432   8.201 -1.0248 -3.7148  1.7004
 5843SOL     OW29161   0.990   2.097   2.389  0.0983  0.1693 -0.5713
 5843SOL    HW129162   1.050   2.172   2.394 -0.1987  0.0740  4.2556
 5843SOL    HW229163   1.033   2.026   2.437  0.7621  0.5713 -0.5627
 5844SOL     OW29164   0.035   2.095  15.515  0.1165  0.1877 -0.0215
 5844SOL    HW129165   0.057   2.013  15.471 -1.0034  0.3473 -0.8873
 5844SOL    HW229166   0.080   2.089  15.599  1.5571  1.5008 -0.6992
 5845SOL     OW29167   0.938   0.107   2.908  0.6599 -0.3284  0.0778
 5845SOL    HW129168   0.877   0.180   2.902  0.5620 -0.4300 -0.1532
 5845SOL    HW229169   0.872   0.039   2.917  0.7515 -0.4462 -0.1360
 5846SOL     OW29170   1.908   2.096   2.622  0.0330  0.2846 -0.1081
 5846SOL    HW129171   1.842   2.047   2.572 -0.2049 -1.1819  1.6453
 5846SOL    HW229172   1.965   2.131   2.554 -0.1511 -0.5692 -0.7089
 5847SOL     OW29173   3.833   2.199  15.556 -0.0325  0.1213 -0.5669
 5847SOL    HW129174   3.749   2.171  15.521  0.2441 -2.6002  0.9286
 5847SOL    HW229175   3.825   2.210  15.651 -1.6128  0.3046 -0.7122
 5848SOL     OW29176   3.293   0.300   2.297 -0.0294  0.7646 -0.1933
 5848SOL    HW129177   3.330   0.389   2.294  0.8534  0.3670 -1.3439
 5848SOL    HW229178   3.257   0.305   2.386 -2.7482  1.1410 -1.3239
 5849SOL     OW29179   0.131   3.706   6.604  0.1574 -0.0327 -0.3601
 5849SOL    HW129180   0.082   3.702   6.521 -1.8772  0.6847  0.8159
 5849SOL    HW229181   0.076   3.756   6.664  0.4252 -1.2203  0.8523
 5850SOL     OW29182   3.750   2.503   3.352 -0.0448  0.0707 -0.0898
 5850SOL    HW129183   3.669   2.514   3.402  1.2548  2.3648  1.5257
 5850SOL    HW229184   3.755   2.588   3.308  1.0236 -0.0963 -0.2786
 5851SOL     OW29185   4.415   2.886   4.875 -0.3183 -0.4046 -0.4793
 5851SOL    HW129186   4.410   2.801   4.919  1.7101 -0.9693 -1.3425
 5851SOL    HW229187   4.322   2.909   4.872 -0.3834 -0.6530 -0.3913
 5852SOL     OW29188   0.947   0.952  14.064  0.6878  0.3184  0.0613
 5852SOL    HW129189   0.906   0.883  14.116  0.3212  0.7176  0.3021
 5852SOL    HW229190   1.014   0.911  14.009  1.5436  1.0069  0.5861
 5853SOL     OW29191   3.999   4.631   6.343 -0.3128  0.2358  0.1583
 5853SOL    HW129192   3.940   4.621   6.418 -0.0129 -0.0294  0.3573
 5853SOL    HW229193   3.965   4.554   6.297  0.1575  1.5906 -2.4435
 5854SOL     OW29194   2.707   2.318   5.650 -0.4671  0.6043  0.3866
 5854SOL    HW129195   2.771   2.370   5.700 -0.1224 -1.2073  1.8176
 5854SOL    HW229196   2.627   2.361   5.680  0.1101  1.3882  0.8111
 5855SOL     OW29197   3.429   3.462   7.631 -0.4741  0.0711  0.0254
 5855SOL    HW129198   3.367   3.410   7.580 -1.7583  2.9462 -1.3850
 5855SOL    HW229199   3.448   3.520   7.557  3.2776 -0.3221  0.7072
 5856SOL     OW29200   1.161   0.554  11.179 -0.5633  0.5957  0.3060
 5856SOL    HW129201   1.160   0.485  11.112  1.6470  1.5257 -0.6680
 5856SOL    HW229202   1.195   0.515  11.259 -1.3808 -0.2672  0.2342
 5857SOL     OW29203   0.980   2.746   2.871  0.0127  0.1015 -0.2250
 5857SOL    HW129204   0.932   2.742   2.954  0.0187 -0.6083 -0.2621
 5857SOL    HW229205   1.064   2.713   2.903  0.0942 -0.7625 -1.3327
 5858SOL     OW29206   1.768   4.657   3.111  0.2217  0.4754 -0.2771
 5858SOL    HW129207   1.674   4.654   3.094 -0.1775  1.5535  1.6648
 5858SOL    HW229208   1.807   4.670   3.025  2.4911  1.8126  0.9298
 5859SOL     OW29209   3.121   2.373   6.152 -0.5596 -0.4178  0.0574
 5859SOL    HW129210   3.172   2.336   6.224  0.6822  2.7128  0.8035
 5859SOL    HW229211   3.153   2.335   6.070 -0.0312  1.5479 -0.6398
 5860SOL     OW29212   3.790   2.228   2.575  0.3396 -0.3698 -0.1184
 5860SOL    HW129213   3.835   2.296   2.626 -1.1196  1.3481 -1.1422
 5860SOL    HW229214   3.790   2.271   2.490 -0.5141  0.4401  0.2950
 5861SOL     OW29215   0.847   3.850   3.297  0.2177  0.3865 -0.0476
 5861SOL    HW129216   0.892   3.800   3.230 -1.4470 -0.1759 -0.7338
 5861SOL    HW229217   0.915   3.857   3.364 -0.5094 -1.2583  0.8632
 5862SOL     OW29218   1.638   0.832   6.013  0.6251  0.3739 -0.1841
 5862SOL    HW129219   1.598   0.752   6.047 -0.2482  1.3655  1.1379
 5862SOL    HW229220   1.553   0.873   5.997 -0.1845 -1.3075 -0.2336
 5863SOL     OW29221   0.284   4.370  15.905  0.6909 -0.1134  0.1817
 5863SOL    HW129222   0.250   4.426  15.835 -0.8017 -0.5302  0.5672
 5863SOL    HW229223   0.371   4.408  15.914  0.5458  0.4353 -0.7224
 5864SOL     OW29224   3.117   2.558  16.912 -0.2902 -0.1539 -0.3884
 5864SOL    HW129225   3.181   2.537  16.981 -0.0145 -1.4883 -1.0404
 5864SOL    HW229226   3.036   2.540  16.961  1.3193  1.5927  2.9364
 5865SOL     OW29227   0.349   1.135  15.117 -0.3669  0.1085  0.3631
 5865SOL    HW129228   0.274   1.187  15.144  0.5240  1.5835 -0.0442
 5865SOL    HW229229   0.363   1.157  15.025 -2.1569  0.8299  0.2741
 5866SOL     OW29230   1.020   0.262   5.394 -0.3267  0.0045  0.2658
 5866SOL    HW129231   1.061   0.190   5.442 -2.5179  0.4388  2.7462
 5866SOL    HW229232   1.100   0.304   5.361 -0.4371  0.3967  0.4945
 5867SOL     OW29233   4.308   2.889   5.196  0.0017 -0.0221 -0.7358
 5867SOL    HW129234   4.362   2.810   5.191 -3.3809 -2.3834 -0.4486
 5867SOL    HW229235   4.218   2.856   5.193 -0.2324  0.5007  0.6634
 5868SOL     OW29236   1.027   3.314  11.222 -0.4310  0.4189 -0.0614
 5868SOL    HW129237   0.956   3.257  11.193  0.6149  1.0703 -3.8934
 5868SOL    HW229238   1.048   3.276  11.307  1.7290  1.0892 -0.2900
 5869SOL     OW29239   3.294   2.845   2.965 -0.1739  0.0013 -0.2544
 5869SOL    HW129240   3.232   2.872   2.898 -0.3814  1.4809  0.5372
 5869SOL    HW229241   3.239   2.816   3.038 -0.0696 -0.0814 -0.2080
 5870SOL     OW29242   0.869   0.705   9.194 -0.3461  0.0113 -0.3652
 5870SOL    HW129243   0.808   0.774   9.218 -1.2531 -0.5736 -0.9999
 5870SOL    HW229244   0.818   0.653   9.132 -0.4415  1.8110 -1.7798
 5871SOL     OW29245   0.769   4.478   3.168  0.3963 -0.3779  0.2786
 5871SOL    HW129246   0.846   4.480   3.110  1.5835 -0.2715  1.8718
 5871SOL    HW229247   0.772   4.573   3.181 -2.9307 -0.2261 -0.1551
 5872SOL     OW29248   0.561   3.677  10.714  0.6623  0.0220  0.2816
 5872SOL    HW129249   0.622   3.677  10.788  1.9358  0.1727 -0.7625
 5872SOL    HW229250   0.578   3.587  10.686 -0.7374 -0.5904  1.4224
 5873SOL     OW29251   4.007   1.273   2.177  0.1308 -1.0714 -0.1706
 5873SOL    HW129252   3.940   1.268   2.245 -0.7265 -1.1627 -1.0197
 5873SOL    HW229253   3.951   1.238   2.108  0.6830  1.3530 -1.8364
 5874SOL     OW29254   3.868   0.954   9.391  0.4964 -0.7447  0.7906
 5874SOL    HW129255   3.804   0.885   9.373 -2.2032  1.6764  0.9202
 5874SOL    HW229256   3.938   0.904   9.432 -0.5263 -2.0708  0.9212
 5875SOL     OW29257   3.196   0.115   6.214  0.0138 -0.4271 -0.5059
 5875SOL    HW129258   3.198   0.173   6.290  0.2858 -0.8972 -0.1501
 5875SOL    HW229259   3.286   0.120   6.182  1.4719 -1.3383  3.4025
 5876SOL     OW29260   3.450   1.474   4.864 -0.2984 -0.1224 -0.5574
 5876SOL    HW129261   3.365   1.457   4.824 -1.1217  0.6283  0.8627
 5876SOL    HW229262   3.462   1.564   4.834 -1.1815  0.0840 -0.2978
 5877SOL     OW29263   2.915   0.352   7.982 -0.2664 -0.1472 -0.7100
 5877SOL    HW129264   2.859   0.422   8.016 -1.3485 -1.5224  0.3656
 5877SOL    HW229265   2.990   0.405   7.954 -0.6787  1.6377  1.5565
 5878SOL     OW29266   3.915   3.389  16.845 -0.1055 -0.0311 -0.1240
 5878SOL    HW129267   3.905   3.307  16.797 -1.5432  1.6697 -2.7791
 5878SOL    HW229268   3.853   3.369  16.915  0.9737 -3.1051 -0.0459
 5879SOL     OW29269   3.422   2.054   2.999  0.3214 -0.3101 -0.2131
 5879SOL    HW129270   3.464   2.031   2.917 -0.8094 -0.7095 -0.6893
 5879SOL    HW229271   3.467   2.137   3.018  0.6150 -0.4254 -0.4257
 5880SOL     OW29272   2.683   1.225   2.813 -0.3739  0.0123 -0.3566
 5880SOL    HW129273   2.614   1.220   2.747 -1.4010  0.3372  0.6794
 5880SOL    HW229274   2.759   1.266   2.772  1.1802 -1.6902  0.8152
 5881SOL     OW29275   1.821   3.057   1.680 -0.2942  0.1737  0.2028
 5881SOL    HW129276   1.894   3.094   1.730  0.3191  0.2859 -0.7756
 5881SOL    HW229277   1.860   3.042   1.593 -1.0235  0.4904 -0.1789
 5882SOL     OW29278   3.265   3.546  11.706  0.4365  0.1274 -0.1960
 5882SOL    HW129279   3.325   3.616  11.732  0.0415  1.2184 -2.2342
 5882SOL    HW229280   3.313   3.467  11.730  0.4474 -0.0054 -0.6717
 5883SOL     OW29281   4.407   1.802   3.068  0.1338 -0.3311 -0.0128
 5883SOL    HW129282   4.400   1.886   3.113 -0.9935 -0.7832  0.6505
 5883SOL    HW229283   4.468   1.764   3.131 -1.0736 -0.9027  0.8113
 5884SOL     OW29284   2.845   1.582   5.880 -0.0360  0.5062 -0.4553
 5884SOL    HW129285   2.879   1.514   5.822  0.3706  2.7744 -2.8676
 5884SOL    HW229286   2.848   1.654   5.817  0.3030  1.2151  0.3695
 5885SOL     OW29287   2.472   2.208   2.911 -0.4643 -0.5842 -0.0487
 5885SOL    HW129288   2.524   2.133   2.937  0.0043 -1.0335 -2.3149
 5885SOL    HW229289   2.535   2.280   2.906 -1.5305  0.2399 -1.5975
 5886SOL     OW29290   1.576   2.067   3.723 -0.0996 -0.5866  0.6289
 5886SOL    HW129291   1.544   2.016   3.797  1.2330  1.7433  2.7871
 5886SOL    HW229292   1.497   2.057   3.669  1.7283  0.3411 -2.1868
 5887SOL     OW29293   2.665   1.991   3.004 -0.2772 -0.2161 -0.0119
 5887SOL    HW129294   2.615   1.953   3.077  0.1619 -0.6979  0.0376
 5887SOL    HW229295   2.756   1.979   3.031  0.3818  0.7330 -1.8054
 5888SOL     OW29296   3.238   1.274   3.598 -0.0219  0.0157  0.0657
 5888SOL    HW129297   3.196   1.360   3.607  0.4162  0.2129  0.1913
 5888SOL    HW229298   3.322   1.295   3.558 -0.1038 -2.2789 -1.3236
 5889SOL     OW29299   4.651   3.027   3.671 -0.2902  0.4047  0.1981
 5889SOL    HW129300   4.561   3.012   3.699  0.2220  2.4473  2.9332
 5889SOL    HW229301   4.658   2.951   3.613  1.3330  0.8915 -0.2665
 5890SOL     OW29302   4.505   2.158   8.690  0.4743  0.1155 -0.2758
 5890SOL    HW129303   4.470   2.135   8.604  0.6797  0.6521 -0.5053
 5890SOL    HW229304   4.432   2.144   8.750  0.8737  0.5422  0.3200
 5891SOL     OW29305   1.355   1.657  14.933 -0.1540  0.3581 -0.1338
 5891SOL    HW129306   1.436   1.610  14.955 -1.6733 -1.0163  2.5986
 5891SOL    HW229307   1.283   1.595  14.938  0.5156 -0.3732  0.5256
 5892SOL     OW29308   4.598   2.086   0.194 -0.1464  0.0961  0.1618
 5892SOL    HW129309   4.541   2.043   0.130  1.0092 -1.9033  0.4747
 5892SOL    HW229310   4.607   2.177   0.166 -0.8509  0.2562  0.4625
 5893SOL     OW29311   0.003   1.424   1.523  0.4321 -0.2236 -0.7569
 5893SOL    HW129312   0.035   1.411   1.612 -0.8767 -1.6707 -0.5027
 5893SOL    HW229313   0.050   1.505   1.503  0.5594  0.0586  0.7161
 5894SOL     OW29314   1.357   0.153   4.080  0.1280 -0.2048  0.3889
 5894SOL    HW129315   1.381   0.074   4.032  0.9360 -0.2788  0.9238
 5894SOL    HW229316   1.380   0.137   4.171 -0.1770 -0.3535  0.4406
 5895SOL     OW29317   4.673   4.732   2.173  0.2147 -0.0512  0.0720
 5895SOL    HW129318   4.648   0.058   2.103 -0.9080 -2.0439 -1.2944
 5895SOL    HW229319   4.693   4.651   2.125 -0.4551  1.3299 -2.5669
 5896SOL     OW29320   2.307   0.723  12.222 -0.7875  0.4006  0.4704
 5896SOL    HW129321   2.355   0.645  12.251 -1.9502  0.0996  1.5472
 5896SOL    HW229322   2.243   0.683  12.163 -1.1426 -2.5044  2.7888
 5897SOL     OW29323   0.714   2.624   5.824 -0.2968 -0.2400  0.1729
 5897SOL    HW129324   0.635   2.607   5.772  1.7467 -0.1646 -2.9776
 5897SOL    HW229325   0.744   2.536   5.844 -2.1523 -1.1092 -0.8398
 5898SOL     OW29326   4.237   0.722   3.502  0.2770  0.0543  0.1885
 5898SOL    HW129327   4.295   0.752   3.573 -1.1311  0.6663  1.1014
 5898SOL    HW229328   4.283   0.736   3.420  3.2343  3.3598  2.4070
 5899SOL     OW29329   1.313   3.719  16.755 -0.2618 -0.2971  0.2917
 5899SOL    HW129330   1.270   3.724  16.840 -1.6855  1.0757 -0.5226
 5899SOL    HW229331   1.337   3.812  16.747 -0.5733 -0.2942 -0.5974
 5900SOL     OW29332   1.261   4.651   7.520 -0.7555  0.4639  0.1731
 5900SOL    HW129333   1.203   4.665   7.445  0.4736  1.8382 -0.5149
 5900SOL    HW229334   1.337   4.705   7.496  0.2852 -1.0778 -0.0412
 5901SOL     OW29335   4.716   3.688   2.615  0.0146 -0.1250 -0.1442
 5901SOL    HW129336   0.064   3.734   2.608 -0.0547 -0.0504 -0.4782
 5901SOL    HW229337   4.683   3.699   2.526 -0.8300  1.0290  0.3110
 5902SOL     OW29338   4.380   3.534   4.474  0.1840 -0.2064 -0.0095
 5902SOL    HW129339   4.435   3.590   4.529 -0.9968  1.0864 -0.1368
 5902SOL    HW229340   4.448   3.482   4.431 -0.4187 -1.2963  0.3510
 5903SOL     OW29341   2.087   0.784   2.834  0.2691  0.1137  0.0201
 5903SOL    HW129342   2.140   0.712   2.799  0.1105  0.0188 -0.0237
 5903SOL    HW229343   2.154   0.847   2.860  0.3159 -0.2589  0.8121
 5904SOL     OW29344   0.484   1.037   3.654  0.6311 -0.6142 -0.5373
 5904SOL    HW129345   0.532   1.098   3.710 -2.0841  0.2975  0.7804
 5904SOL    HW229346   0.441   0.984   3.721 -0.0836 -2.0373 -2.1247
 5905SOL     OW29347   1.299   0.668   7.998 -0.2633 -0.0249 -0.6930
 5905SOL    HW129348   1.382   0.686   8.042  0.4236 -5.1346  0.1993
 5905SOL    HW229349   1.236   0.690   8.066  0.4247  1.0397 -0.4029
 5906SOL     OW29350   0.470   3.476  17.613 -0.4064  0.3150 -0.3105
 5906SOL    HW129351   0.492   3.465  17.520 -0.4021  0.6255 -0.3455
 5906SOL    HW229352   0.536   3.423  17.658  2.0137  2.5384 -1.2280
 5907SOL     OW29353   0.444   3.348  11.566 -0.2219 -0.0585 -0.4455
 5907SOL    HW129354   0.398   3.271  11.599  0.2370  1.4065  3.5523
 5907SOL    HW229355   0.534   3.314  11.573 -0.1934  0.2780  0.8145
 5908SOL     OW29356   1.509   3.342   6.492 -0.4975 -0.3215  0.4430
 5908SOL    HW129357   1.470   3.429   6.498  0.6870  0.1557  1.2226
 5908SOL    HW229358   1.429   3.291   6.498  1.1154 -2.3656  4.3634
 5909SOL     OW29359   3.494   3.202   3.698  0.1537  0.4290 -0.2550
 5909SOL    HW129360   3.508   3.229   3.789 -2.9404  0.0025  0.3340
 5909SOL    HW229361   3.399   3.202   3.685  0.1542 -1.5937 -0.2967
 5910SOL     OW29362   1.356   1.861   9.521 -0.4654  0.0741  0.0355
 5910SOL    HW129363   1.402   1.790   9.476 -1.7030 -1.2287  0.8191
 5910SOL    HW229364   1.313   1.894   9.442 -0.2487  1.0765  0.3295
 5911SOL     OW29365   2.319   1.035   8.926  0.0554  0.4643 -0.0066
 5911SOL    HW129366   2.245   1.074   8.879 -1.1964  0.5047  1.9976
 5911SOL    HW229367   2.365   1.115   8.951 -1.7913  2.1524 -1.9331
 5912SOL     OW29368   0.686   0.355   9.865  0.7780  0.2169  0.0275
 5912SOL    HW129369   0.767   0.406   9.854 -0.0003  1.3172 -0.6039
 5912SOL    HW229370   0.712   0.271   9.828 -0.6348  0.3432 -1.2209
 5913SOL     OW29371   4.593   3.765   2.859  0.1922  0.4059 -0.3667
 5913SOL    HW129372   4.507   3.724   2.850 -0.9077  2.2066  2.0850
 5913SOL    HW229373   4.645   3.732   2.785 -0.2711 -3.0860  0.8733
 5914SOL     OW29374   0.602   2.756   7.235 -0.2811  0.1687  0.1183
 5914SOL    HW129375   0.611   2.668   7.199  0.4072  0.1940  0.2359
 5914SOL    HW229376   0.636   2.747   7.324 -0.5096  2.0864  0.3976
 5915SOL     OW29377   3.657   1.697  12.115  0.3675  0.4655 -0.0625
 5915SOL    HW129378   3.683   1.735  12.199 -0.9131  1.4113 -0.1063
 5915SOL    HW229379   3.622   1.616  12.153 -0.4978  0.8983  0.0505
 5916SOL     OW29380   1.526   0.447   5.276 -0.3787 -0.0537 -0.0923
 5916SOL    HW129381   1.566   0.455   5.190 -0.0024  0.1540  0.1035
 5916SOL    HW229382   1.538   0.537   5.307 -0.5348 -0.1096  0.1287
 5917SOL     OW29383   2.079   1.434   7.092  0.5051 -0.3087 -0.2101
 5917SOL    HW129384   2.116   1.454   7.178  1.0277 -2.0674 -0.0348
 5917SOL    HW229385   1.995   1.392   7.112  0.2609  0.9597  1.4142
 5918SOL     OW29386   2.366   3.630   2.406 -0.6164 -0.0262  0.3335
 5918SOL    HW129387   2.399   3.705   2.357  2.2636 -1.1118  0.6321
 5918SOL    HW229388   2.287   3.665   2.447  0.6867  2.5138  0.6937
 5919SOL     OW29389   0.380   1.344  11.345  0.4223 -0.3038 -0.2118
 5919SOL    HW129390   0.364   1.353  11.251 -0.0681 -0.4993 -0.1489
 5919SOL    HW229391   0.431   1.263  11.345  0.1813 -0.4561 -0.2991
 5920SOL     OW29392   3.763   1.928   4.626  0.1055 -0.3291 -0.2062
 5920SOL    HW129393   3.801   1.936   4.714 -1.1247 -0.1200  0.3092
 5920SOL    HW229394   3.828   1.971   4.570  0.8767  2.2414  2.6770
 5921SOL     OW29395   3.309   2.344   0.884  0.0059  0.1368 -0.0989
 5921SOL    HW129396   3.403   2.342   0.903 -0.2922  1.1883  1.4514
 5921SOL    HW229397   3.299   2.259   0.840 -2.0958 -0.2822  1.2198
 5922SOL     OW29398   3.015   2.446   3.415  0.2247  0.0275  0.3757
 5922SOL    HW129399   2.976   2.360   3.433  0.0274  0.3971  1.6767
 5922SOL    HW229400   3.002   2.500   3.493 -0.5537  0.3611  0.0255
 5923SOL     OW29401   4.101   4.559   8.849 -0.3272 -0.4543 -0.2265
 5923SOL    HW129402   4.195   4.553   8.832  0.0353  2.3965  0.7488
 5923SOL    HW229403   4.103   4.587   8.940 -0.6105  0.2739 -0.4414
 5924SOL     OW29404   4.143   2.281  17.323  0.1307 -0.0601  0.1034
 5924SOL    HW129405   4.234   2.253  17.333 -0.2143 -0.7167  1.4051
 5924SOL    HW229406   4.118   2.309  17.411 -1.6979 -1.5946  0.0535
 5925SOL     OW29407   1.528   3.327   3.123  0.2916 -0.0029  0.2911
 5925SOL    HW129408   1.576   3.406   3.098  2.7929 -1.4014  0.6418
 5925SOL    HW229409   1.562   3.265   3.058  1.0583  1.6229 -0.8558
 5926SOL     OW29410   3.003   2.999   9.580  0.0101 -0.1687  0.1306
 5926SOL    HW129411   3.097   3.002   9.594 -0.0807 -1.3818  1.0580
 5926SOL    HW229412   2.976   2.912   9.610 -1.2240  0.0611 -0.3017
 5927SOL     OW29413   1.101   3.003   4.718 -0.3885 -0.6629  0.0143
 5927SOL    HW129414   1.012   3.030   4.739  0.1697 -0.3120  1.9506
 5927SOL    HW229415   1.097   3.014   4.623 -0.0306  0.4898  0.1203
 5928SOL     OW29416   0.390   3.345   5.911 -0.2799  0.3042  0.2025
 5928SOL    HW129417   0.471   3.296   5.920  0.9148  2.6080  1.9098
 5928SOL    HW229418   0.408   3.399   5.834  0.5758 -1.7332 -1.0208
 5929SOL     OW29419   2.804   2.163   7.410 -0.2213  0.0600  0.2447
 5929SOL    HW129420   2.724   2.141   7.458 -0.7229 -0.0010 -0.6161
 5929SOL    HW229421   2.845   2.077   7.407 -0.6064 -0.0960 -0.6970
 5930SOL     OW29422   3.074   3.772   4.842  0.0829 -0.1066 -0.0306
 5930SOL    HW129423   2.983   3.757   4.818 -0.0050 -1.1896  0.9902
 5930SOL    HW229424   3.071   3.804   4.932  2.2020  2.3861 -0.8401
 5931SOL     OW29425   4.226   3.976  15.476 -0.4316 -0.2692 -0.5619
 5931SOL    HW129426   4.293   3.962  15.409 -0.2344  2.1190 -0.8645
 5931SOL    HW229427   4.234   4.065  15.509 -1.9840 -0.9385  1.6406
 5932SOL     OW29428   1.122   0.603   4.101 -0.1658  0.0659  0.3230
 5932SOL    HW129429   1.167   0.520   4.086 -0.4382 -0.0288 -0.0013
 5932SOL    HW229430   1.065   0.603   4.024  0.0609  2.0636  0.1534
 5933SOL     OW29431   1.861   4.143   0.181 -0.0424 -0.4391 -0.2267
 5933SOL    HW129432   1.818   4.199   0.246  0.1434  0.8335 -1.1845
 5933SOL    HW229433   1.936   4.118   0.235 -0.1655 -1.8140 -0.7009
 5934SOL     OW29434   0.085   1.296   4.625  0.1717 -0.3318  0.2832
 5934SOL    HW129435   0.084   1.253   4.540 -1.5219  1.3907 -0.5750
 5934SOL    HW229436   0.011   1.356   4.614  1.2650  0.5281 -2.2527
 5935SOL     OW29437   4.405   3.032  16.816 -0.0710  0.1107  0.0862
 5935SOL    HW129438   4.435   3.034  16.725  1.3325  0.3665  0.5424
 5935SOL    HW229439   4.311   3.042  16.810 -0.1740 -1.5316 -1.1742
 5936SOL     OW29440   2.523   0.994   6.734  0.5361  0.1093 -0.0028
 5936SOL    HW129441   2.550   0.933   6.665 -0.3937 -1.4582  1.0109
 5936SOL    HW229442   2.582   1.069   6.737 -1.4184  1.5681  2.2669
 5937SOL     OW29443   3.054   4.515  11.781  0.2016 -0.1792 -0.0240
 5937SOL    HW129444   3.001   4.589  11.750  0.2934 -0.8645 -1.8250
 5937SOL    HW229445   2.986   4.448  11.790 -0.7226  0.6689 -0.6296
 5938SOL     OW29446   1.859   3.863   2.041 -0.0729  0.2432  0.0067
 5938SOL    HW129447   1.797   3.904   2.100 -2.5354 -3.1061 -0.3074
 5938SOL    HW229448   1.907   3.935   1.998  0.9793  0.5965  1.7863
 5939SOL     OW29449   1.474   3.420  16.826  0.3605  0.1269 -0.0770
 5939SOL    HW129450   1.399   3.446  16.879  0.7438  1.6892 -0.2987
 5939SOL    HW229451   1.425   3.392  16.749 -3.5102 -1.2343  2.9146
 5940SOL     OW29452   4.318   3.085   0.001 -0.4331  0.0268  0.3257
 5940SOL    HW129453   4.355   2.997  17.732  1.5525  0.7784  1.0328
 5940SOL    HW229454   4.386   3.142  17.703 -1.6357  3.3372  3.0901
 5941SOL     OW29455   3.748   0.179   2.462  0.1584 -0.1613 -0.2741
 5941SOL    HW129456   3.668   0.163   2.513 -1.2024  3.2672 -1.3392
 5941SOL    HW229457   3.809   0.126   2.514  1.5896 -0.0137 -1.7982
 5942SOL     OW29458   2.492   1.590   9.035 -0.0527 -0.0675 -0.2966
 5942SOL    HW129459   2.541   1.603   9.117  1.6939  1.1900 -1.5323
 5942SOL    HW229460   2.561   1.615   8.973 -1.6206  1.4278 -1.4197
 5943SOL     OW29461   1.121   3.535  14.634  0.3819  0.0852  0.0328
 5943SOL    HW129462   1.169   3.612  14.604 -0.3403  0.9696  1.1298
 5943SOL    HW229463   1.098   3.494  14.551 -2.1374 -0.0679  0.7976
 5944SOL     OW29464   4.053   3.945  11.540 -0.3228 -0.0651 -0.1355
 5944SOL    HW129465   3.968   3.917  11.573  0.4575 -1.2471  0.8603
 5944SOL    HW229466   4.054   3.948  11.444  0.3253 -0.8388 -0.1543
 5945SOL     OW29467   3.354   2.642   1.024 -0.3322  0.3825 -0.2658
 5945SOL    HW129468   3.418   2.584   0.983  0.2506  2.0069 -1.6717
 5945SOL    HW229469   3.277   2.624   0.971  0.2092  1.1819 -1.3177
 5946SOL     OW29470   1.510   0.099   5.342 -0.0991 -0.5522 -0.6920
 5946SOL    HW129471   1.417   0.098   5.318 -0.0370  0.9747 -1.0049
 5946SOL    HW229472   1.521   0.045   5.420 -0.8536 -0.7227 -0.7044
 5947SOL     OW29473   4.446   3.176  10.997  0.1338 -1.0189  0.2658
 5947SOL    HW129474   4.452   3.219  11.082 -2.4211  0.0969 -0.1131
 5947SOL    HW229475   4.360   3.197  10.960  0.5169 -0.7024 -0.4402
 5948SOL     OW29476   4.683   4.643  11.281 -0.3795 -0.7139  0.4123
 5948SOL    HW129477   4.645   4.575  11.225 -2.0727  0.4164  0.1527
 5948SOL    HW229478   4.611   4.706  11.290 -0.0411  0.2326 -3.3542
 5949SOL     OW29479   0.547   3.444  15.336  0.2166 -0.9807  0.0724
 5949SOL    HW129480   0.611   3.374  15.345 -0.4376 -1.5316  0.4853
 5949SOL    HW229481   0.601   3.510  15.294  2.0577 -2.9823 -0.7302
 5950SOL     OW29482   0.725   2.321   9.161 -0.2630  0.4824 -0.7654
 5950SOL    HW129483   0.772   2.288   9.084  1.2951 -0.0587  0.4016
 5950SOL    HW229484   0.742   2.414   9.148  2.0505  0.0075 -1.1713
 5951SOL     OW29485   2.666   0.536   2.470  0.2417 -0.3884  0.5635
 5951SOL    HW129486   2.664   0.593   2.547 -1.5710  0.5402 -0.1819
 5951SOL    HW229487   2.761   0.546   2.464 -0.2723  3.4076 -1.0347
 5952SOL     OW29488   4.173   0.547   7.723  0.5389 -0.0471  0.1096
 5952SOL    HW129489   4.220   0.473   7.763 -1.9891 -1.8453 -0.2219
 5952SOL    HW229490   4.211   0.619   7.772 -0.9868  1.9553 -1.6833
 5953SOL     OW29491   3.960   3.905  10.281 -0.3091  0.1512 -0.0090
 5953SOL    HW129492   3.882   3.926  10.230 -0.0672  1.2019  0.0587
 5953SOL    HW229493   4.020   3.880  10.210  0.2850  1.9856 -0.1495
 5954SOL     OW29494   1.812   0.196   4.723 -0.7211 -0.5861 -0.0364
 5954SOL    HW129495   1.837   0.197   4.631 -1.2057  0.5469 -0.1504
 5954SOL    HW229496   1.749   0.267   4.714  1.5673  1.5093  0.3718
 5955SOL     OW29497   0.755   3.068   3.025  0.3367  0.2244  0.7480
 5955SOL    HW129498   0.685   3.028   3.077 -2.4189  1.0675 -2.2769
 5955SOL    HW229499   0.740   3.162   3.037  0.3783  0.5827 -2.1561
 5956SOL     OW29500   2.007   2.059  12.457  0.5796 -0.2887 -0.0562
 5956SOL    HW129501   2.039   2.085  12.544  1.9536  2.3273 -1.3652
 5956SOL    HW229502   2.039   2.133  12.407 -0.9015  0.7850  0.5742
 5957SOL     OW29503   3.212   4.268   5.980  0.2344  0.1725  0.2590
 5957SOL    HW129504   3.262   4.349   5.986 -1.5078  1.3193 -0.5703
 5957SOL    HW229505   3.119   4.286   5.995 -0.3962 -1.4633 -1.6793
 5958SOL     OW29506   2.206   4.067   6.549  0.0004  0.0187  0.2396
 5958SOL    HW129507   2.258   4.018   6.485  0.0471  0.7403 -0.2841
 5958SOL    HW229508   2.211   4.152   6.505  3.6679 -0.4146 -0.2100
 5959SOL     OW29509   4.263   1.172   7.320 -0.0500 -0.2620  0.2457
 5959SOL    HW129510   4.302   1.254   7.350 -2.6182  1.4584 -1.1144
 5959SOL    HW229511   4.188   1.168   7.380 -0.2301  1.5980  0.1179
 5960SOL     OW29512   0.718   0.647   3.806  0.0681  0.0261  0.3666
 5960SOL    HW129513   0.712   0.709   3.733 -0.9551  0.0479  0.4644
 5960SOL    HW229514   0.631   0.607   3.805  0.3905 -0.6551  0.0450
 5961SOL     OW29515   1.627   4.622   3.724 -0.0655 -0.4336 -0.4570
 5961SOL    HW129516   1.671   4.641   3.641  0.0872  1.7851  0.1413
 5961SOL    HW229517   1.663   4.535   3.745 -0.7044 -0.6675 -0.3210
 5962SOL     OW29518   1.724   2.259   2.303 -0.2719  0.0336 -0.4791
 5962SOL    HW129519   1.701   2.167   2.313  1.9166 -0.5831 -1.0818
 5962SOL    HW229520   1.817   2.254   2.279  0.3264  0.2286  1.8231
 5963SOL     OW29521   1.809   0.831   5.538  0.3615  0.3114 -0.3953
 5963SOL    HW129522   1.751   0.794   5.604 -0.1837  0.9817 -0.4916
 5963SOL    HW229523   1.890   0.844   5.586 -0.6646 -1.8805  1.8886
 5964SOL     OW29524   2.074   1.545   7.662  0.7461 -1.0311 -0.5441
 5964SOL    HW129525   2.091   1.507   7.748  0.3915  1.4101  0.6103
 5964SOL    HW229526   2.130   1.495   7.603 -1.8291 -4.4527 -0.1018
 5965SOL     OW29527   2.322   4.637   8.293 -0.7096 -0.0799  0.0651
 5965SOL    HW129528   2.303   4.590   8.212  3.1477  3.0201 -2.5877
 5965SOL    HW229529   2.371   4.572   8.343  1.3638  2.3528  1.1559
 5966SOL     OW29530   0.701   2.614   1.920 -0.1158 -0.1648 -0.5065
 5966SOL    HW129531   0.713   2.707   1.939  1.1449 -0.6767  1.2323
 5966SOL    HW229532   0.667   2.590   2.007 -2.2135  1.2539 -0.9169
 5967SOL     OW29533   1.235   4.159   8.234 -0.2109  0.1524 -0.1317
 5967SOL    HW129534   1.155   4.166   8.182  1.9413  2.5696 -3.2011
 5967SOL    HW229535   1.242   4.241   8.284  1.8609 -0.4328  0.5652
 5968SOL     OW29536   3.497   1.048   9.369  0.0130  0.1119 -0.0581
 5968SOL    HW129537   3.529   1.078   9.284  0.5109  1.1181  0.4756
 5968SOL    HW229538   3.542   0.964   9.378 -0.4946 -0.1531 -0.0310
 5969SOL     OW29539   1.318   0.615  13.815  0.2012  0.0517 -0.5853
 5969SOL    HW129540   1.403   0.619  13.770 -0.4722 -2.9359 -2.1251
 5969SOL    HW229541   1.350   0.672  13.885 -1.4402 -0.0682  0.2596
 5970SOL     OW29542   1.544   0.875   3.015  0.3610  0.0625  0.7013
 5970SOL    HW129543   1.526   0.900   2.924 -0.4661  1.0906  1.1504
 5970SOL    HW229544   1.622   0.923   3.041  1.9846 -1.3968 -1.4295
 5971SOL     OW29545   3.301   4.209   5.267  0.2553  0.3025  0.3474
 5971SOL    HW129546   3.280   4.236   5.178  1.0718 -0.8166 -0.1854
 5971SOL    HW229547   3.391   4.179   5.253 -0.2419  0.0033 -2.1633
 5972SOL     OW29548   0.595   2.420  16.245 -0.5823 -0.3371  0.6450
 5972SOL    HW129549   0.561   2.507  16.224 -0.5115 -0.4927 -0.1348
 5972SOL    HW229550   0.625   2.448  16.331 -0.1328  1.1682 -0.0108
 5973SOL     OW29551   2.997   4.482   2.401 -0.4974  0.6600  0.2460
 5973SOL    HW129552   3.056   4.443   2.466 -1.5645 -1.4649 -0.0690
 5973SOL    HW229553   2.954   4.407   2.359  1.3374 -0.1909 -0.1481
 5974SOL     OW29554   4.144   3.176   3.800  0.2279 -0.1364  0.3141
 5974SOL    HW129555   4.178   3.226   3.874 -1.1111 -1.0674  1.5642
 5974SOL    HW229556   4.208   3.198   3.733 -1.3878  3.4511 -0.0324
 5975SOL     OW29557   2.147   4.116   8.973 -0.2017  0.1947 -0.1530
 5975SOL    HW129558   2.070   4.166   9.000  0.0055 -2.2883  4.9659
 5975SOL    HW229559   2.207   4.186   8.945 -0.6718  0.8380  0.4366
 5976SOL     OW29560   0.901   2.683   2.289  0.2556  0.0997  0.2120
 5976SOL    HW129561   0.939   2.622   2.352 -0.6438  1.2236  1.8465
 5976SOL    HW229562   0.897   2.769   2.332 -1.5531  0.4290 -0.6180
 5977SOL     OW29563   1.979   4.689   1.354  0.7216  0.4968 -0.4161
 5977SOL    HW129564   1.887   4.670   1.372  0.9818 -0.0104  0.3680
 5977SOL    HW229565   1.975   0.015   1.280 -1.5763  1.5415  0.5620
 5978SOL     OW29566   3.410   3.636   6.648 -0.8038  0.0062  0.6726
 5978SOL    HW129567   3.349   3.568   6.622 -1.0708  0.6263 -0.3328
 5978SOL    HW229568   3.496   3.595   6.654  0.2514  2.1021  0.0716
 5979SOL     OW29569   2.529   4.003   5.670  0.1070 -0.1042  0.3432
 5979SOL    HW129570   2.602   4.062   5.655  1.1981 -1.4500  0.4271
 5979SOL    HW229571   2.551   3.959   5.752 -1.6164 -0.4147  0.6543
 5980SOL     OW29572   3.990   2.150   7.283  0.4729  0.1024 -0.2328
 5980SOL    HW129573   3.950   2.150   7.370 -0.2739  0.5715 -0.5803
 5980SOL    HW229574   4.035   2.233   7.300 -1.3909  1.2289 -0.8144
 5981SOL     OW29575   1.197   1.340   0.417  0.0018 -0.4721 -0.4395
 5981SOL    HW129576   1.253   1.353   0.494 -2.2039  1.2063  0.8920
 5981SOL    HW229577   1.225   1.408   0.355 -1.4992 -0.2442 -0.8599
 5982SOL     OW29578   3.237   4.198   2.946  0.6900 -0.1736 -0.0035
 5982SOL    HW129579   3.307   4.168   3.005  0.6938  0.2827  0.2237
 5982SOL    HW229580   3.279   4.187   2.860  1.4954  2.2318  0.0634
 5983SOL     OW29581   0.987   2.862   1.692  0.5665  0.2166 -0.4497
 5983SOL    HW129582   1.023   2.939   1.647  0.3722  0.2002 -0.6346
 5983SOL    HW229583   0.962   2.803   1.622  1.2851 -1.0857  0.3998
 5984SOL     OW29584   3.431   2.412   6.227 -0.2350 -0.0497  0.6267
 5984SOL    HW129585   3.433   2.466   6.148  0.4022  0.1641  0.7822
 5984SOL    HW229586   3.479   2.335   6.195 -1.6375 -2.0747  3.4058
 5985SOL     OW29587   4.628   0.855   1.685 -0.6535  0.5473 -0.0058
 5985SOL    HW129588   4.559   0.897   1.736 -3.2795 -0.1987 -2.9402
 5985SOL    HW229589   4.646   0.770   1.724  2.7361  0.4871 -1.6649
 5986SOL     OW29590   4.493   4.585   3.181 -0.3240 -0.5376  0.1027
 5986SOL    HW129591   4.525   4.597   3.271 -0.1557  0.7036 -0.1190
 5986SOL    HW229592   4.480   4.678   3.161  3.8134  0.1487  0.6703
 5987SOL     OW29593   4.150   4.366  14.371 -0.4438  0.1417 -0.3094
 5987SOL    HW129594   4.132   4.286  14.321 -1.9020 -1.0582  2.1192
 5987SOL    HW229595   4.227   4.397  14.325  1.0677  2.1520  3.5911
 5988SOL     OW29596   1.803   1.143   9.669  0.4225  0.0355 -0.8199
 5988SOL    HW129597   1.822   1.225   9.622 -2.5072  0.9193 -0.4930
 5988SOL    HW229598   1.885   1.120   9.712  0.1553  1.5203  0.4855
 5989SOL     OW29599   1.826   2.127  10.487 -0.2565  0.3786 -0.8165
 5989SOL    HW129600   1.752   2.099  10.433 -0.9166  1.1825 -0.3310
 5989SOL    HW229601   1.779   2.189  10.543 -1.1994 -2.9337  2.0236
 5990SOL     OW29602   2.336   0.061   8.680  0.4765  0.1510  0.0013
 5990SOL    HW129603   2.387   0.058   8.599  1.2434 -0.0863  0.4872
 5990SOL    HW229604   2.397   0.079   8.752  0.6778 -1.4142  0.2178
 5991SOL     OW29605   4.244   4.714  13.159 -0.0299  0.1315 -0.5478
 5991SOL    HW129606   4.241   4.660  13.238  1.9537  0.1516 -0.4459
 5991SOL    HW229607   4.277   4.657  13.089 -1.5847  0.4215 -1.5002
 5992SOL     OW29608   2.054   0.257   1.962  0.0589  0.3103 -0.0012
 5992SOL    HW129609   2.083   0.271   1.872 -1.0396 -2.4260 -0.7799
 5992SOL    HW229610   2.089   0.340   1.995  1.7778 -1.1147  1.7795
 5993SOL     OW29611   2.206   1.062  11.151  0.5521 -0.5093 -0.1125
 5993SOL    HW129612   2.230   1.137  11.096  0.4578 -0.1232  0.3740
 5993SOL    HW229613   2.129   1.098  11.195  1.2627  1.8986 -0.7885
 5994SOL     OW29614   2.684   1.074  12.291 -0.4525 -0.1721  0.2581
 5994SOL    HW129615   2.708   1.042  12.204 -0.1322  1.1355 -0.1332
 5994SOL    HW229616   2.589   1.080  12.280 -0.1576 -1.1161 -2.7397
 5995SOL     OW29617   2.639   2.262  11.578 -0.0407 -0.2253 -0.2620
 5995SOL    HW129618   2.684   2.278  11.495 -1.2035  1.7814 -0.5046
 5995SOL    HW229619   2.573   2.331  11.580 -0.6534 -0.7622 -1.7512
 5996SOL     OW29620   1.077   0.298   7.930 -0.2745 -0.1980 -0.0867
 5996SOL    HW129621   1.010   0.366   7.938 -0.0328 -0.0817  0.9075
 5996SOL    HW229622   1.024   0.231   7.973  0.9647 -0.5960  0.8161
 5997SOL     OW29623   3.864   0.247  10.555  0.5133 -0.2100 -0.5087
 5997SOL    HW129624   3.922   0.236  10.630 -0.4170  0.9452  0.3746
 5997SOL    HW229625   3.800   0.288  10.613  1.8613  3.4505 -1.6033
 5998SOL     OW29626   4.226   1.054   8.944 -0.7357 -0.3819  0.2131
 5998SOL    HW129627   4.159   1.017   9.002 -1.4698  0.2402 -0.2318
 5998SOL    HW229628   4.239   1.129   9.002  0.3700 -0.2296 -0.2413
 5999SOL     OW29629   1.556   0.227   7.976 -0.3579  0.0267  0.3450
 5999SOL    HW129630   1.490   0.293   7.995 -1.5976 -1.2665  0.4569
 5999SOL    HW229631   1.609   0.227   8.056 -0.4296  1.5212  0.3879
 6000SOL     OW29632   4.021   2.407   6.075  0.2871 -0.1035 -0.5646
 6000SOL    HW129633   4.014   2.368   5.988  0.2444  0.0166 -0.6157
 6000SOL    HW229634   3.934   2.402   6.115  0.5480  0.5229  0.0840
 6001SOL     OW29635   1.296   1.492   5.313 -0.3015  0.1034 -0.1752
 6001SOL    HW129636   1.237   1.451   5.376 -1.7070  2.3606 -0.0147
 6001SOL    HW229637   1.369   1.429   5.316 -0.5625 -0.1585  0.8225
 6002SOL     OW29638   0.661   3.311   9.503 -0.5076 -0.5798 -0.7217
 6002SOL    HW129639   0.657   3.406   9.513 -0.5666 -0.5809 -0.7324
 6002SOL    HW229640   0.741   3.279   9.545 -1.0619 -1.3447 -0.2549
 6003SOL     OW29641   2.660   2.827   4.997 -0.4333  0.3406 -0.2724
 6003SOL    HW129642   2.698   2.902   4.950  0.2902  0.1063 -0.0502
 6003SOL    HW229643   2.734   2.806   5.053 -0.4043 -0.7317 -0.7026
 6004SOL     OW29644   1.239   1.766   9.747 -0.5250 -0.0603 -0.2813
 6004SOL    HW129645   1.289   1.684   9.757  1.4371  1.0051 -1.5231
 6004SOL    HW229646   1.284   1.808   9.675 -3.2191  1.0938 -1.3125
 6005SOL     OW29647   3.652   2.970   8.949 -0.1106 -0.0631  0.4784
 6005SOL    HW129648   3.650   3.029   8.873  1.3023 -1.1423 -0.3877
 6005SOL    HW229649   3.688   3.033   9.011 -0.4500 -0.6552  1.2845
 6006SOL     OW29650   2.246   3.258   6.237 -0.8410  0.4185 -0.3395
 6006SOL    HW129651   2.336   3.260   6.206 -0.3240  0.7824  1.2144
 6006SOL    HW229652   2.242   3.163   6.250 -1.8764  0.5797  0.4814
 6007SOL     OW29653   4.004   0.775   1.811  0.1892 -0.3004  0.4668
 6007SOL    HW129654   3.915   0.752   1.840  0.1728  0.3888  0.9756
 6007SOL    HW229655   4.038   0.703   1.759 -0.4203 -0.0059 -0.3363
 6008SOL     OW29656   1.151   2.405   1.217  0.3912  0.1658  0.7086
 6008SOL    HW129657   1.111   2.394   1.131 -0.4155  0.6126  1.0178
 6008SOL    HW229658   1.124   2.330   1.269  1.0997 -0.6715 -0.1335
 6009SOL     OW29659   1.453   0.281  16.190 -0.4889  0.0884  0.0621
 6009SOL    HW129660   1.505   0.270  16.269  0.0981  0.8865 -0.2136
 6009SOL    HW229661   1.411   0.363  16.217 -0.0209  0.3555 -0.0174
 6010SOL     OW29662   0.464   1.396   5.467  0.2010 -0.5966 -0.1233
 6010SOL    HW129663   0.472   1.388   5.562  1.4754 -0.6545 -0.2389
 6010SOL    HW229664   0.369   1.393   5.464  0.0859  1.2436  1.8938
 6011SOL     OW29665   2.404   0.901   8.319  0.7758  0.0862  0.6828
 6011SOL    HW129666   2.390   0.821   8.370 -1.1649 -0.1151 -0.1464
 6011SOL    HW229667   2.466   0.947   8.375  1.9860  0.6067 -1.0976
 6012SOL     OW29668   4.397   3.002   3.802 -0.6848 -0.2651 -0.2200
 6012SOL    HW129669   4.348   2.924   3.777  0.9902 -0.8967 -1.5711
 6012SOL    HW229670   4.392   3.006   3.897  0.9523 -0.8643 -0.0986
 6013SOL     OW29671   1.280   3.007   0.180  0.4059 -0.2697 -0.3592
 6013SOL    HW129672   1.317   3.044   0.260 -0.2211 -0.1201 -0.1362
 6013SOL    HW229673   1.205   3.065   0.165 -0.9714 -1.5923  1.4388
 6014SOL     OW29674   4.136   0.608   2.074  0.2098  0.2071 -0.1124
 6014SOL    HW129675   4.080   0.627   2.149 -0.1298 -2.2071  0.2617
 6014SOL    HW229676   4.085   0.539   2.030  2.4040 -0.7525 -1.1398
 6015SOL     OW29677   1.812   0.933  11.510 -0.2664  1.0602  0.0710
 6015SOL    HW129678   1.855   1.013  11.538  2.0531 -0.2731  0.3294
 6015SOL    HW229679   1.863   0.911  11.432 -1.0178  2.3861 -0.7871
 6016SOL     OW29680   4.695   0.764   7.050 -0.4018 -0.0918  0.0031
 6016SOL    HW129681   0.012   0.834   7.011 -2.0434  1.6600  0.9924
 6016SOL    HW229682   4.655   0.816   7.119 -0.6358  0.2554 -0.3931
 6017SOL     OW29683   3.130   4.038   6.659 -0.2369  0.1680  0.0322
 6017SOL    HW129684   3.073   4.055   6.734 -1.3310 -1.3972 -0.4345
 6017SOL    HW229685   3.069   4.055   6.587  2.2961  1.2352 -1.8583
 6018SOL     OW29686   3.935   1.003  14.723 -0.1648  0.1323 -0.5055
 6018SOL    HW129687   3.964   0.955  14.801 -1.4543  1.8617  1.0230
 6018SOL    HW229688   3.936   0.940  14.651 -1.1577 -0.2998 -0.1362
 6019SOL     OW29689   3.150   4.110   3.485 -0.0007 -0.2701 -0.0182
 6019SOL    HW129690   3.218   4.091   3.420 -1.2945  2.6652 -2.2224
 6019SOL    HW229691   3.203   4.088   3.562  0.0008  0.7455  0.2605
 6020SOL     OW29692   2.442   3.598  16.435  0.3709  0.3262 -0.0180
 6020SOL    HW129693   2.486   3.538  16.375 -1.5504 -0.7737 -0.3038
 6020SOL    HW229694   2.426   3.670  16.374  2.2369  2.7657  2.3645
 6021SOL     OW29695   3.845   0.575  12.149  0.0395  0.6571  0.2887
 6021SOL    HW129696   3.779   0.591  12.081  2.7933  0.4807 -2.4453
 6021SOL    HW229697   3.815   0.636  12.216  0.5641  1.2961 -0.0630
 6022SOL     OW29698   1.425   0.809   1.890 -0.2154  0.0680 -0.0511
 6022SOL    HW129699   1.331   0.810   1.873 -0.5007 -0.0576  1.4763
 6022SOL    HW229700   1.421   0.851   1.976 -0.8094  3.0590 -1.5394
 6023SOL     OW29701   1.834   0.624  14.924 -0.1881 -0.0489  0.1417
 6023SOL    HW129702   1.779   0.547  14.943  0.1763 -0.2672  0.3167
 6023SOL    HW229703   1.920   0.584  14.910 -0.4761 -0.4031 -0.6169
 6024SOL     OW29704   1.420   0.187   3.609 -0.0653 -0.0711  0.1544
 6024SOL    HW129705   1.362   0.262   3.609  1.8040  1.3789  0.3477
 6024SOL    HW229706   1.365   0.109   3.604 -1.5276  1.0755 -1.4368
 6025SOL     OW29707   0.714   0.871   3.057 -0.0158 -0.4910 -0.3492
 6025SOL    HW129708   0.738   0.799   3.115  0.3480  0.5149  0.7557
 6025SOL    HW229709   0.628   0.854   3.020  1.2447 -3.4871 -1.8553
 6026SOL     OW29710   2.095   4.178   7.538 -0.0074  0.2317 -0.1745
 6026SOL    HW129711   2.110   4.273   7.530 -0.1623  0.5040  2.8842
 6026SOL    HW229712   2.010   4.171   7.496  0.5163  0.5829 -1.3165
 6027SOL     OW29713   3.164   3.885   4.224  0.0921 -0.0614  0.8806
 6027SOL    HW129714   3.118   3.924   4.150 -0.7073  0.3821  1.6040
 6027SOL    HW229715   3.189   3.969   4.262 -1.5338 -0.3168  2.5145
 6028SOL     OW29716   0.426   2.235   0.236  0.3486  0.1288 -0.3233
 6028SOL    HW129717   0.413   2.275   0.150 -0.1445  1.3546  0.3350
 6028SOL    HW229718   0.450   2.312   0.287  1.4002 -0.6386  0.3443
 6029SOL     OW29719   1.625   1.063   2.559  0.3082  0.2176  0.2207
 6029SOL    HW129720   1.711   1.097   2.534  1.0513 -1.3687  0.6010
 6029SOL    HW229721   1.582   1.145   2.584  0.3560  0.6424 -1.1211
 6030SOL     OW29722   2.088   0.831   8.542 -0.0869  0.5146  0.2460
 6030SOL    HW129723   2.008   0.795   8.581  0.8847 -2.2714 -0.3385
 6030SOL    HW229724   2.108   0.765   8.476  1.2144 -0.0256  1.1925
 6031SOL     OW29725   0.655   2.888   2.767 -0.2177 -0.3603  0.0422
 6031SOL    HW129726   0.631   2.965   2.716 -0.3672 -0.6877 -0.3904
 6031SOL    HW229727   0.614   2.898   2.853  1.2347  3.5791  0.2368
 6032SOL     OW29728   0.436   0.031   7.230 -0.2873 -0.0900 -0.0296
 6032SOL    HW129729   0.529   0.032   7.209 -0.3116  1.7185 -0.0662
 6032SOL    HW229730   0.436   4.727   7.317  3.5957 -1.7068 -0.7776
 6033SOL     OW29731   0.334   0.699   4.219  0.0053 -0.0450  0.1137
 6033SOL    HW129732   0.353   0.784   4.260 -0.4345  0.9713 -1.7864
 6033SOL    HW229733   0.250   0.702   4.173 -1.1171  0.4229  2.1782
 6034SOL     OW29734   2.935   3.647   4.054  0.2048 -0.5451 -0.3439
 6034SOL    HW129735   2.984   3.700   3.991  0.4956 -2.8474 -2.0665
 6034SOL    HW229736   2.880   3.590   4.000  0.3278 -1.5568  0.6092
 6035SOL     OW29737   2.044   0.326   1.666  0.3277  0.3541  0.4248
 6035SOL    HW129738   2.017   0.241   1.633 -1.1861  1.0459 -0.1396
 6035SOL    HW229739   2.076   0.369   1.587 -0.9451  0.4985 -0.0122
 6036SOL     OW29740   4.608   0.619  12.445  0.1232  0.2213  0.2047
 6036SOL    HW129741   4.701   0.601  12.445  0.4153  1.6870  1.1097
 6036SOL    HW229742   4.600   0.681  12.372  1.1731 -1.3599 -1.2506
 6037SOL     OW29743   4.692   1.843   0.308 -0.1840  0.1047  0.1434
 6037SOL    HW129744   0.045   1.828   0.343 -0.1449  1.0723  0.4445
 6037SOL    HW229745   4.672   1.936   0.299  0.7219  0.3771  0.9389
 6038SOL     OW29746   3.464   3.663   1.950 -0.2399 -0.3235  0.4150
 6038SOL    HW129747   3.484   3.617   2.031 -1.6757 -3.0455 -0.7551
 6038SOL    HW229748   3.470   3.754   1.977 -2.0529  0.4675 -1.8076
 6039SOL     OW29749   1.939   0.364   7.439 -0.7043  0.4250  0.4477
 6039SOL    HW129750   2.015   0.380   7.382 -0.4166 -1.3910  0.3189
 6039SOL    HW229751   1.964   0.408   7.521  1.0204 -1.3537  0.8594
 6040SOL     OW29752   2.889   2.185   0.226 -0.3225 -0.1027 -0.7032
 6040SOL    HW129753   2.800   2.196   0.194 -0.3868 -0.0788 -0.5152
 6040SOL    HW229754   2.924   2.267   0.191 -0.9880  0.5743  0.2150
 6041SOL     OW29755   3.755   0.812   6.763 -0.1833  0.3589 -0.3569
 6041SOL    HW129756   3.701   0.733   6.774  0.5377 -0.0259  0.3903
 6041SOL    HW229757   3.732   0.861   6.842 -2.3481 -0.7769 -0.2793
 6042SOL     OW29758   1.760   2.489   6.805 -0.6419  0.5053  1.0897
 6042SOL    HW129759   1.765   2.573   6.759 -0.7451  0.6602  1.3555
 6042SOL    HW229760   1.805   2.431   6.745 -0.6512  1.4738  0.1451
 6043SOL     OW29761   3.992   0.491   3.107  0.1729 -0.0007 -0.4634
 6043SOL    HW129762   3.966   0.498   3.015 -1.0712  1.4974  0.0274
 6043SOL    HW229763   3.948   0.408   3.126  0.0801  0.0496 -0.4597
 6044SOL     OW29764   0.858   4.606   4.272 -0.3375 -0.1922 -0.4320
 6044SOL    HW129765   0.909   4.556   4.208 -0.4481  1.8746 -2.1048
 6044SOL    HW229766   0.853   4.697   4.244  1.2299  0.0256 -0.0025
 6045SOL     OW29767   2.607   1.327   3.053 -0.7592  0.4085 -0.1493
 6045SOL    HW129768   2.643   1.290   2.973 -1.2243  1.6142 -0.9266
 6045SOL    HW229769   2.513   1.308   3.053 -0.6074 -0.3125 -0.4019
 6046SOL     OW29770   2.444   0.624   2.313  0.2824  0.3539 -0.2368
 6046SOL    HW129771   2.398   0.671   2.382  2.4193  0.1151  1.3642
 6046SOL    HW229772   2.514   0.587   2.367  1.0660  1.0808 -0.7575
 6047SOL     OW29773   4.401   2.070   9.068  0.2801 -0.6490  0.5465
 6047SOL    HW129774   4.472   2.133   9.083  0.5797 -0.5950 -1.1374
 6047SOL    HW229775   4.446   1.985   9.066  0.1047 -0.7589  1.2619
 6048SOL     OW29776   4.528   0.359   2.267  0.0219 -0.2481 -0.0839
 6048SOL    HW129777   4.476   0.278   2.261 -1.6832  0.7768  0.8142
 6048SOL    HW229778   4.482   0.397   2.193  1.5693 -0.7018 -1.2910
 6049SOL     OW29779   3.085   1.115   6.907  0.0215 -0.4874  0.2803
 6049SOL    HW129780   3.148   1.149   6.843 -1.5363 -1.2357 -1.6439
 6049SOL    HW229781   3.059   1.036   6.860  0.2154 -0.1944 -0.3248
 6050SOL     OW29782   4.588   3.729  17.658  0.0015  0.3828  0.5949
 6050SOL    HW129783   4.549   3.812  17.684 -1.0444 -0.2373  1.0490
 6050SOL    HW229784   4.576   3.681   0.000 -0.7301  1.8265  1.3310
 6051SOL     OW29785   2.844   1.241   6.993  0.5557  0.2981 -0.1027
 6051SOL    HW129786   2.902   1.181   6.946  0.0406 -0.9789  0.8904
 6051SOL    HW229787   2.867   1.327   6.959 -0.0674  0.3374 -0.4284
 6052SOL     OW29788   2.566   0.737   3.255 -0.6004 -0.1122  0.5077
 6052SOL    HW129789   2.644   0.781   3.290 -1.8988  0.8885  2.1738
 6052SOL    HW229790   2.500   0.752   3.323 -0.5818  0.9153  0.3052
 6053SOL     OW29791   3.653   4.045   1.521  0.4003  0.1601 -0.0112
 6053SOL    HW129792   3.658   3.992   1.600 -2.7384  0.3165  0.2613
 6053SOL    HW229793   3.742   4.080   1.514 -0.0503  1.1587 -0.8696
 6054SOL     OW29794   0.891   0.489   5.011 -0.0012 -0.4785  0.4142
 6054SOL    HW129795   0.814   0.545   4.998  0.0344 -0.3474  0.7754
 6054SOL    HW229796   0.861   0.403   4.982 -2.0847 -0.1077  1.4510
 6055SOL     OW29797   2.609   0.435   5.362  0.0383 -0.1480 -0.2689
 6055SOL    HW129798   2.680   0.439   5.427 -0.9480 -0.4870  0.8385
 6055SOL    HW229799   2.654   0.457   5.280 -0.2741 -0.6036 -0.5619
 6056SOL     OW29800   3.991   3.445   1.566  0.9850 -0.3766 -0.0334
 6056SOL    HW129801   4.030   3.462   1.481  1.2443 -2.5636 -0.3493
 6056SOL    HW229802   4.046   3.503   1.618 -0.3678  0.1037  0.8731
 6057SOL     OW29803   1.159   2.716  14.005  0.1413  0.8088 -0.0205
 6057SOL    HW129804   1.146   2.627  14.037  1.3818  0.7837  0.3844
 6057SOL    HW229805   1.237   2.709  13.950 -2.0071  0.3274 -3.0342
 6058SOL     OW29806   0.995   3.372   8.057 -0.0396 -0.8517  0.0594
 6058SOL    HW129807   1.031   3.286   8.079 -2.1953 -1.8697 -0.4407
 6058SOL    HW229808   0.900   3.371   8.069 -0.0876  1.5386 -0.0392
 6059SOL     OW29809   3.132   0.908   3.479  0.4128  0.0709  0.4908
 6059SOL    HW129810   3.116   0.999   3.453 -1.3215  0.2290  2.1191
 6059SOL    HW229811   3.227   0.905   3.494  0.4779 -0.5146 -0.0110
 6060SOL     OW29812   2.442   2.313   9.504  0.4892  0.7317  0.1865
 6060SOL    HW129813   2.472   2.273   9.586 -0.2882  2.2739  1.2429
 6060SOL    HW229814   2.381   2.248   9.470 -0.5810  1.8312 -0.0383
 6061SOL     OW29815   2.825   2.594  13.945 -0.1723  0.3492 -0.0444
 6061SOL    HW129816   2.740   2.605  13.988 -0.6502 -0.2770 -0.8150
 6061SOL    HW229817   2.867   2.542  14.012  1.0063  1.0399 -0.2498
 6062SOL     OW29818   3.554   0.994   6.062 -0.2134  0.0173 -0.0110
 6062SOL    HW129819   3.638   0.990   6.016  0.0022 -2.8839  0.6642
 6062SOL    HW229820   3.561   0.924   6.126 -0.5018 -1.3205 -1.4324
 6063SOL     OW29821   2.566   2.462   7.593 -0.3240 -0.7752  0.3185
 6063SOL    HW129822   2.625   2.391   7.567  0.8099  0.0492  0.6289
 6063SOL    HW229823   2.583   2.473   7.687 -1.7077  0.4291  0.4191
 6064SOL     OW29824   1.983   3.740  11.489 -0.4862  0.6204 -0.5143
 6064SOL    HW129825   1.991   3.783  11.575 -3.6926  0.3437 -0.0683
 6064SOL    HW229826   1.918   3.798  11.449  0.4626  1.8030 -0.3668
 6065SOL     OW29827   3.419   0.927   5.065  0.0139 -0.6028  0.1359
 6065SOL    HW129828   3.451   1.011   5.031 -0.3400  0.2249  1.8761
 6065SOL    HW229829   3.342   0.956   5.114  0.7826 -0.5081  1.2893
 6066SOL     OW29830   0.616   1.312   1.558 -0.1343  0.5099  0.0111
 6066SOL    HW129831   0.650   1.325   1.469  2.4495  0.6192  0.9911
 6066SOL    HW229832   0.546   1.375   1.571 -0.0626  0.3697  1.0768
 6067SOL     OW29833   2.584   3.446   2.394  0.1056  0.2891  0.3657
 6067SOL    HW129834   2.499   3.489   2.406  0.1977  0.2980  0.9951
 6067SOL    HW229835   2.607   3.494   2.314  1.4459 -0.2780  0.4022
 6068SOL     OW29836   3.653   3.474   6.585  0.3267 -0.0535 -0.8616
 6068SOL    HW129837   3.677   3.555   6.540  0.9685 -0.1592 -0.7118
 6068SOL    HW229838   3.715   3.483   6.658 -0.9506 -1.1414  0.3550
 6069SOL     OW29839   1.695   0.200   6.129  0.7551 -0.6962  0.3001
 6069SOL    HW129840   1.622   0.188   6.068  0.6083  0.3065  0.2732
 6069SOL    HW229841   1.710   0.110   6.156 -1.0184 -1.0407  0.1819
 6070SOL     OW29842   1.651   2.115   0.836 -0.1459  0.3532 -0.0657
 6070SOL    HW129843   1.608   2.176   0.897 -2.2825 -0.8874 -0.3320
 6070SOL    HW229844   1.714   2.083   0.901 -0.2427  0.4762  0.0903
 6071SOL     OW29845   4.205   2.945   6.018  0.4547 -0.0424  0.2984
 6071SOL    HW129846   4.131   2.954   5.958 -0.1272  0.7475  1.1322
 6071SOL    HW229847   4.257   2.879   5.972 -2.0365 -3.2546  2.1157
 6072SOL     OW29848   2.145   4.713  14.194 -0.5250 -0.1580 -0.2197
 6072SOL    HW129849   2.153   4.688  14.102  1.3106 -1.1134  0.1938
 6072SOL    HW229850   2.058   0.016  14.200 -0.1571  0.6237  0.0953
 6073SOL     OW29851   0.029   1.574  11.431 -0.4404 -0.0464 -0.7718
 6073SOL    HW129852   4.723   1.522  11.362  0.4084 -1.7540  0.0177
 6073SOL    HW229853   0.078   1.636  11.378 -0.0732  1.6888  1.6090
 6074SOL     OW29854   3.970   2.049   6.226 -0.1406 -0.2563 -0.0367
 6074SOL    HW129855   3.967   2.086   6.314 -0.2270  0.2859 -0.2722
 6074SOL    HW229856   4.042   1.985   6.223 -0.1945 -0.3559  0.7739
 6075SOL     OW29857   1.398   0.382   5.523 -0.1418  0.5374  0.1930
 6075SOL    HW129858   1.427   0.399   5.433 -1.4777  1.0708 -0.1456
 6075SOL    HW229859   1.478   0.339   5.553 -2.2954 -2.6403  1.3768
 6076SOL     OW29860   3.851   1.877   3.185  0.6113  0.1460  0.4354
 6076SOL    HW129861   3.919   1.931   3.146  1.5410  1.1479  3.4458
 6076SOL    HW229862   3.904   1.801   3.208 -0.2100 -0.6354 -0.2210
 6077SOL     OW29863   4.539   4.263   3.945 -0.4736  0.4785 -0.2819
 6077SOL    HW129864   4.486   4.262   4.024 -0.0764 -1.1742 -0.0358
 6077SOL    HW229865   4.494   4.218   3.873  3.2484  0.1593 -2.4286
 6078SOL     OW29866   2.605   3.533  12.829 -0.2792 -0.7147 -0.7883
 6078SOL    HW129867   2.593   3.460  12.889  1.3019  0.2701  0.7409
 6078SOL    HW229868   2.531   3.522  12.769  0.8281 -0.9209 -2.1153
 6079SOL     OW29869   0.871   3.600   3.953  0.3542 -0.1690 -0.1000
 6079SOL    HW129870   0.913   3.680   3.922  0.3567 -0.7455 -1.5475
 6079SOL    HW229871   0.812   3.578   3.881  1.8036  2.3315 -2.0562
 6080SOL     OW29872   4.645   0.970   8.246  0.3029  0.2073 -0.7979
 6080SOL    HW129873   4.574   1.025   8.213  0.8918  2.5794  1.9010
 6080SOL    HW229874   4.668   1.000   8.334  0.6474 -1.6077 -0.2520
 6081SOL     OW29875   3.457   3.159   6.980 -0.3417 -0.3747 -0.0563
 6081SOL    HW129876   3.398   3.220   6.936  0.6744  0.2077 -0.6347
 6081SOL    HW229877   3.538   3.190   6.939 -0.2603  0.3703  0.6646
 6082SOL     OW29878   3.521   1.537   1.808  0.9707 -0.4193  0.2384
 6082SOL    HW129879   3.582   1.608   1.786  1.4431 -1.1908 -0.9138
 6082SOL    HW229880   3.580   1.462   1.805  0.2959 -0.9422  0.1599
 6083SOL     OW29881   0.734   3.793   2.161 -0.3578 -0.3180  0.3110
 6083SOL    HW129882   0.670   3.738   2.115 -0.7756  0.3731  0.0620
 6083SOL    HW229883   0.744   3.860   2.094 -0.0736  0.9825  1.6425
 6084SOL     OW29884   1.679   2.741  10.919  0.2251 -0.1988  0.1431
 6084SOL    HW129885   1.643   2.782  10.840 -2.3054  1.6849  2.2555
 6084SOL    HW229886   1.751   2.698  10.873  0.6294  1.5554 -0.8666
 6085SOL     OW29887   3.628   3.214   1.831  0.3355 -0.2655 -0.2311
 6085SOL    HW129888   3.639   3.128   1.871  0.3043 -0.0097  0.3230
 6085SOL    HW229889   3.534   3.226   1.819 -0.1789 -1.3936  2.7985
 6086SOL     OW29890   1.115   3.947   7.607  0.2447 -0.2196 -0.2438
 6086SOL    HW129891   1.112   4.031   7.652  3.0992 -0.8811  1.1754
 6086SOL    HW229892   1.187   3.967   7.547  1.0856 -2.4481  0.0398
 6087SOL     OW29893   0.015   3.108   2.114 -0.0172  0.1598  0.2087
 6087SOL    HW129894   0.008   3.182   2.175  0.1586  1.5499 -1.4433
 6087SOL    HW229895   0.059   3.041   2.166 -0.8029  0.4883  1.3121
 6088SOL     OW29896   0.336   3.193   8.848  0.3671 -0.1157  0.0188
 6088SOL    HW129897   0.389   3.121   8.815  0.8959  0.3166 -0.0731
 6088SOL    HW229898   0.346   3.185   8.943 -0.9401  2.2867  0.3648
 6089SOL     OW29899   2.240   1.728   2.700  0.3231  0.7275 -0.1719
 6089SOL    HW129900   2.295   1.650   2.704 -1.0690 -0.2404 -0.0198
 6089SOL    HW229901   2.156   1.706   2.659  0.3494 -0.0792  0.2228
 6090SOL     OW29902   0.766   2.370  12.747 -0.2904 -0.3449  0.0071
 6090SOL    HW129903   0.697   2.320  12.702  0.2415 -0.5187 -0.6180
 6090SOL    HW229904   0.773   2.454  12.702  1.1069 -0.6737 -0.3814
 6091SOL     OW29905   0.300   2.176   7.507  0.0498 -0.3393 -0.4180
 6091SOL    HW129906   0.340   2.187   7.593 -0.8129 -0.8877  0.0527
 6091SOL    HW229907   0.318   2.082   7.499  2.4297  0.0353  0.6171
 6092SOL     OW29908   4.268   3.599  11.748  0.1448  0.7174  0.0511
 6092SOL    HW129909   4.243   3.513  11.782  1.4868  1.1376  2.0687
 6092SOL    HW229910   4.256   3.654  11.826 -0.9064  0.6602 -0.0619
 6093SOL     OW29911   1.614   1.900  15.964  0.1747  0.2643 -1.0496
 6093SOL    HW129912   1.590   1.850  16.042 -0.8625  0.8547 -0.9798
 6093SOL    HW229913   1.628   1.987  16.001  1.3220 -0.3019 -0.1864
 6094SOL     OW29914   4.127   2.219   1.337 -0.3963 -0.3633  0.2941
 6094SOL    HW129915   4.145   2.167   1.259  1.9274 -0.0109  0.6019
 6094SOL    HW229916   4.184   2.296   1.329 -1.8318  0.9548  2.8418
 6095SOL     OW29917   1.180   3.671   2.108 -0.9508  0.1841  0.3768
 6095SOL    HW129918   1.165   3.755   2.066 -0.6939  0.8964  1.6996
 6095SOL    HW229919   1.107   3.617   2.078  2.9629 -3.3707 -2.7029
 6096SOL     OW29920   3.896   4.599   1.929  0.0766 -0.2514 -0.0841
 6096SOL    HW129921   3.833   4.549   1.878  0.5436 -0.2853 -0.6353
 6096SOL    HW229922   3.845   4.605   2.010 -0.7454  0.0974 -0.6314
 6097SOL     OW29923   1.899   2.435   6.238 -0.0346  0.2866  0.7797
 6097SOL    HW129924   1.961   2.490   6.286  2.3146  1.3518 -3.4316
 6097SOL    HW229925   1.825   2.470   6.288 -0.6742 -0.4847  0.3819
 6098SOL     OW29926   1.641   1.198   0.257 -0.0016  0.0278 -0.1531
 6098SOL    HW129927   1.667   1.225   0.345 -0.2952  1.6535 -0.5705
 6098SOL    HW229928   1.674   1.271   0.206 -0.5699  0.1054 -0.4053
 6099SOL     OW29929   1.131   4.578   0.858 -0.2380  0.4210  0.0255
 6099SOL    HW129930   1.094   4.541   0.938 -2.5037  0.3539 -1.0483
 6099SOL    HW229931   1.189   4.646   0.893 -2.8891  2.7622 -0.1857
 6100SOL     OW29932   3.217   4.521   7.283  0.3783 -0.1363  0.0713
 6100SOL    HW129933   3.193   4.595   7.228 -0.0583 -1.0054 -0.9309
 6100SOL    HW229934   3.306   4.550   7.301  0.7886 -0.4331 -1.4390
 6101SOL     OW29935   1.305   1.942  17.196  0.2717  0.2641 -0.2894
 6101SOL    HW129936   1.320   1.934  17.102 -0.0828  0.3675 -0.3543
 6101SOL    HW229937   1.330   1.853  17.222  1.0805  1.2861  2.4555
 6102SOL     OW29938   3.227   0.743  15.265 -0.2294  0.5527  0.1050
 6102SOL    HW129939   3.317   0.712  15.256 -0.4091  0.1275 -0.2848
 6102SOL    HW229940   3.180   0.672  15.221  0.5958 -0.7104  1.2744
 6103SOL     OW29941   0.523   4.711  13.413 -0.3070  0.0016  0.4536
 6103SOL    HW129942   0.509   0.034  13.488 -0.6679 -0.5434  0.8175
 6103SOL    HW229943   0.615   4.686  13.419 -0.2597  0.6196  2.2221
 6104SOL     OW29944   1.885   0.587   6.294  0.2731 -0.3684 -0.2121
 6104SOL    HW129945   1.933   0.507   6.319 -1.9277 -1.8126 -0.5681
 6104SOL    HW229946   1.797   0.548   6.298 -1.6589  4.1146  0.7806
 6105SOL     OW29947   4.277   3.119  15.076  0.2235 -0.2164 -0.4666
 6105SOL    HW129948   4.248   3.051  15.137 -0.2337 -0.0462 -0.4894
 6105SOL    HW229949   4.193   3.133  15.031 -1.2344 -0.7475  2.0702
 6106SOL     OW29950   0.713   3.529   5.053  0.1866 -0.5422 -0.8522
 6106SOL    HW129951   0.768   3.470   5.002  0.8003 -0.1218 -0.6738
 6106SOL    HW229952   0.627   3.489   5.069  0.4907 -0.9442 -0.2043
 6107SOL     OW29953   3.618   3.833  12.303 -0.3238 -0.4604 -0.0761
 6107SOL    HW129954   3.527   3.804  12.310  0.4993 -2.8811  0.8419
 6107SOL    HW229955   3.647   3.794  12.221  0.6621  1.8288 -0.7946
 6108SOL     OW29956   2.803   0.202  16.398 -0.5162 -0.1626 -0.3199
 6108SOL    HW129957   2.764   0.130  16.349  1.8930 -1.2590 -0.6023
 6108SOL    HW229958   2.873   0.155  16.442 -1.4967 -0.0472  1.3487
 6109SOL     OW29959   3.173   3.207   7.152  0.4635  0.1398 -0.1513
 6109SOL    HW129960   3.249   3.228   7.205  0.2393  0.5484  0.0084
 6109SOL    HW229961   3.108   3.271   7.180  1.1549  1.0668 -0.6582
 6110SOL     OW29962   0.647   0.028   7.870  0.3643 -0.2920 -0.2764
 6110SOL    HW129963   0.553   0.018   7.886  0.3363  1.7633  0.8611
 6110SOL    HW229964   0.692   0.001   7.949  1.9173  0.9745 -0.7330
 6111SOL     OW29965   2.626   2.815  12.517  0.0036  0.4138  0.4013
 6111SOL    HW129966   2.576   2.733  12.519  1.3853 -0.4245  0.4254
 6111SOL    HW229967   2.605   2.851  12.603 -0.1014  0.0202  0.5412
 6112SOL     OW29968   3.952   4.611   3.063 -0.3794 -0.7913 -0.0237
 6112SOL    HW129969   3.979   4.661   3.140  0.7325 -1.7496  0.2167
 6112SOL    HW229970   3.954   4.524   3.103 -1.0002  0.4236  2.6690
 6113SOL     OW29971   3.858   4.421  11.587  0.0607 -0.2667  0.1849
 6113SOL    HW129972   3.898   4.486  11.530 -2.6513 -2.2835 -4.0523
 6113SOL    HW229973   3.854   4.342  11.532 -0.5536 -0.4071  0.4238
 6114SOL     OW29974   1.947   2.630   0.932 -0.5592 -0.2595  0.1902
 6114SOL    HW129975   1.940   2.541   0.966  0.2160 -0.7668 -0.9649
 6114SOL    HW229976   2.028   2.641   0.881 -0.9843  0.4399 -0.3416
 6115SOL     OW29977   0.344   2.999   6.511  0.2266  0.3449 -0.1512
 6115SOL    HW129978   0.292   2.981   6.589 -0.9802  0.7454 -0.8568
 6115SOL    HW229979   0.287   3.065   6.471 -0.3861 -0.6956 -1.0067
 6116SOL     OW29980   2.691   0.381   7.316 -0.8217 -0.3623 -0.3677
 6116SOL    HW129981   2.713   0.364   7.408 -1.2420  0.5995 -0.0891
 6116SOL    HW229982   2.748   0.321   7.268 -0.1779  0.3995 -0.5428
 6117SOL     OW29983   4.400   4.607   1.965 -0.0514  0.7744 -0.4313
 6117SOL    HW129984   4.410   4.549   2.041 -1.1266  0.2785 -0.6606
 6117SOL    HW229985   4.310   4.583   1.941 -0.2581  1.1062  0.0080
 6118SOL     OW29986   0.250   2.226  17.672 -0.3503  0.1595 -0.1125
 6118SOL    HW129987   0.285   2.283  17.604  0.3410  1.0231  0.9694
 6118SOL    HW229988   0.216   2.154  17.619 -1.5422  0.0584  0.7985
 6119SOL     OW29989   0.813   0.055   8.346  0.1027  0.0451  0.4029
 6119SOL    HW129990   0.812   0.027   8.438 -3.3511  1.0694  0.6666
 6119SOL    HW229991   0.775   0.142   8.356 -1.0106 -0.4238  0.1918
 6120SOL     OW29992   2.117   2.234   4.054  0.3983  0.0893 -0.0145
 6120SOL    HW129993   2.115   2.161   4.115 -0.7828 -1.0118 -1.3803
 6120SOL    HW229994   2.071   2.301   4.104  0.9533  0.2840  0.2403
 6121SOL     OW29995   0.610   0.341   5.416  0.6597 -0.2605  0.0291
 6121SOL    HW129996   0.518   0.364   5.402  1.0129  0.3004 -1.3049
 6121SOL    HW229997   0.613   0.381   5.503 -0.3724 -0.8807  0.3485
 6122SOL     OW29998   1.609   2.087   3.232 -0.2986  0.0701 -0.3398
 6122SOL    HW129999   1.654   2.168   3.210 -0.6455  0.2249 -0.4898
 6122SOL    HW230000   1.516   2.110   3.238 -0.1616  1.3486 -2.9923
 6123SOL     OW30001   0.326   4.541   4.116  0.1894 -0.0381 -0.1944
 6123SOL    HW130002   0.279   4.614   4.075  1.9673  1.1805 -0.0884
 6123SOL    HW230003   0.396   4.512   4.058  0.7560 -1.0204  0.9895
 6124SOL     OW30004   0.100   0.095   6.748  0.6536  0.2658  0.0605
 6124SOL    HW130005   0.187   0.061   6.727  0.1042  1.0424 -3.4224
 6124SOL    HW230006   0.119   0.184   6.720 -1.0744  0.8118  0.6078
 6125SOL     OW30007   1.623   3.879  13.925 -0.0166 -0.6838 -0.5638
 6125SOL    HW130008   1.655   3.945  13.863  0.6509  0.1643  0.6931
 6125SOL    HW230009   1.573   3.930  13.989  0.4093 -1.3659  0.3163
 6126SOL     OW30010   0.688   1.311  16.963  0.3164  0.0336 -0.2960
 6126SOL    HW130011   0.653   1.241  17.018 -2.0025  0.5852 -1.0707
 6126SOL    HW230012   0.599   1.344  16.950  0.8420  1.4700 -0.1924
 6127SOL     OW30013   2.563   4.729   2.273 -0.7346 -0.0034 -0.0165
 6127SOL    HW130014   2.645   4.719   2.322 -0.9578  0.5235  0.4623
 6127SOL    HW230015   2.571   4.652   2.217  2.3040  0.0760  0.3096
 6128SOL     OW30016   3.971   4.340  10.382  0.3117 -0.2775  0.1024
 6128SOL    HW130017   3.928   4.311  10.301  2.2716  2.2639 -1.8772
 6128SOL    HW230018   3.899   4.355  10.443  1.8125  2.2015  1.2563
 6129SOL     OW30019   4.055   1.141   7.553 -0.5331 -0.0965  0.0605
 6129SOL    HW130020   4.032   1.227   7.590 -0.8539  0.6843 -1.9462
 6129SOL    HW230021   3.982   1.125   7.493  0.0153  1.0813 -0.9343
 6130SOL     OW30022   1.898   0.625  12.674 -0.3611  0.5877  0.3098
 6130SOL    HW130023   1.887   0.552  12.735  1.7707  1.1222  1.3490
 6130SOL    HW230024   1.942   0.680  12.739  1.9937 -1.2484  0.3196
 6131SOL     OW30025   2.286   2.098   7.175 -0.3636 -0.1424  0.4064
 6131SOL    HW130026   2.237   2.169   7.217 -0.9862  1.5232 -3.1988
 6131SOL    HW230027   2.228   2.066   7.106  0.1147 -2.1508  0.9366
 6132SOL     OW30028   4.518   0.539   9.351  0.2155 -0.3698  0.4749
 6132SOL    HW130029   4.586   0.498   9.298 -0.1847 -0.8247  0.3147
 6132SOL    HW230030   4.564   0.609   9.399 -0.1048  0.0343  0.1972
 6133SOL     OW30031   2.425   2.922   3.971 -0.0590 -0.0543 -0.0633
 6133SOL    HW130032   2.389   2.838   3.941 -1.2251  0.2147  0.5838
 6133SOL    HW230033   2.354   2.948   4.029 -1.3262 -0.4386 -1.4266
 6134SOL     OW30034   3.378   4.491   8.787 -0.6620 -0.1954  0.7848
 6134SOL    HW130035   3.316   4.561   8.767 -1.5455 -1.0903  0.3998
 6134SOL    HW230036   3.430   4.487   8.706 -1.4643  0.0114  0.2614
 6135SOL     OW30037   0.356   2.691   6.502  0.4586  0.1541 -0.3752
 6135SOL    HW130038   0.417   2.763   6.520  1.2216 -1.4951  3.5606
 6135SOL    HW230039   0.292   2.723   6.439 -1.1429 -0.5208  0.9225
 6136SOL     OW30040   3.902   3.078   8.281  0.6590 -0.5411  0.7021
 6136SOL    HW130041   3.958   3.007   8.251 -0.5027 -1.7459  1.3464
 6136SOL    HW230042   3.970   3.145   8.273  1.0338 -0.7410  2.2004
 6137SOL     OW30043   4.365   0.112  16.452  0.2287 -0.2145 -0.0981
 6137SOL    HW130044   4.432   0.105  16.520  1.7334 -0.7085 -1.6712
 6137SOL    HW230045   4.394   0.197  16.419 -0.5809 -0.4481 -1.3957
 6138SOL     OW30046   2.401   0.126   2.449  0.3637  0.7208  0.0589
 6138SOL    HW130047   2.435   0.100   2.534 -2.5407  1.3413  1.3866
 6138SOL    HW230048   2.455   0.077   2.387 -1.9325 -1.2152 -0.4158
 6139SOL     OW30049   0.328   0.307   8.608 -0.2488  0.0379 -0.5500
 6139SOL    HW130050   0.416   0.270   8.608  0.8364  2.6048  1.4291
 6139SOL    HW230051   0.355   0.390   8.647 -2.6865  0.0117  1.1848
 6140SOL     OW30052   3.839   2.889  10.253 -0.3409  0.0443  0.5940
 6140SOL    HW130053   3.781   2.897  10.177  1.0068  0.4503 -0.3854
 6140SOL    HW230054   3.796   2.952  10.312  0.2927  1.9201 -0.9592
 6141SOL     OW30055   2.356   0.056  13.598 -0.4853 -0.5007  0.6937
 6141SOL    HW130056   2.263   0.077  13.607 -0.1879  1.4458 -0.9370
 6141SOL    HW230057   2.387   0.111  13.526  0.5047 -0.0492  1.4721
 6142SOL     OW30058   0.639   4.595   3.916 -0.0876 -0.4810  0.4276
 6142SOL    HW130059   0.602   4.529   3.975 -0.8533 -0.3168  0.1293
 6142SOL    HW230060   0.593   4.573   3.836  0.2553  0.4507 -0.0316
 6143SOL     OW30061   1.993   4.210   4.127 -0.4204 -0.2122  0.1960
 6143SOL    HW130062   1.964   4.204   4.036  1.0910  0.9773 -0.3723
 6143SOL    HW230063   2.053   4.136   4.127  1.3568  1.2299  0.9820
 6144SOL     OW30064   1.801   3.297   4.332 -0.2016  0.4611  0.2348
 6144SOL    HW130065   1.811   3.340   4.417  0.7563 -0.5570  0.6334
 6144SOL    HW230066   1.889   3.295   4.293  1.2310 -2.8408  3.5821
 6145SOL     OW30067   0.016   2.405   4.266 -0.1521 -0.3917 -0.7404
 6145SOL    HW130068   4.673   2.354   4.290  0.3315 -0.8505 -0.1448
 6145SOL    HW230069   4.713   2.439   4.185  0.3531  0.0769 -0.7818
 6146SOL     OW30070   4.226   2.564   9.509  0.1758  0.1257  0.3147
 6146SOL    HW130071   4.278   2.594   9.583 -0.4181  0.3628  0.6379
 6146SOL    HW230072   4.149   2.621   9.512 -0.4395 -0.8325  2.7764
 6147SOL     OW30073   1.527   3.625  14.997  0.8061 -0.5841 -0.2081
 6147SOL    HW130074   1.479   3.562  15.050  0.8502 -0.4557 -0.0156
 6147SOL    HW230075   1.580   3.573  14.937  1.5669 -0.8381  0.6667
 6148SOL     OW30076   2.051   1.289   6.015 -0.1568 -0.4537 -0.2693
 6148SOL    HW130077   2.039   1.237   6.094  0.9026  0.7337  0.6658
 6148SOL    HW230078   1.966   1.332   6.009  1.3284  2.9308  2.8553
 6149SOL     OW30079   0.700   1.062   5.310  0.1854  0.3800 -0.0175
 6149SOL    HW130080   0.715   1.067   5.405 -1.0134 -1.5849  0.2665
 6149SOL    HW230081   0.785   1.092   5.277  0.2845  0.6842  0.5002
 6150SOL     OW30082   4.518   0.383   6.605 -1.1920  0.0229 -0.7268
 6150SOL    HW130083   4.492   0.358   6.694  0.2219 -1.9883 -0.8802
 6150SOL    HW230084   4.467   0.319   6.555 -0.0702 -0.3370 -1.4134
 6151SOL     OW30085   2.917   1.973   1.741 -0.2280 -0.1264  0.5396
 6151SOL    HW130086   2.848   1.915   1.772  0.7499 -1.7574 -0.3146
 6151SOL    HW230087   2.883   2.056   1.776 -0.6584  0.4418 -1.1934
 6152SOL     OW30088   2.307   3.715   5.804  0.0457  0.3248  0.1804
 6152SOL    HW130089   2.277   3.718   5.713 -1.7652 -2.2191  0.6911
 6152SOL    HW230090   2.224   3.701   5.850  0.1339 -0.8690 -0.0311
 6153SOL     OW30091   0.636   0.591   7.316  0.2489  0.6395  1.0595
 6153SOL    HW130092   0.605   0.615   7.403 -1.2652 -1.0577  0.9926
 6153SOL    HW230093   0.593   0.506   7.314 -0.3132  0.9344 -0.1629
 6154SOL     OW30094   2.925   0.002   3.293 -0.2915 -0.0465 -0.6874
 6154SOL    HW130095   2.996   0.064   3.273  1.2391 -1.4247  0.4420
 6154SOL    HW230096   2.890   4.721   3.205 -0.8172 -2.7335  0.0241
 6155SOL     OW30097   3.684   2.005   8.723  0.2221 -0.4699 -0.5216
 6155SOL    HW130098   3.732   1.953   8.658  1.6981 -2.3050  2.0455
 6155SOL    HW230099   3.755   2.049   8.769 -0.0446 -1.2343  0.6046
 6156SOL     OW30100   1.324   1.959  16.926 -0.1348 -0.3149 -0.2137
 6156SOL    HW130101   1.290   1.968  16.837  1.3612  0.5121 -0.7072
 6156SOL    HW230102   1.417   1.942  16.914 -0.1255 -1.1916  1.0880
 6157SOL     OW30103   1.300   3.389   2.928  1.1041 -0.2164 -0.2812
 6157SOL    HW130104   1.332   3.478   2.913 -0.3903  0.1202 -1.4538
 6157SOL    HW230105   1.385   3.358   2.960  0.7835  0.2783  1.0696
 6158SOL     OW30106   0.031   3.875  16.687 -0.2873 -0.3758 -0.2356
 6158SOL    HW130107   0.023   3.969  16.700 -0.2010 -0.9155  3.5775
 6158SOL    HW230108   0.038   3.879  16.591 -1.1661 -0.6408 -0.3028
 6159SOL     OW30109   2.956   4.419   4.482  0.1976  0.0089  0.1424
 6159SOL    HW130110   2.987   4.464   4.561  2.4415 -0.2882 -0.5550
 6159SOL    HW230111   3.036   4.419   4.429 -1.4776  0.3885 -2.3701
 6160SOL     OW30112   4.346   3.224   3.631 -0.1010 -0.5020 -0.0972
 6160SOL    HW130113   4.418   3.277   3.667 -0.7414  1.1257 -1.2300
 6160SOL    HW230114   4.377   3.136   3.655 -0.3283 -0.1080  1.6743
 6161SOL     OW30115   0.571   2.839  14.799 -0.2863 -0.1663  0.4646
 6161SOL    HW130116   0.608   2.790  14.872 -1.1544  0.4606  1.3152
 6161SOL    HW230117   0.496   2.872  14.848 -1.6573 -0.2538 -1.5475
 6162SOL     OW30118   2.456   3.240   7.509 -0.2567  0.0709 -0.1277
 6162SOL    HW130119   2.550   3.238   7.529 -0.6327 -0.5846  1.5060
 6162SOL    HW230120   2.427   3.169   7.565  1.4400  0.8202  1.6957
 6163SOL     OW30121   1.465   1.973  15.304 -0.1347 -0.6703  0.0167
 6163SOL    HW130122   1.528   1.984  15.375 -2.0153 -1.3113  1.8071
 6163SOL    HW230123   1.463   2.059  15.262 -0.4923 -1.0412 -0.7211
 6164SOL     OW30124   0.465   4.417   2.999 -0.2095 -0.4341  0.1355
 6164SOL    HW130125   0.519   4.443   3.073  1.0352  0.0987 -0.9731
 6164SOL    HW230126   0.433   4.498   2.959  1.3550 -0.2845 -0.8071
 6165SOL     OW30127   2.875   4.406   5.422 -0.2146  0.3443 -0.8484
 6165SOL    HW130128   2.878   4.386   5.329 -1.2295 -2.5676 -0.2501
 6165SOL    HW230129   2.781   4.424   5.432  0.3112  2.4075  0.4656
 6166SOL     OW30130   2.343   1.745  12.013 -0.1891 -0.4641 -0.9193
 6166SOL    HW130131   2.426   1.716  12.053  0.1048  3.9904  1.7534
 6166SOL    HW230132   2.273   1.725  12.075  0.9152 -1.9056 -0.1285
 6167SOL     OW30133   3.729   0.240   7.731  0.9232 -0.0146 -0.0082
 6167SOL    HW130134   3.717   0.161   7.678 -2.0218  0.4275  0.0349
 6167SOL    HW230135   3.655   0.244   7.791  0.5387 -1.2443 -0.4090
 6168SOL     OW30136   0.761   3.790   7.388 -0.3956  0.3137 -0.0947
 6168SOL    HW130137   0.823   3.861   7.374  1.4631 -1.5124 -1.0344
 6168SOL    HW230138   0.781   3.767   7.479 -1.1156 -1.4700 -0.3818
 6169SOL     OW30139   0.096   4.522  17.231 -0.5069 -0.3222  0.0891
 6169SOL    HW130140   0.122   4.505  17.141 -2.2997 -0.5530 -0.3937
 6169SOL    HW230141   0.048   4.442  17.254  0.7098 -1.1809 -0.3612
 6170SOL     OW30142   0.574   0.040   4.201 -0.0439 -0.3871 -0.1039
 6170SOL    HW130143   0.654   0.078   4.163  0.8047 -1.6792  0.3892
 6170SOL    HW230144   0.603   4.687   4.225 -0.1742  0.4297  3.0324
 6171SOL     OW30145   1.820   1.575  16.491 -0.6447 -0.0808 -0.3818
 6171SOL    HW130146   1.877   1.501  16.468  0.5508  1.0765 -1.1693
 6171SOL    HW230147   1.756   1.531  16.547  1.0071 -0.3954  1.2314
 6172SOL     OW30148   0.119   3.606   3.460  0.0434 -0.3167 -0.4151
 6172SOL    HW130149   0.136   3.587   3.367 -0.5440  0.7255 -0.7446
 6172SOL    HW230150   0.206   3.601   3.498 -1.2202 -0.8801  2.3861
 6173SOL     OW30151   4.350   3.424   4.861  0.3854 -0.4845  0.1918
 6173SOL    HW130152   4.307   3.475   4.793  0.0602  0.3973  1.0648
 6173SOL    HW230153   4.435   3.420   4.817 -0.2074 -0.6066 -0.9534
 6174SOL     OW30154   0.776   4.383  11.857  0.0217  0.3323 -0.1201
 6174SOL    HW130155   0.831   4.380  11.935 -0.7071  2.2077  0.4644
 6174SOL    HW230156   0.802   4.471  11.830  2.2527 -0.8303 -1.7180
 6175SOL     OW30157   2.341   2.494   5.575  0.4481 -0.7270  0.2825
 6175SOL    HW130158   2.417   2.530   5.621 -0.8637  1.8151  0.4556
 6175SOL    HW230159   2.297   2.465   5.655  0.9031  2.0091  1.5252
 6176SOL     OW30160   2.320   2.621   7.819  0.4801 -0.3525 -0.2154
 6176SOL    HW130161   2.331   2.682   7.892 -1.9776  0.4609 -0.5145
 6176SOL    HW230162   2.224   2.628   7.817  0.4365 -0.5363  1.0434
 6177SOL     OW30163   0.931   1.775   4.312  0.2706 -0.0788  0.5816
 6177SOL    HW130164   1.019   1.772   4.274  0.0864 -1.5371  0.2514
 6177SOL    HW230165   0.924   1.863   4.349  1.0813 -0.9530  2.8457
 6178SOL     OW30166   0.982   2.305   6.406 -0.6373 -0.3686  0.0254
 6178SOL    HW130167   1.049   2.283   6.470  2.4042  1.9930 -2.3557
 6178SOL    HW230168   1.025   2.325   6.323 -0.9085 -3.1092 -0.7856
 6179SOL     OW30169   1.195   3.041  11.826  0.1211 -0.2268 -0.4448
 6179SOL    HW130170   1.265   2.977  11.832 -1.1909 -1.3789  2.3745
 6179SOL    HW230171   1.121   2.993  11.863 -1.4467 -0.7310 -4.1693
 6180SOL     OW30172   0.226   3.841   7.154  0.4004 -0.0042  0.2714
 6180SOL    HW130173   0.285   3.909   7.188  0.9140 -0.6932  0.7544
 6180SOL    HW230174   0.290   3.804   7.093 -0.2241  1.3902 -1.2495
 6181SOL     OW30175   0.307   3.204   6.132 -0.2980  0.2026  0.0991
 6181SOL    HW130176   0.359   3.238   6.204  0.1651 -3.0186  1.2598
 6181SOL    HW230177   0.329   3.264   6.060 -1.1747  1.4554  0.8839
 6182SOL     OW30178   3.197   3.705   9.756  0.4624  0.0828 -0.8361
 6182SOL    HW130179   3.179   3.748   9.673 -0.0038 -1.5843 -1.6008
 6182SOL    HW230180   3.136   3.633   9.741  0.0803 -0.3422  2.8198
 6183SOL     OW30181   2.308   0.386   1.719 -0.2150 -0.2789  0.0197
 6183SOL    HW130182   2.387   0.356   1.673 -0.1720 -0.2004  0.0438
 6183SOL    HW230183   2.241   0.339   1.669 -2.4045  0.8899  1.8870
 6184SOL     OW30184   3.931   1.343  15.620  0.1957  0.7139  0.0664
 6184SOL    HW130185   3.995   1.331  15.691 -1.2970  0.0942  1.3019
 6184SOL    HW230186   3.987   1.396  15.563  1.2263  0.0486  0.4597
 6185SOL     OW30187   1.922   1.573   1.089 -0.1930  0.0437 -0.1696
 6185SOL    HW130188   1.887   1.656   1.055 -1.7498  0.5123  2.5457
 6185SOL    HW230189   1.872   1.571   1.171  2.3449 -3.3761  1.3033
 6186SOL     OW30190   4.293   3.673   6.659 -0.1606  0.2281  0.4809
 6186SOL    HW130191   4.220   3.613   6.674 -0.6763  0.7019 -0.1438
 6186SOL    HW230192   4.244   3.751   6.684  2.0161  2.5766 -2.5397
 6187SOL     OW30193   3.650   1.620   4.523  0.1520  0.0491  0.3368
 6187SOL    HW130194   3.614   1.700   4.485 -0.1440  0.7351  2.0618
 6187SOL    HW230195   3.605   1.610   4.607 -1.1496  0.2028 -0.3381
 6188SOL     OW30196   3.406   3.322   2.203 -0.6253 -0.4808 -0.1635
 6188SOL    HW130197   3.364   3.242   2.170 -0.2686  0.8412 -3.7759
 6188SOL    HW230198   3.403   3.298   2.296 -1.3449  2.1793  0.4780
 6189SOL     OW30199   0.503   0.720   1.914 -0.5267 -0.8376  0.1883
 6189SOL    HW130200   0.554   0.639   1.912 -1.4743 -1.4092 -0.7916
 6189SOL    HW230201   0.571   0.787   1.914 -0.9705 -0.3903  0.8981
 6190SOL     OW30202   4.647   2.099  11.335 -0.1746 -0.2869  0.3864
 6190SOL    HW130203   4.673   2.080  11.425  0.0580  0.5859  0.5042
 6190SOL    HW230204   4.696   2.026  11.296 -0.2726  0.8219 -1.8103
 6191SOL     OW30205   1.348   1.568   6.538  0.0167 -0.2687 -0.2499
 6191SOL    HW130206   1.351   1.474   6.524 -2.7434 -0.7186  2.1578
 6191SOL    HW230207   1.282   1.575   6.607  4.4164  0.8219  3.8698
 6192SOL     OW30208   2.376   3.285   4.185 -0.1639  0.0149 -0.0292
 6192SOL    HW130209   2.379   3.366   4.236  1.7677  0.6856 -1.2271
 6192SOL    HW230210   2.467   3.277   4.160 -0.0092 -0.2423  0.6070
 6193SOL     OW30211   2.564   3.198   8.775  0.3367 -0.5774 -0.1160
 6193SOL    HW130212   2.546   3.127   8.836  0.4366  1.6772  2.5345
 6193SOL    HW230213   2.490   3.257   8.792  0.7439  0.4264 -1.7635
 6194SOL     OW30214   4.572   2.348   3.503 -0.0987 -0.6034  0.1660
 6194SOL    HW130215   4.626   2.270   3.491  0.1863 -0.2471 -0.8937
 6194SOL    HW230216   4.514   2.348   3.427  0.4522  0.3850 -0.2467
 6195SOL     OW30217   0.920   0.442  16.229  0.2678  0.3197 -0.4189
 6195SOL    HW130218   0.996   0.420  16.175 -0.4527 -1.1258 -0.8417
 6195SOL    HW230219   0.891   0.358  16.263 -1.2530 -0.6304 -4.0555
 6196SOL     OW30220   2.022   1.551   0.828  0.6171 -0.0620  0.9045
 6196SOL    HW130221   1.987   1.475   0.781  1.8522 -0.6446  0.9041
 6196SOL    HW230222   2.028   1.523   0.920 -1.1503  0.5709  1.2163
 6197SOL     OW30223   0.005   4.183   7.308  0.1074 -0.2670 -0.0599
 6197SOL    HW130224   0.035   4.153   7.394 -3.1177 -1.4619  0.6542
 6197SOL    HW230225   4.677   4.249   7.334  1.6902  1.2552 -0.0669
 6198SOL     OW30226   0.680   3.287   4.066 -0.5530 -0.7355 -0.1636
 6198SOL    HW130227   0.681   3.378   4.034  1.3850 -0.2274  1.3303
 6198SOL    HW230228   0.765   3.255   4.035 -0.6204  0.0382 -1.1496
 6199SOL     OW30229   3.262   1.865   3.730 -0.1063 -0.0720  0.6443
 6199SOL    HW130230   3.233   1.816   3.807 -0.2456  0.7639  1.1295
 6199SOL    HW230231   3.222   1.952   3.739  1.0173  0.4447  0.5911
 6200SOL     OW30232   2.186   1.829  10.865 -0.0858  0.0499  0.5933
 6200SOL    HW130233   2.254   1.860  10.806  0.3125 -0.6998  0.6601
 6200SOL    HW230234   2.107   1.862  10.821  0.2357  0.1355  0.0855
 6201SOL     OW30235   2.524   0.512  13.380  0.1994 -0.2236 -0.6056
 6201SOL    HW130236   2.543   0.477  13.293 -1.3883 -3.6022  0.3855
 6201SOL    HW230237   2.548   0.603  13.364 -1.0059  0.2503  0.2941
 6202SOL     OW30238   0.426   0.205   2.472  0.5601 -0.0829  0.2119
 6202SOL    HW130239   0.367   0.275   2.444  1.9211  0.9691 -0.0663
 6202SOL    HW230240   0.509   0.254   2.475  1.4767 -1.5633 -1.1030
 6203SOL     OW30241   3.403   0.192   6.951 -0.5260  0.3799  0.3216
 6203SOL    HW130242   3.448   0.229   6.875 -0.8735 -1.1934 -0.6679
 6203SOL    HW230243   3.402   0.269   7.008  0.4304  0.4571  0.2458
 6204SOL     OW30244   1.508   3.543   4.726  0.0284  0.2343 -0.1928
 6204SOL    HW130245   1.495   3.449   4.737  0.9318 -0.0571 -1.6119
 6204SOL    HW230246   1.597   3.550   4.691 -1.2288  1.3588 -3.1262
 6205SOL     OW30247   4.221   1.171   4.234  0.3395  0.2608 -0.0721
 6205SOL    HW130248   4.142   1.120   4.215  0.3498 -0.1951  1.1231
 6205SOL    HW230249   4.269   1.123   4.166 -1.6181  0.0242 -1.2925
 6206SOL     OW30250   0.244   1.335  10.714  0.4312 -0.1341 -0.6264
 6206SOL    HW130251   0.333   1.369  10.716  0.5012 -0.4636  1.8306
 6206SOL    HW230252   0.194   1.416  10.713  1.0196  0.2642  2.6050
 6207SOL     OW30253   3.532   0.436   2.508 -0.1631 -0.0658 -0.4439
 6207SOL    HW130254   3.491   0.493   2.443 -0.0809 -1.0348 -1.3417
 6207SOL    HW230255   3.594   0.393   2.449  1.7106 -1.3462  2.4456
 6208SOL     OW30256   0.706   4.475   2.204 -0.4834  0.3431 -0.6940
 6208SOL    HW130257   0.745   4.390   2.185 -3.5163 -1.3711  0.8153
 6208SOL    HW230258   0.614   4.455   2.221 -0.3174 -0.7471 -1.1073
 6209SOL     OW30259   2.913   4.378   7.916 -0.6033 -0.2883  0.1358
 6209SOL    HW130260   2.999   4.370   7.877  0.4210  0.2377  2.2980
 6209SOL    HW230261   2.886   4.286   7.917 -2.6070  0.3179  1.7923
 6210SOL     OW30262   1.105   1.540  10.175 -0.9319  0.3607  0.1576
 6210SOL    HW130263   1.065   1.614  10.128 -1.2930  0.5790  0.8012
 6210SOL    HW230264   1.170   1.512  10.111 -0.9152  2.9275 -0.9475
 6211SOL     OW30265   0.939   1.674  13.616 -0.2886  0.1086 -0.0451
 6211SOL    HW130266   0.949   1.589  13.659  1.6241  1.5646  2.3788
 6211SOL    HW230267   0.869   1.710  13.670 -0.7638  0.3017 -0.7784
 6212SOL     OW30268   4.520   4.270   3.378 -0.1656 -0.0859  0.4526
 6212SOL    HW130269   4.473   4.310   3.305 -1.7593 -0.0320  1.5020
 6212SOL    HW230270   4.451   4.271   3.444 -0.0162  1.9449  0.5562
 6213SOL     OW30271   0.045   4.339  14.948  0.0192 -0.1267 -0.3964
 6213SOL    HW130272   0.094   4.335  15.030  1.0213 -0.8127 -1.0152
 6213SOL    HW230273   0.080   4.418  14.907 -2.8780  2.2704  1.8159
 6214SOL     OW30274   1.214   2.369   3.407 -0.2240 -0.3866  0.1965
 6214SOL    HW130275   1.125   2.334   3.406  0.1124 -1.2408  0.2144
 6214SOL    HW230276   1.200   2.456   3.445  1.9055  0.7822 -1.6445
 6215SOL     OW30277   2.717   0.444   4.907  0.1494  0.7376 -0.1780
 6215SOL    HW130278   2.789   0.442   4.843 -0.6449 -1.2818 -1.0004
 6215SOL    HW230279   2.643   0.484   4.861 -0.3752 -0.0982 -0.0542
 6216SOL     OW30280   2.904   1.087   3.218 -0.2538  0.0569 -0.1717
 6216SOL    HW130281   2.873   1.011   3.267 -0.3357 -0.1198 -0.5017
 6216SOL    HW230282   2.981   1.104   3.272 -1.1950  0.1928  1.1296
 6217SOL     OW30283   4.154   4.225   5.117 -0.3112  0.5478 -0.8873
 6217SOL    HW130284   4.151   4.237   5.023  1.2441  0.8396 -0.9038
 6217SOL    HW230285   4.200   4.301   5.154 -1.3490 -0.0703  1.7238
 6218SOL     OW30286   4.552   2.253   2.823 -0.0182 -0.1423  0.3245
 6218SOL    HW130287   4.588   2.255   2.734 -0.2757 -1.7978  0.1813
 6218SOL    HW230288   4.627   2.294   2.867 -0.3293 -0.7831  1.4615
 6219SOL     OW30289   3.100   0.592  13.122 -0.5756 -0.3069  0.3818
 6219SOL    HW130290   3.044   0.628  13.053 -0.2689  0.3086  0.4519
 6219SOL    HW230291   3.124   0.510  13.079 -0.5390 -1.3103  2.2750
 6220SOL     OW30292   3.886   4.520  11.280 -0.6006  0.3188 -0.1102
 6220SOL    HW130293   3.926   4.449  11.229 -0.4856  0.4809 -0.2441
 6220SOL    HW230294   3.839   4.566  11.211  0.3524 -2.0422 -2.3596
 6221SOL     OW30295   3.198   0.720   8.954  0.1497  0.2969 -0.3557
 6221SOL    HW130296   3.162   0.809   8.951 -1.5953 -0.4202 -0.7175
 6221SOL    HW230297   3.248   0.736   9.034  0.7967 -0.0082 -0.7012
 6222SOL     OW30298   2.078   4.420   3.778 -0.3533 -0.5611  0.2268
 6222SOL    HW130299   2.130   4.450   3.704  1.1887  0.0737  1.5821
 6222SOL    HW230300   1.989   4.443   3.750  1.3792  1.5320 -3.6283
 6223SOL     OW30301   1.167   2.179  17.116  0.5636  0.7324 -0.0698
 6223SOL    HW130302   1.222   2.101  17.118  0.1143  0.3626 -2.1042
 6223SOL    HW230303   1.219   2.219  17.186 -0.4039  2.2270 -0.2188
 6224SOL     OW30304   0.207   2.705   3.797 -0.6833 -0.2553 -0.1333
 6224SOL    HW130305   0.117   2.689   3.768 -0.5180 -1.0582 -0.1943
 6224SOL    HW230306   0.229   2.781   3.743 -0.9302  0.1428  0.3235
 6225SOL     OW30307   2.199   0.904  17.372  0.3851  0.2240  0.2879
 6225SOL    HW130308   2.166   0.926  17.459  1.9063 -1.3588  1.2644
 6225SOL    HW230309   2.292   0.886  17.384  0.3338 -0.3161 -0.0932
 6226SOL     OW30310   3.056   4.358   3.590  0.1201  0.4456 -0.1457
 6226SOL    HW130311   3.083   4.291   3.527  1.5727  0.6580  0.2433
 6226SOL    HW230312   2.992   4.407   3.539 -1.1512 -2.9146 -1.7862
 6227SOL     OW30313   0.101   1.567   7.724  0.2749 -0.0578  0.1150
 6227SOL    HW130314   0.172   1.504   7.717 -0.6407 -1.0563 -0.0892
 6227SOL    HW230315   0.145   1.653   7.727  1.9588 -0.8761 -0.8257
 6228SOL     OW30316   3.138   0.068   7.306 -0.2741 -0.4996 -0.0728
 6228SOL    HW130317   3.114   0.067   7.214 -1.0417 -1.9861  0.1393
 6228SOL    HW230318   3.072   0.128   7.340  0.2496 -0.0755  0.1994
 6229SOL     OW30319   2.130   0.902   1.771  0.0026  0.8548  0.1179
 6229SOL    HW130320   2.098   0.930   1.685  1.0265  1.1088 -0.1808
 6229SOL    HW230321   2.147   0.810   1.753 -3.1251  0.0971  1.0426
 6230SOL     OW30322   1.321   4.100   1.309  0.0593 -0.0532 -0.3365
 6230SOL    HW130323   1.325   4.195   1.323 -0.3665 -0.0219 -0.4296
 6230SOL    HW230324   1.254   4.064   1.367  1.2916 -2.2688 -0.2631
 6231SOL     OW30325   4.661   0.058  10.942  0.9410 -0.1292  0.4351
 6231SOL    HW130326   4.638   0.138  10.896  2.1678  0.2275  0.4653
 6231SOL    HW230327   4.703   0.010  10.871 -0.3696 -0.8699  0.1370
 6232SOL     OW30328   1.389   3.206   7.873  0.3342  0.8177  0.0222
 6232SOL    HW130329   1.319   3.172   7.817 -0.9148  1.1838  1.3593
 6232SOL    HW230330   1.422   3.277   7.817 -0.4141  1.3627  0.2677
 6233SOL     OW30331   2.917   1.393  12.700  0.4939 -0.0520  0.3083
 6233SOL    HW130332   2.972   1.328  12.656  2.7904  0.3103  2.6494
 6233SOL    HW230333   2.830   1.354  12.691  0.7124 -0.4436 -0.1555
 6234SOL     OW30334   2.011   3.385   3.990  0.2180  0.4109  0.1111
 6234SOL    HW130335   2.082   3.444   4.013  0.1902 -0.4535  2.4209
 6234SOL    HW230336   1.938   3.444   3.969 -0.4345 -0.7306 -0.8360
 6235SOL     OW30337   3.549   4.563   2.406  0.1220  0.1096 -0.4242
 6235SOL    HW130338   3.480   4.508   2.442  1.0982 -0.6080  0.3308
 6235SOL    HW230339   3.501   4.641   2.379 -1.8144 -0.0614  2.5885
 6236SOL     OW30340   3.217   2.439  16.666 -0.3945 -0.3495 -0.1354
 6236SOL    HW130341   3.186   2.355  16.699 -1.3278  0.8114  1.9761
 6236SOL    HW230342   3.220   2.493  16.745 -0.5572  0.1749 -0.4883
 6237SOL     OW30343   0.585   3.159   2.599 -0.1094  0.3439  0.7401
 6237SOL    HW130344   0.528   3.224   2.640  0.7356  0.7811  1.2300
 6237SOL    HW230345   0.519   3.124   2.539 -1.9405  1.0507  2.3578
 6238SOL     OW30346   4.097   3.732   8.848 -0.4408 -0.2032 -0.0357
 6238SOL    HW130347   4.172   3.748   8.905  0.5481  2.0872 -2.0342
 6238SOL    HW230348   4.141   3.768   8.772 -0.6180 -3.4807 -1.6881
 6239SOL     OW30349   2.289   0.366  13.064 -0.5233  0.5503 -0.5292
 6239SOL    HW130350   2.288   0.442  13.005  1.0498  2.1259  1.4409
 6239SOL    HW230351   2.383   0.356  13.082 -0.6818 -1.7789 -1.0503
 6240SOL     OW30352   3.559   2.867   5.819  0.5693  0.8289 -0.8816
 6240SOL    HW130353   3.619   2.858   5.745 -0.6865  0.6247 -1.8692
 6240SOL    HW230354   3.568   2.961   5.834 -1.1754  1.0460 -1.1932
 6241SOL     OW30355   0.602   0.237   8.610  0.0957 -0.2960 -0.2926
 6241SOL    HW130356   0.650   0.248   8.692  0.1332  1.7917 -0.6016
 6241SOL    HW230357   0.591   0.142   8.602 -1.6955 -0.2961  1.9796
 6242SOL     OW30358   1.164   3.901  13.617  0.6739  0.1607  0.2314
 6242SOL    HW130359   1.210   3.984  13.613  1.2146 -0.1698 -0.4446
 6242SOL    HW230360   1.220   3.868  13.688  2.5152  0.2281 -1.1617
 6243SOL     OW30361   0.689   1.155   6.966  0.3472 -0.1480  0.0346
 6243SOL    HW130362   0.695   1.244   6.930  0.3808 -0.4301 -0.6475
 6243SOL    HW230363   0.694   1.111   6.881  1.4747  0.0801 -0.0236
 6244SOL     OW30364   3.140   1.168   3.358 -0.1009 -0.1341 -0.5922
 6244SOL    HW130365   3.202   1.213   3.417  0.9579 -0.4507 -1.4559
 6244SOL    HW230366   3.161   1.198   3.269 -0.3766  0.7159 -0.3731
 6245SOL     OW30367   0.539   3.729  16.571  0.0775 -0.5987  0.0841
 6245SOL    HW130368   0.452   3.770  16.581 -0.3913 -1.6841  0.4104
 6245SOL    HW230369   0.544   3.670  16.646 -3.1046  0.0041  0.8074
 6246SOL     OW30370   2.302   2.807   1.215 -0.0255  0.6303 -0.4805
 6246SOL    HW130371   2.256   2.878   1.170  0.2000 -0.6897 -2.7690
 6246SOL    HW230372   2.388   2.845   1.234  0.7987 -0.9903 -0.9935
 6247SOL     OW30373   3.030   2.377   4.810  0.1426 -0.1274  0.5702
 6247SOL    HW130374   3.062   2.465   4.831 -0.9666  1.0333 -2.5291
 6247SOL    HW230375   2.935   2.381   4.822 -0.1774 -2.0749 -1.4422
 6248SOL     OW30376   0.384   1.767   3.273 -0.8676 -0.1345  1.1795
 6248SOL    HW130377   0.397   1.849   3.226 -0.1192  1.3024  3.8731
 6248SOL    HW230378   0.368   1.794   3.364 -1.8961  0.1178  0.9233
 6249SOL     OW30379   4.568   1.463   2.108  0.0194 -0.7824  0.2516
 6249SOL    HW130380   4.521   1.505   2.181  0.4459 -0.9214  0.6072
 6249SOL    HW230381   4.636   1.417   2.156  0.9167 -1.0340 -1.2540
 6250SOL     OW30382   0.884   0.950  14.777  0.0954  0.6460  0.2057
 6250SOL    HW130383   0.811   1.011  14.781 -1.7447 -1.6121  1.7016
 6250SOL    HW230384   0.902   0.942  14.684 -0.3247  1.3476  0.0667
 6251SOL     OW30385   4.199   4.405   4.299 -0.7283  0.2113 -0.0753
 6251SOL    HW130386   4.204   4.353   4.379  0.4467 -1.3431 -1.1525
 6251SOL    HW230387   4.161   4.487   4.330  2.0011  1.0739  0.8957
 6252SOL     OW30388   4.651   4.012   2.650 -0.1845 -1.1548 -0.4490
 6252SOL    HW130389   4.726   4.053   2.692 -1.4238  0.1239  0.4925
 6252SOL    HW230390   4.620   3.956   2.720 -1.2500 -2.9884 -2.3812
 6253SOL     OW30391   1.406   0.985   6.003 -0.3464  0.5301 -0.3836
 6253SOL    HW130392   1.327   1.039   6.007 -0.6284  0.0350  0.6685
 6253SOL    HW230393   1.463   1.041   5.950 -0.0832 -0.1398 -0.7961
 6254SOL     OW30394   1.432   3.704   7.974  0.5476 -0.0211  0.0080
 6254SOL    HW130395   1.403   3.697   7.883  2.2937  0.7924 -0.6090
 6254SOL    HW230396   1.355   3.746   8.012  2.4430  2.3754  1.2079
 6255SOL     OW30397   0.081   0.550   2.434  0.8524 -0.5251 -0.3123
 6255SOL    HW130398   0.117   0.632   2.468  2.2784 -1.8281  1.2695
 6255SOL    HW230399   0.072   0.495   2.511  0.5918  1.7714  1.3027
 6256SOL     OW30400   4.384   4.354   1.585  0.0423 -0.1365 -0.2949
 6256SOL    HW130401   4.410   4.315   1.668  1.1420 -1.9553 -1.4977
 6256SOL    HW230402   4.426   4.292   1.525 -2.7544 -1.5235 -0.7833
 6257SOL     OW30403   2.238   2.320   3.521 -0.0500  0.1303 -0.1073
 6257SOL    HW130404   2.156   2.287   3.483 -0.2696  0.4204  0.1091
 6257SOL    HW230405   2.306   2.262   3.489 -0.8913 -1.7911  1.5756
 6258SOL     OW30406   1.222   1.014   6.666 -0.0182  0.1289 -0.2962
 6258SOL    HW130407   1.237   1.020   6.571 -0.5523 -0.7039 -0.4344
 6258SOL    HW230408   1.277   1.081   6.705  0.4075  0.0520 -0.7623
 6259SOL     OW30409   2.358   0.811   2.560 -0.3726 -0.2760 -0.1841
 6259SOL    HW130410   2.349   0.853   2.645  0.2859 -2.4669  0.9773
 6259SOL    HW230411   2.407   0.731   2.580 -0.9416 -0.6824 -0.3985
 6260SOL     OW30412   4.139   1.741   3.069 -0.2746 -0.2662 -0.4274
 6260SOL    HW130413   4.223   1.787   3.068 -1.1051  1.2604 -0.3442
 6260SOL    HW230414   4.081   1.806   3.028  0.6297  0.4821 -0.5368
 6261SOL     OW30415   0.484   2.121   5.972 -0.3595 -0.5118  0.3038
 6261SOL    HW130416   0.416   2.108   6.038 -0.9359  1.2370  0.0557
 6261SOL    HW230417   0.512   2.034   5.944  1.2047  0.5611 -1.4644
 6262SOL     OW30418   3.256   2.263   5.949  0.4786 -0.3149  0.2921
 6262SOL    HW130419   3.348   2.242   5.933  0.2813  1.2420 -2.9371
 6262SOL    HW230420   3.215   2.260   5.862 -1.7897 -0.3046  1.3673
 6263SOL     OW30421   1.409   2.603   2.347  0.0966  0.2088 -0.1129
 6263SOL    HW130422   1.500   2.577   2.356 -0.0999 -0.8633 -1.2341
 6263SOL    HW230423   1.411   2.698   2.345  1.3990  0.1525 -0.9923
 6264SOL     OW30424   1.381   2.884  12.095  0.3359  0.0408  0.0950
 6264SOL    HW130425   1.448   2.818  12.114  1.7148  1.3752 -0.1552
 6264SOL    HW230426   1.322   2.879  12.171  0.1884  0.7802  0.0210
 6265SOL     OW30427   0.229   1.587  14.397  0.5791 -0.1035  0.4542
 6265SOL    HW130428   0.165   1.658  14.397  2.2225  1.3626 -1.6475
 6265SOL    HW230429   0.247   1.586  14.491 -0.9387 -0.8470  0.7293
 6266SOL     OW30430   1.083   0.156   8.621  0.1751 -0.7200 -0.1464
 6266SOL    HW130431   1.081   0.220   8.550  2.0164 -1.6210 -1.0067
 6266SOL    HW230432   1.160   0.105   8.595  1.2966  1.0161 -0.2333
 6267SOL     OW30433   0.298   2.839   4.904  0.1858 -0.5558 -0.5305
 6267SOL    HW130434   0.296   2.747   4.878  0.2441 -1.3226  2.1669
 6267SOL    HW230435   0.301   2.883   4.820 -2.5213  0.6768  0.0324
 6268SOL     OW30436   4.183   2.541   2.330  0.2940  0.2498 -0.3770
 6268SOL    HW130437   4.255   2.515   2.272  0.3432 -3.2856  1.2441
 6268SOL    HW230438   4.139   2.613   2.286 -0.3456  0.4157  0.5297
 6269SOL     OW30439   3.996   2.124   6.486  0.2316  0.3112 -0.2041
 6269SOL    HW130440   3.992   2.096   6.577 -0.4965  1.2974  0.0786
 6269SOL    HW230441   3.934   2.197   6.490  0.4843  0.7010 -3.2767
 6270SOL     OW30442   4.282   1.380   8.022 -0.0352 -0.2242 -0.0283
 6270SOL    HW130443   4.266   1.467   7.986 -2.1221 -1.0123 -0.9945
 6270SOL    HW230444   4.371   1.394   8.054 -0.7295  1.2706  1.2236
 6271SOL     OW30445   2.000   0.354   6.381  0.0390  0.3756  0.1814
 6271SOL    HW130446   2.091   0.382   6.370  0.2454 -0.5127 -0.3613
 6271SOL    HW230447   1.998   0.259   6.371 -1.8478  0.1457  2.7394
 6272SOL     OW30448   1.605   1.038   4.153 -0.5953  0.2020  0.0418
 6272SOL    HW130449   1.674   1.045   4.087 -2.1303 -2.4469 -1.8372
 6272SOL    HW230450   1.627   0.952   4.190  0.1117  0.4290  0.1420
 6273SOL     OW30451   2.055   2.161  15.869 -0.4787 -0.1426  0.3735
 6273SOL    HW130452   1.999   2.110  15.927 -0.8232  0.4828  0.5837
 6273SOL    HW230453   2.015   2.145  15.783 -1.9441 -2.1749  1.4426
 6274SOL     OW30454   3.509   3.963   2.453  0.5291  0.1797  0.0386
 6274SOL    HW130455   3.449   4.005   2.514 -0.9123 -4.3765  1.7454
 6274SOL    HW230456   3.447   3.924   2.391 -1.7697 -0.3928  2.7027
 6275SOL     OW30457   2.565   2.130   7.159  0.1630  0.2774  0.1862
 6275SOL    HW130458   2.471   2.122   7.146  0.0189 -1.3444  2.1043
 6275SOL    HW230459   2.594   2.041   7.178  0.0615 -0.3005 -2.3701
 6276SOL     OW30460   2.927   2.803  12.605  1.2539  0.0493  0.5969
 6276SOL    HW130461   2.893   2.783  12.692  1.9291 -1.9400  0.4110
 6276SOL    HW230462   2.850   2.781  12.553  1.7743  1.2552 -0.6830
 6277SOL     OW30463   3.692   4.660   4.671  0.0684 -0.1839  0.1397
 6277SOL    HW130464   3.719   4.589   4.729 -0.4441 -0.2550  0.2953
 6277SOL    HW230465   3.721   4.618   4.590 -3.1029 -0.8696 -0.6221
 6278SOL     OW30466   0.312   0.440   9.706  0.6101 -0.3791 -0.7254
 6278SOL    HW130467   0.259   0.498   9.651  1.4264 -0.1355 -1.2766
 6278SOL    HW230468   0.378   0.410   9.642 -0.0722 -0.2334 -1.4934
 6279SOL     OW30469   2.476   1.161   0.450  0.2790  0.8963 -0.4521
 6279SOL    HW130470   2.510   1.150   0.539 -0.1636 -1.0348 -0.5165
 6279SOL    HW230471   2.535   1.225   0.410 -0.2764  1.8537  0.2468
 6280SOL     OW30472   3.343   4.615   2.841  0.3230  0.0363  0.3146
 6280SOL    HW130473   3.249   4.632   2.830  0.8472  2.7014 -0.1068
 6280SOL    HW230474   3.361   4.708   2.824 -1.7967  0.0456 -1.8687
 6281SOL     OW30475   3.631   3.241  12.247  0.4806  0.0286 -0.1518
 6281SOL    HW130476   3.571   3.297  12.296  2.3130  2.1954 -0.3493
 6281SOL    HW230477   3.661   3.174  12.309  4.1724 -0.1233 -2.0696
 6282SOL     OW30478   3.358   3.784  12.272  0.2216 -0.0877 -0.1549
 6282SOL    HW130479   3.296   3.849  12.240 -0.0340  0.7637  2.0634
 6282SOL    HW230480   3.337   3.710  12.214 -0.5527  1.3320 -1.6695
 6283SOL     OW30481   3.899   1.610   6.349 -0.2330  0.0229  0.2617
 6283SOL    HW130482   3.804   1.602   6.339  0.2990 -3.5652 -1.9977
 6283SOL    HW230483   3.916   1.525   6.389 -1.0720 -0.8432 -1.2402
 6284SOL     OW30484   0.015   4.659   9.274  0.0244 -0.0533  0.3048
 6284SOL    HW130485   0.076   4.698   9.211 -0.2016 -0.2184 -0.0129
 6284SOL    HW230486   4.679   4.723   9.271  0.0400  0.0822  3.1084
 6285SOL     OW30487   2.834   3.209   6.840 -0.3137  0.2614 -0.6681
 6285SOL    HW130488   2.745   3.220   6.809  0.1064  4.3335 -0.4017
 6285SOL    HW230489   2.833   3.296   6.880  0.6678  0.0147 -0.1008
 6286SOL     OW30490   2.283   4.585   2.213 -0.2737  0.4754 -0.0376
 6286SOL    HW130491   2.231   4.641   2.156 -0.6161  0.0115 -0.1768
 6286SOL    HW230492   2.368   4.629   2.206  0.5793 -1.0504  0.7732
 6287SOL     OW30493   4.520   3.846   0.260  0.0735  0.2469  0.6498
 6287SOL    HW130494   4.532   3.908   0.189  0.1504 -0.2725  0.2100
 6287SOL    HW230495   4.443   3.794   0.236 -0.6409  1.3781  0.5050
 6288SOL     OW30496   3.036   2.038   5.333  0.3544  0.0420 -0.2370
 6288SOL    HW130497   3.103   2.097   5.367  0.3845 -0.4903  0.6208
 6288SOL    HW230498   2.965   2.075   5.386  0.3498 -1.7237  0.9811
 6289SOL     OW30499   4.490   1.203   6.545  0.0962 -0.9524  0.2094
 6289SOL    HW130500   4.445   1.186   6.462 -1.1233 -0.5841  0.7993
 6289SOL    HW230501   4.463   1.294   6.558 -0.0617 -0.9734  0.0385
 6290SOL     OW30502   2.777   2.843  12.836 -0.2834 -0.4104 -0.0016
 6290SOL    HW130503   2.689   2.852  12.875  0.3633  0.5307  1.2525
 6290SOL    HW230504   2.808   2.934  12.841 -0.8829 -0.2464  0.8473
 6291SOL     OW30505   3.351   2.476  17.026  0.1320 -0.1127 -0.1959
 6291SOL    HW130506   3.425   2.417  17.015 -1.1195 -1.9535  1.2996
 6291SOL    HW230507   3.304   2.449  17.105  0.6232  2.2072  0.9102
 6292SOL     OW30508   0.476   1.547   8.089  0.3111  0.6277 -0.1553
 6292SOL    HW130509   0.556   1.546   8.141  0.9097  0.1920 -1.0913
 6292SOL    HW230510   0.504   1.616   8.029 -2.2085  0.2521 -1.7461
 6293SOL     OW30511   2.620   0.945  10.654  0.7311 -0.0483 -0.2393
 6293SOL    HW130512   2.558   0.910  10.589 -1.1108  0.8687  1.0215
 6293SOL    HW230513   2.571   0.922  10.733  0.6387  1.1673  0.0508
 6294SOL     OW30514   0.442   4.678  16.750 -0.1043  1.0777  0.6036
 6294SOL    HW130515   0.442   4.582  16.761  0.0623  1.1095  0.9042
 6294SOL    HW230516   0.510   4.678  16.683  0.6438  0.9097  1.3521
 6295SOL     OW30517   0.749   1.677   5.624  0.2050  0.3261 -0.2799
 6295SOL    HW130518   0.703   1.595   5.645 -2.0983  1.2320 -1.7272
 6295SOL    HW230519   0.678   1.740   5.638 -0.0747 -0.0529  0.0160
 6296SOL     OW30520   3.420   1.039  13.291 -0.8590 -0.3626  0.1960
 6296SOL    HW130521   3.508   1.038  13.253 -0.9389 -0.6127  0.0224
 6296SOL    HW230522   3.375   0.971  13.242  0.1349 -1.2306  0.4948
 6297SOL     OW30523   4.424   3.679  15.236 -0.0173  0.5998 -0.5524
 6297SOL    HW130524   4.442   3.773  15.232 -0.2819  0.6705 -0.0406
 6297SOL    HW230525   4.348   3.671  15.177  0.5004 -0.2963 -1.0913
 6298SOL     OW30526   4.734   0.503   2.017  0.0693  0.2213 -0.0621
 6298SOL    HW130527   0.045   0.452   2.084  0.7371 -1.8464 -2.1377
 6298SOL    HW230528   4.679   0.560   2.071 -0.4405  1.3558 -1.7969
 6299SOL     OW30529   1.821   0.772   3.184 -0.8605  0.0686 -0.4430
 6299SOL    HW130530   1.865   0.745   3.265  0.0613  0.9502 -0.6541
 6299SOL    HW230531   1.760   0.699   3.174 -0.6405 -0.1544 -0.1631
 6300SOL     OW30532   2.458   3.057   6.053 -0.1168  0.0906  0.1029
 6300SOL    HW130533   2.483   2.968   6.080 -0.0293  0.1564  0.2394
 6300SOL    HW230534   2.402   3.031   5.980  1.1087 -1.6241 -0.2347
 6301SOL     OW30535   4.414   0.316   6.109 -0.5224 -0.2758 -0.4031
 6301SOL    HW130536   4.375   0.322   6.196 -0.2948  0.9992 -0.3904
 6301SOL    HW230537   4.376   0.397   6.074  2.8643  1.2879 -0.3987
 6302SOL     OW30538   4.697   1.789   1.662  0.2841 -0.5362  0.2047
 6302SOL    HW130539   4.711   1.880   1.689  0.0668 -0.7079  0.8932
 6302SOL    HW230540   0.029   1.771   1.596 -1.1022  0.5092 -1.4898
 6303SOL     OW30541   4.558   2.871   9.707 -0.0111  0.2557  0.7657
 6303SOL    HW130542   4.579   2.869   9.613 -1.1608 -1.2090  0.5440
 6303SOL    HW230543   4.464   2.853   9.709 -0.0957  0.6759  0.4522
 6304SOL     OW30544   2.081   2.023   4.254 -0.2224  0.0346  0.8223
 6304SOL    HW130545   2.138   1.978   4.316  2.7052 -0.0445 -1.9423
 6304SOL    HW230546   2.001   2.027   4.306  0.1450  2.3286  1.1687
 6305SOL     OW30547   1.849   3.973   7.907 -0.0598 -0.3694 -0.5728
 6305SOL    HW130548   1.770   4.021   7.933  0.0289 -1.7885  2.3208
 6305SOL    HW230549   1.836   3.981   7.812 -2.2205 -0.7680 -0.3141
 6306SOL     OW30550   4.725   2.382   2.978 -0.0531 -0.4302 -0.0249
 6306SOL    HW130551   0.039   2.372   3.060  1.0034  0.2654 -0.5684
 6306SOL    HW230552   4.693   2.472   2.980  1.7162  0.1961  0.2690
 6307SOL     OW30553   4.481   4.486   5.628 -0.7043 -0.1502 -0.1015
 6307SOL    HW130554   4.448   4.563   5.582 -1.6555  0.0924  0.9773
 6307SOL    HW230555   4.418   4.423   5.594  0.3563 -1.4900  0.4234
 6308SOL     OW30556   2.918   4.069  17.384 -0.0707 -0.3535  0.1855
 6308SOL    HW130557   2.877   4.123  17.452  0.3914 -2.8609  2.4262
 6308SOL    HW230558   2.858   4.082  17.311 -1.6554 -1.1045  1.3663
 6309SOL     OW30559   3.734   3.326   4.942 -0.0961 -0.8129  0.7541
 6309SOL    HW130560   3.718   3.232   4.952  0.2359 -1.0942 -1.5057
 6309SOL    HW230561   3.812   3.331   4.886 -1.2137 -0.6364 -0.7737
 6310SOL     OW30562   4.337   1.933   4.720 -0.6300 -0.7740 -0.2861
 6310SOL    HW130563   4.287   1.897   4.647  0.2668 -0.0832 -1.2381
 6310SOL    HW230564   4.376   2.011   4.680 -1.5675  0.0529  0.4009
 6311SOL     OW30565   1.904   0.863   5.952  0.0677 -0.2184  0.2438
 6311SOL    HW130566   1.810   0.869   5.969  0.0282 -1.4261  0.4493
 6311SOL    HW230567   1.942   0.870   6.040 -0.0926  4.3313 -0.0603
 6312SOL     OW30568   1.004   3.122  10.773 -0.3700  0.0513 -0.4838
 6312SOL    HW130569   1.055   3.042  10.764 -0.9082 -0.1945 -1.3975
 6312SOL    HW230570   1.068   3.191  10.751 -0.7581  1.2421  2.1642
 6313SOL     OW30571   0.471   1.065  17.681 -0.3761 -0.3824  0.3385
 6313SOL    HW130572   0.409   1.036  17.614  3.0926 -0.8418 -2.6915
 6313SOL    HW230573   0.453   1.158  17.690 -1.1492 -0.6652  1.6628
 6314SOL     OW30574   0.273   0.025   0.037  0.5413  0.2447  0.0192
 6314SOL    HW130575   0.305   4.694  17.717 -1.6039 -0.7993  0.0105
 6314SOL    HW230576   0.276   0.096  17.713 -0.2594  0.2493 -0.0163
 6315SOL     OW30577   2.656   3.006   9.412  0.0501  0.3635 -0.1048
 6315SOL    HW130578   2.596   3.028   9.341  0.2574  3.0323  0.5315
 6315SOL    HW230579   2.720   3.077   9.408  0.4665 -0.0776 -1.1590
 6316SOL     OW30580   2.596   0.640   7.359  0.4007 -0.0544  0.2264
 6316SOL    HW130581   2.600   0.555   7.316  0.0076  0.0644 -0.0443
 6316SOL    HW230582   2.568   0.617   7.447  1.5244  2.8150  1.3444
 6317SOL     OW30583   3.596   4.598   8.620  0.1153 -0.1422 -0.4490
 6317SOL    HW130584   3.670   4.651   8.591 -0.7318  0.1817 -1.9976
 6317SOL    HW230585   3.602   4.524   8.560 -0.7857  0.7668 -1.6484
 6318SOL     OW30586   0.057   0.457   3.850  0.5527 -0.1575 -0.0958
 6318SOL    HW130587   4.716   0.419   3.892 -0.4469 -0.1364 -1.8628
 6318SOL    HW230588   0.061   0.389   3.782 -0.6238 -0.1794 -0.1268
 6319SOL     OW30589   4.410   2.162  17.353  0.5858 -0.5815 -0.3349
 6319SOL    HW130590   4.424   2.094  17.419  0.0343  0.4550  0.8391
 6319SOL    HW230591   4.447   2.120  17.275 -0.2672 -0.9920 -0.5222
 6320SOL     OW30592   1.875   3.559   3.822 -0.1378 -0.0654  0.2645
 6320SOL    HW130593   1.858   3.471   3.789  2.3162 -1.0054  1.5614
 6320SOL    HW230594   1.803   3.597   3.771  1.6026  0.6814 -1.6306
 6321SOL     OW30595   1.955   2.882   2.819  0.0652 -0.3651 -0.4481
 6321SOL    HW130596   1.982   2.790   2.821  0.3973 -0.2708 -0.5037
 6321SOL    HW230597   1.888   2.889   2.887 -0.3814 -0.7638 -0.8516
 6322SOL     OW30598   4.025   4.702  10.006  0.0206  0.5686  0.3249
 6322SOL    HW130599   3.982   0.048   9.981  1.0393  1.6471  2.0683
 6322SOL    HW230600   4.066   4.723  10.090 -2.7660  0.6944  1.6326
 6323SOL     OW30601   3.354   3.405   4.060  0.3401 -0.1368  0.0668
 6323SOL    HW130602   3.331   3.497   4.075 -0.1289  0.0939 -2.0679
 6323SOL    HW230603   3.269   3.363   4.073 -0.3435  0.9043 -0.9906
 6324SOL     OW30604   3.208   4.463  10.312 -0.0059 -0.3893 -0.5583
 6324SOL    HW130605   3.155   4.521  10.367  2.9609  1.4050  0.3774
 6324SOL    HW230606   3.275   4.522  10.278 -2.1290  1.8421 -0.8908
 6325SOL     OW30607   1.103   4.349   8.554  0.3564 -0.7659  0.5274
 6325SOL    HW130608   1.171   4.375   8.492  0.0246 -0.5767  0.2442
 6325SOL    HW230609   1.153   4.344   8.635 -0.9266  2.6039  1.5009
 6326SOL     OW30610   4.153   2.718   7.578  0.0604  1.0989  0.4599
 6326SOL    HW130611   4.201   2.663   7.640  1.2206  0.2741 -1.1709
 6326SOL    HW230612   4.085   2.753   7.636 -0.9687  0.0673 -0.1183
 6327SOL     OW30613   2.202   2.798   9.685  0.1813  0.4984  0.0175
 6327SOL    HW130614   2.176   2.885   9.718  1.1107  1.3793 -1.5574
 6327SOL    HW230615   2.289   2.821   9.652 -0.7705  1.8045 -1.5754
 6328SOL     OW30616   4.026   1.652  16.416  0.4403 -0.0031  0.2065
 6328SOL    HW130617   3.984   1.685  16.336 -0.3528 -0.0074  0.6150
 6328SOL    HW230618   3.978   1.702  16.482  1.4043 -0.0203  0.9060
 6329SOL     OW30619   3.097   3.119   5.121 -0.4577 -0.0686 -0.3932
 6329SOL    HW130620   3.031   3.049   5.119 -0.7245  0.1736  0.1491
 6329SOL    HW230621   3.126   3.110   5.212  0.2455  1.8068 -0.4465
 6330SOL     OW30622   1.818   1.191   7.253  0.4248 -0.2093  0.2539
 6330SOL    HW130623   1.756   1.230   7.313  1.2238 -0.5823  1.3295
 6330SOL    HW230624   1.786   1.190   7.163 -0.3394  0.2257  0.5277
 6331SOL     OW30625   3.128   2.136  12.637  1.0870  0.2813 -0.2788
 6331SOL    HW130626   3.182   2.062  12.665  0.5191 -0.3046 -0.7442
 6331SOL    HW230627   3.080   2.152  12.718  1.6462  1.0246 -0.0912
 6332SOL     OW30628   4.298   1.853   2.748  0.5430 -0.1750  0.1008
 6332SOL    HW130629   4.363   1.805   2.801  0.0888  0.4159  1.1936
 6332SOL    HW230630   4.239   1.781   2.727  0.2440 -0.4418  1.8630
 6333SOL     OW30631   2.216   1.369  14.973 -0.2994  0.0818 -0.1036
 6333SOL    HW130632   2.269   1.443  14.943  1.4231 -1.0439  0.1314
 6333SOL    HW230633   2.228   1.308  14.900  0.3404 -0.2271  0.2544
 6334SOL     OW30634   4.355   2.919   4.088  0.7378 -0.0827 -0.2010
 6334SOL    HW130635   4.413   2.934   4.163 -0.9752  0.7110  0.9770
 6334SOL    HW230636   4.402   2.843   4.054 -0.5524 -1.7906  1.7910
 6335SOL     OW30637   3.689   2.023   3.325 -0.1564 -0.2936  0.3559
 6335SOL    HW130638   3.695   2.095   3.262  1.8100 -0.5825  0.2214
 6335SOL    HW230639   3.768   1.977   3.299 -1.0117 -0.4701 -1.9184
 6336SOL     OW30640   3.204   0.317  11.590 -0.2383 -0.7741 -0.2687
 6336SOL    HW130641   3.297   0.319  11.565 -0.6652  3.5420 -1.6277
 6336SOL    HW230642   3.191   0.223  11.603 -2.5503 -0.5890 -1.2815
 6337SOL     OW30643   2.566   4.278  15.205  0.4418 -0.1387 -0.6479
 6337SOL    HW130644   2.628   4.205  15.212  3.0018  2.0520 -0.4791
 6337SOL    HW230645   2.520   4.263  15.287 -0.0066 -0.0118 -0.8796
 6338SOL     OW30646   1.352   1.931   7.667  0.2012  0.6143 -0.0975
 6338SOL    HW130647   1.370   1.916   7.574  0.2198 -1.6317  0.2733
 6338SOL    HW230648   1.308   1.852   7.700  1.2094 -0.3645 -1.0755
 6339SOL     OW30649   3.563   2.947   3.746 -1.0451 -0.5720 -0.2868
 6339SOL    HW130650   3.513   2.933   3.826 -0.9771 -1.0355 -0.3298
 6339SOL    HW230651   3.570   3.043   3.741 -0.1422 -0.6349 -0.2286
 6340SOL     OW30652   4.412   1.375   4.479  0.2760 -0.6626  0.4041
 6340SOL    HW130653   4.345   1.444   4.474  0.0811 -0.7760  1.3805
 6340SOL    HW230654   4.492   1.426   4.489 -0.6969  0.7471  1.0687
 6341SOL     OW30655   1.230   1.712   7.824  0.1778  0.0903  0.5332
 6341SOL    HW130656   1.287   1.639   7.800 -0.0195  1.0979 -2.9413
 6341SOL    HW230657   1.243   1.730   7.918  0.0779 -2.1574  0.9804
 6342SOL     OW30658   3.790   2.598   1.652  0.4744 -0.2502 -0.1783
 6342SOL    HW130659   3.699   2.626   1.644  0.5535  0.4192  1.2971
 6342SOL    HW230660   3.833   2.659   1.591 -0.4434 -0.7051 -1.2776
 6343SOL     OW30661   2.200   1.168   5.785 -0.4487 -0.1676 -0.6476
 6343SOL    HW130662   2.227   1.094   5.840  0.5339  0.4648 -0.2823
 6343SOL    HW230663   2.138   1.216   5.839  0.2226 -3.1703  2.7985
 6344SOL     OW30664   3.661   4.306   7.579  0.3289 -0.3642  0.7571
 6344SOL    HW130665   3.734   4.280   7.635 -0.2091 -2.6089  0.4100
 6344SOL    HW230666   3.697   4.391   7.553  0.6299 -0.5469  0.5784
 6345SOL     OW30667   1.816   2.750   8.339 -0.5782 -0.1795 -1.1028
 6345SOL    HW130668   1.736   2.776   8.291 -0.4370  1.9560 -0.2070
 6345SOL    HW230669   1.780   2.676   8.388 -0.8328  0.3877 -0.4365
 6346SOL     OW30670   1.804   4.575   5.303 -0.1397  0.1797  0.4768
 6346SOL    HW130671   1.874   4.586   5.367  0.9409 -1.0657 -0.4944
 6346SOL    HW230672   1.830   4.639   5.237  0.5277 -1.0433 -0.4337
 6347SOL     OW30673   1.059   2.924   7.292  0.0798 -0.2944 -0.1760
 6347SOL    HW130674   1.055   3.012   7.253  1.2688  0.4944  1.4894
 6347SOL    HW230675   1.055   2.941   7.386 -0.6247  1.9249 -0.6152
 6348SOL     OW30676   1.150   0.872   1.823 -0.1772 -0.0753 -0.1071
 6348SOL    HW130677   1.088   0.850   1.893 -0.2772  0.6119  0.0181
 6348SOL    HW230678   1.121   0.957   1.791  1.8213  0.8095  0.4187
 6349SOL     OW30679   1.118   4.515   7.738  0.5551 -0.0608  0.1516
 6349SOL    HW130680   1.146   4.594   7.691 -0.0399 -0.1725 -0.3860
 6349SOL    HW230681   1.048   4.477   7.685  1.3965 -2.4897  0.7734
 6350SOL     OW30682   3.728   3.364   7.845  0.1818  0.1414 -0.1456
 6350SOL    HW130683   3.719   3.376   7.751  1.6257  1.0554 -0.1636
 6350SOL    HW230684   3.785   3.287   7.859 -0.2012 -0.1728 -0.3264
 6351SOL     OW30685   3.174   4.694  12.625 -0.0705 -0.3427 -0.0119
 6351SOL    HW130686   3.100   4.635  12.613 -0.3261  0.1616 -0.8929
 6351SOL    HW230687   3.153   0.030  12.565  2.3414  1.0224  0.7697
 6352SOL     OW30688   0.993   4.720   6.091 -0.7111  0.2521  0.3025
 6352SOL    HW130689   0.979   0.077   6.110 -0.9711  0.4324 -0.7394
 6352SOL    HW230690   1.055   4.695   6.159  0.1684  2.5613  0.3494
 6353SOL     OW30691   2.562   1.520   0.193 -0.2818 -0.1297 -0.2973
 6353SOL    HW130692   2.579   1.575   0.269  3.8057 -2.0645  0.2388
 6353SOL    HW230693   2.511   1.572   0.131 -0.9327 -2.7650 -2.0167
 6354SOL     OW30694   4.390   2.724   9.367 -0.2211 -0.0621 -0.4055
 6354SOL    HW130695   4.315   2.721   9.307 -0.2400  0.9069 -0.4186
 6354SOL    HW230696   4.359   2.775   9.442  0.8644  0.2484 -0.1689
 6355SOL     OW30697   0.739   1.898   6.888  0.0399  0.2203  0.6561
 6355SOL    HW130698   0.737   1.987   6.924  0.7966  0.5653 -0.1698
 6355SOL    HW230699   0.771   1.903   6.798  0.6248  0.1349  0.8555
 6356SOL     OW30700   1.056   1.564   3.889  0.2720 -0.3674 -0.6592
 6356SOL    HW130701   0.984   1.611   3.931  0.9817  0.6687 -0.6086
 6356SOL    HW230702   1.091   1.530   3.972  0.4153  1.1950 -0.0803
 6357SOL     OW30703   0.943   3.226  16.278 -0.3089  0.2140  0.0708
 6357SOL    HW130704   0.965   3.134  16.287  2.0692  0.8789  1.1528
 6357SOL    HW230705   1.024   3.270  16.306 -0.7035  0.4589  0.8289
 6358SOL     OW30706   4.450   1.819   9.244  0.0181  1.0861  0.2612
 6358SOL    HW130707   4.546   1.824   9.247 -0.0212  1.9148  0.1523
 6358SOL    HW230708   4.432   1.808   9.337  0.1873 -1.0928  0.0447
 6359SOL     OW30709   1.360   2.760   3.635 -0.1902 -0.3265  0.6421
 6359SOL    HW130710   1.306   2.757   3.713 -0.0814 -2.9489  0.5965
 6359SOL    HW230711   1.407   2.836   3.669 -0.6047  0.8812 -1.4625
 6360SOL     OW30712   4.148   3.384   8.936  0.5231  0.1961 -0.0328
 6360SOL    HW130713   4.168   3.301   8.979 -1.9821 -0.4966 -0.2444
 6360SOL    HW230714   4.140   3.447   9.008  0.5730  0.9154 -0.6637
 6361SOL     OW30715   2.736   1.443  16.118 -0.2802 -0.3440  0.0164
 6361SOL    HW130716   2.794   1.373  16.089  0.7744  0.4149  0.2860
 6361SOL    HW230717   2.666   1.437  16.053 -0.2490  2.6968 -0.3170
 6362SOL     OW30718   1.875   3.322   6.320 -0.3734 -0.9011 -0.2906
 6362SOL    HW130719   1.785   3.324   6.290 -0.0119 -0.3993 -1.3498
 6362SOL    HW230720   1.875   3.393   6.384  0.6932 -1.5623  0.4529
 6363SOL     OW30721   0.048   1.764   5.125  0.2862 -0.0705  0.3879
 6363SOL    HW130722   0.090   1.705   5.186  1.1517 -0.1518 -0.2959
 6363SOL    HW230723   0.126   1.810   5.094  1.1885 -2.3236 -0.6832
 6364SOL     OW30724   3.927   1.061   8.854  0.0779  0.0270  0.4543
 6364SOL    HW130725   4.012   1.101   8.843 -0.1165  0.1785 -0.4521
 6364SOL    HW230726   3.871   1.135   8.831 -1.5306 -1.5467 -0.6771
 6365SOL     OW30727   4.705   2.299   5.865 -0.7716  0.6595 -0.7346
 6365SOL    HW130728   4.612   2.301   5.887 -0.2711  0.0119  1.3756
 6365SOL    HW230729   4.721   2.216   5.820 -0.7161  0.0425  0.4290
 6366SOL     OW30730   3.278   0.166   9.136  0.3392 -0.0890 -0.2647
 6366SOL    HW130731   3.286   0.256   9.168 -1.4330 -1.4766  4.0018
 6366SOL    HW230732   3.328   0.112   9.197 -0.2337 -0.1925  0.1016
 6367SOL     OW30733   3.883   0.331   3.903 -0.2359  0.3410  0.5147
 6367SOL    HW130734   3.931   0.319   3.821 -0.3047 -3.8114  1.0902
 6367SOL    HW230735   3.947   0.376   3.959 -0.2498  2.3835 -1.1105
 6368SOL     OW30736   2.680   0.055   8.232  0.1661 -0.2254 -0.5614
 6368SOL    HW130737   2.753   0.086   8.285 -1.8990  0.3298  1.9467
 6368SOL    HW230738   2.713   4.727   8.168  1.3872 -0.1883  0.0286
 6369SOL     OW30739   4.735   0.392   4.212  0.1205 -0.0305 -0.2826
 6369SOL    HW130740   4.732   0.347   4.297  0.9246  1.2444  0.4223
 6369SOL    HW230741   0.095   0.400   4.204 -0.0155  2.2359  0.4855
 6370SOL     OW30742   4.389   1.104   1.630  0.2039 -0.1203 -0.4403
 6370SOL    HW130743   4.431   1.029   1.671  1.4017  0.1346 -1.2063
 6370SOL    HW230744   4.300   1.094   1.664  0.6777  0.1833  0.8780
 6371SOL     OW30745   1.133   4.236  14.896 -0.5700 -0.0811 -0.3968
 6371SOL    HW130746   1.214   4.218  14.847  0.0017  1.1536  0.0892
 6371SOL    HW230747   1.168   4.212  14.982 -1.7192  0.8752  0.3214
 6372SOL     OW30748   4.011   1.392   4.005  0.3941  0.0737  0.0284
 6372SOL    HW130749   3.918   1.415   4.009 -0.2207 -2.3488 -0.2065
 6372SOL    HW230750   4.002   1.301   3.976  0.3880 -0.4760  1.8048
 6373SOL     OW30751   2.096   4.385   5.664 -0.5961  0.3164  0.0114
 6373SOL    HW130752   2.045   4.360   5.587  0.6583  2.3610 -1.4796
 6373SOL    HW230753   2.178   4.380   5.614  0.0719 -0.0623  1.1610
 6374SOL     OW30754   0.564   2.764   4.633  0.3187  0.1743 -0.2424
 6374SOL    HW130755   0.560   2.845   4.583  3.0951  0.6843  0.3717
 6374SOL    HW230756   0.510   2.706   4.580  0.8161 -1.3026  0.8771
 6375SOL     OW30757   3.796   4.515   9.792 -0.2826 -0.4114  0.5076
 6375SOL    HW130758   3.794   4.438   9.850  0.2110  0.4164  1.6193
 6375SOL    HW230759   3.736   4.570   9.842  0.2025  0.7404 -0.1802
 6376SOL     OW30760   0.661   0.517   5.872  0.8265 -0.8117 -0.4451
 6376SOL    HW130761   0.721   0.460   5.920  1.9799  2.4065  1.9553
 6376SOL    HW230762   0.632   0.446   5.815 -1.8887 -2.1066  2.5633
 6377SOL     OW30763   2.836   2.152   5.454 -0.4935  0.0562 -0.0749
 6377SOL    HW130764   2.755   2.121   5.414 -0.3424  0.8898 -1.0091
 6377SOL    HW230765   2.813   2.220   5.518 -1.1758  2.0342 -2.4432
 6378SOL     OW30766   3.724   3.555   9.400  0.4682  0.1887  0.1518
 6378SOL    HW130767   3.630   3.538   9.401  0.6664 -1.1936 -2.2341
 6378SOL    HW230768   3.755   3.482   9.453  0.4281 -0.5251 -0.8033
 6379SOL     OW30769   1.850   4.015   8.230 -0.1561  0.0607  0.4035
 6379SOL    HW130770   1.820   3.925   8.221 -1.0603  0.1640  2.5064
 6379SOL    HW230771   1.862   4.047   8.140 -1.9687 -1.8396 -0.5231
 6380SOL     OW30772   1.980   1.725   4.581 -0.8355  0.1752  0.7784
 6380SOL    HW130773   2.034   1.745   4.658 -1.9867 -0.4134  1.7450
 6380SOL    HW230774   1.890   1.736   4.612 -1.9288  0.3490 -2.4731
 6381SOL     OW30775   4.049   1.093   5.838  0.0680 -0.0278 -0.0956
 6381SOL    HW130776   3.963   1.084   5.796 -0.5342  1.5656  0.7685
 6381SOL    HW230777   4.070   1.000   5.838 -1.1797 -0.3170 -0.7246
 6382SOL     OW30778   4.103   4.180   6.369  0.0672 -0.0781 -0.6166
 6382SOL    HW130779   4.159   4.218   6.301  2.2495 -3.1696 -0.5257
 6382SOL    HW230780   4.022   4.227   6.350 -1.2270 -2.3340 -0.6452
 6383SOL     OW30781   2.576   2.159   1.286  0.5601  0.6482  0.1064
 6383SOL    HW130782   2.624   2.143   1.368 -2.5347 -1.3364  1.5072
 6383SOL    HW230783   2.555   2.252   1.280 -0.1756  0.4439 -0.3463
 6384SOL     OW30784   3.209   1.679   8.394 -0.5815  0.1441 -0.6647
 6384SOL    HW130785   3.134   1.734   8.370 -0.3090  0.3831 -0.9773
 6384SOL    HW230786   3.221   1.712   8.483  0.1963 -1.1625 -0.2897
 6385SOL     OW30787   3.463   1.127   2.744  0.3039  0.2410 -0.2373
 6385SOL    HW130788   3.551   1.155   2.718  0.5179  1.2162  1.5365
 6385SOL    HW230789   3.459   1.060   2.676  0.6840  0.6262 -0.6364
 6386SOL     OW30790   1.180   3.190   7.653  0.7860  0.6288  0.2979
 6386SOL    HW130791   1.239   3.168   7.581 -1.6167 -1.0712 -1.1869
 6386SOL    HW230792   1.099   3.214   7.607 -0.2662 -1.7118  0.9342
 6387SOL     OW30793   2.880   4.500   2.728  0.0558 -0.2867 -0.2980
 6387SOL    HW130794   2.839   4.564   2.671 -0.8256  0.6955  1.4492
 6387SOL    HW230795   2.967   4.537   2.745 -0.3638 -0.0500  1.4090
 6388SOL     OW30796   1.555   4.365  15.863  0.1242  0.3022  0.0134
 6388SOL    HW130797   1.496   4.304  15.909 -0.8823  1.4096  0.2038
 6388SOL    HW230798   1.641   4.325  15.875  0.1831  0.2858 -0.4966
 6389SOL     OW30799   2.552   1.004   4.632 -0.0694  0.2130  0.2130
 6389SOL    HW130800   2.569   0.926   4.578  0.2559  0.5959 -0.2364
 6389SOL    HW230801   2.527   0.959   4.712  1.0456 -1.2671 -0.2703
 6390SOL     OW30802   3.250   2.191   3.186  0.3670  0.2613 -0.3597
 6390SOL    HW130803   3.290   2.189   3.099  1.2114  1.0463  0.0072
 6390SOL    HW230804   3.314   2.134   3.229  1.1127  1.0061 -0.4624
 6391SOL     OW30805   0.433   2.547   1.785 -0.3238  0.4171  0.5235
 6391SOL    HW130806   0.362   2.545   1.849 -0.7383  3.5759  0.1570
 6391SOL    HW230807   0.464   2.458   1.800 -0.3186  0.5514  1.3320
 6392SOL     OW30808   1.162   1.901   8.709  0.5713 -0.1199 -0.4877
 6392SOL    HW130809   1.135   1.988   8.738 -0.3994 -0.5878  0.0125
 6392SOL    HW230810   1.237   1.922   8.654  0.7569  1.6586  0.4522
 6393SOL     OW30811   0.470   3.499   6.841 -0.0603 -0.3344  0.0825
 6393SOL    HW130812   0.456   3.590   6.867  0.7387 -0.6463  1.5978
 6393SOL    HW230813   0.435   3.463   6.922 -1.0605  2.5202  0.9081
 6394SOL     OW30814   2.365   1.462   2.788 -0.6387 -0.1102  0.1904
 6394SOL    HW130815   2.335   1.399   2.854 -1.0066  0.6341  0.7230
 6394SOL    HW230816   2.355   1.411   2.708 -0.6866 -1.8682  1.3064
 6395SOL     OW30817   3.261   3.074  10.218  0.0843 -0.2566 -0.0217
 6395SOL    HW130818   3.261   3.101  10.309  1.6458  0.4408 -0.2340
 6395SOL    HW230819   3.228   2.984  10.223  1.3023 -0.7264 -0.3535
 6396SOL     OW30820   3.948   0.881  12.290  0.3008  0.2503  0.3157
 6396SOL    HW130821   4.030   0.921  12.318  0.1400  0.9286 -0.1970
 6396SOL    HW230822   3.927   0.947  12.224 -1.3421  0.7275  1.3156
 6397SOL     OW30823   3.072   0.934   3.893 -0.2267 -0.2848  0.4052
 6397SOL    HW130824   3.045   1.000   3.956 -0.6256 -3.2620  3.3791
 6397SOL    HW230825   3.138   0.990   3.854 -0.1138 -0.8884 -0.2764
 6398SOL     OW30826   2.465   4.529   6.308  0.2548  0.1444 -0.6525
 6398SOL    HW130827   2.499   4.560   6.392  0.3320 -0.2951 -0.5212
 6398SOL    HW230828   2.476   4.434   6.315 -2.7264 -0.1375 -0.0895
 6399SOL     OW30829   0.492   2.225   2.213 -0.2760 -0.3541  0.2192
 6399SOL    HW130830   0.465   2.316   2.230  0.4348 -0.0980  0.0013
 6399SOL    HW230831   0.571   2.224   2.267 -1.1183  0.8536  1.5006
 6400SOL     OW30832   1.388   1.923   1.759 -0.2469  0.1024  0.0457
 6400SOL    HW130833   1.408   2.016   1.744  1.2717 -0.2889 -0.3425
 6400SOL    HW230834   1.317   1.933   1.823  1.5662  1.3999  1.8601
 6401SOL     OW30835   3.228   0.661   2.559 -0.8720 -0.3660  0.7867
 6401SOL    HW130836   3.246   0.592   2.496  0.4694 -0.0427  0.8104
 6401SOL    HW230837   3.135   0.679   2.549 -0.3955  0.0444 -2.5965
 6402SOL     OW30838   0.465   3.932  12.246  0.5272  0.2300  0.3126
 6402SOL    HW130839   0.400   3.975  12.301  0.6473 -2.2556  2.4353
 6402SOL    HW230840   0.423   3.932  12.160 -1.4725 -0.7691  1.2893
 6403SOL     OW30841   2.859   2.938   4.726 -0.4111  0.1193 -0.0286
 6403SOL    HW130842   2.819   2.870   4.672  0.9306 -0.6764 -0.0032
 6403SOL    HW230843   2.868   3.013   4.667 -0.4478 -1.1273 -1.6320
 6404SOL     OW30844   2.075   3.016   5.456  0.2676 -0.6771 -0.1187
 6404SOL    HW130845   2.001   3.031   5.515  1.5455  2.4029  0.7025
 6404SOL    HW230846   2.129   2.956   5.508 -0.1738 -0.9082  0.0766
 6405SOL     OW30847   2.404   2.882   6.391 -0.6607  0.4199  0.0628
 6405SOL    HW130848   2.381   2.793   6.418  0.1461  0.7194  1.7536
 6405SOL    HW230849   2.319   2.920   6.369  0.3354  1.8212 -1.3368
 6406SOL     OW30850   2.671   4.214   0.410 -0.0118  0.1023  0.0310
 6406SOL    HW130851   2.722   4.208   0.491 -0.7296  4.2185  0.7575
 6406SOL    HW230852   2.740   4.195   0.345 -0.2069 -2.4729  0.5791
 6407SOL     OW30853   1.126   3.385   5.053 -0.2857 -0.1973 -0.2478
 6407SOL    HW130854   1.157   3.406   5.141 -1.6407 -1.8037  0.6121
 6407SOL    HW230855   1.208   3.367   5.006  1.5079  0.1638  2.8024
 6408SOL     OW30856   3.445   4.547   9.971 -0.4845 -0.5708  0.1979
 6408SOL    HW130857   3.439   4.597  10.052 -0.2071 -1.6503  0.8836
 6408SOL    HW230858   3.399   4.468   9.998 -0.4224 -0.1312  1.5633
 6409SOL     OW30859   1.257   2.026  16.227  0.2291 -0.6957 -0.0334
 6409SOL    HW130860   1.210   2.079  16.162  0.6955  0.3175  0.4627
 6409SOL    HW230861   1.190   1.957  16.232 -0.0060 -0.4130  0.7137
 6410SOL     OW30862   2.440   1.980   7.762 -0.0399 -0.1205 -0.4286
 6410SOL    HW130863   2.448   2.007   7.853  0.4504  1.4726 -0.9575
 6410SOL    HW230864   2.412   1.892   7.789 -1.6040 -0.1963 -2.2847
 6411SOL     OW30865   2.580   2.682   1.308 -0.3615  0.4257  0.4680
 6411SOL    HW130866   2.668   2.704   1.276 -0.7854  1.6847  0.1674
 6411SOL    HW230867   2.602   2.683   1.401  0.4928  1.0771  0.2662
 6412SOL     OW30868   1.083   2.225   5.770  0.1365  0.2952 -0.1091
 6412SOL    HW130869   1.140   2.196   5.698  0.9354  0.4566  0.4595
 6412SOL    HW230870   1.059   2.313   5.740 -1.5946 -0.2769 -0.4033
 6413SOL     OW30871   0.854   1.520   2.970  0.1781 -0.1436  0.3577
 6413SOL    HW130872   0.836   1.449   2.908  1.7804 -0.2637  0.0403
 6413SOL    HW230873   0.872   1.596   2.914  1.2742 -1.9940 -1.7955
 6414SOL     OW30874   0.182   2.135  15.760  0.0459 -0.1029 -0.0455
 6414SOL    HW130875   0.187   2.228  15.784  1.1780 -0.1284 -0.1861
 6414SOL    HW230876   0.262   2.132  15.708  0.4709 -2.2774  0.7167
 6415SOL     OW30877   3.049   4.150   5.351 -0.3847 -0.0376  0.2523
 6415SOL    HW130878   2.977   4.198   5.310  0.1562  0.8547  0.3633
 6415SOL    HW230879   3.131   4.185   5.316 -0.2497 -0.7882 -0.1789
 6416SOL     OW30880   0.466   2.057   0.000 -0.1786  0.1460 -0.9170
 6416SOL    HW130881   0.408   2.123  17.702 -0.7570 -1.4630 -2.8166
 6416SOL    HW230882   0.523   2.111   0.055  1.8517 -2.3120 -0.6269
 6417SOL     OW30883   2.318   1.347   8.325  0.1546 -0.1638  0.3785
 6417SOL    HW130884   2.289   1.282   8.260 -2.0354 -0.3343  1.5273
 6417SOL    HW230885   2.392   1.295   8.355 -1.6386 -1.3320  2.7593
 6418SOL     OW30886   2.214   4.279   0.068  0.1548  0.0834 -0.4215
 6418SOL    HW130887   2.169   4.266  17.725 -0.1865 -0.3587 -0.1666
 6418SOL    HW230888   2.299   4.295   0.028  0.0448 -0.3171 -0.8093
 6419SOL     OW30889   1.315   0.262  10.445  0.1312 -0.1954  0.3982
 6419SOL    HW130890   1.252   0.315  10.493 -0.8146 -0.5017 -0.5188
 6419SOL    HW230891   1.378   0.335  10.446 -0.2948  0.1626  0.7248
 6420SOL     OW30892   4.149   1.489   8.700  0.1869 -0.5757 -0.1154
 6420SOL    HW130893   4.055   1.480   8.689  0.0510  0.4280  0.2087
 6420SOL    HW230894   4.174   1.418   8.641 -1.2352 -0.2835 -1.0686
 6421SOL     OW30895   0.247   0.789   2.435 -0.6274 -0.0912 -0.3053
 6421SOL    HW130896   0.256   0.748   2.349 -0.9501 -0.3689 -0.2036
 6421SOL    HW230897   0.290   0.871   2.411  1.5673 -1.1544  0.0391
 6422SOL     OW30898   3.472   3.862   3.294  0.0772  0.0438 -0.1159
 6422SOL    HW130899   3.525   3.924   3.343 -1.4571  0.6522  0.7616
 6422SOL    HW230900   3.502   3.777   3.328  1.6686 -0.0333 -1.7290
 6423SOL     OW30901   0.257   2.328  12.586  0.0903  0.1786 -0.4044
 6423SOL    HW130902   0.177   2.288  12.550 -0.5687 -0.0273  1.2695
 6423SOL    HW230903   0.302   2.352  12.506 -1.5568 -1.7320 -1.8904
 6424SOL     OW30904   1.982   3.100  11.693 -0.2079  0.2510 -0.1551
 6424SOL    HW130905   2.026   3.151  11.761  0.4661  0.2178 -0.5597
 6424SOL    HW230906   2.026   3.015  11.694 -1.2906 -0.3155 -0.2359
 6425SOL     OW30907   3.640   1.420   5.263  0.0194 -0.2852 -0.2465
 6425SOL    HW130908   3.654   1.353   5.196 -2.6211 -0.5318 -0.5506
 6425SOL    HW230909   3.562   1.377   5.298  0.3988 -1.4395 -0.8203
 6426SOL     OW30910   2.783   3.058  12.377 -0.0536  0.0397  0.8090
 6426SOL    HW130911   2.740   3.003  12.443  0.4067  0.1294  1.1833
 6426SOL    HW230912   2.849   3.005  12.332 -1.2244 -0.0426 -0.8289
 6427SOL     OW30913   1.129   4.240  10.066 -0.4941 -0.1239 -0.0011
 6427SOL    HW130914   1.156   4.151  10.085 -0.9681  0.2062  2.2880
 6427SOL    HW230915   1.044   4.211  10.032  0.1958 -1.4941 -0.5389
 6428SOL     OW30916   0.431   4.674   2.943  0.0172 -0.5888 -0.6769
 6428SOL    HW130917   0.400   4.706   3.027 -0.4990  1.3176 -1.5971
 6428SOL    HW230918   0.420   0.010   2.880 -0.7933  2.0404  2.4852
 6429SOL     OW30919   1.167   1.068  13.866  0.5788  0.2854  0.5700
 6429SOL    HW130920   1.215   0.996  13.907  1.2676  0.9223  0.9007
 6429SOL    HW230921   1.149   1.024  13.784 -0.5445 -0.3040  1.1387
 6430SOL     OW30922   4.482   3.094   4.709 -0.5939  0.1878 -0.0410
 6430SOL    HW130923   4.431   3.026   4.752  0.3493 -1.0606 -0.9186
 6430SOL    HW230924   4.479   3.040   4.631  1.4010 -0.9161  0.6457
 6431SOL     OW30925   4.705   0.103   5.670 -0.8350 -0.2569  0.4084
 6431SOL    HW130926   4.626   0.151   5.646 -1.1360 -0.8796  0.1815
 6431SOL    HW230927   0.033   0.173   5.688 -0.3331  0.0750 -2.7793
 6432SOL     OW30928   1.383   3.308   5.993  0.0540  0.5633 -0.4819
 6432SOL    HW130929   1.298   3.343   5.966 -0.7542 -1.9329 -1.1218
 6432SOL    HW230930   1.360   3.215   5.992  1.3007  0.2606 -2.1545
 6433SOL     OW30931   0.821   3.717   7.656  0.3735 -0.0148 -0.0506
 6433SOL    HW130932   0.867   3.707   7.739 -0.6162 -2.3608  0.2013
 6433SOL    HW230933   0.770   3.636   7.655 -0.8597  0.7485  1.4492
 6434SOL     OW30934   1.711   2.547   8.533  0.3794  0.5050  0.7036
 6434SOL    HW130935   1.749   2.591   8.610 -0.2440 -1.5509  2.1977
 6434SOL    HW230936   1.738   2.456   8.540  0.2219  0.5003  1.2793
 6435SOL     OW30937   3.676   2.779   5.577  0.1211 -0.2832 -0.8012
 6435SOL    HW130938   3.765   2.808   5.598  0.2375 -0.7629 -0.6441
 6435SOL    HW230939   3.665   2.830   5.496 -0.8405  1.3992  0.4023
 6436SOL     OW30940   1.103   1.543   2.565  0.0509 -0.0677 -0.4319
 6436SOL    HW130941   1.155   1.499   2.632  0.6887  1.3847  0.0204
 6436SOL    HW230942   1.021   1.498   2.588  0.6340 -0.9807 -0.1726
 6437SOL     OW30943   1.222   1.092   1.305  0.4448  0.0649 -0.3477
 6437SOL    HW130944   1.145   1.114   1.357 -0.0825 -1.0198 -0.6746
 6437SOL    HW230945   1.181   1.087   1.219 -1.1814 -0.4337  0.4626
 6438SOL     OW30946   3.524   0.317   6.718 -0.1301  0.0050  0.1291
 6438SOL    HW130947   3.619   0.309   6.713 -0.0241  0.0903  2.0354
 6438SOL    HW230948   3.521   0.413   6.724  2.2153  0.0306  1.2260
 6439SOL     OW30949   4.252   1.151  11.733 -0.1361  0.0421 -0.6114
 6439SOL    HW130950   4.326   1.202  11.699 -0.5460  1.8897  1.2411
 6439SOL    HW230951   4.298   1.097  11.797 -1.0963 -2.9806 -2.4749
 6440SOL     OW30952   3.090   2.802   5.621 -0.3898 -0.2850  0.0489
 6440SOL    HW130953   3.180   2.824   5.642 -0.5498 -0.8940  1.3847
 6440SOL    HW230954   3.033   2.843   5.686 -1.5169  0.3656 -1.3596
 6441SOL     OW30955   2.090   1.031   5.593  0.2142 -0.1671 -0.1366
 6441SOL    HW130956   2.111   0.959   5.533  1.8541 -0.0427  0.2906
 6441SOL    HW230957   2.172   1.075   5.612  0.1962 -0.6628  1.1161
 6442SOL     OW30958   3.356   4.552   7.765 -0.2675 -0.1265 -0.2895
 6442SOL    HW130959   3.289   4.601   7.813  0.9356  0.7581  0.4842
 6442SOL    HW230960   3.398   4.631   7.730 -0.7066  1.1430  2.1021
 6443SOL     OW30961   4.159   3.743  10.099  0.4871 -0.0463  0.0142
 6443SOL    HW130962   4.065   3.723  10.106  0.7869 -0.9072  1.6560
 6443SOL    HW230963   4.203   3.658  10.102  0.0656 -0.3553 -2.1482
 6444SOL     OW30964   3.059   1.021  11.432 -0.6505 -0.4631  0.4032
 6444SOL    HW130965   3.054   0.937  11.478 -0.2248 -1.1143 -0.7159
 6444SOL    HW230966   2.966   1.040  11.426 -0.6191 -0.2373  0.6533
 6445SOL     OW30967   3.645   3.231   3.233  0.0232  0.2897 -0.7184
 6445SOL    HW130968   3.733   3.217   3.198  0.5942  2.1003  0.0251
 6445SOL    HW230969   3.655   3.233   3.328  1.9171  3.7795 -0.9925
 6446SOL     OW30970   0.153   4.495   3.658 -0.6300 -0.5600 -0.6354
 6446SOL    HW130971   0.094   4.447   3.716  0.7061  2.5130  3.2957
 6446SOL    HW230972   0.182   4.571   3.709 -1.3979 -1.0909  0.6064
 6447SOL     OW30973   3.553   1.623   9.157 -0.4520 -0.0824 -0.0886
 6447SOL    HW130974   3.571   1.636   9.250 -1.6161  0.2076  0.1042
 6447SOL    HW230975   3.564   1.713   9.129 -2.2424  1.0726  2.8465
 6448SOL     OW30976   3.595   3.021   7.737 -0.3211 -0.2398  0.5326
 6448SOL    HW130977   3.677   3.071   7.734 -0.3418 -0.1334  2.0197
 6448SOL    HW230978   3.593   2.996   7.829 -0.2062  0.0025  0.6011
 6449SOL     OW30979   1.667   0.071   5.086  0.4256  0.4464 -0.3808
 6449SOL    HW130980   1.731   0.131   5.123 -0.5091  0.6879  0.8178
 6449SOL    HW230981   1.596   0.082   5.148  1.5191  1.9317  0.5971
 6450SOL     OW30982   3.958   3.723  10.567  0.3051  0.6282 -0.2455
 6450SOL    HW130983   3.975   3.818  10.571  0.3429  0.5067  2.8390
 6450SOL    HW230984   3.967   3.703  10.474  1.7855 -1.1707  0.2873
 6451SOL     OW30985   0.785   0.799   1.813 -0.1598  0.0623  0.0790
 6451SOL    HW130986   0.792   0.871   1.751  2.3526 -0.0879  0.1730
 6451SOL    HW230987   0.780   0.722   1.757 -1.0260 -0.2766  0.6265
 6452SOL     OW30988   1.383   3.698   3.995 -0.1663  0.1209  0.2286
 6452SOL    HW130989   1.403   3.711   3.902 -1.0608 -0.0138  0.0114
 6452SOL    HW230990   1.395   3.605   4.016 -0.9274 -0.1472 -0.5104
 6453SOL     OW30991   3.904   2.840   3.441  0.1371 -0.3815 -0.0928
 6453SOL    HW130992   3.873   2.898   3.510  1.2298 -0.6071  0.5790
 6453SOL    HW230993   3.822   2.829   3.392  0.0677  0.9078 -0.2484
 6454SOL     OW30994   0.935   0.504   6.787  0.3476  0.3825 -0.4779
 6454SOL    HW130995   0.946   0.533   6.697 -1.9934  3.3500  0.1558
 6454SOL    HW230996   0.880   0.427   6.769  2.4612 -1.0099 -0.8651
 6455SOL     OW30997   1.417   2.088   2.652  0.3305 -0.8192  0.0530
 6455SOL    HW130998   1.433   2.049   2.566  3.6985 -2.1529  1.2977
 6455SOL    HW230999   1.420   2.182   2.636 -1.4057 -0.8967 -0.7762
 6456SOL     OW31000   2.120   3.642   4.156 -0.2380  0.2402  0.2919
 6456SOL    HW131001   2.145   3.661   4.246 -0.0903 -0.9141  0.4972
 6456SOL    HW231002   2.206   3.648   4.115 -0.2845 -0.9304  0.0103
 6457SOL     OW31003   4.356   3.014   5.663  0.1488  0.1167 -0.1689
 6457SOL    HW131004   4.329   2.953   5.731  0.6519  0.6720  0.5331
 6457SOL    HW231005   4.424   3.064   5.708  0.5865 -0.9642  0.3778
 6458SOL     OW31006   1.853   2.650  16.601  0.0558 -0.8777 -0.2165
 6458SOL    HW131007   1.786   2.708  16.637  1.3949  1.0231 -0.7973
 6458SOL    HW231008   1.875   2.692  16.518 -2.5675  1.6045  0.3489
 6459SOL     OW31009   1.730   1.238  14.073 -0.3181 -0.3161 -0.5369
 6459SOL    HW131010   1.807   1.291  14.052  0.3199 -2.3786 -3.3762
 6459SOL    HW231011   1.691   1.255  13.987 -0.4315 -0.3953 -0.5012
 6460SOL     OW31012   2.306   0.244   3.218  0.5754  0.3254 -0.3187
 6460SOL    HW131013   2.346   0.162   3.246  2.5236  2.7483  4.1584
 6460SOL    HW231014   2.211   0.233   3.215  0.5058  0.7810  0.0822
 6461SOL     OW31015   3.667   1.284   6.989  0.0501 -0.1598 -0.0142
 6461SOL    HW131016   3.640   1.361   7.038 -2.2810 -0.6437 -0.5358
 6461SOL    HW231017   3.695   1.325   6.907  0.2180  2.7302  1.4855
 6462SOL     OW31018   3.340   4.077   3.694  0.7472  0.6874  0.1394
 6462SOL    HW131019   3.369   4.014   3.760  0.4060  0.1608 -0.2131
 6462SOL    HW231020   3.421   4.114   3.661  0.9228 -1.3293 -1.7044
 6463SOL     OW31021   0.841   1.368   0.828 -0.0670 -0.4558  0.2702
 6463SOL    HW131022   0.842   1.273   0.812  0.5022 -0.4444  0.2442
 6463SOL    HW231023   0.928   1.383   0.864  0.6434 -0.2703 -1.5335
 6464SOL     OW31024   1.343   3.892   4.386  0.2029  0.4190 -0.1441
 6464SOL    HW131025   1.381   3.940   4.460  1.8610 -1.2262  0.0730
 6464SOL    HW231026   1.422   3.843   4.362 -0.2524  0.0862 -0.9753
 6465SOL     OW31027   1.175   3.320   0.386 -0.1189 -0.4264 -0.4260
 6465SOL    HW131028   1.129   3.291   0.465  0.5566 -0.7706 -0.1652
 6465SOL    HW231029   1.131   3.268   0.319  0.5256 -1.3816 -0.1081
 6466SOL     OW31030   0.559   4.220   2.463  0.4367  0.2774 -0.0763
 6466SOL    HW131031   0.469   4.185   2.468  1.2303 -1.8749 -0.9119
 6466SOL    HW231032   0.600   4.151   2.411  2.9790  0.9722  1.0122
 6467SOL     OW31033   4.470   0.512   5.267  0.4517  0.0448 -0.0579
 6467SOL    HW131034   4.421   0.452   5.325  0.3759 -2.1060 -2.3636
 6467SOL    HW231035   4.400   0.540   5.209  1.4557  0.5050 -1.0370
 6468SOL     OW31036   1.108   3.566   8.217  0.2423 -0.3319 -0.1973
 6468SOL    HW131037   1.037   3.604   8.269  0.2590  0.9761 -1.1209
 6468SOL    HW231038   1.067   3.516   8.147 -2.7165  0.6028  0.8852
 6469SOL     OW31039   2.741   2.385  17.708 -0.4874  0.0161  0.3502
 6469SOL    HW131040   2.705   2.381   0.057  1.0743  2.6311  1.0802
 6469SOL    HW231041   2.751   2.291  17.689  0.1230 -0.2176  1.8063
 6470SOL     OW31042   4.591   2.608  11.494  0.0128  0.1787  0.0509
 6470SOL    HW131043   4.507   2.607  11.540  1.5003  0.7220  2.8135
 6470SOL    HW231044   4.596   2.520  11.458 -1.3925  1.0871 -2.3008
 6471SOL     OW31045   0.915   1.701   6.340  0.1924 -0.1081 -0.2077
 6471SOL    HW131046   0.969   1.633   6.300  1.9357  1.5293 -0.6434
 6471SOL    HW231047   0.971   1.769   6.379 -0.6968  0.5412 -0.0533
 6472SOL     OW31048   4.095   3.614   3.025  0.0640  0.3860 -0.2899
 6472SOL    HW131049   4.111   3.564   3.105  1.1215  1.2760  0.0621
 6472SOL    HW231050   4.047   3.556   2.967  0.9380  1.1823 -1.8039
 6473SOL     OW31051   3.786   1.466   3.063  0.0285 -0.1966 -0.1428
 6473SOL    HW131052   3.863   1.476   3.119 -1.2940  0.0693  1.6105
 6473SOL    HW231053   3.745   1.549   3.087  1.8649  0.7748 -0.3261
 6474SOL     OW31054   4.453   3.851   8.898 -0.0245 -0.8859  0.3647
 6474SOL    HW131055   4.434   3.900   8.978 -1.7118  2.3228 -1.9933
 6474SOL    HW231056   4.438   3.763   8.932 -0.5109 -1.5232 -1.5139
 6475SOL     OW31057   3.932   3.988   9.444 -0.3507  0.1699 -0.9945
 6475SOL    HW131058   3.855   3.962   9.393 -2.0128  0.5231  1.3263
 6475SOL    HW231059   3.976   4.042   9.378 -1.3468  1.3516 -0.6907
 6476SOL     OW31060   2.036   2.088   6.394  0.4329  0.7908 -0.9326
 6476SOL    HW131061   2.025   2.001   6.432  0.7732  1.3485  0.4581
 6476SOL    HW231062   2.062   2.143   6.468  1.2883  1.0883 -1.4597
 6477SOL     OW31063   1.678   2.000   2.296 -0.3583  0.1057 -0.1230
 6477SOL    HW131064   1.733   1.966   2.225 -0.9462  0.3849 -0.7209
 6477SOL    HW231065   1.586   1.998   2.268  0.7148  0.8839 -3.8201
 6478SOL     OW31066   0.189   2.669  16.959 -0.5734  0.0829  0.3776
 6478SOL    HW131067   0.140   2.733  17.010  1.5603  2.5072 -0.6214
 6478SOL    HW231068   0.253   2.727  16.917 -1.1168  0.3860 -0.0324
 6479SOL     OW31069   1.665   4.543  12.426 -0.0791  0.0167  0.2426
 6479SOL    HW131070   1.680   4.480  12.497  0.6044 -0.7027 -0.5478
 6479SOL    HW231071   1.573   4.568  12.437  0.2964  1.1263  0.8880
 6480SOL     OW31072   2.679   1.443   0.705 -0.1651 -0.0475 -0.2739
 6480SOL    HW131073   2.609   1.417   0.765  0.8325  0.3550  1.0570
 6480SOL    HW231074   2.629   1.486   0.635  1.2768  0.3755 -1.0562
 6481SOL     OW31075   3.228   3.697  12.936 -0.3237  0.4275 -0.0065
 6481SOL    HW131076   3.200   3.606  12.946  0.6426 -0.2220 -3.1202
 6481SOL    HW231077   3.137   3.722  12.923 -0.3687  0.0495 -0.4176
 6482SOL     OW31078   0.783   4.084   3.547 -0.4758  0.4967  1.0401
 6482SOL    HW131079   0.787   4.089   3.451  2.1213 -1.6270  1.0792
 6482SOL    HW231080   0.688   4.084   3.559 -0.7405  0.5398 -1.0765
 6483SOL     OW31081   1.898   2.084   8.104  0.0653  0.4127  0.2848
 6483SOL    HW131082   1.829   2.022   8.081  0.9340 -0.8494  1.0655
 6483SOL    HW231083   1.842   2.132   8.165 -3.4825 -1.0653 -1.8412
 6484SOL     OW31084   0.839   3.512   1.389  0.0436 -0.4974 -0.1802
 6484SOL    HW131085   0.753   3.503   1.430  1.7635 -2.8617  2.8839
 6484SOL    HW231086   0.822   3.459   1.311 -0.0880  0.3417 -0.7157
 6485SOL     OW31087   4.699   3.628  12.516  0.2841 -0.4774 -0.7727
 6485SOL    HW131088   4.610   3.605  12.543  0.9812 -0.4538  1.6271
 6485SOL    HW231089   4.730   3.541  12.490 -2.4952 -1.3485 -1.1993
 6486SOL     OW31090   2.524   0.905   7.382  0.3576  0.5252  0.6984
 6486SOL    HW131091   2.491   0.889   7.470  1.7050 -0.1545  1.0699
 6486SOL    HW231092   2.557   0.817   7.363 -1.4500  0.4815 -2.3260
 6487SOL     OW31093   1.771   1.468   5.223 -0.0930 -0.2404 -0.2134
 6487SOL    HW131094   1.687   1.485   5.181 -0.1465  3.2735  1.3703
 6487SOL    HW231095   1.788   1.385   5.178  1.5586 -0.8547  1.5236
 6488SOL     OW31096   2.531   2.258   3.232  0.0784  0.0149 -0.1207
 6488SOL    HW131097   2.496   2.205   3.304 -3.6096  0.8596 -1.2926
 6488SOL    HW231098   2.448   2.287   3.195 -0.2728 -1.5687 -0.5784
 6489SOL     OW31099   0.008   3.219   8.017 -0.0781 -0.1660 -0.1251
 6489SOL    HW131100   4.649   3.202   8.018 -0.3744  1.4731  0.2075
 6489SOL    HW231101   0.021   3.232   7.923 -0.0245 -1.3847 -0.2746
 6490SOL     OW31102   0.413   3.142   2.346  0.4365 -0.5931 -0.2761
 6490SOL    HW131103   0.342   3.205   2.348  0.3194 -0.6506 -2.4022
 6490SOL    HW231104   0.355   3.066   2.352 -0.4378 -0.0328 -1.5730
 6491SOL     OW31105   0.159   4.045   3.720 -0.7976  0.3147  0.2110
 6491SOL    HW131106   0.182   4.123   3.670 -2.7039  0.1635 -0.9211
 6491SOL    HW231107   0.166   3.965   3.667 -0.7401  0.8332 -0.5618
 6492SOL     OW31108   3.422   4.104  16.172  0.4449 -0.6608  0.6156
 6492SOL    HW131109   3.355   4.168  16.193 -1.5416 -2.0623 -1.4547
 6492SOL    HW231110   3.490   4.113  16.239  0.3598  5.0710 -0.0953
 6493SOL     OW31111   0.275   3.358  12.583 -0.0250  0.1319  0.0649
 6493SOL    HW131112   0.216   3.394  12.649  1.4132  0.0889  1.3640
 6493SOL    HW231113   0.346   3.415  12.612 -1.4059  1.5356  0.6634
 6494SOL     OW31114   2.877   4.031   2.448  0.3071 -0.2647  0.0006
 6494SOL    HW131115   2.848   4.100   2.507 -0.9114 -0.0082 -0.8810
 6494SOL    HW231116   2.838   3.955   2.492  1.7235 -0.8164  0.2815
 6495SOL     OW31117   2.917   0.139  17.003 -0.3633  0.1446  0.1292
 6495SOL    HW131118   2.828   0.135  17.038  0.0941 -0.7846  1.2145
 6495SOL    HW231119   2.969   0.168  17.078  2.3755 -1.4554 -1.1508
 6496SOL     OW31120   3.301   3.844   8.218 -0.1642 -0.5029  0.0831
 6496SOL    HW131121   3.294   3.763   8.167  1.1154 -1.0730  0.8133
 6496SOL    HW231122   3.299   3.815   8.309  0.6961 -1.0687 -0.0842
 6497SOL     OW31123   2.445   4.256   3.411 -0.0187  0.9606  0.3446
 6497SOL    HW131124   2.522   4.308   3.434  0.1573 -0.1902  2.4239
 6497SOL    HW231125   2.379   4.325   3.410  0.3044  1.2580 -0.3550
 6498SOL     OW31126   4.414   2.428   2.486 -0.0485  0.2160  0.1147
 6498SOL    HW131127   4.493   2.455   2.533  0.8138 -0.5563 -0.8781
 6498SOL    HW231128   4.435   2.335   2.477  0.9810  0.2161  2.4348
 6499SOL     OW31129   4.498   0.660  14.690  0.8954  0.2027 -0.0115
 6499SOL    HW131130   4.446   0.690  14.615  1.1382 -1.4273 -0.8092
 6499SOL    HW231131   4.432   0.614  14.742  0.9472  0.3528  0.1907
 6500SOL     OW31132   4.156   1.224  12.053 -0.4895  0.7458 -0.4829
 6500SOL    HW131133   4.202   1.299  12.090 -1.3698  1.0922 -0.0710
 6500SOL    HW231134   4.131   1.258  11.967 -0.9417  1.8528  0.0865
 6501SOL     OW31135   0.901   3.827   4.461 -0.3874 -0.5449  0.7854
 6501SOL    HW131136   0.946   3.776   4.528  2.4161  0.3722 -0.3944
 6501SOL    HW231137   0.817   3.796   4.494  0.0621 -0.2705  2.1717
 6502SOL     OW31138   3.187   1.043   4.861 -0.4943 -0.1885  0.0877
 6502SOL    HW131139   3.164   1.037   4.954 -0.0151  0.1732  0.2297
 6502SOL    HW231140   3.282   1.033   4.866 -0.3543 -0.1019 -2.2212
 6503SOL     OW31141   3.084   0.834   6.462  0.2613  0.0019  0.1320
 6503SOL    HW131142   3.108   0.751   6.503 -1.3927  0.2239  1.5486
 6503SOL    HW231143   3.087   0.807   6.370 -1.2421  2.8635 -0.7630
 6504SOL     OW31144   2.164   4.013  13.060 -0.3514  0.1878 -0.3849
 6504SOL    HW131145   2.159   3.953  13.135  2.7078  2.4164  1.6040
 6504SOL    HW231146   2.213   3.949  13.008  2.4906 -0.0172  2.5520
 6505SOL     OW31147   1.560   2.229   7.166  0.1609  0.0345  0.4491
 6505SOL    HW131148   1.474   2.192   7.149  0.4174 -1.1094  1.6839
 6505SOL    HW231149   1.536   2.322   7.165  0.3467  0.0820  0.0591
 6506SOL     OW31150   1.724   0.208   2.728  0.2183 -0.3770 -0.5956
 6506SOL    HW131151   1.715   0.235   2.637  0.3372  0.6248 -0.3187
 6506SOL    HW231152   1.786   0.279   2.748 -0.6869  0.0999  0.4915
 6507SOL     OW31153   1.429   0.190   6.017 -0.1753  0.2576  0.1897
 6507SOL    HW131154   1.450   0.221   5.929 -1.0057 -1.6917 -0.6693
 6507SOL    HW231155   1.369   0.118   5.997 -0.8213  0.3167  1.9204
 6508SOL     OW31156   4.625   3.230  11.486  0.0757 -0.4195  0.1162
 6508SOL    HW131157   4.708   3.226  11.533  0.8090  0.1587 -1.1289
 6508SOL    HW231158   4.630   3.138  11.460  1.3901  0.1383 -1.6665
 6509SOL     OW31159   0.879   4.008   6.363  0.4344  0.2846 -0.1888
 6509SOL    HW131160   0.961   3.961   6.347  0.8083  0.6695  0.6387
 6509SOL    HW231161   0.888   4.043   6.451  1.6433  0.2339 -0.2841
 6510SOL     OW31162   4.663   2.725  17.494  0.1868  0.2711 -0.4777
 6510SOL    HW131163   4.584   2.733  17.442 -0.9754  0.2126  1.2846
 6510SOL    HW231164   4.712   2.663  17.439 -1.6459 -0.8924 -0.7711
 6511SOL     OW31165   1.057   0.845   2.095 -0.8715  0.5891 -0.3496
 6511SOL    HW131166   1.072   0.831   2.188  0.1313 -0.7490 -0.7072
 6511SOL    HW231167   1.072   0.938   2.082  1.1074  0.0785 -1.7210
 6512SOL     OW31168   0.975   4.154   4.924 -0.2146  0.7406 -0.2084
 6512SOL    HW131169   1.016   4.137   5.008 -0.4242  0.4172 -0.1718
 6512SOL    HW231170   0.883   4.140   4.947 -0.1220 -1.5158 -1.2471
 6513SOL     OW31171   4.239   2.965   7.925  0.3098  0.0360  0.4189
 6513SOL    HW131172   4.242   2.872   7.902 -0.2512  0.0043  0.4645
 6513SOL    HW231173   4.257   2.996   7.837 -1.9766 -1.0685 -0.4410
 6514SOL     OW31174   3.631   0.627   4.793  0.4136  0.3929  0.0679
 6514SOL    HW131175   3.552   0.648   4.843 -0.6807 -0.5902 -1.2443
 6514SOL    HW231176   3.588   0.587   4.717  1.1509  1.3155 -0.8505
 6515SOL     OW31177   0.097   4.104   2.808  0.0399  0.1592 -0.1591
 6515SOL    HW131178   0.115   4.063   2.893  1.6076 -2.1420 -1.5984
 6515SOL    HW231179   0.101   4.192   2.844  2.1762 -1.3269  3.2323
 6516SOL     OW31180   4.134   2.402   7.790 -0.4136  0.9256  0.5843
 6516SOL    HW131181   4.051   2.396   7.837 -0.3876 -0.7236  0.4290
 6516SOL    HW231182   4.197   2.402   7.862 -0.6265 -1.5783  0.7773
 6517SOL     OW31183   4.648   4.296  10.959 -0.2784 -0.1076 -0.4960
 6517SOL    HW131184   4.602   4.226  10.912 -0.8651 -1.3356  1.9381
 6517SOL    HW231185   0.004   4.264  10.959  0.9977  3.5762 -0.4251
 6518SOL     OW31186   4.043   3.622   2.640  0.0550 -0.1946  0.0294
 6518SOL    HW131187   4.014   3.710   2.664 -0.2196 -0.6564  1.3690
 6518SOL    HW231188   3.984   3.599   2.569 -1.0204 -0.5577  1.0420
 6519SOL     OW31189   1.290   1.455   7.714  0.4513  0.2616  0.3002
 6519SOL    HW131190   1.275   1.426   7.624  0.7009  1.1290 -0.0157
 6519SOL    HW231191   1.312   1.371   7.755 -2.2902 -0.3547  0.5079
 6520SOL     OW31192   1.561   1.600   7.055  0.2094  0.6951  0.1215
 6520SOL    HW131193   1.607   1.620   7.137 -1.0326  0.3202  0.9159
 6520SOL    HW231194   1.598   1.513   7.036  1.9385  1.2350  1.0586
 6521SOL     OW31195   2.107   4.224   5.407  0.1431  0.1458  0.7911
 6521SOL    HW131196   2.116   4.193   5.317  1.3139 -0.6500  1.1818
 6521SOL    HW231197   2.186   4.199   5.455 -0.0576  1.0070  1.5762
 6522SOL     OW31198   1.235   1.996   9.316  0.9468  0.0209 -0.3676
 6522SOL    HW131199   1.282   2.025   9.238  2.0694  0.0795  0.3291
 6522SOL    HW231200   1.206   2.080   9.351 -0.1148 -1.0454  1.3011
 6523SOL     OW31201   3.103   3.409   9.659  0.4444 -0.5654 -0.4905
 6523SOL    HW131202   3.134   3.384   9.572  0.8214  1.8644 -1.0380
 6523SOL    HW231203   3.032   3.344   9.665 -0.6378  0.4392 -2.1085
 6524SOL     OW31204   2.332   4.097   6.780 -0.5036 -0.3459  0.0511
 6524SOL    HW131205   2.267   4.092   6.710  0.8904  0.4637 -1.2985
 6524SOL    HW231206   2.276   4.081   6.856  1.2984 -4.1773  0.5906
 6525SOL     OW31207   0.276   0.449   2.812 -0.3243 -0.5064 -0.0652
 6525SOL    HW131208   0.369   0.456   2.793 -0.4348 -2.1826 -1.2230
 6525SOL    HW231209   0.284   0.404   2.896  1.2935 -2.2200 -1.1471
 6526SOL     OW31210   0.617   3.836   1.518  0.4549 -0.1064  0.4886
 6526SOL    HW131211   0.557   3.909   1.509  0.9195  0.2791  0.5433
 6526SOL    HW231212   0.653   3.830   1.429 -2.3532 -0.2752 -0.6319
 6527SOL     OW31213   2.786   1.598   2.731 -0.1238 -0.2964 -0.0209
 6527SOL    HW131214   2.879   1.618   2.738  0.0350 -1.3250  0.8520
 6527SOL    HW231215   2.805   1.510   2.764  0.6556  0.4525  1.5318
 6528SOL     OW31216   0.304   3.913   8.206  0.1966  0.4522  0.4568
 6528SOL    HW131217   0.355   3.832   8.211 -0.0288  0.4848  3.4895
 6528SOL    HW231218   0.249   3.884   8.279 -0.3035  1.0079  0.2977
 6529SOL     OW31219   3.505   1.475  13.013  0.0346  0.3428  0.3129
 6529SOL    HW131220   3.513   1.550  13.072  1.8500  0.4438 -0.0645
 6529SOL    HW231221   3.583   1.427  13.040  0.8261  1.8603  0.7638
 6530SOL     OW31222   4.509   2.169   6.778 -0.2597  0.7666  0.4255
 6530SOL    HW131223   4.513   2.175   6.874  0.4401  0.8418  0.3895
 6530SOL    HW231224   4.427   2.120   6.780 -0.0302  0.4042  1.1091
 6531SOL     OW31225   2.996   1.456   8.668  0.2832 -0.1556  0.3143
 6531SOL    HW131226   2.920   1.413   8.709  0.5773 -0.0130  1.0083
 6531SOL    HW231227   2.978   1.463   8.574  0.2004  2.5571  0.5497
 6532SOL     OW31228   1.819   0.228   2.394 -0.0810  0.1930  0.0292
 6532SOL    HW131229   1.736   0.273   2.407 -0.3168 -0.2736  0.1350
 6532SOL    HW231230   1.814   0.210   2.300  3.3363  1.4893 -0.4098
 6533SOL     OW31231   0.643   3.668  12.857 -0.4724  0.0024 -0.1909
 6533SOL    HW131232   0.706   3.683  12.927  0.0325  0.0690 -0.6617
 6533SOL    HW231233   0.629   3.758  12.828  0.5120 -0.5160 -2.2566
 6534SOL     OW31234   4.110   3.190   2.639 -0.4279 -0.3315 -0.0003
 6534SOL    HW131235   4.142   3.127   2.703  0.2825 -0.9733 -0.9753
 6534SOL    HW231236   4.015   3.187   2.646 -0.3466  1.0290  1.5932
 6535SOL     OW31237   2.132   4.719   3.617  0.4653 -0.7405 -0.3803
 6535SOL    HW131238   2.126   4.646   3.556 -2.8894  1.1611 -2.3412
 6535SOL    HW231239   2.208   0.034   3.589 -0.2302  0.4678 -0.1106
 6536SOL     OW31240   3.206   0.780  16.457  0.2409 -0.0273  0.8333
 6536SOL    HW131241   3.289   0.807  16.498 -0.2373  1.1639  1.0104
 6536SOL    HW231242   3.143   0.844  16.490 -2.0120 -1.7599 -0.1220
 6537SOL     OW31243   1.710   1.913   8.086  0.0683 -0.7725 -0.6371
 6537SOL    HW131244   1.656   1.855   8.140  1.0082  1.4035  2.6213
 6537SOL    HW231245   1.731   1.861   8.009  1.0111  0.0594 -0.9458
 6538SOL     OW31246   2.484   1.068  15.171 -0.0719 -0.6497  0.3601
 6538SOL    HW131247   2.452   1.145  15.219 -0.1719 -0.7448  0.4467
 6538SOL    HW231248   2.440   1.001  15.223  1.9823 -2.2988 -0.0695
 6539SOL     OW31249   2.706   2.351   2.638 -0.0700  0.5886 -0.1695
 6539SOL    HW131250   2.801   2.341   2.642 -0.2474 -0.9665  0.3033
 6539SOL    HW231251   2.687   2.360   2.732  0.1098  0.6291 -0.1357
 6540SOL     OW31252   1.256   2.791  16.412 -0.2514  0.3440 -0.0857
 6540SOL    HW131253   1.217   2.732  16.348 -0.5959  0.2440  0.2216
 6540SOL    HW231254   1.282   2.866  16.358  1.5063  0.3391  0.7788
 6541SOL     OW31255   3.621   4.256   8.122  0.1065 -0.3004 -0.5686
 6541SOL    HW131256   3.589   4.290   8.039  0.0540 -1.3718 -0.9924
 6541SOL    HW231257   3.568   4.179   8.145  0.4392 -0.2634  0.3183
 6542SOL     OW31258   4.225   4.342   7.899  0.3031  0.2965  0.3915
 6542SOL    HW131259   4.247   4.283   7.971  0.6370  0.0077  0.0523
 6542SOL    HW231260   4.295   4.323   7.836  1.3803 -0.1302  1.7306
 6543SOL     OW31261   0.134   1.572   8.869 -0.2685 -0.4179 -0.3938
 6543SOL    HW131262   0.047   1.596   8.839 -0.3433 -0.2863 -0.0722
 6543SOL    HW231263   0.197   1.637   8.837 -0.7623  0.4440  0.4040
 6544SOL     OW31264   0.684   0.809   4.203  0.0214 -0.2963 -0.6251
 6544SOL    HW131265   0.686   0.861   4.122  0.9923 -1.8494 -1.6097
 6544SOL    HW231266   0.590   0.796   4.199 -0.4270  2.7817 -0.2848
 6545SOL     OW31267   1.545   1.659   9.492 -0.1564  0.1791 -0.5550
 6545SOL    HW131268   1.630   1.689   9.460  0.3266  1.5674  1.9460
 6545SOL    HW231269   1.565   1.584   9.549 -1.9124  1.2193  1.4532
 6546SOL     OW31270   4.697   2.374   8.330 -0.2264  0.1226  0.0358
 6546SOL    HW131271   4.712   2.434   8.258  1.7671 -0.3004  0.0992
 6546SOL    HW231272   4.633   2.312   8.297 -1.9302  1.3230  1.0983
 6547SOL     OW31273   3.546   3.257   3.960  0.5986  0.2778 -0.3073
 6547SOL    HW131274   3.580   3.207   4.035  0.4958  1.4396  0.5067
 6547SOL    HW231275   3.478   3.306   4.005 -0.3003 -1.4178  0.1881
 6548SOL     OW31276   3.046   3.890  16.574 -0.2641 -0.3288 -0.0445
 6548SOL    HW131277   3.015   3.832  16.505  2.6148  1.8592 -3.1717
 6548SOL    HW231278   3.079   3.959  16.517 -3.0781 -0.7885 -2.2126
 6549SOL     OW31279   0.929   2.902   6.871  0.4487  0.2457  0.5736
 6549SOL    HW131280   0.845   2.919   6.915 -0.4506 -1.7391 -0.3850
 6549SOL    HW231281   0.982   2.965   6.920  0.9908 -0.0673  0.3802
 6550SOL     OW31282   2.280   1.769  14.620  0.5252  0.1688 -0.0789
 6550SOL    HW131283   2.300   1.800  14.532  1.1437 -0.7017 -0.2437
 6550SOL    HW231284   2.184   1.777  14.620  0.5915  0.9066 -3.4531
 6551SOL     OW31285   3.117   2.297   1.315 -0.3566 -0.0552 -0.6778
 6551SOL    HW131286   3.140   2.244   1.392 -0.1299  0.2941 -0.5029
 6551SOL    HW231287   3.197   2.283   1.264  0.3898 -0.1468  0.5312
 6552SOL     OW31288   2.638   4.247   9.389 -0.0887 -0.0938  0.6235
 6552SOL    HW131289   2.570   4.304   9.355 -0.6555 -1.5440 -0.6669
 6552SOL    HW231290   2.713   4.307   9.392  1.6726 -2.1977 -0.7981
 6553SOL     OW31291   4.268   4.213  11.118 -0.7336 -0.4515  0.5280
 6553SOL    HW131292   4.305   4.128  11.095  4.0853  1.2368  2.1658
 6553SOL    HW231293   4.291   4.219  11.211  1.4995  2.9065 -0.2309
 6554SOL     OW31294   1.679   2.508   8.059 -0.4004  0.2699  0.1575
 6554SOL    HW131295   1.737   2.569   8.014 -0.6330  0.9251  0.7574
 6554SOL    HW231296   1.677   2.433   7.998 -1.5408 -0.6524  1.3206
 6555SOL     OW31297   0.437   0.243   6.530 -0.1331 -0.3676  0.0437
 6555SOL    HW131298   0.362   0.202   6.487 -1.3402  1.2364  0.6058
 6555SOL    HW231299   0.403   0.318   6.579 -1.5512 -0.1132 -1.3718
 6556SOL     OW31300   0.118   3.424   3.190 -0.1600 -0.3924  0.0743
 6556SOL    HW131301   0.066   3.426   3.109 -1.2504  1.8910  0.8335
 6556SOL    HW231302   0.080   3.350   3.237  0.6720 -2.2335 -2.1314
 6557SOL     OW31303   3.135   2.249   8.668  0.6555 -0.2714  0.1203
 6557SOL    HW131304   3.138   2.182   8.601 -0.0319  0.5967 -0.7734
 6557SOL    HW231305   3.151   2.192   8.743 -0.1848  0.6174  0.9916
 6558SOL     OW31306   2.914   0.410   4.737  0.1916  0.1014 -0.1694
 6558SOL    HW131307   2.944   0.321   4.715  1.3237  0.5250 -0.3236
 6558SOL    HW231308   2.987   0.464   4.707 -0.6770  2.0284  1.2051
 6559SOL     OW31309   1.736   1.711   4.889 -0.0126 -0.6982 -0.4400
 6559SOL    HW131310   1.744   1.806   4.884 -0.7636 -0.5191  1.6089
 6559SOL    HW231311   1.653   1.693   4.932  0.3807  2.7583  1.8132
 6560SOL     OW31312   1.991   1.797   6.164  0.7391  0.5647 -0.7245
 6560SOL    HW131313   1.961   1.819   6.252 -1.4462  1.5112 -1.7166
 6560SOL    HW231314   2.018   1.710   6.196  0.0605  0.5950 -0.0702
 6561SOL     OW31315   3.683   0.746   3.978 -0.6829 -0.3802  0.1973
 6561SOL    HW131316   3.603   0.797   3.984 -0.0846  0.6291 -0.4122
 6561SOL    HW231317   3.710   0.753   3.886 -1.1424  0.5480  0.1421
 6562SOL     OW31318   0.750   0.136  10.412  0.3601 -0.3349  0.0871
 6562SOL    HW131319   0.786   0.178  10.490  1.7426  0.3289 -0.9185
 6562SOL    HW231320   0.822   0.090  10.368 -0.4350 -0.8324 -0.6924
 6563SOL     OW31321   2.246   2.927   9.011 -0.2189 -0.1599  0.0553
 6563SOL    HW131322   2.314   2.897   9.071  1.9259  2.1380 -1.1828
 6563SOL    HW231323   2.174   2.866   9.025  0.0530 -0.3529  0.6084
 6564SOL     OW31324   2.701   0.062  17.720 -0.0957  0.3163  0.0323
 6564SOL    HW131325   2.740   0.101  17.641 -3.2995 -0.0558 -1.7320
 6564SOL    HW231326   2.736   0.133   0.034 -1.0059 -0.2521  1.3595
 6565SOL     OW31327   0.712   3.682   4.174 -0.1237 -0.3800 -0.5575
 6565SOL    HW131328   0.778   3.648   4.113  1.6974  0.8322  0.7302
 6565SOL    HW231329   0.629   3.680   4.128  0.3794 -2.4120 -1.3938
 6566SOL     OW31330   4.712   0.053  12.396 -0.4718 -0.2809 -0.2328
 6566SOL    HW131331   4.648   0.116  12.361 -0.8347  0.0621  1.0416
 6566SOL    HW231332   0.021   0.026  12.316  2.0600 -0.2342  1.1744
 6567SOL     OW31333   2.533   1.870   5.597 -0.2731 -0.4648 -0.0832
 6567SOL    HW131334   2.449   1.916   5.591  0.6091  0.9245 -2.0038
 6567SOL    HW231335   2.545   1.880   5.691 -1.7269 -1.6988  0.2470
 6568SOL     OW31336   2.722   0.904   7.024 -0.3885 -1.0643 -0.0007
 6568SOL    HW131337   2.767   0.849   7.089 -2.0693  0.1896  2.2485
 6568SOL    HW231338   2.793   0.919   6.962 -0.8118  0.3592 -0.1305
 6569SOL     OW31339   2.828   2.197   7.148 -0.7440 -0.2678 -0.0018
 6569SOL    HW131340   2.736   2.171   7.139 -0.5662 -0.3268 -1.5962
 6569SOL    HW231341   2.831   2.207   7.244  0.7281 -0.4051 -0.0428
 6570SOL     OW31342   4.716   2.653   9.820 -0.2485  0.3921 -0.4854
 6570SOL    HW131343   0.035   2.715   9.870 -0.1945 -0.2882  0.2981
 6570SOL    HW231344   4.641   2.712   9.808 -1.2324 -0.8868 -0.5547
 6571SOL     OW31345   0.444   3.480  13.968 -0.4400  0.3944  0.2198
 6571SOL    HW131346   0.504   3.492  13.895 -0.5031  0.2848  0.1495
 6571SOL    HW231347   0.487   3.534  14.035 -0.4000  0.3677  0.2156
 6572SOL     OW31348   1.819   1.712  17.606  0.2096 -0.1134  0.2256
 6572SOL    HW131349   1.898   1.750  17.645 -0.1592  0.6681  0.2022
 6572SOL    HW231350   1.756   1.775  17.641 -0.3832 -0.4977 -0.1579
 6573SOL     OW31351   1.773   3.196   0.861  0.1154 -0.5428  0.0565
 6573SOL    HW131352   1.736   3.278   0.894 -0.6929 -1.5178  1.6223
 6573SOL    HW231353   1.845   3.230   0.808  0.2790 -1.0620 -0.0638
 6574SOL     OW31354   3.230   3.033   9.130 -0.1323 -0.4104  0.0033
 6574SOL    HW131355   3.135   3.023   9.124 -0.5037  3.0738  0.4232
 6574SOL    HW231356   3.252   3.075   9.047  1.5862 -0.5938  0.3702
 6575SOL     OW31357   3.795   0.279   6.708 -0.2534 -0.0207 -0.6351
 6575SOL    HW131358   3.885   0.310   6.716  0.2770 -0.8621 -3.4060
 6575SOL    HW231359   3.802   0.184   6.695  0.8592 -0.1847  1.0177
 6576SOL     OW31360   2.971   2.089   3.826  0.1218  0.1885  0.1387
 6576SOL    HW131361   3.053   2.072   3.780 -0.5285 -2.6600  0.0050
 6576SOL    HW231362   2.980   2.149   3.900 -0.3924 -1.3652  1.4524
 6577SOL     OW31363   1.122   0.189   6.739  0.7412 -0.3091  0.2005
 6577SOL    HW131364   1.034   0.224   6.754  0.9644  0.3129  0.0559
 6577SOL    HW231365   1.184   0.261   6.742  0.2947  0.1465 -1.9159
 6578SOL     OW31366   2.878   1.084   0.832 -0.4444  0.3636  0.4844
 6578SOL    HW131367   2.857   1.071   0.740  0.2919 -1.4488  0.5704
 6578SOL    HW231368   2.905   1.176   0.830  0.9297 -0.0276  0.9308
 6579SOL     OW31369   1.145   4.431  10.252  0.3718  0.1405  0.4323
 6579SOL    HW131370   1.138   4.351  10.199 -1.9317  0.6301  0.0363
 6579SOL    HW231371   1.050   4.439  10.259  0.7495  1.8424  3.2653
 6580SOL     OW31372   0.854   2.357   1.469 -0.5925 -0.0172  0.0405
 6580SOL    HW131373   0.933   2.406   1.492 -2.2414  2.3038  0.7902
 6580SOL    HW231374   0.796   2.415   1.518  2.3532  0.7707  2.5870
 6581SOL     OW31375   1.298   2.504   5.723 -0.2158 -0.3226 -0.1391
 6581SOL    HW131376   1.342   2.420   5.710 -1.5258 -0.9602 -0.3904
 6581SOL    HW231377   1.229   2.503   5.657  0.1422 -0.4876 -0.5095
 6582SOL     OW31378   1.340   4.448  10.938 -0.2787 -0.1038  0.1537
 6582SOL    HW131379   1.381   4.400  11.009  1.9745  0.8221 -0.5297
 6582SOL    HW231380   1.279   4.386  10.898  2.5840 -2.6454 -0.2850
 6583SOL     OW31381   4.696   2.409   1.837 -0.0460  0.3050  0.1685
 6583SOL    HW131382   4.681   2.487   1.890 -3.0641  1.0650 -1.7935
 6583SOL    HW231383   4.608   2.389   1.805 -0.3867  0.2571  1.1182
 6584SOL     OW31384   4.570   1.672  15.501 -0.0728  0.1133 -0.9256
 6584SOL    HW131385   4.531   1.759  15.512  0.0508  0.0058  0.3626
 6584SOL    HW231386   4.511   1.621  15.556  2.3395 -0.6956  0.8996
 6585SOL     OW31387   4.490   3.473   5.227  0.0328 -0.3086  0.1097
 6585SOL    HW131388   4.497   3.508   5.139  0.6983  1.4961  0.8772
 6585SOL    HW231389   4.513   3.385   5.198  1.1723 -0.9877  3.0461
 6586SOL     OW31390   4.022   4.363  11.091  0.3439 -0.9508 -0.0723
 6586SOL    HW131391   4.057   4.444  11.055 -0.5260 -0.6355 -0.1902
 6586SOL    HW231392   4.098   4.305  11.100 -0.0763 -1.4857  0.0063
 6587SOL     OW31393   0.448   1.244   7.157 -0.1303  0.2547 -0.5367
 6587SOL    HW131394   0.505   1.208   7.225 -0.7921  0.5311  0.1639
 6587SOL    HW231395   0.497   1.323   7.134 -0.8342  0.1754 -2.2597
 6588SOL     OW31396   0.796   3.178  11.093 -0.0428  0.1096 -0.6033
 6588SOL    HW131397   0.745   3.101  11.066  1.8847 -1.6095  0.7005
 6588SOL    HW231398   0.754   3.250  11.047 -1.5662  1.4047  2.8044
 6589SOL     OW31399   3.917   0.438  10.061  0.2009  0.3525 -0.5721
 6589SOL    HW131400   3.892   0.409  10.149  0.7963  0.5427 -0.3380
 6589SOL    HW231401   4.012   0.426  10.066  0.2174  1.0606  0.9314
 6590SOL     OW31402   4.279   0.236  16.753 -0.0304  0.6049 -0.2571
 6590SOL    HW131403   4.363   0.243  16.799  0.0617  0.9476 -0.4727
 6590SOL    HW231404   4.213   0.250  16.821  1.3895  2.7181  0.7029
 6591SOL     OW31405   2.879   3.241   3.474 -0.6598  0.2238 -0.4710
 6591SOL    HW131406   2.853   3.149   3.477  0.2445 -0.0564 -0.9172
 6591SOL    HW231407   2.791   3.276   3.462 -0.4424  0.6282 -0.9381
 6592SOL     OW31408   1.374   2.022  10.205 -0.0370 -0.2081 -0.4352
 6592SOL    HW131409   1.315   2.078  10.155  2.0592  0.3460 -2.2967
 6592SOL    HW231410   1.415   1.978  10.130  2.5285 -0.1496  0.9168
 6593SOL     OW31411   3.086   3.689  16.864  0.0887  0.1150  0.2111
 6593SOL    HW131412   3.053   3.606  16.830 -3.4501  2.2809 -1.7301
 6593SOL    HW231413   3.012   3.741  16.832 -0.0737 -1.2172 -1.5953
 6594SOL     OW31414   1.334   2.335   4.772 -0.1544 -0.4164 -0.4544
 6594SOL    HW131415   1.403   2.339   4.839 -2.2171 -0.5651  1.6984
 6594SOL    HW231416   1.251   2.320   4.817 -0.8143  0.7996 -1.2694
 6595SOL     OW31417   2.659   1.025   5.379  0.0705 -0.1527  0.6476
 6595SOL    HW131418   2.626   1.104   5.423 -0.1586  0.0194  0.1680
 6595SOL    HW231419   2.744   1.057   5.349 -0.0004  0.0451  0.6555
 6596SOL     OW31420   0.371   1.080  16.849  0.4862 -0.1852  0.4840
 6596SOL    HW131421   0.375   1.162  16.898  0.8845 -0.2235  0.5167
 6596SOL    HW231422   0.391   1.105  16.758 -0.4173  0.0537  0.3528
 6597SOL     OW31423   2.023   0.411   8.630  0.3188 -0.0730  0.1584
 6597SOL    HW131424   1.993   0.403   8.539 -0.2188 -0.0908  0.3384
 6597SOL    HW231425   1.967   0.482   8.660 -1.2047 -0.6050 -1.4593
 6598SOL     OW31426   2.377   0.965   3.890  0.1992  0.2601  0.0095
 6598SOL    HW131427   2.468   0.976   3.915 -0.0978 -0.3111  1.3477
 6598SOL    HW231428   2.392   0.992   3.800  1.0501 -0.7544 -0.1473
 6599SOL     OW31429   0.413   4.719   1.477 -0.9104  0.3201 -0.1404
 6599SOL    HW131430   0.508   4.725   1.461 -0.8943  0.3782 -0.0227
 6599SOL    HW231431   0.412   0.031   1.560  0.6767 -1.7158  1.0358
 6600SOL     OW31432   4.270   1.454   3.926  0.0630 -0.3709  0.6969
 6600SOL    HW131433   4.175   1.450   3.933  0.0762 -0.0885  1.0231
 6600SOL    HW231434   4.280   1.361   3.906 -0.7145 -0.9268  2.8718
 6601SOL     OW31435   4.015   0.086   8.419 -0.1817 -0.0016  0.2380
 6601SOL    HW131436   3.939   0.092   8.477 -0.2445 -2.1537  0.3558
 6601SOL    HW231437   3.982   0.011   8.370 -1.1737  1.7014 -1.7003
 6602SOL     OW31438   4.091   4.563   9.641  0.4270 -0.6791 -0.0236
 6602SOL    HW131439   4.009   4.552   9.689 -0.6696 -2.5090 -2.3438
 6602SOL    HW231440   4.089   4.659   9.636 -1.4862 -0.6255  1.6788
 6603SOL     OW31441   1.666   2.513   2.387 -0.1996 -0.8752 -0.5950
 6603SOL    HW131442   1.685   2.468   2.470  0.3681 -1.6552 -1.1464
 6603SOL    HW231443   1.684   2.439   2.328 -1.9853 -1.9851  0.2423
 6604SOL     OW31444   3.773   3.371   4.297 -0.3580 -0.2523  0.5398
 6604SOL    HW131445   3.695   3.421   4.272  0.3305  1.3793  1.6142
 6604SOL    HW231446   3.790   3.390   4.389  2.4142  1.6069 -0.3599
 6605SOL     OW31447   2.101   1.349   6.621 -0.1482  0.2234  0.1155
 6605SOL    HW131448   2.193   1.336   6.646 -1.0639 -3.3212  1.7056
 6605SOL    HW231449   2.057   1.392   6.694 -2.9060  0.6385 -1.8150
 6606SOL     OW31450   1.480   2.344   5.060  0.5518  0.4179  1.1235
 6606SOL    HW131451   1.574   2.330   5.051  0.0116 -1.7425 -1.1016
 6606SOL    HW231452   1.462   2.350   5.154 -0.7237  1.9616  0.7793
 6607SOL     OW31453   2.479   2.531   3.088 -0.2658 -0.0596  0.0614
 6607SOL    HW131454   2.501   2.621   3.114  1.4079 -0.5803  0.4914
 6607SOL    HW231455   2.399   2.502   3.131 -0.3515 -1.2404 -0.8852
 6608SOL     OW31456   1.539   2.670  11.487  0.3670 -0.6056  0.1348
 6608SOL    HW131457   1.499   2.621  11.416  1.8633  0.8240 -1.7082
 6608SOL    HW231458   1.619   2.623  11.512  0.2969 -0.9417 -0.2871
 6609SOL     OW31459   1.739   1.065   3.756  0.1960 -0.0494 -0.5228
 6609SOL    HW131460   1.735   0.970   3.760  1.2942 -0.1127 -0.9085
 6609SOL    HW231461   1.822   1.085   3.800 -0.2809  0.8230 -0.0165
 6610SOL     OW31462   1.458   0.769   9.541  0.2227 -0.1105  0.4377
 6610SOL    HW131463   1.394   0.699   9.528  0.0818 -0.0111  0.5939
 6610SOL    HW231464   1.462   0.813   9.456  0.9812 -1.5078 -0.2375
 6611SOL     OW31465   0.869   4.240   2.162  0.1595 -0.0625  0.0663
 6611SOL    HW131466   0.879   4.213   2.253  0.9525  1.5309  0.4572
 6611SOL    HW231467   0.859   4.158   2.113 -2.0079  2.4899 -3.7974
 6612SOL     OW31468   1.442   0.717  13.501 -0.3729  0.1327  0.5962
 6612SOL    HW131469   1.521   0.744  13.454 -0.4164  0.6204  0.7977
 6612SOL    HW231470   1.459   0.624  13.511  0.1191  0.1823  0.2239
 6613SOL     OW31471   0.354   3.642   5.566  0.2515  0.3493  0.2979
 6613SOL    HW131472   0.390   3.555   5.580 -0.5224 -0.1546 -0.8504
 6613SOL    HW231473   0.334   3.671   5.655  1.3395  3.3436 -0.4537
 6614SOL     OW31474   3.502   1.850   4.435 -0.0314 -0.0672 -0.9878
 6614SOL    HW131475   3.573   1.910   4.458  1.1769 -2.5567  1.7558
 6614SOL    HW231476   3.438   1.875   4.502  1.9719 -1.9005  1.5874
 6615SOL     OW31477   3.705   0.479   9.638 -0.0768  0.1604 -0.1471
 6615SOL    HW131478   3.622   0.516   9.668  0.8296  2.2740 -0.2562
 6615SOL    HW231479   3.769   0.515   9.699  0.1984 -0.3054 -0.1658
 6616SOL     OW31480   1.126   0.781  13.944 -0.1597 -0.1140  0.5560
 6616SOL    HW131481   1.139   0.724  14.020  1.3170 -1.2698 -0.5338
 6616SOL    HW231482   1.180   0.730  13.883 -1.6805  1.7937 -2.3953
 6617SOL     OW31483   1.549   0.465   1.008 -0.3756 -0.0479 -0.6233
 6617SOL    HW131484   1.527   0.460   1.101  0.3956 -0.0050 -0.4370
 6617SOL    HW231485   1.519   0.555   0.999 -2.2548 -0.6445 -0.2867
 6618SOL     OW31486   0.009   3.309   9.262  0.4181  0.1340 -0.2034
 6618SOL    HW131487   4.676   3.248   9.290 -0.6035  2.3477  2.1312
 6618SOL    HW231488   0.040   3.259   9.187  2.2990 -0.2979  0.8379
 6619SOL     OW31489   3.485   0.839   4.396  0.1027  0.0389  0.0463
 6619SOL    HW131490   3.564   0.893   4.398 -0.5215  0.9964 -1.4884
 6619SOL    HW231491   3.424   0.903   4.361  0.2098 -0.0359 -0.2825
 6620SOL     OW31492   3.777   2.360   4.097 -0.5766 -0.5541  0.6183
 6620SOL    HW131493   3.770   2.341   4.003  1.4165  0.7457  0.1938
 6620SOL    HW231494   3.706   2.307   4.133 -0.7381 -1.9500 -1.7591
 6621SOL     OW31495   3.538   0.217  10.185 -0.4251 -0.7644 -0.3924
 6621SOL    HW131496   3.507   0.220  10.094 -0.1412  0.7143 -0.4465
 6621SOL    HW231497   3.573   0.306  10.191  0.1067 -0.8211 -2.7345
 6622SOL     OW31498   2.091   2.500   4.698  0.2440  0.1585 -0.8549
 6622SOL    HW131499   2.084   2.425   4.639 -0.2623  0.1909 -0.8343
 6622SOL    HW231500   2.035   2.487   4.774  0.8822  3.7340  0.2480
 6623SOL     OW31501   0.183   3.500  13.919  0.0584 -0.1605 -1.1362
 6623SOL    HW131502   0.277   3.485  13.923  0.0449 -0.0773 -0.5581
 6623SOL    HW231503   0.188   3.590  13.950 -1.1950 -0.8086  0.9112
 6624SOL     OW31504   3.913   4.445   2.406  0.2222  0.0685 -0.0629
 6624SOL    HW131505   3.939   4.527   2.448 -0.9758  1.2098 -1.5452
 6624SOL    HW231506   3.989   4.398   2.370  0.2237 -0.0795  0.1376
 6625SOL     OW31507   1.020   2.467   5.057  0.7050  0.4715 -0.5088
 6625SOL    HW131508   1.027   2.388   5.003 -0.6563  0.3681 -0.5340
 6625SOL    HW231509   1.107   2.507   5.047  1.1981 -0.8787 -1.6752
 6626SOL     OW31510   0.225   3.901   3.002 -0.1508  0.0659 -0.7255
 6626SOL    HW131511   0.298   3.900   2.940  0.3568  1.5288 -0.1731
 6626SOL    HW231512   0.238   3.824   3.057  1.6794  0.2592 -0.8882
 6627SOL     OW31513   1.137   0.123   3.561 -0.4863 -0.1419 -0.5325
 6627SOL    HW131514   1.144   0.218   3.550  0.3388 -0.0294  0.8688
 6627SOL    HW231515   1.044   0.107   3.544 -0.5205 -1.5287  0.9353
 6628SOL     OW31516   2.928   2.893  12.218 -0.3642 -0.7579  0.9194
 6628SOL    HW131517   2.885   2.899  12.133 -0.9084  3.8596  1.5303
 6628SOL    HW231518   2.996   2.829  12.198  1.4346  0.8691  1.8774
 6629SOL     OW31519   4.164   1.564   4.477  0.5355  0.7010  0.0914
 6629SOL    HW131520   4.146   1.503   4.406  1.5917  3.0201 -2.1457
 6629SOL    HW231521   4.076   1.569   4.515  1.3205  3.0901  1.5448
 6630SOL     OW31522   0.441   0.299   8.190  0.0534  0.2599 -0.6010
 6630SOL    HW131523   0.350   0.321   8.209 -0.4848 -0.7369 -2.0145
 6630SOL    HW231524   0.467   0.241   8.262 -0.4004  0.8082  0.0097
 6631SOL     OW31525   3.067   0.851   4.440 -0.1488  0.3048  0.0907
 6631SOL    HW131526   3.154   0.835   4.478 -0.3933 -1.1640  0.0210
 6631SOL    HW231527   3.026   0.766   4.429  0.8592 -0.2299  0.4075
 6632SOL     OW31528   4.033   4.192   2.606 -0.4212  0.7391 -0.2452
 6632SOL    HW131529   4.124   4.175   2.630 -0.2352 -0.6221 -1.8793
 6632SOL    HW231530   4.035   4.272   2.552 -1.2768 -0.1357 -1.5697
 6633SOL     OW31531   3.024   3.343   2.109 -1.1285  0.6776  0.4501
 6633SOL    HW131532   3.036   3.255   2.145 -0.9993 -0.4274 -2.2618
 6633SOL    HW231533   3.036   3.388   2.192  0.1625  0.9163  0.1433
 6634SOL     OW31534   4.468   1.284   5.797  0.3996 -0.1646 -0.4036
 6634SOL    HW131535   4.383   1.268   5.838 -1.0238 -1.1446 -3.7380
 6634SOL    HW231536   4.489   1.373   5.826  1.7038  0.1160 -2.2042
 6635SOL     OW31537   2.746   0.423   6.171 -0.2243 -0.0746 -0.4171
 6635SOL    HW131538   2.718   0.335   6.196 -1.3469  0.0424 -1.2233
 6635SOL    HW231539   2.841   0.425   6.180 -0.3473 -1.2517  1.0179
 6636SOL     OW31540   3.539   2.781   9.527  0.3376  0.1292  0.2233
 6636SOL    HW131541   3.480   2.814   9.460  3.5008  3.2297 -1.0282
 6636SOL    HW231542   3.576   2.706   9.480 -1.3367 -1.5920  1.6630
 6637SOL     OW31543   1.267   1.141   3.453 -0.2121 -0.2902  0.2781
 6637SOL    HW131544   1.274   1.236   3.463  1.4136 -0.2597 -1.1723
 6637SOL    HW231545   1.359   1.117   3.441 -0.4884 -1.7582  1.0586
 6638SOL     OW31546   2.480   2.063   8.380 -0.3158 -0.0812  0.3053
 6638SOL    HW131547   2.429   2.136   8.414  1.2671  0.8592  0.6952
 6638SOL    HW231548   2.552   2.059   8.443  0.7932  0.3219 -0.9414
 6639SOL     OW31549   1.873   3.815   5.864 -0.0022 -0.0435  0.2702
 6639SOL    HW131550   1.942   3.847   5.805 -0.0899 -0.0961  0.1397
 6639SOL    HW231551   1.830   3.898   5.884 -0.9887 -0.7954  1.2725
 6640SOL     OW31552   3.517   2.210   4.137 -0.6136 -0.6094 -0.0662
 6640SOL    HW131553   3.486   2.143   4.077 -1.2991 -0.4583  0.1157
 6640SOL    HW231554   3.443   2.270   4.122  1.1262  1.2675 -1.2422
 6641SOL     OW31555   3.985   2.290   5.823 -0.5959 -0.3492 -0.0943
 6641SOL    HW131556   3.965   2.221   5.760  1.3350  1.5370 -2.7627
 6641SOL    HW231557   4.081   2.295   5.823 -0.5349 -2.0455 -4.1765
 6642SOL     OW31558   1.566   2.690   8.243 -0.8531 -0.3478  0.5382
 6642SOL    HW131559   1.597   2.622   8.183 -0.5730  0.9547 -0.7914
 6642SOL    HW231560   1.482   2.712   8.203  0.1980  0.2691 -1.2953
 6643SOL     OW31561   3.772   4.669  11.085  0.2154 -0.0052 -0.4636
 6643SOL    HW131562   3.811   0.014  11.119 -1.7154 -0.0201  1.7787
 6643SOL    HW231563   3.733   4.699  11.003 -1.7282 -0.0074  0.4524
 6644SOL     OW31564   3.987   3.725   6.396 -0.2882 -0.3346  0.3472
 6644SOL    HW131565   4.036   3.654   6.440  0.1344 -0.4404 -0.2924
 6644SOL    HW231566   3.905   3.726   6.445  0.3117  0.6329  1.3516
 6645SOL     OW31567   3.447   1.301  10.633 -0.4209  0.5997  0.0174
 6645SOL    HW131568   3.438   1.214  10.594 -2.6472 -0.0627  1.9817
 6645SOL    HW231569   3.411   1.363  10.569  2.1358  0.9691 -1.0436
 6646SOL     OW31570   3.384   4.108   6.373 -0.1181  0.1215  0.6497
 6646SOL    HW131571   3.365   4.087   6.282  0.3139  0.8791  0.3832
 6646SOL    HW231572   3.384   4.020   6.411 -0.0316  0.5411  1.6404
 6647SOL     OW31573   1.216   2.340  15.867 -0.2525 -0.5832 -0.3085
 6647SOL    HW131574   1.281   2.400  15.904 -1.7396 -1.6475  4.0698
 6647SOL    HW231575   1.268   2.300  15.797  0.2637 -1.3436  0.5102
 6648SOL     OW31576   0.492   1.600  13.860 -0.2384  0.0765  0.1204
 6648SOL    HW131577   0.552   1.528  13.839 -0.5342  0.2941 -1.5194
 6648SOL    HW231578   0.520   1.616  13.950 -0.5406 -0.8629  0.3858
 6649SOL     OW31579   2.922   2.581  14.892  0.2661 -0.9592  0.2563
 6649SOL    HW131580   2.917   2.523  14.816 -1.8369 -0.3640 -0.0568
 6649SOL    HW231581   3.016   2.599  14.893  0.0611  0.1800 -1.7050
 6650SOL     OW31582   2.935   1.951   3.037  0.0048  0.5720 -0.4300
 6650SOL    HW131583   3.027   1.925   3.032 -0.3013 -1.1532  2.6591
 6650SOL    HW231584   2.929   1.998   3.120 -0.5234 -0.1294 -0.0667
 6651SOL     OW31585   2.576   1.849   4.155  0.7362  0.2826  0.5234
 6651SOL    HW131586   2.514   1.794   4.203 -0.3829  1.8247  0.8406
 6651SOL    HW231587   2.617   1.879   4.237  0.8688  2.1662 -0.2435
 6652SOL     OW31588   1.792   3.552   2.878 -0.1513 -0.2555 -0.0432
 6652SOL    HW131589   1.825   3.630   2.832  0.5692 -0.5245  0.0201
 6652SOL    HW231590   1.836   3.479   2.835  0.7096 -1.0635  2.2334
 6653SOL     OW31591   0.197   2.763   9.629 -0.2233 -0.2070 -0.2481
 6653SOL    HW131592   0.161   2.682   9.664 -0.1068 -0.6385 -1.1194
 6653SOL    HW231593   0.172   2.768   9.537 -0.2532 -1.6135 -0.3064
 6654SOL     OW31594   2.142   1.656  15.240  0.2933  0.8620  0.3573
 6654SOL    HW131595   2.096   1.646  15.158  1.8304 -1.4469 -0.2289
 6654SOL    HW231596   2.235   1.661  15.215  0.3597  0.3229  0.5012
 6655SOL     OW31597   2.890   2.774   3.836  0.6814  0.4565 -0.5687
 6655SOL    HW131598   2.813   2.830   3.831  0.2704 -0.1109 -0.6652
 6655SOL    HW231599   2.935   2.801   3.916 -0.8754  0.9287  0.1509
 6656SOL     OW31600   3.492   1.550  16.145 -0.1394  0.0383  0.2645
 6656SOL    HW131601   3.581   1.517  16.131 -0.0415  0.2609  0.3719
 6656SOL    HW231602   3.461   1.540  16.055 -0.5355  1.5910  0.2388
 6657SOL     OW31603   0.417   3.599  13.669  0.3532 -0.0209  0.2184
 6657SOL    HW131604   0.509   3.571  13.672 -0.0762 -1.4640 -0.1434
 6657SOL    HW231605   0.371   3.516  13.671 -1.1358  0.8277  1.3721
 6658SOL     OW31606   4.104   3.997   5.275 -0.4879  0.5847 -0.3285
 6658SOL    HW131607   4.137   4.072   5.226  0.3652  1.3195  1.3671
 6658SOL    HW231608   4.075   3.934   5.209  0.4496  0.9263 -1.0573
 6659SOL     OW31609   1.449   0.431   1.560  0.1703 -0.7659  0.6666
 6659SOL    HW131610   1.356   0.441   1.544  0.4855 -0.3498 -0.9175
 6659SOL    HW231611   1.483   0.516   1.591  0.2523 -0.3398 -0.5798
 6660SOL     OW31612   4.518   3.516   7.972 -0.8118  0.5417 -0.2666
 6660SOL    HW131613   4.501   3.603   7.936 -2.8132  0.7859  1.3080
 6660SOL    HW231614   4.613   3.520   7.988 -1.3034 -0.2435  2.7829
 6661SOL     OW31615   4.448   1.355   9.283 -0.0553  0.0101 -0.3949
 6661SOL    HW131616   4.435   1.297   9.358 -1.0688  1.6573  0.7092
 6661SOL    HW231617   4.494   1.429   9.323 -0.7843 -0.3977  1.1904
 6662SOL     OW31618   2.585   0.308   2.319  0.0661  0.0179  0.4844
 6662SOL    HW131619   2.597   0.377   2.384 -0.9354  0.2950  0.3799
 6662SOL    HW231620   2.497   0.280   2.346 -1.0382  2.9608 -0.0663
 6663SOL     OW31621   2.663   3.446  14.899 -0.1244 -0.6832  0.3313
 6663SOL    HW131622   2.710   3.409  14.824  0.1537  2.3748 -1.0032
 6663SOL    HW231623   2.731   3.504  14.933 -0.4067 -0.3145  0.2680
 6664SOL     OW31624   2.056   0.389   2.526  0.1871  0.3446 -0.0094
 6664SOL    HW131625   2.104   0.318   2.567 -0.3949  0.1462  0.3263
 6664SOL    HW231626   1.982   0.338   2.495  0.4879 -2.1370  3.3667
 6665SOL     OW31627   0.159   0.604   3.264 -0.3864 -0.3696  0.1302
 6665SOL    HW131628   0.238   0.564   3.229 -0.1208 -0.7210  1.1358
 6665SOL    HW231629   0.098   0.589   3.192  0.5801  0.1644 -0.7891
 6666SOL     OW31630   3.877   3.389   3.678  0.5939 -0.1606 -0.2044
 6666SOL    HW131631   3.811   3.432   3.732  1.0310 -1.5901  1.4406
 6666SOL    HW231632   3.927   3.348   3.748  0.3317 -0.9646 -0.4901
 6667SOL     OW31633   1.043   1.202   1.493  0.2031 -0.0556  0.1934
 6667SOL    HW131634   1.089   1.268   1.545  0.2181  0.8383 -0.9504
 6667SOL    HW231635   1.013   1.247   1.414 -1.1744  1.4395  1.5765
 6668SOL     OW31636   3.156   0.926   9.932  0.5310 -0.3253 -0.3221
 6668SOL    HW131637   3.132   0.912   9.841  1.7832 -1.4196 -0.4822
 6668SOL    HW231638   3.068   0.943   9.964 -0.2165 -0.1403 -2.4736
 6669SOL     OW31639   0.440   0.679   7.102  0.0578  0.0979  0.3840
 6669SOL    HW131640   0.505   0.623   7.144 -0.2547  0.3930  1.2584
 6669SOL    HW231641   0.381   0.620   7.056 -0.0543 -0.6832  1.5190
 6670SOL     OW31642   3.039   3.376   1.702  0.4502 -0.1133  0.1455
 6670SOL    HW131643   2.987   3.455   1.686  0.2759 -0.6525 -1.9525
 6670SOL    HW231644   3.082   3.396   1.785 -0.6690  2.0370  0.2008
 6671SOL     OW31645   3.564   3.881   3.022 -0.3879 -0.3589 -0.2936
 6671SOL    HW131646   3.481   3.891   3.068 -0.0389  0.8815  0.0390
 6671SOL    HW231647   3.602   3.814   3.079  2.2176 -0.1843 -1.8275
 6672SOL     OW31648   4.553   0.908   5.823  0.2413  0.6615  0.1362
 6672SOL    HW131649   4.603   0.828   5.835 -0.6529 -0.0598 -0.9594
 6672SOL    HW231650   4.489   0.920   5.893  1.4079 -1.0166  1.4858
 6673SOL     OW31651   1.498   3.138  11.966 -0.5717  0.5565  0.4136
 6673SOL    HW131652   1.465   3.076  12.031 -1.8261 -0.7861 -1.5020
 6673SOL    HW231653   1.573   3.095  11.925  2.2331  4.9553  1.0091
 6674SOL     OW31654   1.567   4.051   6.622  0.1610  0.1853 -0.2375
 6674SOL    HW131655   1.491   4.012   6.665  2.3790 -0.9213  2.7062
 6674SOL    HW231656   1.547   4.039   6.529 -2.3460  1.2175  0.1642
 6675SOL     OW31657   1.709   2.687   3.183 -0.0439  0.0739  0.2640
 6675SOL    HW131658   1.747   2.723   3.103 -1.2915  0.1370 -0.3097
 6675SOL    HW231659   1.778   2.640   3.230 -1.1574 -2.6448 -0.8079
 6676SOL     OW31660   0.649   0.084  10.124  0.5256 -0.5740  0.4563
 6676SOL    HW131661   0.731   0.048  10.158  1.0177  0.9558  0.8878
 6676SOL    HW231662   0.639   0.031  10.045  1.6562 -0.5299  0.2887
 6677SOL     OW31663   2.869   2.390   7.595 -0.6104 -0.9125  0.3936
 6677SOL    HW131664   2.903   2.479   7.603 -0.4613 -0.5867 -3.8079
 6677SOL    HW231665   2.890   2.365   7.505 -3.2647  0.7876 -0.7017
 6678SOL     OW31666   0.012   2.828   2.851 -0.1022  0.0551 -0.1215
 6678SOL    HW131667   0.080   2.880   2.895 -1.5829  1.1397  0.8449
 6678SOL    HW231668   0.026   2.746   2.898  1.3391  1.1620  1.4297
 6679SOL     OW31669   2.406   4.268   7.361  0.1291 -0.0483 -0.7726
 6679SOL    HW131670   2.387   4.356   7.393  0.7895 -0.3796  0.5244
 6679SOL    HW231671   2.475   4.254   7.426 -0.3707 -0.6415 -0.3692
 6680SOL     OW31672   1.401   2.324   2.525 -0.1004 -0.2753 -0.3378
 6680SOL    HW131673   1.382   2.400   2.579 -1.5668  1.1237 -2.7904
 6680SOL    HW231674   1.495   2.332   2.510  0.1943 -2.5425  0.3353
 6681SOL     OW31675   0.590   1.088   1.032  0.6179 -0.3732  0.4284
 6681SOL    HW131676   0.660   1.117   0.974 -1.2101  0.8520 -1.1770
 6681SOL    HW231677   0.567   1.163   1.087 -1.2110 -0.9053  0.4026
 6682SOL     OW31678   0.433   4.138   4.999 -0.3487 -0.4751  0.1815
 6682SOL    HW131679   0.367   4.100   4.941  0.1109 -1.1476  0.0991
 6682SOL    HW231680   0.372   4.168   5.066  0.8612  0.7633  0.7223
 6683SOL     OW31681   3.796   1.892   2.843  0.3787  0.1018  0.4119
 6683SOL    HW131682   3.872   1.893   2.900  1.5546  1.5060 -1.1753
 6683SOL    HW231683   3.796   1.805   2.804  1.2576 -0.8285  2.5173
 6684SOL     OW31684   0.862   0.988   2.303 -0.7504 -0.4341  0.1442
 6684SOL    HW131685   0.952   0.961   2.322 -0.1683  1.0840 -0.3812
 6684SOL    HW231686   0.865   1.075   2.343 -2.0657  0.3415 -1.4474
 6685SOL     OW31687   1.340   3.008   5.916  0.7458 -0.4792 -0.2115
 6685SOL    HW131688   1.263   2.987   5.864 -0.1792  0.0016  0.9616
 6685SOL    HW231689   1.409   2.999   5.851 -0.9308  1.6815 -2.2847
 6686SOL     OW31690   4.285   4.014   2.494 -0.2698 -0.1209  0.8768
 6686SOL    HW131691   4.253   4.015   2.404  3.1314 -2.1572 -0.3376
 6686SOL    HW231692   4.233   3.946   2.536 -2.2345  1.3231  0.7953
 6687SOL     OW31693   2.563   1.687   6.274  0.0784 -0.3407 -0.1137
 6687SOL    HW131694   2.579   1.644   6.190 -0.1907 -0.0745 -0.3022
 6687SOL    HW231695   2.594   1.630   6.345 -0.8516 -2.9574 -1.8013
 6688SOL     OW31696   1.091   3.773  10.991 -0.4430  0.2851  0.1926
 6688SOL    HW131697   1.064   3.684  11.012  1.0867  0.0333  1.1083
 6688SOL    HW231698   1.123   3.806  11.075  2.3777 -1.4688 -0.1867
 6689SOL     OW31699   4.446   4.197   5.421 -0.5528  0.7679  0.3060
 6689SOL    HW131700   4.422   4.135   5.351  1.1241  1.8588 -1.2388
 6689SOL    HW231701   4.473   4.134   5.488 -1.0209  0.9908  0.7076
 6690SOL     OW31702   1.547   1.707   6.181  0.0633 -0.0426 -0.1372
 6690SOL    HW131703   1.507   1.728   6.265  1.2099 -0.5597  0.5436
 6690SOL    HW231704   1.479   1.727   6.117  0.1921 -1.1188 -0.6155
 6691SOL     OW31705   1.169   2.623   1.369 -0.1315 -0.1077  0.5635
 6691SOL    HW131706   1.159   2.569   1.448  1.8240 -0.7685  0.3527
 6691SOL    HW231707   1.145   2.549   1.313 -0.2608 -0.0635  0.5592
 6692SOL     OW31708   0.901   1.966   6.070  0.1605 -0.2481  0.0207
 6692SOL    HW131709   0.976   2.025   6.078  1.2660 -1.6968  0.2839
 6692SOL    HW231710   0.845   1.998   6.141  0.6294 -1.5803  0.9960
 6693SOL     OW31711   3.477   3.753   3.980 -0.0127  0.4372 -0.0494
 6693SOL    HW131712   3.457   3.843   3.954 -2.6257 -0.2306 -0.2926
 6693SOL    HW231713   3.389   3.719   3.997 -1.3278  4.2611  0.7190
 6694SOL     OW31714   4.593   2.961   2.564 -0.4083 -0.4957  0.1598
 6694SOL    HW131715   4.564   3.004   2.484  0.6732  1.8691  1.0394
 6694SOL    HW231716   4.522   2.897   2.573  1.2724 -2.1788  1.5444
 6695SOL     OW31717   3.809   0.541  14.115 -0.3355  0.1842  0.3538
 6695SOL    HW131718   3.728   0.580  14.148 -0.5775 -0.4201  0.4739
 6695SOL    HW231719   3.779   0.470  14.059  0.1031  0.2099  0.0826
 6696SOL     OW31720   4.091   0.180   3.169 -0.1368 -0.1315 -0.3457
 6696SOL    HW131721   4.113   0.094   3.205 -1.7471 -0.5955 -0.4565
 6696SOL    HW231722   4.166   0.209   3.117 -1.5183  1.3949 -1.4840
 6697SOL     OW31723   3.377   0.628   6.967 -0.1028  0.5406 -1.2542
 6697SOL    HW131724   3.375   0.541   7.007  0.9610 -0.1738 -2.7582
 6697SOL    HW231725   3.388   0.690   7.039 -1.1311  0.7190 -1.2464
 6698SOL     OW31726   0.086   1.344   5.671  0.1698  0.2845  0.2177
 6698SOL    HW131727   0.035   1.400   5.729 -0.2618 -1.3682  1.4312
 6698SOL    HW231728   0.033   1.265   5.677 -1.2934  1.2915  0.6108
 6699SOL     OW31729   3.957   3.573   8.674  0.1764 -0.2744 -0.1015
 6699SOL    HW131730   3.899   3.649   8.673  2.1160  1.1927 -0.7499
 6699SOL    HW231731   4.010   3.590   8.752 -0.2403 -0.6935  0.2798
 6700SOL     OW31732   3.246   1.464   9.073  0.9983 -0.5161 -0.3230
 6700SOL    HW131733   3.303   1.524   9.121  0.3536  1.0859 -1.5642
 6700SOL    HW231734   3.218   1.519   8.999 -1.8672 -0.8371  0.5258
 6701SOL     OW31735   1.836   0.127   3.531 -0.2401  0.1729 -0.6505
 6701SOL    HW131736   1.878   0.102   3.614  1.1737  3.5956 -0.3121
 6701SOL    HW231737   1.910   0.162   3.482 -0.8486  1.8040 -0.4182
 6702SOL     OW31738   1.515   3.485   0.482 -0.1077 -0.0106 -0.5043
 6702SOL    HW131739   1.522   3.391   0.499 -0.5157  0.3365  1.5667
 6702SOL    HW231740   1.471   3.491   0.397 -1.4658  0.1288  0.2235
 6703SOL     OW31741   2.256   2.461   5.824 -0.5272 -0.6490  0.3614
 6703SOL    HW131742   2.195   2.424   5.888 -1.9764  2.0609  0.5280
 6703SOL    HW231743   2.334   2.454   5.880 -0.4911  0.0751  0.4041
 6704SOL     OW31744   1.175   4.133   5.490 -0.1401  0.2275 -0.5502
 6704SOL    HW131745   1.182   4.166   5.400 -3.0679 -2.1925 -1.6576
 6704SOL    HW231746   1.131   4.050   5.472 -0.2469 -0.0020  0.7980
 6705SOL     OW31747   0.343   3.634   1.761 -0.0155  0.4373 -0.4925
 6705SOL    HW131748   0.411   3.696   1.784 -0.7395  1.2020 -0.4249
 6705SOL    HW231749   0.322   3.602   1.848  1.2904 -1.5527 -0.8846
 6706SOL     OW31750   0.885   0.752  10.407  0.5593 -0.3870  0.1493
 6706SOL    HW131751   0.823   0.813  10.365  0.9188 -1.4718 -1.9479
 6706SOL    HW231752   0.887   0.680  10.345  1.3177 -0.7959  0.6629
 6707SOL     OW31753   2.679   3.458   5.855 -0.4790  0.0016  0.0588
 6707SOL    HW131754   2.728   3.467   5.937  0.5406  0.0750 -0.5645
 6707SOL    HW231755   2.640   3.371   5.866 -2.1743  0.9584  1.5599
 6708SOL     OW31756   0.727   1.991   0.731 -0.3718 -0.3791  0.7867
 6708SOL    HW131757   0.695   2.018   0.817 -0.0998 -2.6659  1.5842
 6708SOL    HW231758   0.641   1.984   0.689 -0.2210 -0.6175  0.5244
 6709SOL     OW31759   3.480   4.494   4.805  1.0053  0.2231  0.1112
 6709SOL    HW131760   3.422   4.456   4.739 -0.7671  0.0366  1.7593
 6709SOL    HW231761   3.428   4.561   4.849 -0.0693 -1.4654  1.4543
 6710SOL     OW31762   3.469   3.202   7.557  0.5689  0.0217  0.2374
 6710SOL    HW131763   3.521   3.130   7.592  0.4338 -0.9710 -1.5922
 6710SOL    HW231764   3.488   3.273   7.619 -0.4355  0.0197  0.5482
 6711SOL     OW31765   4.723   3.205   7.374 -0.6426 -0.1837 -0.5091
 6711SOL    HW131766   4.673   3.183   7.452 -0.3208  2.5387  0.4593
 6711SOL    HW231767   0.003   3.299   7.380 -2.5943  0.0266  1.1905
 6712SOL     OW31768   2.996   1.159  10.534  1.1413  0.2379 -0.3010
 6712SOL    HW131769   3.037   1.079  10.567  0.6959  0.7507  1.4847
 6712SOL    HW231770   2.973   1.132  10.445 -4.4366 -1.0521  1.5584
 6713SOL     OW31771   3.887   2.442  15.399 -0.0617  0.1975  0.3912
 6713SOL    HW131772   3.967   2.484  15.369  0.0361 -1.3558 -1.4835
 6713SOL    HW231773   3.905   2.362  15.448 -0.2681  0.1847  0.4486
 6714SOL     OW31774   1.711   2.470   2.052  0.6050 -0.1322  0.1851
 6714SOL    HW131775   1.705   2.551   2.101  1.2619  0.8369 -1.3362
 6714SOL    HW231776   1.806   2.461   2.045  0.5115 -0.1844 -1.0295
 6715SOL     OW31777   0.240   2.282   4.023 -0.5037 -0.2185 -0.2003
 6715SOL    HW131778   0.247   2.356   4.083 -3.6296 -0.6370  0.7121
 6715SOL    HW231779   0.295   2.311   3.950 -0.7941  2.0048  0.4701
 6716SOL     OW31780   1.605   4.152  16.829  0.2657  0.5400  0.5592
 6716SOL    HW131781   1.567   4.190  16.750 -1.4220  2.1353  2.1410
 6716SOL    HW231782   1.695   4.141  16.797  1.1034  1.5631  2.5887
 6717SOL     OW31783   0.149   1.955  13.092 -0.2271  0.2836  0.0437
 6717SOL    HW131784   0.126   1.867  13.123 -1.5652  0.3047 -0.8522
 6717SOL    HW231785   0.102   1.954  13.008 -1.2764  0.7341  0.6261
 6718SOL     OW31786   0.244   1.122  15.417  0.2910  0.4284  0.3330
 6718SOL    HW131787   0.327   1.091  15.381 -0.2947  0.0929 -0.7080
 6718SOL    HW231788   0.183   1.105  15.346  0.0924  0.1968  0.5585
 6719SOL     OW31789   1.769   2.035  10.107  0.3765  0.0274 -0.1944
 6719SOL    HW131790   1.861   2.032  10.082  0.5171  1.8562  0.1376
 6719SOL    HW231791   1.726   2.065  10.026  0.9272  1.5376  0.0729
 6720SOL     OW31792   2.440   1.598   5.822  0.2206 -0.2181  0.2420
 6720SOL    HW131793   2.380   1.536   5.863  1.2344  0.5582  2.9161
 6720SOL    HW231794   2.403   1.681   5.853  0.0367 -0.2927  0.2197
 6721SOL     OW31795   2.104   1.327   0.061 -0.0382 -0.2085  0.2169
 6721SOL    HW131796   2.199   1.313   0.056 -0.0130 -0.1030  0.3847
 6721SOL    HW231797   2.084   1.259  17.737 -3.6188 -0.4378  1.6172
 6722SOL     OW31798   2.979   2.853   4.180 -0.6716  0.1445 -0.3725
 6722SOL    HW131799   2.964   2.917   4.249 -0.5579 -0.5547  0.2983
 6722SOL    HW231800   3.025   2.793   4.238  1.4626  1.0042 -1.1526
 6723SOL     OW31801   3.653   4.655   4.975  0.0990  0.0174 -0.6530
 6723SOL    HW131802   3.618   4.598   4.907  2.5489 -1.1680 -0.9221
 6723SOL    HW231803   3.727   4.607   5.014  0.7916  0.3342 -1.6053
 6724SOL     OW31804   3.746   4.496   1.733  0.0904  0.0979 -0.5717
 6724SOL    HW131805   3.718   4.431   1.669 -2.1764  0.4076  0.1063
 6724SOL    HW231806   3.790   4.557   1.673  1.5151 -1.9797 -1.6475
 6725SOL     OW31807   1.460   0.085  15.258  0.1387 -0.1659  0.4465
 6725SOL    HW131808   1.376   0.046  15.234 -0.4031  1.8398 -0.9627
 6725SOL    HW231809   1.468   0.054  15.348  0.2907 -1.3174  0.0309
 6726SOL     OW31810   1.370   1.796   5.078  0.4252 -0.1986  0.2822
 6726SOL    HW131811   1.322   1.838   5.150 -0.4469  1.0301 -1.0222
 6726SOL    HW231812   1.311   1.721   5.074  0.5779 -0.2896 -0.2633
 6727SOL     OW31813   1.459   1.647  17.521 -0.0403  0.4874 -0.4725
 6727SOL    HW131814   1.520   1.671  17.591 -0.9436 -1.6331  1.0548
 6727SOL    HW231815   1.388   1.624  17.581 -2.1617  1.6749 -2.5260
 6728SOL     OW31816   2.932   1.121   4.043  0.1903 -0.2618  0.5488
 6728SOL    HW131817   2.870   1.091   4.110  0.3279  0.9041  1.1838
 6728SOL    HW231818   2.878   1.189   4.002  0.6252 -0.2368  0.0115
 6729SOL     OW31819   0.965   1.524   1.420 -0.3887 -0.3390 -0.3626
 6729SOL    HW131820   0.934   1.613   1.403 -0.1317  0.0482  1.1836
 6729SOL    HW231821   0.885   1.473   1.427 -0.3938 -0.0709  1.5808
 6730SOL     OW31822   3.541   0.187   8.475 -0.3273 -0.1793 -0.1331
 6730SOL    HW131823   3.581   0.255   8.420 -1.2821 -0.5058 -1.2336
 6730SOL    HW231824   3.620   0.148   8.512 -1.8329 -1.5918  1.6217
 6731SOL     OW31825   2.240   1.082   8.183 -0.2570  0.1584  0.2707
 6731SOL    HW131826   2.168   1.069   8.245  0.9012 -0.1406  1.5267
 6731SOL    HW231827   2.278   0.994   8.184 -0.8518 -0.0707  2.8359
 6732SOL     OW31828   0.482   2.622   2.774 -0.7514  0.0310  0.4991
 6732SOL    HW131829   0.503   2.540   2.729 -0.7126 -0.3278  1.1722
 6732SOL    HW231830   0.538   2.612   2.851 -0.0087 -1.9657 -0.2974
 6733SOL     OW31831   4.413   2.021  11.227  0.4258  0.0264 -0.4268
 6733SOL    HW131832   4.462   2.072  11.292  1.6571 -1.0365 -0.5356
 6733SOL    HW231833   4.484   1.963  11.199 -1.4591 -1.8924 -1.1834
 6734SOL     OW31834   2.404   1.061   7.868  0.0018  0.4419  0.1053
 6734SOL    HW131835   2.415   1.087   7.776 -1.1206  1.0579  0.1422
 6734SOL    HW231836   2.327   1.112   7.894 -0.0384  0.7331 -0.5798
 6735SOL     OW31837   0.322   1.048  11.045 -0.4566 -0.0735  0.0246
 6735SOL    HW131838   0.320   0.997  11.126 -2.8135  0.2079  0.1492
 6735SOL    HW231839   0.383   0.992  10.998  0.4231  0.8608  0.0547
 6736SOL     OW31840   1.831   1.728  10.094  0.2447  0.0265  0.2244
 6736SOL    HW131841   1.818   1.822  10.085 -0.4714 -0.0371  0.5710
 6736SOL    HW231842   1.842   1.715  10.188  3.4308 -1.3786 -0.3472
 6737SOL     OW31843   3.077   0.907   7.551  0.0326 -0.0984 -0.0921
 6737SOL    HW131844   3.003   0.849   7.565 -0.4661  0.4501 -0.4501
 6737SOL    HW231845   3.100   0.869   7.466 -0.0099  1.0239 -0.6062
 6738SOL     OW31846   0.238   2.659   2.896 -0.1212 -0.0771  0.2675
 6738SOL    HW131847   0.310   2.677   2.835  1.5862 -1.2932  1.9513
 6738SOL    HW231848   0.286   2.623   2.970  1.0780  0.0132 -0.4755
 6739SOL     OW31849   3.492   0.714   8.258 -0.2960  0.0104  0.2894
 6739SOL    HW131850   3.582   0.731   8.230 -1.0242  1.9809 -0.8336
 6739SOL    HW231851   3.482   0.783   8.323 -0.2362  1.3888 -1.1579
 6740SOL     OW31852   1.558   3.348   2.818 -0.2209  0.1040  0.4244
 6740SOL    HW131853   1.534   3.426   2.768  1.6882  0.3259 -0.1268
 6740SOL    HW231854   1.652   3.363   2.817  0.0783 -1.8756  0.2817
 6741SOL     OW31855   1.105   0.654   3.051 -0.3957 -0.6724  0.6943
 6741SOL    HW131856   1.197   0.670   3.068 -0.0272 -1.3520 -0.5958
 6741SOL    HW231857   1.078   0.738   3.013 -2.2146 -1.5237  0.0658
 6742SOL     OW31858   2.063   0.106  17.656 -0.5356  0.4584  0.2421
 6742SOL    HW131859   2.016   0.187  17.636 -1.0411  0.4186  1.2896
 6742SOL    HW231860   2.144   0.136  17.697  0.2778 -2.0311  0.4772
 6743SOL     OW31861   0.154   2.780   2.037 -0.2047 -0.3575  0.1110
 6743SOL    HW131862   0.207   2.704   2.015 -0.5194 -1.1285  2.0004
 6743SOL    HW231863   0.088   2.742   2.094 -0.9449  0.7560  0.0038
 6744SOL     OW31864   0.667   2.208   7.782  0.3633  0.5672 -0.2263
 6744SOL    HW131865   0.710   2.244   7.860  3.1679 -2.4539 -0.3226
 6744SOL    HW231866   0.576   2.217   7.808  0.1643  1.2994 -1.1834
 6745SOL     OW31867   3.898   0.220   0.829  0.0451 -0.1976  0.1210
 6745SOL    HW131868   3.949   0.298   0.807 -0.2094  0.3021  1.3501
 6745SOL    HW231869   3.825   0.233   0.769  0.5161 -2.2539 -0.8914
 6746SOL     OW31870   3.671   4.122   7.854 -0.2655  0.2182  0.1214
 6746SOL    HW131871   3.619   4.202   7.861  0.9016  0.9268  0.6200
 6746SOL    HW231872   3.604   4.070   7.809  0.6669  1.5326 -2.8528
 6747SOL     OW31873   0.396   3.117   9.124 -0.0992 -0.6045 -0.6119
 6747SOL    HW131874   0.444   3.039   9.098 -0.6009 -0.6733 -1.3242
 6747SOL    HW231875   0.428   3.147   9.209  2.4699 -1.6723 -1.2258
 6748SOL     OW31876   4.423   2.176   7.778 -0.5221  0.2906  0.4199
 6748SOL    HW131877   4.465   2.240   7.721  0.2246  0.7944  1.5280
 6748SOL    HW231878   4.363   2.140   7.714  1.0096 -1.0150 -0.2944
 6749SOL     OW31879   2.101   2.073   9.492  0.0267  0.0197  0.4467
 6749SOL    HW131880   2.114   1.992   9.541 -2.3608 -0.2767  0.5859
 6749SOL    HW231881   2.046   2.123   9.552  1.4536 -0.5793  2.2474
 6750SOL     OW31882   0.686   1.774  14.271  0.3766  0.1164  0.0813
 6750SOL    HW131883   0.684   1.863  14.309  0.1085  0.1556 -0.0229
 6750SOL    HW231884   0.728   1.797  14.189 -0.3934 -0.4902 -0.4820
 6751SOL     OW31885   0.037   2.953   8.860  0.1590 -0.3758 -0.3842
 6751SOL    HW131886   0.078   2.871   8.833  2.2769  0.2275  0.9523
 6751SOL    HW231887   0.018   2.998   8.778 -1.1571  0.8617  0.5949
 6752SOL     OW31888   0.142   1.723   1.913  0.7297 -0.1170 -0.3034
 6752SOL    HW131889   0.055   1.723   1.952  0.6771  0.6199 -0.4093
 6752SOL    HW231890   0.175   1.812   1.923  2.0891 -0.6086 -0.4928
 6753SOL     OW31891   0.750   0.547   7.674  0.3812  0.2963 -0.5963
 6753SOL    HW131892   0.809   0.552   7.598  0.5388  0.8199 -0.4436
 6753SOL    HW231893   0.668   0.584   7.640  0.3722 -0.5234 -1.4780
 6754SOL     OW31894   1.258   1.920   5.802 -0.0991  0.7453 -0.2443
 6754SOL    HW131895   1.194   1.850   5.790 -2.0743  2.5107  0.1110
 6754SOL    HW231896   1.253   1.977   5.726 -2.2657  1.3108  0.3187
 6755SOL     OW31897   4.657   0.071   8.773  0.1245 -0.1946  0.2854
 6755SOL    HW131898   0.010   0.033   8.770  0.2075  0.3271 -4.2945
 6755SOL    HW231899   4.656   0.114   8.858 -0.7549  0.1899  0.0736
 6756SOL     OW31900   4.389   4.644  10.904 -0.6263 -0.4680  0.5866
 6756SOL    HW131901   4.308   4.667  10.949 -1.5499 -1.5683 -0.5137
 6756SOL    HW231902   4.450   4.698  10.955 -1.2386 -0.8342  1.7061
 6757SOL     OW31903   2.758   2.770   2.384  0.5588 -0.2443 -0.2288
 6757SOL    HW131904   2.830   2.708   2.371  0.4493  0.0355 -2.0901
 6757SOL    HW231905   2.785   2.823   2.459  1.3645  0.6662 -1.1576
 6758SOL     OW31906   2.146   3.357  10.685 -0.4271 -0.6288 -0.5138
 6758SOL    HW131907   2.089   3.434  10.684  0.6488  0.1662 -0.8176
 6758SOL    HW231908   2.196   3.379  10.764 -0.8267  1.0717 -0.7283
 6759SOL     OW31909   4.309   0.875   9.917 -0.3898  0.5302  0.0549
 6759SOL    HW131910   4.240   0.941   9.910 -0.0936  0.5407 -2.7460
 6759SOL    HW231911   4.256   0.809   9.962 -0.5614  0.4506 -0.2681
 6760SOL     OW31912   3.952   0.144  16.095  0.0086 -0.2112 -0.1231
 6760SOL    HW131913   3.951   0.215  16.032 -1.4539 -0.0703  0.0590
 6760SOL    HW231914   4.002   0.190  16.163 -1.5552 -1.3116  1.7628
 6761SOL     OW31915   2.715   1.048  16.537 -0.4629 -0.1037 -0.3446
 6761SOL    HW131916   2.637   1.095  16.566  0.2361 -0.4130  1.9700
 6761SOL    HW231917   2.720   0.959  16.571  0.3307 -0.5714 -1.7042
 6762SOL     OW31918   4.328   3.047   1.474 -0.6467  0.1433 -0.2994
 6762SOL    HW131919   4.397   3.096   1.431 -1.6788  2.3547  0.5756
 6762SOL    HW231920   4.371   3.018   1.555  0.3398  0.8163 -0.5837
 6763SOL     OW31921   2.116   4.505  10.643 -0.2547 -0.1381 -0.7985
 6763SOL    HW131922   2.020   4.499  10.638 -0.4450  0.9483  1.3754
 6763SOL    HW231923   2.153   4.552  10.568  0.1875 -0.1008 -0.5556
 6764SOL     OW31924   2.755   0.559  11.672  0.5665  0.3121 -0.0160
 6764SOL    HW131925   2.704   0.480  11.691 -1.4999  1.6496 -0.0283
 6764SOL    HW231926   2.704   0.598  11.601 -1.0608  0.0356  1.0002
 6765SOL     OW31927   0.693   0.310  16.699  0.1923 -0.2637 -0.0056
 6765SOL    HW131928   0.624   0.309  16.766  0.4906  1.5836  0.3473
 6765SOL    HW231929   0.751   0.244  16.737  0.0377  0.2259  1.0801
 6766SOL     OW31930   0.114   2.528  10.087  0.2675  0.1393 -0.3358
 6766SOL    HW131931   0.067   2.562  10.163  1.2568  0.1153  0.2910
 6766SOL    HW231932   0.112   2.596  10.021  0.9282  0.9110  0.4337
 6767SOL     OW31933   2.926   4.325   5.990  0.1751 -0.2913  0.6475
 6767SOL    HW131934   2.912   4.420   5.993 -0.3692 -0.3322 -0.4276
 6767SOL    HW231935   2.917   4.309   5.896  1.4027 -0.0149  0.4837
 6768SOL     OW31936   3.846   3.527   9.132 -0.1102 -0.1958  0.1461
 6768SOL    HW131937   3.815   3.501   9.219 -2.5655  3.1392  0.2543
 6768SOL    HW231938   3.941   3.516   9.123 -0.1291 -1.3171  1.1742
 6769SOL     OW31939   2.678   2.787   6.451  0.8622  0.2957 -0.1602
 6769SOL    HW131940   2.670   2.743   6.535  0.5389  0.6169 -0.0232
 6769SOL    HW231941   2.590   2.794   6.415  0.7427  1.4722  0.3651
 6770SOL     OW31942   1.153   2.078   6.032  0.1531 -0.0796 -0.6894
 6770SOL    HW131943   1.210   2.010   5.997 -0.1112 -0.8505  0.3698
 6770SOL    HW231944   1.138   2.129   5.953 -0.2217 -0.5786 -0.9393
 6771SOL     OW31945   1.405   1.788   6.397  0.1012  0.5133 -0.0199
 6771SOL    HW131946   1.397   1.704   6.442 -3.0755  2.3357  2.7390
 6771SOL    HW231947   1.436   1.841   6.470  2.9907 -0.2665 -0.6538
 6772SOL     OW31948   4.008   3.118   8.755 -0.0361  0.3772 -0.1374
 6772SOL    HW131949   3.941   3.051   8.768  0.8477 -0.4912 -0.0876
 6772SOL    HW231950   4.081   3.066   8.721 -2.2626 -2.9204  0.1661
 6773SOL     OW31951   0.067   1.145   5.270 -0.5491 -0.3734  0.2736
 6773SOL    HW131952   0.102   1.058   5.252  0.0310  0.0839 -0.8312
 6773SOL    HW231953   4.725   1.124   5.322  0.2751  0.2686  1.7355
 6774SOL     OW31954   0.988   2.924  14.063  0.1296 -0.2139  0.4470
 6774SOL    HW131955   0.975   2.898  14.155  0.4889  0.7991  0.7852
 6774SOL    HW231956   1.053   2.859  14.034  0.5284  1.1723 -1.7336
 6775SOL     OW31957   2.994   4.220   7.138  0.2656  0.0222  0.0871
 6775SOL    HW131958   2.963   4.310   7.126 -4.1645 -1.3120  1.5056
 6775SOL    HW231959   3.062   4.238   7.202 -0.2174 -2.8527  1.4088
 6776SOL     OW31960   4.283   3.253   4.542  0.7065 -0.5223 -0.7056
 6776SOL    HW131961   4.325   3.210   4.617  1.3335 -0.9476 -1.3114
 6776SOL    HW231962   4.355   3.302   4.503  0.1607  1.7606  1.1387
 6777SOL     OW31963   3.157   3.957  12.192 -0.0246 -0.0679 -0.2572
 6777SOL    HW131964   3.099   4.028  12.167  0.7653  0.1431 -1.4866
 6777SOL    HW231965   3.100   3.885  12.167 -0.0081 -0.1091 -0.1786
 6778SOL     OW31966   3.165   3.031   7.682 -0.4526 -0.5492  0.0332
 6778SOL    HW131967   3.236   2.976   7.649  1.1688  1.5574 -0.0384
 6778SOL    HW231968   3.147   3.092   7.611 -0.2171 -1.9340 -1.2130
 6779SOL     OW31969   1.716   3.896  16.039  0.4460 -0.2926 -0.0597
 6779SOL    HW131970   1.753   3.825  16.091 -2.2566 -1.9459 -0.4270
 6779SOL    HW231971   1.644   3.850  15.997  1.2484  0.5364 -2.3520
 6780SOL     OW31972   3.437   0.350   7.789 -0.2138 -0.0277  0.0787
 6780SOL    HW131973   3.385   0.287   7.739  1.6073 -1.3299 -0.1884
 6780SOL    HW231974   3.458   0.291   7.862  0.6511  0.4131  0.1823
 6781SOL     OW31975   4.391   2.812  15.633 -0.3934 -0.1373 -0.8075
 6781SOL    HW131976   4.323   2.754  15.598 -2.8774  1.3355  1.6323
 6781SOL    HW231977   4.415   2.858  15.552  2.3367 -0.3789 -0.1259
 6782SOL     OW31978   0.950   4.474   2.638 -0.5146  0.2427 -0.1061
 6782SOL    HW131979   0.905   4.413   2.579  1.2180 -2.4458  1.2994
 6782SOL    HW231980   0.890   4.546   2.623 -0.1039  0.6821  0.3732
 6783SOL     OW31981   0.129   3.017   7.237 -0.3754 -0.4253 -0.5363
 6783SOL    HW131982   0.104   3.084   7.301  0.7019  0.4408 -1.0133
 6783SOL    HW231983   0.214   2.989   7.271  0.0346 -0.9053 -1.9671
 6784SOL     OW31984   4.636   0.602  11.251  0.2047 -0.4819  0.0104
 6784SOL    HW131985   4.726   0.616  11.281  0.0626 -0.7738  0.5646
 6784SOL    HW231986   4.636   0.507  11.246 -2.4094 -0.5126  0.7897
 6785SOL     OW31987   3.191   2.634   8.698 -0.0416 -0.2783 -0.6539
 6785SOL    HW131988   3.145   2.699   8.751  0.1865 -1.5349  1.0785
 6785SOL    HW231989   3.277   2.674   8.705  0.7407 -2.3424  1.2804
 6786SOL     OW31990   4.321   4.704   7.107  0.0997 -0.4235 -0.4155
 6786SOL    HW131991   4.399   0.006   7.148 -0.8232  2.0383 -0.8646
 6786SOL    HW231992   4.354   4.630   7.056 -0.9233 -1.6757  0.7237
 6787SOL     OW31993   4.568   1.890   5.189  0.0312  0.3659  0.3944
 6787SOL    HW131994   4.647   1.839   5.177 -1.0732 -0.9016 -1.5183
 6787SOL    HW231995   4.536   1.910   5.101 -0.4078  0.4168  0.5642
 6788SOL     OW31996   1.291   1.517   9.408  0.0865 -0.4075  0.1731
 6788SOL    HW131997   1.382   1.547   9.420  0.0970 -0.2229 -0.3681
 6788SOL    HW231998   1.290   1.430   9.449 -1.8670 -1.7106 -2.5852
 6789SOL     OW31999   3.912   3.242   6.197  0.0193  0.0255 -0.2803
 6789SOL    HW132000   3.999   3.282   6.191 -1.4512  3.4096  1.1709
 6789SOL    HW232001   3.858   3.305   6.150 -1.1159 -0.3169  0.5669
 6790SOL     OW32002   1.621   4.704   1.812 -0.1138 -0.3912  0.1314
 6790SOL    HW132003   1.537   4.662   1.796  0.8919 -2.0111 -0.8520
 6790SOL    HW232004   1.609   0.046   1.757  0.0585  1.9137  3.3445
 6791SOL     OW32005   4.350   1.430   3.281  0.1411  0.1099  0.0874
 6791SOL    HW132006   4.368   1.388   3.197 -1.6480  1.3013 -0.8982
 6791SOL    HW232007   4.439   1.451   3.310  0.4208  1.0306 -1.4370
 6792SOL     OW32008   3.464   3.340   3.071  0.1868  0.1683  0.0313
 6792SOL    HW132009   3.514   3.345   2.989  0.7298 -1.9373  0.2284
 6792SOL    HW232010   3.524   3.295   3.131 -0.3885 -1.0454 -0.3069
 6793SOL     OW32011   1.076   2.745   6.244  0.2391 -0.4087 -0.4894
 6793SOL    HW132012   1.019   2.668   6.248  1.3688 -1.1549  1.2083
 6793SOL    HW232013   1.123   2.750   6.327 -2.2363 -1.5234  0.9640
 6794SOL     OW32014   2.414   3.602  16.980 -0.2139  0.3479  0.0292
 6794SOL    HW132015   2.510   3.612  16.983 -0.4724  2.0908  2.1077
 6794SOL    HW232016   2.408   3.520  16.931  0.2945  0.9588 -1.0744
 6795SOL     OW32017   2.808   3.954  11.722 -0.3876 -0.5020 -0.2632
 6795SOL    HW132018   2.897   3.968  11.691  0.0479 -2.0256  0.2614
 6795SOL    HW232019   2.782   3.871  11.681 -0.4163 -1.1670  1.0945
 6796SOL     OW32020   1.336   1.377  17.720 -0.0441 -0.0268 -0.0429
 6796SOL    HW132021   1.274   1.441  17.686  0.7525  0.8318  0.1125
 6796SOL    HW232022   1.378   1.427   0.051  1.8374 -0.2526 -1.0059
 6797SOL     OW32023   3.781   3.824   9.267  0.3579 -0.3436  0.0858
 6797SOL    HW132024   3.784   3.737   9.306 -0.8338 -0.5897 -0.3474
 6797SOL    HW232025   3.844   3.795   9.200  1.0264 -0.3102  0.7046
 6798SOL     OW32026   1.142   0.403  13.709  0.0635 -0.0898 -0.4494
 6798SOL    HW132027   1.126   0.403  13.614  1.9631  0.6000 -0.7661
 6798SOL    HW232028   1.204   0.475  13.721 -0.6474  0.6299 -1.1579
 6799SOL     OW32029   2.801   3.675  14.503  0.1624  0.4315  0.2956
 6799SOL    HW132030   2.810   3.621  14.424  0.0490  0.1613  0.4700
 6799SOL    HW232031   2.731   3.735  14.475  0.7687  1.3068  0.6543
 6800SOL     OW32032   1.904   1.633   4.311  0.0635  0.3439 -0.0987
 6800SOL    HW132033   1.953   1.702   4.355  0.5427  0.2075 -0.4255
 6800SOL    HW232034   1.885   1.690   4.235  3.5237  0.8936 -0.5399
 6801SOL     OW32035   3.985   2.483  12.853 -0.2859  0.2778 -0.1099
 6801SOL    HW132036   4.041   2.418  12.810 -2.0745 -0.7222 -0.9347
 6801SOL    HW232037   3.901   2.443  12.832  0.3484 -0.0976 -1.9532
 6802SOL     OW32038   4.548   2.635   6.081 -0.5096 -0.0842  0.2890
 6802SOL    HW132039   4.463   2.597   6.062  0.3719 -0.8848 -2.0384
 6802SOL    HW232040   4.582   2.584   6.155  2.6052  0.5910 -0.6493
 6803SOL     OW32041   1.257   4.491   3.197 -0.4647 -0.4280 -0.0031
 6803SOL    HW132042   1.198   4.533   3.134  0.1778 -1.2516 -1.1682
 6803SOL    HW232043   1.205   4.443   3.262 -0.2462 -2.8337 -1.5945
 6804SOL     OW32044   2.763   0.784   7.857 -0.4682  0.5601 -0.1312
 6804SOL    HW132045   2.841   0.764   7.908 -1.3550 -1.6039  0.3789
 6804SOL    HW232046   2.701   0.835   7.909  0.5319  0.7518  0.8715
 6805SOL     OW32047   4.681   1.593   0.957 -0.4816  0.3876 -0.4975
 6805SOL    HW132048   4.685   1.519   1.017 -2.0689 -0.6952 -1.7295
 6805SOL    HW232049   0.027   1.584   0.906 -0.1432 -1.4070  0.3416
 6806SOL     OW32050   0.782   0.084   6.487 -0.5679 -0.6914 -0.0746
 6806SOL    HW132051   0.700   0.037   6.473  0.4238 -2.0547 -1.3553
 6806SOL    HW232052   0.804   0.113   6.398  0.6513  1.8753  1.0820
 6807SOL     OW32053   4.377   1.317   0.227 -0.1614  0.2476 -0.1492
 6807SOL    HW132054   4.445   1.309   0.294 -0.2021 -1.2590 -0.2774
 6807SOL    HW232055   4.340   1.399   0.260  0.8707  0.7329 -0.1946
 6808SOL     OW32056   3.337   4.059   6.097 -0.2297  0.0285  0.1505
 6808SOL    HW132057   3.425   4.052   6.060 -1.1616  2.2287 -2.4827
 6808SOL    HW232058   3.304   4.136   6.051  1.8716  1.8543  1.7057
 6809SOL     OW32059   3.550   3.559   2.181 -0.4150 -0.0623  0.1951
 6809SOL    HW132060   3.633   3.514   2.197  0.5365  2.4545  2.4897
 6809SOL    HW232061   3.482   3.492   2.183 -0.2160 -0.2915 -1.0877
 6810SOL     OW32062   0.191   3.725  10.871  0.5175  0.2193  0.2697
 6810SOL    HW132063   0.273   3.755  10.910  1.0581 -0.8308 -0.0703
 6810SOL    HW232064   0.128   3.767  10.929  0.5943  0.6901  0.0097
 6811SOL     OW32065   4.484   3.835   9.464 -0.2631  0.0557  0.1783
 6811SOL    HW132066   4.516   3.759   9.415  3.3058  1.5691  0.1745
 6811SOL    HW232067   4.562   3.874   9.503  0.4227 -0.3512 -0.7932
 6812SOL     OW32068   2.509   2.937   6.884  0.3448  0.5256 -0.4723
 6812SOL    HW132069   2.467   3.019   6.907  0.7259  0.5065  0.3172
 6812SOL    HW232070   2.503   2.893   6.969 -2.0216 -1.2183 -1.5369
 6813SOL     OW32071   2.372   4.151   4.645  1.0359 -0.5309  0.3343
 6813SOL    HW132072   2.289   4.199   4.644  0.7064 -1.1376 -2.3878
 6813SOL    HW232073   2.340   4.061   4.643 -0.2132 -0.1028  0.9338
 6814SOL     OW32074   0.393   3.810   4.912  0.0463  0.6446  0.2352
 6814SOL    HW132075   0.334   3.877   4.876 -1.2149 -0.9138 -0.5870
 6814SOL    HW232076   0.480   3.832   4.877 -0.3007 -0.3681 -1.2733
 6815SOL     OW32077   1.959   0.680  17.579  0.0625  0.1202  0.1931
 6815SOL    HW132078   1.964   0.775  17.570 -1.8402  0.1490 -0.6477
 6815SOL    HW232079   1.866   0.661  17.590  0.2080  0.0316  1.2668
 6816SOL     OW32080   1.654   0.397   6.317 -0.0007 -0.8368  0.4232
 6816SOL    HW132081   1.611   0.346   6.385 -1.6353  0.9602  0.7510
 6816SOL    HW232082   1.694   0.328   6.265  3.6676  2.6632 -1.4554
 6817SOL     OW32083   0.354   3.455  10.939 -0.7624  0.3551 -0.0331
 6817SOL    HW132084   0.289   3.439  11.008 -2.0723  0.4457 -1.2450
 6817SOL    HW232085   0.309   3.532  10.904 -1.9199  0.2869  1.2746
 6818SOL     OW32086   2.292   4.633   2.878 -0.3417 -0.6135  0.3867
 6818SOL    HW132087   2.222   4.629   2.943 -0.3839 -0.6607  0.3383
 6818SOL    HW232088   2.366   4.633   2.937  1.0743 -0.1283 -1.3857
 6819SOL     OW32089   2.964   0.853   5.364  0.6649  0.0551 -0.5268
 6819SOL    HW132090   2.907   0.811   5.300 -0.4175  1.2972 -0.3705
 6819SOL    HW232091   2.952   0.947   5.347  0.8365 -0.0934 -1.4522
 6820SOL     OW32092   2.711   1.111   6.369 -0.4667  0.3311  0.0515
 6820SOL    HW132093   2.634   1.064   6.338  0.5212 -2.0217  1.1637
 6820SOL    HW232094   2.722   1.163   6.290  1.8016  0.3756  0.3973
 6821SOL     OW32095   2.844   3.885  15.054 -0.6024 -0.0639 -0.3566
 6821SOL    HW132096   2.761   3.904  15.098 -0.9873  1.9069 -1.9440
 6821SOL    HW232097   2.888   3.969  15.042 -2.4475  0.3650 -4.0648
 6822SOL     OW32098   4.118   2.012   4.970 -0.0897  0.6746  0.2513
 6822SOL    HW132099   4.072   2.083   4.926 -1.1944 -0.2832 -0.1190
 6822SOL    HW232100   4.203   2.008   4.926  0.2250 -1.1632  1.0052
 6823SOL     OW32101   2.584   1.164   6.998  0.2712 -0.5802 -1.6269
 6823SOL    HW132102   2.569   1.080   7.042 -0.9783  0.6975  0.3832
 6823SOL    HW232103   2.679   1.174   7.011 -0.0218 -1.0028  0.9260
 6824SOL     OW32104   1.302   4.625   3.664 -0.7613 -0.2182  0.0291
 6824SOL    HW132105   1.224   4.681   3.659  0.4595  1.6689  2.1507
 6824SOL    HW232106   1.283   4.575   3.743 -2.1659 -0.5733 -0.5355
 6825SOL     OW32107   0.782   4.459   5.946 -0.0755  0.1722  0.2080
 6825SOL    HW132108   0.722   4.434   5.875 -1.4957  0.9634  1.1342
 6825SOL    HW232109   0.723   4.523   5.985  1.3797  0.3416  2.1400
 6826SOL     OW32110   2.587   0.559   1.844 -0.0768 -0.2601  0.0519
 6826SOL    HW132111   2.515   0.503   1.815  0.1854 -0.2546 -0.5988
 6826SOL    HW232112   2.662   0.530   1.793  0.0470  0.3113 -0.0918
 6827SOL     OW32113   2.797   2.086  10.086  0.0785 -0.5008  0.4009
 6827SOL    HW132114   2.871   2.026  10.081 -0.1347 -0.8019  0.8436
 6827SOL    HW232115   2.817   2.150  10.018  0.0802 -0.8439  0.0796
 6828SOL     OW32116   1.797   1.572   1.582  0.0161  0.7207  0.6421
 6828SOL    HW132117   1.706   1.558   1.557  0.0369  2.5990 -0.4908
 6828SOL    HW232118   1.796   1.660   1.619  0.7536  0.9912  0.0259
 6829SOL     OW32119   2.527   0.352  13.922  0.1006 -0.1481 -0.1351
 6829SOL    HW132120   2.616   0.372  13.891 -0.4193  0.6360 -1.1326
 6829SOL    HW232121   2.477   0.361  13.840  2.6052  1.4445 -1.5069
 6830SOL     OW32122   2.910   2.265  13.710  0.3238 -0.9956 -0.0477
 6830SOL    HW132123   2.839   2.328  13.699  1.1494  0.1446  1.0350
 6830SOL    HW232124   2.962   2.287  13.632  0.7353 -1.6176  0.0519
 6831SOL     OW32125   1.613   2.669  12.106  0.3141  0.1697  0.2217
 6831SOL    HW132126   1.593   2.597  12.165 -0.7133 -0.3809 -0.7890
 6831SOL    HW232127   1.674   2.716  12.162 -0.9791  0.7975  1.0935
 6832SOL     OW32128   0.584   4.676   1.907  0.6375  0.4824  0.2683
 6832SOL    HW132129   0.659   4.710   1.857  2.8628  0.0783  3.3306
 6832SOL    HW232130   0.615   4.675   1.997  2.6994  0.7088 -0.4264
 6833SOL     OW32131   1.205   0.085   2.364  0.2272  0.6957 -0.2085
 6833SOL    HW132132   1.207   0.033   2.283  0.8921 -1.3880  1.1443
 6833SOL    HW232133   1.125   0.135   2.354 -0.7988 -0.2354  3.3974
 6834SOL     OW32134   0.525   3.575  13.401 -0.5584 -0.2966  0.3964
 6834SOL    HW132135   0.502   3.553  13.491  0.5883 -0.2769  0.6953
 6834SOL    HW232136   0.618   3.553  13.406 -0.4563 -0.1636 -0.9042
 6835SOL     OW32137   2.303   0.545   8.749 -0.4704  0.3187 -0.1506
 6835SOL    HW132138   2.257   0.628   8.756 -0.4196  0.3692 -0.4284
 6835SOL    HW232139   2.233   0.500   8.701  1.2147 -0.8584 -1.5321
 6836SOL     OW32140   3.061   2.440   0.946  0.1212 -0.4728  0.3844
 6836SOL    HW132141   3.150   2.408   0.930  1.0509  1.6347  1.3070
 6836SOL    HW232142   3.017   2.424   0.862 -0.9806 -0.7699  1.0268
 6837SOL     OW32143   0.012   2.576   2.226 -0.5486  0.4268 -0.6007
 6837SOL    HW132144   4.692   2.632   2.281 -0.5655 -0.0916 -0.1027
 6837SOL    HW232145   4.684   2.564   2.155 -1.5636  1.3658  0.1324
 6838SOL     OW32146   1.835   1.364   9.520 -0.5822  0.4035  0.3311
 6838SOL    HW132147   1.828   1.372   9.425  0.0727 -1.4903  0.1289
 6838SOL    HW232148   1.741   1.372   9.537 -0.4225  1.8306  0.5523
 6839SOL     OW32149   1.809   1.791   6.915  0.4802  0.0921 -0.3882
 6839SOL    HW132150   1.825   1.822   7.005  1.9354  0.4139 -0.7591
 6839SOL    HW232151   1.889   1.786   6.864  1.4696 -4.0838  1.6277
 6840SOL     OW32152   3.039   3.343   4.964  0.2930 -0.2608  0.5799
 6840SOL    HW132153   2.966   3.299   4.920  1.6956 -0.9794 -0.9726
 6840SOL    HW232154   3.067   3.262   5.006  1.3402 -0.0284  0.3141
 6841SOL     OW32155   3.756   3.523  12.194  0.3809  0.3951  0.3478
 6841SOL    HW132156   3.797   3.485  12.272 -0.8078 -2.2023 -0.2845
 6841SOL    HW232157   3.706   3.447  12.163 -0.1591  0.3914  1.2140
 6842SOL     OW32158   2.381   0.608  11.637  0.3601  0.0606  0.9649
 6842SOL    HW132159   2.454   0.564  11.593  0.0855 -0.6807  1.2580
 6842SOL    HW232160   2.376   0.692  11.591 -0.8463  0.0247  1.0420
 6843SOL     OW32161   2.431   1.759   1.862  0.3939  0.0338  0.0445
 6843SOL    HW132162   2.428   1.669   1.894 -1.1819  0.3120  0.7103
 6843SOL    HW232163   2.516   1.779   1.902 -0.0907  1.7916  0.2203
 6844SOL     OW32164   2.143   4.056   0.260 -0.1972 -0.8451  0.5181
 6844SOL    HW132165   2.230   4.095   0.265 -0.2984 -0.5683  0.1340
 6844SOL    HW232166   2.115   4.096   0.178  0.5704  0.4574  0.8838
 6845SOL     OW32167   1.278   4.641   8.289 -0.1449 -0.5053  0.1572
 6845SOL    HW132168   1.282   4.717   8.230  1.7018 -0.6579  0.0841
 6845SOL    HW232169   1.187   4.617   8.272 -0.8132  2.2927 -0.3008
 6846SOL     OW32170   4.373   4.060  16.512 -0.7226  0.5266 -0.1094
 6846SOL    HW132171   4.385   3.965  16.511 -1.2059  0.4457  1.2733
 6846SOL    HW232172   4.319   4.079  16.435  0.6260 -2.0822 -1.6706
 6847SOL     OW32173   3.663   0.087   7.459  0.5654 -0.8227  0.2675
 6847SOL    HW132174   3.581   0.108   7.416  0.6585  0.5485  0.7534
 6847SOL    HW232175   3.727   0.146   7.420 -1.4368  1.5172  0.5750
 6848SOL     OW32176   3.198   3.531   6.450  0.5565  0.2222  0.2340
 6848SOL    HW132177   3.254   3.474   6.397 -0.1312  0.5812 -0.8667
 6848SOL    HW232178   3.188   3.467   6.521  3.1178  0.9854  1.2776
 6849SOL     OW32179   1.179   4.072   2.146  0.8492  0.6556  0.3446
 6849SOL    HW132180   1.165   4.158   2.106  1.1531  1.1609  1.3288
 6849SOL    HW232181   1.138   4.015   2.082  1.4177 -0.8257  1.2865
 6850SOL     OW32182   4.701   3.829   0.741  0.1280  0.8383 -0.4729
 6850SOL    HW132183   4.620   3.879   0.731 -0.1974  0.4359  0.1011
 6850SOL    HW232184   0.029   3.900   0.733  1.8149 -0.6283 -0.2796
 6851SOL     OW32185   2.433   0.265   6.494 -0.2665 -0.4886  0.5149
 6851SOL    HW132186   2.373   0.327   6.536 -0.1739 -0.7077  0.9677
 6851SOL    HW232187   2.373   0.195   6.469  0.0581 -0.1893 -1.0565
 6852SOL     OW32188   0.145   0.621  11.412 -0.4525  0.3537 -0.2573
 6852SOL    HW132189   0.239   0.640  11.415 -0.3157 -0.6659  1.6801
 6852SOL    HW232190   0.117   0.635  11.503 -1.5209 -4.0051  0.0742
 6853SOL     OW32191   3.555   2.945   3.095 -0.0704 -0.2345 -0.2074
 6853SOL    HW132192   3.472   2.916   3.055 -0.1275  0.9936 -0.9919
 6853SOL    HW232193   3.527   3.011   3.158  2.1885  1.5154 -1.0434
 6854SOL     OW32194   1.755   2.892   7.917 -0.1134 -0.1731  0.4051
 6854SOL    HW132195   1.849   2.875   7.927 -0.7100 -3.0405  1.1555
 6854SOL    HW232196   1.727   2.926   8.001  0.6993  0.0774  0.5757
 6855SOL     OW32197   2.695   4.276   9.043 -0.4659 -0.1579  0.9696
 6855SOL    HW132198   2.748   4.215   9.095 -1.8341 -1.7064  0.5305
 6855SOL    HW232199   2.735   4.362   9.059 -1.6732  0.5190  0.3231
 6856SOL     OW32200   1.263   4.348   5.641 -0.2690  0.1896  0.2998
 6856SOL    HW132201   1.220   4.289   5.580  0.0966  0.8623 -0.6062
 6856SOL    HW232202   1.195   4.346   5.708 -0.6862  0.9917 -0.1048
 6857SOL     OW32203   1.554   0.884   3.547 -0.2644 -0.1109  0.0735
 6857SOL    HW132204   1.566   0.979   3.540  1.9470 -0.3936  0.0578
 6857SOL    HW232205   1.642   0.855   3.572  0.3600  0.3779 -1.5727
 6858SOL     OW32206   0.973   0.889  17.658  0.7406 -0.2917  0.3224
 6858SOL    HW132207   0.999   0.875   0.009  0.4826 -4.2658 -0.2360
 6858SOL    HW232208   0.877   0.878  17.657  0.6989  0.0902  0.0937
 6859SOL     OW32209   2.313   2.859   8.028  0.0282 -0.0573 -0.3689
 6859SOL    HW132210   2.246   2.906   7.978  1.0329  0.5022 -1.2116
 6859SOL    HW232211   2.262   2.830   8.103  0.8903 -0.0797  0.2104
 6860SOL     OW32212   4.427   1.557  11.827 -0.2069 -0.2994 -0.3342
 6860SOL    HW132213   4.492   1.599  11.770 -2.1475  0.2113 -2.1870
 6860SOL    HW232214   4.408   1.629  11.887  0.8532 -1.9388  1.9523
 6861SOL     OW32215   3.746   3.295   8.503  0.1338 -0.5369 -0.0087
 6861SOL    HW132216   3.834   3.292   8.541  0.6888  0.6329 -1.1994
 6861SOL    HW232217   3.704   3.327   8.583  0.0052  3.6817 -1.7685
 6862SOL     OW32218   3.417   3.967   4.682 -0.7280 -0.7880 -0.2616
 6862SOL    HW132219   3.508   3.948   4.704 -1.0100 -1.0840  0.6253
 6862SOL    HW232220   3.388   4.039   4.737 -0.8316 -0.2908 -0.9688
 6863SOL     OW32221   3.066   0.231   4.017 -0.0086 -0.5740 -0.1984
 6863SOL    HW132222   3.071   0.137   4.034 -2.2805 -0.5369  0.7494
 6863SOL    HW232223   2.982   0.241   3.972 -0.1845 -1.0634  0.0338
 6864SOL     OW32224   4.643   3.658  14.156 -0.0275  0.5465 -0.1355
 6864SOL    HW132225   4.619   3.704  14.237 -2.0060  0.7175 -0.8174
 6864SOL    HW232226   4.572   3.679  14.096 -0.5225  0.2198  0.3384
 6865SOL     OW32227   2.221   4.383   4.002 -0.2372 -0.0993  0.2856
 6865SOL    HW132228   2.169   4.386   4.082 -0.6454  1.6072 -0.0324
 6865SOL    HW232229   2.160   4.394   3.929  0.8521 -0.6728 -0.7095
 6866SOL     OW32230   4.352   4.477   2.495 -0.0459  0.2802  0.0659
 6866SOL    HW132231   4.360   4.425   2.575  2.3233 -1.2930 -1.2005
 6866SOL    HW232232   4.405   4.552   2.523 -0.0720  0.3388 -0.0416
 6867SOL     OW32233   1.094   0.706   2.718 -0.0635 -0.6449  0.6670
 6867SOL    HW132234   1.018   0.666   2.676  0.2344 -1.4036  0.8595
 6867SOL    HW232235   1.098   0.661   2.802  1.4758  0.8008  1.3515
 6868SOL     OW32236   2.515   4.407  17.075 -0.1206  0.7898  0.3815
 6868SOL    HW132237   2.563   4.485  17.101 -1.7197  2.4573 -1.6597
 6868SOL    HW232238   2.583   4.340  17.069  0.0165  0.8293  1.4952
 6869SOL     OW32239   3.991   3.131   1.899  0.2215  0.0156 -0.7144
 6869SOL    HW132240   3.977   3.057   1.840  0.2993 -2.3142  2.1753
 6869SOL    HW232241   3.917   3.122   1.959  0.0702  0.2004 -0.8734
 6870SOL     OW32242   1.376   4.479   6.983 -0.4452 -0.2681  0.5950
 6870SOL    HW132243   1.418   4.555   7.025  1.5499 -1.0211 -0.0545
 6870SOL    HW232244   1.418   4.477   6.897 -0.6014 -0.4687  0.5247
 6871SOL     OW32245   3.026   0.757  11.495  0.0196 -0.2475  0.0627
 6871SOL    HW132246   3.000   0.679  11.447 -2.0423  1.2144 -1.1898
 6871SOL    HW232247   3.002   0.747  11.587  0.8058 -1.7367  0.1074
 6872SOL     OW32248   3.371   0.153   6.587 -0.3168  0.1173 -0.8138
 6872SOL    HW132249   3.417   0.227   6.627 -0.8935 -0.7595  1.4587
 6872SOL    HW232250   3.291   0.161   6.639  0.4480 -1.4640  0.6103
 6873SOL     OW32251   2.788   0.181  17.509  0.1584  0.6611 -0.0844
 6873SOL    HW132252   2.797   0.273  17.485  1.2448  0.7548  0.6649
 6873SOL    HW232253   2.834   0.144  17.434 -2.4096 -0.0824 -1.2754
 6874SOL     OW32254   2.092   1.355   3.834 -0.2606  0.0543 -0.4198
 6874SOL    HW132255   2.166   1.403   3.872  0.5956 -0.1589 -1.8061
 6874SOL    HW232256   2.134   1.354   3.748 -1.2111 -2.1650 -0.8319
 6875SOL     OW32257   3.896   3.551   7.298 -0.0504  0.0995  0.0303
 6875SOL    HW132258   3.908   3.609   7.223  0.1932  0.2468  0.1817
 6875SOL    HW232259   3.929   3.605   7.370 -0.2961 -1.4176  1.2897
 6876SOL     OW32260   1.564   1.605   5.159  0.0601  0.5234 -0.3079
 6876SOL    HW132261   1.565   1.673   5.227  0.5776 -0.3403  0.5399
 6876SOL    HW232262   1.496   1.641   5.102  0.5736  0.0378 -1.2184
 6877SOL     OW32263   4.031   1.541   3.165 -0.9489  0.2445  0.3279
 6877SOL    HW132264   4.077   1.614   3.122  1.0890 -0.2062  1.7345
 6877SOL    HW232265   4.094   1.532   3.236  1.6414 -3.3945 -2.3976
 6878SOL     OW32266   3.019   2.483   7.370 -0.1756  0.1619  0.0020
 6878SOL    HW132267   3.019   2.555   7.434  0.3291  1.3007 -1.2849
 6878SOL    HW232268   3.054   2.545   7.306 -1.8609 -0.2333 -1.2703
 6879SOL     OW32269   1.770   2.926   3.423  0.7786  0.2887 -0.2018
 6879SOL    HW132270   1.741   2.855   3.481 -1.8108  1.4868 -0.0270
 6879SOL    HW232271   1.685   2.965   3.403 -0.3389 -1.1801  1.5939
 6880SOL     OW32272   2.880   4.385   9.384 -0.3312  0.3884  0.1358
 6880SOL    HW132273   2.922   4.404   9.468  0.5357 -2.2614  0.3198
 6880SOL    HW232274   2.904   4.456   9.325 -4.3985  1.2564 -0.4793
 6881SOL     OW32275   4.716   2.787   6.690  0.4768 -0.2271  0.0315
 6881SOL    HW132276   4.730   2.708   6.742 -1.7278 -1.1382 -0.7613
 6881SOL    HW232277   0.053   2.844   6.716 -0.5999  0.5785  1.2441
 6882SOL     OW32278   3.717   2.841   4.527 -0.3327 -0.1574 -0.6748
 6882SOL    HW132279   3.774   2.894   4.471  2.0245 -2.7127 -0.7459
 6882SOL    HW232280   3.643   2.896   4.551 -1.2174 -1.7168  0.2124
 6883SOL     OW32281   1.651   3.408  17.245 -0.0649  0.1717  0.4757
 6883SOL    HW132282   1.705   3.488  17.249  0.3755 -0.1976  1.8399
 6883SOL    HW232283   1.636   3.399  17.339  0.2897  1.9376  0.7041
 6884SOL     OW32284   4.512   1.361  14.150  0.8371 -0.3539  0.6300
 6884SOL    HW132285   4.592   1.413  14.141 -0.3025  0.8313 -2.6752
 6884SOL    HW232286   4.537   1.272  14.127  0.1888 -0.2510 -0.4736
 6885SOL     OW32287   2.505   2.796   6.127 -0.4595  0.0389  0.0911
 6885SOL    HW132288   2.461   2.750   6.199 -2.1526  0.7297 -0.4979
 6885SOL    HW232289   2.593   2.804   6.165 -0.3617 -0.3605 -0.0580
 6886SOL     OW32290   0.208   1.566   8.223  0.6329 -0.2098  0.8627
 6886SOL    HW132291   0.131   1.550   8.168  0.5449  0.9921  0.6455
 6886SOL    HW232292   0.279   1.554   8.160 -0.1951  0.1939 -0.1440
 6887SOL     OW32293   4.732   0.295   4.707 -0.1144 -0.2115 -0.4397
 6887SOL    HW132294   0.027   0.205   4.712  0.9381  0.1057 -0.9799
 6887SOL    HW232295   4.710   0.319   4.797  0.7392  2.5498 -0.9732
 6888SOL     OW32296   3.398   4.492   5.202 -0.5408  0.5677  1.0251
 6888SOL    HW132297   3.417   4.578   5.239 -1.1784  1.6610 -1.1923
 6888SOL    HW232298   3.431   4.442   5.277  2.4635  2.3463  0.9027
 6889SOL     OW32299   3.856   0.042   1.694  0.4160  0.0271 -0.5663
 6889SOL    HW132300   3.917   4.718   1.738 -0.2190  0.1805  0.5251
 6889SOL    HW232301   3.886   0.046   1.604 -0.4954 -0.9802 -0.9110
 6890SOL     OW32302   4.346   3.424   6.953 -0.1492 -0.0895 -0.5400
 6890SOL    HW132303   4.359   3.340   6.997 -2.2956  0.0640  0.3602
 6890SOL    HW232304   4.251   3.425   6.953 -0.1271  1.6501  2.1518
 6891SOL     OW32305   2.009   3.213   5.049  0.3785 -1.2489 -0.1471
 6891SOL    HW132306   2.097   3.180   5.071  0.3609 -1.4722 -0.3996
 6891SOL    HW232307   1.957   3.134   5.061 -0.2930 -0.9385 -1.0493
 6892SOL     OW32308   3.543   1.602   3.770  0.3065  0.1639  0.2800
 6892SOL    HW132309   3.482   1.532   3.796 -0.7978  1.3579  0.9426
 6892SOL    HW232310   3.497   1.683   3.795  0.8068 -0.3872  2.9599
 6893SOL     OW32311   4.621   1.872  12.214 -0.4529  0.6060 -1.0689
 6893SOL    HW132312   4.641   1.869  12.121  1.7203 -1.0879 -0.5641
 6893SOL    HW232313   4.605   1.778  12.224 -1.6893  0.8597 -0.6739
 6894SOL     OW32314   0.581   4.503   9.968  0.1444  0.0602 -0.4434
 6894SOL    HW132315   0.635   4.436  10.010  0.1193 -0.4335 -1.2025
 6894SOL    HW232316   0.650   4.557   9.930 -1.4863  3.7002  1.7985
 6895SOL     OW32317   1.941   0.713   3.421  0.3191  0.5790  0.1668
 6895SOL    HW132318   2.009   0.646   3.427 -3.1505 -3.0585 -1.2956
 6895SOL    HW232319   1.975   0.790   3.467 -0.3252  0.6174  0.5749
 6896SOL     OW32320   4.480   4.187   5.031  0.5335 -0.2447  0.1461
 6896SOL    HW132321   4.519   4.176   4.944 -0.6786  0.4750 -0.4826
 6896SOL    HW232322   4.404   4.129   5.034  0.8097 -0.5631  1.3219
 6897SOL     OW32323   4.725   1.911   6.107 -0.1045  0.7489  0.3789
 6897SOL    HW132324   4.638   1.951   6.112  0.4972  2.2218 -1.0225
 6897SOL    HW232325   0.014   1.917   6.199  0.1918 -0.1632  0.3671
 6898SOL     OW32326   2.489   3.769   6.634 -0.0992  0.1272 -0.0520
 6898SOL    HW132327   2.500   3.718   6.554 -1.3725 -0.5412  0.2009
 6898SOL    HW232328   2.538   3.725   6.703  0.6492  1.8353  0.5120
 6899SOL     OW32329   2.943   1.471   6.871  0.0709  0.1462  0.0384
 6899SOL    HW132330   3.035   1.449   6.858  0.6395  0.6126  3.2143
 6899SOL    HW232331   2.943   1.554   6.918  2.3226  0.3270 -0.3113
 6900SOL     OW32332   0.936   2.099   1.824 -0.5693 -0.3802 -0.3685
 6900SOL    HW132333   1.012   2.145   1.790  1.6568 -3.6357  0.1719
 6900SOL    HW232334   0.895   2.168   1.877 -2.1554 -0.5763 -1.3380
 6901SOL     OW32335   1.597   1.576  10.052  0.0109 -0.3229 -0.4866
 6901SOL    HW132336   1.675   1.626  10.078 -1.1632  0.3179  1.7839
 6901SOL    HW232337   1.574   1.538  10.137 -1.6609 -1.1250 -1.2906
 6902SOL     OW32338   4.352   3.030   3.103 -0.1972 -0.0371 -0.1975
 6902SOL    HW132339   4.267   2.987   3.113 -0.2298  0.0906  0.0764
 6902SOL    HW232340   4.398   2.992   3.028  0.9307  2.5944 -0.8357
 6903SOL     OW32341   4.333   3.012   9.308 -0.2171 -0.3866 -0.3969
 6903SOL    HW132342   4.290   3.037   9.226  1.7085  0.7847 -1.0391
 6903SOL    HW232343   4.412   2.970   9.274 -0.1758  0.3342 -1.1898
 6904SOL     OW32344   2.449   0.287  14.720 -0.0534 -0.2584 -0.2572
 6904SOL    HW132345   2.405   0.365  14.755  1.0907 -0.0210  0.6381
 6904SOL    HW232346   2.383   0.234  14.675 -0.0212 -1.9535  1.6959
 6905SOL     OW32347   1.897   2.647   8.739  0.3745 -0.6605  0.6332
 6905SOL    HW132348   1.965   2.713   8.721 -0.3362 -0.4497 -1.3103
 6905SOL    HW232349   1.951   2.573   8.767  1.2280 -0.3782 -0.2294
 6906SOL     OW32350   1.005   0.494   8.936  0.3015  0.2068 -0.2078
 6906SOL    HW132351   0.955   0.431   8.988  0.7825  1.2705  1.5528
 6906SOL    HW232352   1.072   0.437   8.897 -1.2547  0.1561 -2.8458
 6907SOL     OW32353   1.706   3.062   5.382 -0.0872 -0.7833 -0.0523
 6907SOL    HW132354   1.647   3.136   5.364 -0.5736 -0.8537  1.2559
 6907SOL    HW232355   1.667   2.998   5.323 -1.9879  1.1317 -0.9033
 6908SOL     OW32356   0.769   2.990  10.809  0.4698  0.1046  0.2960
 6908SOL    HW132357   0.748   2.973  10.717  0.9572 -0.4452  0.2839
 6908SOL    HW232358   0.850   3.041  10.811  1.6332 -1.6925 -1.0735
 6909SOL     OW32359   0.730   0.991   2.055  0.2915  0.1057  0.1279
 6909SOL    HW132360   0.785   0.969   1.980  0.3908  0.2262  0.1659
 6909SOL    HW232361   0.781   0.995   2.136 -1.4692  0.0263  1.2560
 6910SOL     OW32362   3.268   0.113   8.440  0.3927 -0.6579  0.6484
 6910SOL    HW132363   3.358   0.146   8.443  0.9742 -2.1852  0.3249
 6910SOL    HW232364   3.219   0.170   8.499 -0.9872 -0.5349 -0.6110
 6911SOL     OW32365   2.338   3.286   3.584  0.6446 -0.2114 -0.1833
 6911SOL    HW132366   2.255   3.306   3.626  0.0827 -3.7061  0.3102
 6911SOL    HW232367   2.308   3.205   3.543  1.4067 -1.8757  2.5825
 6912SOL     OW32368   1.126   4.056   3.951 -0.3029 -0.1298  0.2142
 6912SOL    HW132369   1.171   4.139   3.967 -0.5986 -0.1782  1.2581
 6912SOL    HW232370   1.171   3.995   4.009 -0.7789  0.0659  0.7778
 6913SOL     OW32371   0.595   1.489   9.946  0.2435  0.6676  0.0244
 6913SOL    HW132372   0.687   1.517   9.951  0.6118 -1.0581  2.7127
 6913SOL    HW232373   0.553   1.545  10.011  0.9922  0.0002  1.0779
 6914SOL     OW32374   2.865   1.113   8.937 -0.5071 -0.1677 -0.2541
 6914SOL    HW132375   2.949   1.147   8.907 -0.3898 -0.0159  0.2566
 6914SOL    HW232376   2.857   1.138   9.029  1.3706  0.2532 -0.2211
 6915SOL     OW32377   1.122   3.401  10.692  0.3312  0.1839  0.2263
 6915SOL    HW132378   1.172   3.478  10.718 -1.5193  2.0589 -1.7001
 6915SOL    HW232379   1.182   3.333  10.720  2.8861  1.8865 -1.1337
 6916SOL     OW32380   0.279   4.208   2.563 -1.0486  0.2380  0.0156
 6916SOL    HW132381   0.333   4.200   2.641 -3.4622 -2.3871  1.3993
 6916SOL    HW232382   0.198   4.173   2.598 -0.9920 -1.1425 -1.2254
 6917SOL     OW32383   3.540   1.307   7.766 -1.0254  0.6348 -0.4999
 6917SOL    HW132384   3.460   1.354   7.742  0.8026  2.8282 -2.2363
 6917SOL    HW232385   3.503   1.250   7.834 -1.2169  0.7855 -0.4757
 6918SOL     OW32386   2.498   0.091   3.869 -0.0076 -0.3216 -0.3849
 6918SOL    HW132387   2.412   0.111   3.907  0.8781  1.1665  0.8490
 6918SOL    HW232388   2.517   0.162   3.809 -0.6063  0.1366 -0.0376
 6919SOL     OW32389   3.196   3.590   3.542 -0.2139  0.0239 -0.0817
 6919SOL    HW132390   3.154   3.509   3.515  2.6417 -1.7164  0.6902
 6919SOL    HW232391   3.277   3.562   3.586 -1.2527 -1.2383  1.0118
 6920SOL     OW32392   1.867   2.997   4.947 -0.6377 -0.5663  0.1468
 6920SOL    HW132393   1.907   2.954   4.872 -0.0953 -1.0718  0.7215
 6920SOL    HW232394   1.788   2.945   4.933  0.5484 -2.1593 -0.6186
 6921SOL     OW32395   3.192   3.207   4.551  0.0110 -0.1022  0.2958
 6921SOL    HW132396   3.135   3.280   4.575 -0.4978 -0.8669  1.4407
 6921SOL    HW232397   3.241   3.191   4.631  0.7251 -0.5539 -0.2267
 6922SOL     OW32398   1.860   0.820   4.590  0.1520  0.2655  0.3171
 6922SOL    HW132399   1.892   0.731   4.578 -2.7233 -0.9388  1.4745
 6922SOL    HW232400   1.914   0.857   4.520  0.1222  1.2538  0.8126
 6923SOL     OW32401   3.415   2.419  15.979 -0.3293 -0.1282  0.0063
 6923SOL    HW132402   3.347   2.439  16.043 -1.5919 -2.0630 -0.7590
 6923SOL    HW232403   3.361   2.389  15.906  0.8013  0.2234 -0.9904
 6924SOL     OW32404   2.344   3.583  12.691  0.3909  0.3029  0.3247
 6924SOL    HW132405   2.248   3.581  12.700  0.3155 -1.0254 -0.7368
 6924SOL    HW232406   2.351   3.593  12.596 -2.3072  0.6592  0.1464
 6925SOL     OW32407   4.084   0.347   6.791  0.0836 -0.2929 -0.3730
 6925SOL    HW132408   4.144   0.274   6.776  0.9556  0.6857 -1.6747
 6925SOL    HW232409   4.132   0.418   6.835 -2.8224  0.0759  2.2517
 6926SOL     OW32410   0.368   3.713   3.554  0.1283 -0.3356 -0.2223
 6926SOL    HW132411   0.365   3.801   3.517 -1.9643  0.0047  0.7337
 6926SOL    HW232412   0.463   3.707   3.558  0.1573 -1.7045 -2.8600
 6927SOL     OW32413   0.298   0.522  14.333  0.2133 -0.1384 -0.5155
 6927SOL    HW132414   0.235   0.587  14.362  0.9840 -0.1723  1.2076
 6927SOL    HW232415   0.279   0.508  14.240 -1.6336 -1.1659  0.0112
 6928SOL     OW32416   4.212   0.215   5.282 -0.0095 -0.2030  0.2601
 6928SOL    HW132417   4.117   0.227   5.293 -0.3115 -1.9542 -0.3387
 6928SOL    HW232418   4.204   0.193   5.189  0.7646  3.0102 -0.5627
 6929SOL     OW32419   2.849   2.351   8.370 -0.0720  0.0696 -0.2715
 6929SOL    HW132420   2.772   2.297   8.350  0.0337  0.5216 -1.8393
 6929SOL    HW232421   2.818   2.431   8.327  0.3652  0.4731  0.1663
 6930SOL     OW32422   4.493   2.228   8.236 -0.4100  0.6096 -0.3151
 6930SOL    HW132423   4.450   2.146   8.210  1.3306 -0.0556 -1.0965
 6930SOL    HW232424   4.434   2.251   8.307  1.3398  2.3950  0.5524
 6931SOL     OW32425   1.294   2.535   7.652 -0.4698  0.1043  0.3318
 6931SOL    HW132426   1.286   2.622   7.691 -4.2084 -0.1688  0.2578
 6931SOL    HW232427   1.355   2.487   7.708  0.1462 -1.1104 -1.3685
 6932SOL     OW32428   2.964   4.723   6.228 -0.3702  0.2434  0.2437
 6932SOL    HW132429   2.984   4.661   6.298  0.8458  1.5828  1.0714
 6932SOL    HW232430   3.045   0.037   6.225 -0.6693  0.6996 -0.3710
 6933SOL     OW32431   1.134   0.025   5.513 -0.2572  0.1961 -0.5161
 6933SOL    HW132432   1.085   4.685   5.546  0.7597 -0.5874 -0.7735
 6933SOL    HW232433   1.197   4.722   5.452 -2.2226 -2.3067 -0.9864
 6934SOL     OW32434   3.439   2.220   5.743 -0.1202  0.7744  0.4347
 6934SOL    HW132435   3.412   2.257   5.659  0.3567  0.7779  0.2831
 6934SOL    HW232436   3.490   2.144   5.714 -1.8377 -0.0093 -0.4757
 6935SOL     OW32437   2.835   0.517   5.875 -0.3940  0.6578 -0.0746
 6935SOL    HW132438   2.797   0.517   5.963  1.6882  1.5123  0.7987
 6935SOL    HW232439   2.862   0.606   5.852  0.4245  0.3385 -0.3435
 6936SOL     OW32440   0.021   1.786   7.304 -0.3576  0.8524 -0.3727
 6936SOL    HW132441   0.116   1.782   7.312 -0.2517 -0.2885 -2.1927
 6936SOL    HW232442   4.731   1.714   7.246 -0.6427  1.4177 -0.9466
 6937SOL     OW32443   4.049   1.663   5.220  0.1366 -0.4105  0.1668
 6937SOL    HW132444   4.101   1.701   5.290 -1.1377  0.9315  0.3861
 6937SOL    HW232445   3.960   1.675   5.254  0.7748 -1.8205  2.2915
 6938SOL     OW32446   0.498   2.543   7.592  0.2635  0.5974 -0.3554
 6938SOL    HW132447   0.447   2.504   7.662  0.7045 -1.5506 -1.2105
 6938SOL    HW232448   0.547   2.466   7.561  1.2334  1.0992 -0.0510
 6939SOL     OW32449   2.448   3.859   3.172  0.3280 -0.3533 -0.5808
 6939SOL    HW132450   2.369   3.818   3.207  0.5617 -0.4579 -0.1858
 6939SOL    HW232451   2.472   3.799   3.101 -0.0658 -0.5410 -0.5548
 6940SOL     OW32452   2.998   4.290  15.926  0.7021  0.1669 -0.0258
 6940SOL    HW132453   3.063   4.255  15.866  1.1130 -1.0182  1.1375
 6940SOL    HW232454   3.053   4.346  15.981  0.0233  0.5786  0.2506
 6941SOL     OW32455   3.180   1.721  17.033  0.2223  0.1486  0.1464
 6941SOL    HW132456   3.177   1.708  16.938  1.4002  0.3755  0.0674
 6941SOL    HW232457   3.104   1.778  17.046  0.4207  0.4045  0.1900
 6942SOL     OW32458   3.723   4.570  11.756  0.0443 -0.2658 -0.1854
 6942SOL    HW132459   3.753   4.529  11.675 -0.3514 -0.1950 -0.3673
 6942SOL    HW232460   3.747   4.661  11.738  1.3121 -0.5089  0.2482
 6943SOL     OW32461   3.425   4.641   7.124  0.1849 -0.0077  0.1520
 6943SOL    HW132462   3.400   4.723   7.081  0.3400  0.8972  1.7542
 6943SOL    HW232463   3.521   4.644   7.116  0.1702 -1.0573 -0.3006
 6944SOL     OW32464   1.722   1.153   7.825 -0.7789 -0.5169 -0.5758
 6944SOL    HW132465   1.778   1.076   7.833 -0.7863 -0.5243 -0.5968
 6944SOL    HW232466   1.676   1.150   7.909  3.1552  2.4470  1.6661
 6945SOL     OW32467   2.812   0.905   2.117 -0.0307 -0.2728 -0.1273
 6945SOL    HW132468   2.793   0.993   2.149  1.5872  0.0808 -0.1394
 6945SOL    HW232469   2.727   0.862   2.122  0.1376 -0.6736 -0.7510
 6946SOL     OW32470   0.854   3.697  16.298  0.1551  0.0287 -0.2922
 6946SOL    HW132471   0.788   3.654  16.244  2.5873 -2.8827 -0.9543
 6946SOL    HW232472   0.908   3.621  16.317 -1.6851 -1.3917 -0.7332
 6947SOL     OW32473   4.329   3.789   1.802 -0.1678  0.1627  0.2214
 6947SOL    HW132474   4.360   3.717   1.857  0.7435 -0.7263 -1.4475
 6947SOL    HW232475   4.407   3.845   1.798 -0.3207  0.4816  2.0028
 6948SOL     OW32476   2.707   3.668  10.591 -0.1579  0.0066  0.2947
 6948SOL    HW132477   2.643   3.728  10.629  0.4447 -0.0082  1.3347
 6948SOL    HW232478   2.655   3.592  10.619 -0.3791  0.5380  1.3127
 6949SOL     OW32479   1.730   2.042  16.515 -0.6898  0.6352  0.5611
 6949SOL    HW132480   1.768   2.008  16.596 -2.3736 -0.5083  0.8668
 6949SOL    HW232481   1.747   1.974  16.450  0.5146 -0.6450  2.2221
 6950SOL     OW32482   3.411   1.189   8.399 -0.5174 -0.5789  0.2071
 6950SOL    HW132483   3.345   1.204   8.467 -0.7809 -0.4295 -0.0854
 6950SOL    HW232484   3.374   1.242   8.328  0.6132  0.9674  0.7548
 6951SOL     OW32485   1.390   1.046   2.361  0.1277 -0.1079 -0.3977
 6951SOL    HW132486   1.382   0.951   2.350  1.1573 -0.0018 -1.9992
 6951SOL    HW232487   1.455   1.063   2.429 -1.0094  0.1313  0.6456
 6952SOL     OW32488   1.605   2.112  10.307 -0.3112  0.8323  0.0053
 6952SOL    HW132489   1.524   2.064  10.286  0.6104  0.0420 -1.7837
 6952SOL    HW232490   1.648   2.127  10.223 -0.5613 -0.3703 -0.3505
 6953SOL     OW32491   4.705   1.920  17.504  0.1695 -0.1073  0.0495
 6953SOL    HW132492   0.062   1.932  17.524  0.1021  0.4884 -0.0027
 6953SOL    HW232493   4.712   1.913  17.409  2.3101  2.4986  0.0083
 6954SOL     OW32494   3.884   2.960   6.184  0.3522  0.0257  0.3137
 6954SOL    HW132495   3.806   2.981   6.236  0.5140  2.2440 -0.3397
 6954SOL    HW232496   3.937   3.032   6.218  1.3121 -1.6655  2.3962
 6955SOL     OW32497   1.771   2.299   4.411 -0.2647  0.0931 -0.1943
 6955SOL    HW132498   1.748   2.328   4.323  1.8199 -0.3432 -0.8863
 6955SOL    HW232499   1.700   2.340   4.460 -0.8399 -0.6115 -0.4395
 6956SOL     OW32500   0.824   3.048  11.751 -0.1319 -0.0566  0.2334
 6956SOL    HW132501   0.874   3.029  11.671 -1.1465  2.0351 -0.9027
 6956SOL    HW232502   0.858   2.986  11.815 -0.3554 -0.0138  0.3962
 6957SOL     OW32503   3.451   0.973   4.123  0.0687  0.3907  0.0414
 6957SOL    HW132504   3.412   0.895   4.083  3.2534  0.3008 -2.8863
 6957SOL    HW232505   3.494   1.002   4.043  0.0486  2.7865  0.8969
 6958SOL     OW32506   0.787   4.488   8.935  0.2122  0.0252  0.6558
 6958SOL    HW132507   0.881   4.485   8.915  0.0311 -0.3520 -0.1518
 6958SOL    HW232508   0.776   4.393   8.944 -0.3213  0.0574  0.3387
 6959SOL     OW32509   1.015   3.786  10.291  0.1062 -0.1936 -0.4499
 6959SOL    HW132510   0.950   3.791  10.361  0.2528  2.5134 -0.5200
 6959SOL    HW232511   1.031   3.692  10.305  0.3664 -0.0775  0.0494
 6960SOL     OW32512   1.253   1.557   4.480 -0.2706  0.1183  0.5252
 6960SOL    HW132513   1.265   1.466   4.508 -1.9226 -0.8542 -1.9636
 6960SOL    HW232514   1.265   1.547   4.386 -2.4786 -2.4512  0.5340
 6961SOL     OW32515   3.268   2.178   9.098 -0.4091 -0.0809 -0.1753
 6961SOL    HW132516   3.237   2.116   9.163  0.5749  1.2075  1.5173
 6961SOL    HW232517   3.291   2.259   9.142 -0.7228  0.0945 -0.3355
 6962SOL     OW32518   3.242   1.714   7.461 -0.0321  0.1359  0.3724
 6962SOL    HW132519   3.216   1.805   7.476  1.3443  0.6007 -0.0188
 6962SOL    HW232520   3.155   1.676   7.467 -0.0075  0.1708  0.9212
 6963SOL     OW32521   4.196   0.529   3.772 -0.0840  0.3947 -0.0480
 6963SOL    HW132522   4.269   0.550   3.714 -0.1983  1.0307  0.0376
 6963SOL    HW232523   4.138   0.476   3.717 -1.4186  1.9880 -0.1543
 6964SOL     OW32524   2.466   2.894   8.714  0.0581  0.1963 -0.2275
 6964SOL    HW132525   2.454   2.932   8.628 -1.0919  1.2664  0.3984
 6964SOL    HW232526   2.506   2.811   8.688 -0.0791 -0.2839  1.0663
 6965SOL     OW32527   0.994   1.994   0.796 -0.4178 -0.2615 -0.5586
 6965SOL    HW132528   0.910   1.994   0.749  0.5396  3.0413 -2.2917
 6965SOL    HW232529   0.966   2.057   0.863 -0.2345  1.6227 -2.2185
 6966SOL     OW32530   1.806   2.762   3.960 -0.2128  0.4529 -0.0371
 6966SOL    HW132531   1.719   2.755   3.921 -0.7722 -1.1063  1.5017
 6966SOL    HW232532   1.854   2.688   3.922 -0.1539 -0.7446  2.4229
 6967SOL     OW32533   4.533   0.890   7.456  0.0577 -0.2761  0.3402
 6967SOL    HW132534   4.512   0.819   7.396 -1.9039 -0.0468  0.7510
 6967SOL    HW232535   4.449   0.929   7.481  1.5816  1.8209  2.1743
 6968SOL     OW32536   2.313   0.917   5.017 -0.2945  0.7212 -0.6589
 6968SOL    HW132537   2.324   0.994   5.073  0.1470 -0.6893  1.2118
 6968SOL    HW232538   2.369   0.929   4.940 -0.2117  0.6338 -0.6117
 6969SOL     OW32539   1.765   4.212   2.589  0.6327  0.7309 -0.1276
 6969SOL    HW132540   1.824   4.148   2.628 -2.0503 -1.1790  0.7482
 6969SOL    HW232541   1.680   4.201   2.630  0.6586 -0.9245 -0.5162
 6970SOL     OW32542   2.034   2.365   6.001 -0.0211 -0.7335 -0.1680
 6970SOL    HW132543   1.977   2.294   5.971  0.4873 -1.1820 -0.0614
 6970SOL    HW232544   1.990   2.379   6.085  0.7207 -3.7963  0.7303
 6971SOL     OW32545   0.156   1.840   1.105  0.9212 -0.5265 -0.3776
 6971SOL    HW132546   0.101   1.855   1.028 -0.3035  0.6808  0.7501
 6971SOL    HW232547   0.122   1.910   1.160 -1.5455 -2.5929  0.6961
 6972SOL     OW32548   1.903   2.651   2.455  0.7961  0.3914  0.1572
 6972SOL    HW132549   1.820   2.620   2.419  0.6834  1.0469 -0.1399
 6972SOL    HW232550   1.923   2.738   2.420  0.0389  0.9067  1.0213
 6973SOL     OW32551   3.704   0.047   6.329 -0.5823 -0.6425 -0.5067
 6973SOL    HW132552   3.781   0.036   6.273 -0.3244 -0.8483 -0.1178
 6973SOL    HW232553   3.687   4.698   6.371  1.3049 -0.2288  1.1365
 6974SOL     OW32554   4.570   0.195  15.001 -0.1384  0.7138  0.3788
 6974SOL    HW132555   4.528   0.204  14.915  0.1285 -2.7320 -0.0930
 6974SOL    HW232556   4.657   0.232  14.984  0.5867 -0.9623  0.4637
 6975SOL     OW32557   0.245   1.453  11.773 -0.1523 -0.1882  0.1806
 6975SOL    HW132558   0.162   1.462  11.821  0.0996  1.2040  0.3546
 6975SOL    HW232559   0.305   1.435  11.845 -0.3714 -1.3434  0.0834
 6976SOL     OW32560   2.119   4.617  13.902 -0.5534 -0.3464 -0.0885
 6976SOL    HW132561   2.085   4.629  13.813  0.0174  0.1287 -0.2426
 6976SOL    HW232562   2.198   4.567  13.881 -0.6657 -0.5937  0.0794
 6977SOL     OW32563   0.708   4.709  14.111 -0.1410  0.0614  0.1232
 6977SOL    HW132564   0.728   0.052  14.163  2.3937 -0.8085  0.4862
 6977SOL    HW232565   0.624   4.681  14.148 -1.8562  1.5623 -2.6452
 6978SOL     OW32566   0.041   2.981   4.681 -0.1712 -0.2110  0.1890
 6978SOL    HW132567   0.131   3.011   4.697 -0.7387  0.9057  1.3651
 6978SOL    HW232568   0.001   3.067   4.671 -0.9559 -0.7680 -1.3908
 6979SOL     OW32569   1.284   4.628   5.320 -0.1411  0.5537 -0.4460
 6979SOL    HW132570   1.369   4.586   5.338 -0.5833  0.9848  2.7482
 6979SOL    HW232571   1.278   4.615   5.226 -0.7944 -1.0733 -0.1785
 6980SOL     OW32572   3.961   4.279   1.908  0.6289 -0.0338  0.0870
 6980SOL    HW132573   3.866   4.293   1.903  0.4500 -1.6409 -1.1661
 6980SOL    HW232574   3.959   4.203   1.966  3.0152  0.7792  1.2347
 6981SOL     OW32575   2.666   3.184   5.928 -0.5407 -0.3576 -0.7796
 6981SOL    HW132576   2.736   3.197   5.992  0.9910 -0.0458 -2.5208
 6981SOL    HW232577   2.605   3.134   5.981  1.0043 -0.6195  0.7526
 6982SOL     OW32578   4.591   1.173  10.521  0.6908  0.2577 -0.2183
 6982SOL    HW132579   4.618   1.253  10.475  1.7896 -1.0626 -1.9014
 6982SOL    HW232580   4.661   1.171  10.586  0.3996 -1.9658  0.0001
 6983SOL     OW32581   3.605   0.745  16.320 -0.0226  0.2761 -0.4212
 6983SOL    HW132582   3.559   0.823  16.351 -0.2378  0.8482 -2.2104
 6983SOL    HW232583   3.685   0.788  16.293  0.0410 -0.0590 -0.7718
 6984SOL     OW32584   0.358   0.983   2.772  0.2409  0.1490  0.0372
 6984SOL    HW132585   0.377   0.948   2.859  0.3890 -1.3139 -0.5966
 6984SOL    HW232586   0.440   1.027   2.751 -0.9822  1.6732 -1.5451
 6985SOL     OW32587   2.145   2.978   7.846  0.3400  0.5813 -0.0024
 6985SOL    HW132588   2.070   3.020   7.889  0.9154  2.0930 -0.4624
 6985SOL    HW232589   2.104   2.916   7.785 -0.5069 -0.7694  1.9354
 6986SOL     OW32590   2.563   1.427   8.446 -0.0956  0.0067  0.1415
 6986SOL    HW132591   2.478   1.454   8.481  0.5773 -0.1102  1.8441
 6986SOL    HW232592   2.568   1.355   8.510  0.6367  0.3695  0.4901
 6987SOL     OW32593   2.331   0.443  15.169  0.7187  0.3827  0.0916
 6987SOL    HW132594   2.323   0.398  15.253 -1.1814 -1.5861 -1.1710
 6987SOL    HW232595   2.316   0.371  15.109  2.8386  0.4723 -0.5391
 6988SOL     OW32596   3.251   2.244   8.114  0.0775  0.0087 -0.3905
 6988SOL    HW132597   3.199   2.164   8.106  0.1687  0.2014 -2.9218
 6988SOL    HW232598   3.322   2.218   8.173  1.9029  0.7244 -2.2707
 6989SOL     OW32599   1.477   3.743   8.371 -0.1096  0.1329  0.5638
 6989SOL    HW132600   1.529   3.799   8.429  1.9361  1.3842 -2.4935
 6989SOL    HW232601   1.405   3.804   8.354 -0.6475 -1.0759 -1.4968
 6990SOL     OW32602   0.195   1.151   6.666  0.2231 -0.5887  0.0661
 6990SOL    HW132603   0.186   1.179   6.574  0.6388  2.2383  0.8946
 6990SOL    HW232604   0.277   1.194   6.688 -1.0260  2.4334 -1.1373
 6991SOL     OW32605   2.582   0.263   5.747  0.0088 -0.5222 -0.0635
 6991SOL    HW132606   2.627   0.200   5.803  1.5040 -1.1633 -1.9884
 6991SOL    HW232607   2.541   0.318   5.813  2.6034  0.1626  0.9934
 6992SOL     OW32608   2.476   3.974   4.123 -0.1822 -0.2021  0.4312
 6992SOL    HW132609   2.553   3.981   4.067 -0.2892  1.6512  0.5057
 6992SOL    HW232610   2.415   4.024   4.068 -0.1149 -1.1203 -0.4742
 6993SOL     OW32611   0.758   4.271   6.441 -0.1978  0.2206 -0.3056
 6993SOL    HW132612   0.668   4.302   6.431 -0.8706 -0.8783  2.3567
 6993SOL    HW232613   0.804   4.340   6.392 -1.6329  2.2769  1.2356
 6994SOL     OW32614   3.743   1.018   7.995  0.1395  0.1861 -0.4242
 6994SOL    HW132615   3.707   0.934   7.965  0.6356  0.6110 -2.2211
 6994SOL    HW232616   3.770   1.066   7.917  0.9619  1.3339  0.5626
 6995SOL     OW32617   0.157   3.998   3.262 -0.1818  0.4401 -0.2762
 6995SOL    HW132618   0.068   3.963   3.264  1.0055 -2.5362  0.7456
 6995SOL    HW232619   0.182   3.985   3.170  2.2585 -0.5913  0.5399
 6996SOL     OW32620   0.034   3.246   4.468 -0.1945  0.3287  0.0816
 6996SOL    HW132621   0.120   3.279   4.493 -0.5549  2.2122 -1.1622
 6996SOL    HW232622   0.055   3.195   4.390  0.2231  0.8120 -0.1204
 6997SOL     OW32623   2.868   0.708   7.589 -0.7229 -0.0606  0.1318
 6997SOL    HW132624   2.830   0.739   7.671 -1.1597  0.9740 -0.4630
 6997SOL    HW232625   2.791   0.665   7.552  0.9994 -4.0857  1.2677
 6998SOL     OW32626   1.528   2.678   3.850 -0.4136 -0.5277 -0.0658
 6998SOL    HW132627   1.433   2.683   3.840 -0.2542  1.8712 -0.2532
 6998SOL    HW232628   1.548   2.592   3.811 -0.6567  0.0022 -1.3573
 6999SOL     OW32629   1.737   1.815  10.389 -0.6317 -0.3786  0.1033
 6999SOL    HW132630   1.703   1.817  10.479  0.4210  1.6515  0.4478
 6999SOL    HW232631   1.650   1.809  10.348 -0.1792  1.8747 -1.1712
 7000SOL     OW32632   0.441   0.651   3.857 -0.3705  0.3860 -0.6577
 7000SOL    HW132633   0.351   0.680   3.844 -0.9015 -0.7051  0.6015
 7000SOL    HW232634   0.471   0.732   3.898  0.7461 -0.7499  0.7646
 7001SOL     OW32635   0.960   1.570  10.837  0.0979 -0.1136  0.1607
 7001SOL    HW132636   0.924   1.502  10.894 -0.5349  0.6102  0.6314
 7001SOL    HW232637   1.016   1.525  10.774 -0.6835 -2.5841  1.2251
 7002SOL     OW32638   0.972   0.517   9.733 -0.6571  0.0913 -0.1330
 7002SOL    HW132639   1.052   0.473   9.706 -0.9864 -0.9122  0.5127
 7002SOL    HW232640   1.003   0.579   9.799 -1.2106  2.3448 -1.9909
 7003SOL     OW32641   1.433   0.318   8.467  0.0527 -0.0952 -0.6424
 7003SOL    HW132642   1.518   0.297   8.507 -0.5761 -1.5560 -0.1045
 7003SOL    HW232643   1.401   0.228   8.461 -1.0371  0.0609  2.7342
 7004SOL     OW32644   4.081   3.215   0.120 -0.2520 -0.5617  0.4149
 7004SOL    HW132645   4.031   3.142   0.156  0.7284  0.3895  3.6659
 7004SOL    HW232646   4.170   3.180   0.113  0.1759  0.5760  0.2355
 7005SOL     OW32647   2.703   3.550   1.319 -0.8729  0.8621 -0.1413
 7005SOL    HW132648   2.782   3.603   1.330 -1.6816  2.2034 -0.7190
 7005SOL    HW232649   2.719   3.471   1.371  0.0694 -0.8949 -3.1135
 7006SOL     OW32650   4.010   4.092  12.089 -0.0521 -0.3903  0.5136
 7006SOL    HW132651   4.094   4.106  12.047 -0.8850  1.5024 -0.4954
 7006SOL    HW232652   4.041   4.101  12.179 -0.1879 -1.7989  0.7093
 7007SOL     OW32653   2.454   3.790   7.651 -0.0086 -0.7713 -0.6701
 7007SOL    HW132654   2.495   3.705   7.634  0.3342 -0.5417 -0.9832
 7007SOL    HW232655   2.364   3.766   7.674 -0.5739  0.1623 -1.9043
 7008SOL     OW32656   3.610   4.227   6.287  0.0857 -0.4116 -0.1685
 7008SOL    HW132657   3.671   4.153   6.286  2.3208  1.4334 -2.1900
 7008SOL    HW232658   3.549   4.173   6.336  0.3320 -0.7416 -0.2228
 7009SOL     OW32659   2.055   1.639   8.777 -0.5672  0.3685 -0.5494
 7009SOL    HW132660   2.129   1.689   8.741 -1.5774  3.2053  1.3377
 7009SOL    HW232661   2.020   1.621   8.689 -1.9056 -3.2947  0.7405
 7010SOL     OW32662   4.485   1.595   5.920 -0.1046 -0.6783  0.1866
 7010SOL    HW132663   4.432   1.653   5.865  2.4113  1.9824  0.5731
 7010SOL    HW232664   4.421   1.596   5.992 -1.4526  1.6229 -1.0234
 7011SOL     OW32665   3.422   3.240   4.762 -0.3125 -0.3219  0.3860
 7011SOL    HW132666   3.460   3.312   4.812 -0.5643 -0.4124  0.7109
 7011SOL    HW232667   3.363   3.193   4.822  0.1916  1.5591  2.3698
 7012SOL     OW32668   0.158   0.170  17.026 -0.5188  0.3651 -0.2392
 7012SOL    HW132669   0.214   0.094  17.008 -1.1594 -0.0049 -0.6738
 7012SOL    HW232670   0.069   0.137  17.008 -0.0145 -0.5743 -1.0386
 7013SOL     OW32671   3.762   1.432   2.146 -0.0383 -0.6232  0.4822
 7013SOL    HW132672   3.827   1.452   2.214  1.6085 -0.2784 -1.2076
 7013SOL    HW232673   3.808   1.442   2.063  1.6972  1.0305  1.6343
 7014SOL     OW32674   1.963   0.960  17.555  0.2282 -0.1925  0.7847
 7014SOL    HW132675   1.916   1.009  17.622 -0.9221  0.3599 -0.4200
 7014SOL    HW232676   1.934   1.008  17.477 -1.9415 -0.8311  1.2105
 7015SOL     OW32677   1.182   4.497   4.395  0.0235  0.0673  0.0740
 7015SOL    HW132678   1.116   4.435   4.423 -0.5783  0.7193  0.0896
 7015SOL    HW232679   1.220   4.520   4.480 -0.1358  1.0846 -0.1316
 7016SOL     OW32680   3.851   2.084   3.734 -0.1393  0.1860  0.3350
 7016SOL    HW132681   3.877   2.035   3.812 -0.8155 -1.2798 -0.3556
 7016SOL    HW232682   3.832   2.170   3.771 -1.0182  0.4864 -0.8108
 7017SOL     OW32683   3.471   3.485  12.365  0.9490  0.1154 -0.3046
 7017SOL    HW132684   3.434   3.543  12.432 -1.4399 -1.7919  0.0474
 7017SOL    HW232685   3.449   3.523  12.280 -1.0109  0.3997  0.3203
 7018SOL     OW32686   0.110   2.192   1.798 -0.2753  0.9697  0.2314
 7018SOL    HW132687   0.043   2.257   1.779 -0.3105  0.9938  0.4430
 7018SOL    HW232688   0.184   2.215   1.741 -0.3213  1.3202  0.3138
 7019SOL     OW32689   4.669   1.058   0.921  0.1783 -0.0554  0.9562
 7019SOL    HW132690   4.646   1.048   1.013  2.7864 -0.6891  1.5432
 7019SOL    HW232691   0.019   1.100   0.937  0.9794 -0.8085 -1.2888
 7020SOL     OW32692   3.645   0.418   8.369 -0.1747  0.5135 -0.5823
 7020SOL    HW132693   3.701   0.493   8.391  1.1785 -0.3532 -1.1064
 7020SOL    HW232694   3.565   0.470   8.359  0.3055  1.3493 -0.0921
 7021SOL     OW32695   0.273   4.683   3.828  0.3371  0.2444  0.3149
 7021SOL    HW132696   0.297   0.033   3.795  1.1183  0.2503  0.9051
 7021SOL    HW232697   0.223   4.703   3.907  0.5805  0.0695  0.5147
 7022SOL     OW32698   1.559   1.734   4.291 -0.6586  0.7218  0.5852
 7022SOL    HW132699   1.582   1.706   4.380 -0.2759  1.8133  0.8228
 7022SOL    HW232700   1.644   1.739   4.248 -0.4428 -0.1812  0.9006
 7023SOL     OW32701   2.198   4.346   9.998  0.1935  0.2783 -0.5769
 7023SOL    HW132702   2.246   4.427  10.016  1.6218 -1.2134  2.2653
 7023SOL    HW232703   2.233   4.285  10.062  0.4974  1.3418  0.2706
 7024SOL     OW32704   3.179   1.556   8.833  0.4693 -0.0530  0.0518
 7024SOL    HW132705   3.229   1.618   8.780  0.4954 -0.1426 -0.0288
 7024SOL    HW232706   3.112   1.522   8.775  2.1422 -1.0947 -1.2755
 7025SOL     OW32707   2.622   0.246  10.615 -0.0251  0.3486  0.0649
 7025SOL    HW132708   2.641   0.340  10.628 -0.8349  0.2747  1.8565
 7025SOL    HW232709   2.615   0.222  10.708 -1.6761  1.6096  0.2770
 7026SOL     OW32710   4.074   2.437   3.858  0.1121 -0.0517  0.6918
 7026SOL    HW132711   4.141   2.449   3.791 -1.2656 -1.8718 -1.0278
 7026SOL    HW232712   4.083   2.520   3.904 -0.8223  0.6100 -0.3250
 7027SOL     OW32713   3.736   4.299   6.582 -0.3059  0.1475 -0.6088
 7027SOL    HW132714   3.676   4.248   6.526  1.3915  0.2240 -2.4842
 7027SOL    HW232715   3.775   4.228   6.633 -2.3271 -1.1290 -0.8081
 7028SOL     OW32716   1.645   2.727   3.590  0.0415 -0.1368  0.0880
 7028SOL    HW132717   1.588   2.781   3.645  0.6000  0.4764  0.0636
 7028SOL    HW232718   1.608   2.639   3.602  2.5487 -1.3970 -1.4413
 7029SOL     OW32719   2.061   4.453  16.547  0.2005  0.1260 -0.2575
 7029SOL    HW132720   2.036   4.540  16.518 -0.5798 -0.0059  0.0238
 7029SOL    HW232721   2.156   4.458  16.561  0.1940  1.2179 -0.6519
 7030SOL     OW32722   1.518   2.338   4.543 -0.2049  1.0019 -0.1609
 7030SOL    HW132723   1.504   2.243   4.537  0.2979  0.8233  1.7617
 7030SOL    HW232724   1.476   2.355   4.627  0.5315  0.1138  0.3929
 7031SOL     OW32725   3.705   1.543   9.393  0.0202  0.2281 -0.1999
 7031SOL    HW132726   3.761   1.613   9.359 -1.8935  1.8994  0.1347
 7031SOL    HW232727   3.716   1.487   9.316 -3.7570 -2.2803  1.1337
 7032SOL     OW32728   0.774   3.391   2.776 -0.5504  0.5656 -0.1872
 7032SOL    HW132729   0.767   3.420   2.685 -0.0668 -1.1972 -0.7850
 7032SOL    HW232730   0.789   3.297   2.762 -1.9476 -0.2186  3.5587
 7033SOL     OW32731   0.011   1.393   2.352  0.2132 -0.0090  0.2793
 7033SOL    HW132732   0.010   1.302   2.382  0.4705  0.0798  0.5523
 7033SOL    HW232733   0.069   1.439   2.413  0.8318 -0.0379 -0.2906
 7034SOL     OW32734   2.429   4.345   6.657 -0.3435  0.0258  0.1002
 7034SOL    HW132735   2.372   4.343   6.580 -0.1172  1.4544 -0.1016
 7034SOL    HW232736   2.441   4.252   6.673 -1.1258  0.1274  1.2392
 7035SOL     OW32737   2.677   4.167   2.042 -0.0082  0.3265 -0.0722
 7035SOL    HW132738   2.766   4.197   2.061 -0.8647  2.4656  0.5875
 7035SOL    HW232739   2.650   4.231   1.976 -1.5874 -1.3133 -1.0201
 7036SOL     OW32740   1.549   1.941   5.773 -0.2950  0.1295  0.4119
 7036SOL    HW132741   1.621   1.947   5.836 -0.5039 -0.4632  0.7060
 7036SOL    HW232742   1.470   1.959   5.823 -1.3111  0.0928 -1.1906
 7037SOL     OW32743   1.634   1.811   9.747 -0.2251  0.8285  0.5254
 7037SOL    HW132744   1.568   1.814   9.679  0.9691  1.0051 -0.6306
 7037SOL    HW232745   1.691   1.885   9.725  1.8699 -1.0336 -0.3539
 7038SOL     OW32746   1.709   2.518   9.012  0.3898  0.2133  0.4683
 7038SOL    HW132747   1.635   2.464   9.039 -0.2310  0.8985  0.1205
 7038SOL    HW232748   1.654   2.592   8.988  1.6885  0.8689 -0.5260
 7039SOL     OW32749   1.892   0.900   5.282 -0.6004  0.3829  0.0845
 7039SOL    HW132750   1.954   0.957   5.328 -0.3013 -1.1805  1.6293
 7039SOL    HW232751   1.863   0.862   5.365  1.0327  0.2251  0.5698
 7040SOL     OW32752   3.999   3.873   8.144 -0.0615  0.0424 -0.5963
 7040SOL    HW132753   4.009   3.791   8.192  0.1910 -0.2207 -1.0950
 7040SOL    HW232754   3.904   3.877   8.139 -0.1555 -3.0292 -1.1517
 7041SOL     OW32755   4.711   0.675   5.860 -0.1314 -0.0068 -0.0123
 7041SOL    HW132756   4.712   0.626   5.778  0.5088  0.1392 -0.0939
 7041SOL    HW232757   0.052   0.633   5.900 -0.2355 -2.1677 -2.0770
 7042SOL     OW32758   3.380   3.309   2.472  0.2985  0.2117 -0.2472
 7042SOL    HW132759   3.443   3.316   2.544  0.6109 -0.0194 -0.5024
 7042SOL    HW232760   3.298   3.310   2.522  1.0438 -0.2125  0.9889
 7043SOL     OW32761   1.328   4.441   7.252 -1.0779  0.5132 -0.0167
 7043SOL    HW132762   1.344   4.416   7.161 -0.8109  1.9037 -0.3428
 7043SOL    HW232763   1.300   4.532   7.240 -0.0617  0.7786 -0.4295
 7044SOL     OW32764   4.069   0.871   7.273 -0.0627 -0.0844  0.5965
 7044SOL    HW132765   4.093   0.798   7.329 -2.1239 -0.1436  1.4341
 7044SOL    HW232766   4.149   0.890   7.225  0.0621  1.0968  1.2631
 7045SOL     OW32767   0.891   2.461   6.727 -0.1060  0.5721 -0.1731
 7045SOL    HW132768   0.868   2.372   6.700  2.4042 -0.0302 -0.3427
 7045SOL    HW232769   0.805   2.491   6.756 -0.1467 -0.4436  0.7925
 7046SOL     OW32770   4.426   3.367   0.989  0.3957  0.2888 -0.1944
 7046SOL    HW132771   4.488   3.367   0.915  1.1236  1.3904  0.4135
 7046SOL    HW232772   4.340   3.369   0.947  1.1086  3.0823 -1.5245
 7047SOL     OW32773   4.617   1.517   6.925 -0.0030 -0.1603  0.0477
 7047SOL    HW132774   4.683   1.454   6.955  1.4726  0.8315 -1.1218
 7047SOL    HW232775   4.656   1.576   6.861 -1.8288  1.0968  0.0785
 7048SOL     OW32776   2.958   4.080   5.035 -0.3144  0.3376 -0.3000
 7048SOL    HW132777   2.996   4.011   5.089 -1.4794 -0.4248 -0.4619
 7048SOL    HW232778   2.920   4.037   4.958 -0.3298  0.9855 -0.6565
 7049SOL     OW32779   3.225   1.433  15.919 -0.7560  0.4745  0.2923
 7049SOL    HW132780   3.273   1.355  15.946 -1.6423 -1.3853 -3.5223
 7049SOL    HW232781   3.204   1.409  15.829  3.8488  2.8651 -1.4195
 7050SOL     OW32782   0.551   2.984   8.780 -0.2526 -0.0436  0.5230
 7050SOL    HW132783   0.539   2.908   8.723  2.6257 -1.6172  2.0031
 7050SOL    HW232784   0.574   2.948   8.866  1.2788 -2.5390 -0.9472
 7051SOL     OW32785   0.063   0.319   6.583 -0.0933  0.3165  0.4898
 7051SOL    HW132786   0.052   0.315   6.488  2.1340  1.6453  0.1743
 7051SOL    HW232787   4.713   0.354   6.609 -0.8086  0.9891 -2.8109
 7052SOL     OW32788   2.475   1.483  14.133  0.0095  0.0262  0.3648
 7052SOL    HW132789   2.520   1.551  14.183 -0.7914 -0.0991  1.2632
 7052SOL    HW232790   2.545   1.450  14.077  1.8932 -0.2583  2.8640
 7053SOL     OW32791   4.027   1.781   9.561  0.0102 -0.0556  0.3268
 7053SOL    HW132792   4.059   1.871   9.554  0.8393 -0.4329 -0.8273
 7053SOL    HW232793   3.949   1.788   9.615 -0.4453 -0.3265 -0.3003
 7054SOL     OW32794   3.148   2.173   1.590  0.5678  0.3897  0.5397
 7054SOL    HW132795   3.081   2.241   1.586 -2.4634 -2.7364 -1.1995
 7054SOL    HW232796   3.092   2.105   1.627 -0.6096  1.0640 -0.0269
 7055SOL     OW32797   4.222   2.707   7.864 -0.2251  0.5364  0.2108
 7055SOL    HW132798   4.299   2.650   7.873 -2.4192 -2.4246  0.3402
 7055SOL    HW232799   4.182   2.658   7.936  1.4176 -3.0148 -1.2554
 7056SOL     OW32800   1.846   4.607  12.236  0.1628 -0.1768  0.4182
 7056SOL    HW132801   1.923   4.643  12.279 -0.3420 -0.3441  1.4700
 7056SOL    HW232802   1.790   4.582  12.310  0.3908  0.5281  0.8229
 7057SOL     OW32803   1.449   2.266   8.486  0.2192 -0.4934  0.0310
 7057SOL    HW132804   1.383   2.317   8.533  1.3777 -0.3972  1.5441
 7057SOL    HW232805   1.429   2.294   8.396 -0.7148 -2.3687 -0.3386
 7058SOL     OW32806   1.406   2.119   0.207 -0.8581  0.6081 -0.2335
 7058SOL    HW132807   1.499   2.101   0.221 -0.5488  3.0990  0.8823
 7058SOL    HW232808   1.361   2.034   0.202  1.6251 -0.7058 -0.4800
 7059SOL     OW32809   0.588   2.240   3.258  0.3303 -0.3988  0.1823
 7059SOL    HW132810   0.551   2.247   3.346 -0.0542 -0.2974  0.0144
 7059SOL    HW232811   0.507   2.271   3.217 -0.7807  1.5629  3.8210
 7060SOL     OW32812   1.861   0.336   6.849  0.3238 -0.4890 -0.0325
 7060SOL    HW132813   1.868   0.431   6.850 -0.9195 -0.3786 -0.7865
 7060SOL    HW232814   1.841   0.330   6.755  0.3400 -0.7131 -0.0226
 7061SOL     OW32815   1.507   3.312   6.924  0.2000 -0.0529 -0.3117
 7061SOL    HW132816   1.514   3.406   6.907 -2.2238  0.4341  1.3337
 7061SOL    HW232817   1.600   3.297   6.940  0.4277 -0.3620 -1.9353
 7062SOL     OW32818   0.060   4.149   3.971  0.2391  0.0286  0.0108
 7062SOL    HW132819   4.706   4.180   3.958  0.8907  2.3691  1.1160
 7062SOL    HW232820   0.067   4.077   3.908  1.2780 -0.0286  0.1920
 7063SOL     OW32821   1.568   0.846   7.852  0.6733 -0.1094 -0.0335
 7063SOL    HW132822   1.507   0.901   7.804 -0.3133  0.9998  2.4570
 7063SOL    HW232823   1.654   0.881   7.826  1.7014 -2.0990  0.6781
 7064SOL     OW32824   1.344   2.776   2.693  0.6277 -0.2511 -0.3297
 7064SOL    HW132825   1.365   2.859   2.651 -0.9593  0.5416  0.4447
 7064SOL    HW232826   1.286   2.809   2.761  1.1879 -0.1024  0.0745
 7065SOL     OW32827   2.954   3.335   3.759 -0.6348 -0.6416 -0.1157
 7065SOL    HW132828   2.931   3.260   3.812 -1.2793 -0.1215  0.3419
 7065SOL    HW232829   2.956   3.302   3.669  2.7854  1.8022 -0.9477
 7066SOL     OW32830   4.705   2.918  15.940 -0.1783 -0.4036 -0.4751
 7066SOL    HW132831   0.048   2.862  15.940 -0.0358 -0.2060 -0.1239
 7066SOL    HW232832   4.725   2.956  16.025 -0.6309  1.1591 -1.0766
 7067SOL     OW32833   0.564   3.623   8.488 -0.1295 -0.1622 -0.3033
 7067SOL    HW132834   0.625   3.688   8.522 -1.9477  1.0505  0.6212
 7067SOL    HW232835   0.600   3.539   8.518  2.5644  0.8818 -0.6015
 7068SOL     OW32836   1.672   3.593  16.698 -0.0848  0.4139  0.0022
 7068SOL    HW132837   1.612   3.661  16.667 -1.0567 -0.8570 -0.9097
 7068SOL    HW232838   1.615   3.536  16.748  0.1455 -0.1095 -0.3279
 7069SOL     OW32839   3.887   2.562   8.306 -0.9109 -0.2502  0.6588
 7069SOL    HW132840   3.829   2.636   8.287 -0.1818  0.1502 -0.0022
 7069SOL    HW232841   3.890   2.521   8.220  2.2238  0.7672  0.2872
 7070SOL     OW32842   4.260   2.217   5.790  0.0844 -0.7244 -0.1255
 7070SOL    HW132843   4.197   2.167   5.738 -0.2138  1.5886 -1.9941
 7070SOL    HW232844   4.284   2.288   5.731  2.2926  0.9776  2.8447
 7071SOL     OW32845   1.954   3.557   4.654 -0.0925 -0.0554  0.3558
 7071SOL    HW132846   1.939   3.617   4.727 -0.0588  0.2125  0.1433
 7071SOL    HW232847   1.965   3.473   4.698 -0.6205  0.4914  1.5217
 7072SOL     OW32848   2.785   1.784   3.510 -0.0155 -0.3626  0.0528
 7072SOL    HW132849   2.775   1.878   3.526  0.9238 -0.3224  0.3670
 7072SOL    HW232850   2.783   1.799   3.416  0.6080  2.0609  0.4261
 7073SOL     OW32851   1.207   2.012  14.857 -0.3303  0.5286 -0.2374
 7073SOL    HW132852   1.266   2.005  14.783 -0.6714  0.7736 -0.5331
 7073SOL    HW232853   1.265   2.003  14.933 -1.4263  0.1540  0.5568
 7074SOL     OW32854   0.822   2.474   8.510  0.1735  0.1920  0.1892
 7074SOL    HW132855   0.910   2.504   8.531  0.9728 -0.7192 -1.8697
 7074SOL    HW232856   0.769   2.532   8.565 -0.6121 -0.5351  0.2094
 7075SOL     OW32857   4.367   0.941   6.023  0.1873 -0.6222 -0.3755
 7075SOL    HW132858   4.291   0.964   5.969  0.8377  2.6123  0.0696
 7075SOL    HW232859   4.322   0.922   6.106  0.2774  0.0019 -0.1846
 7076SOL     OW32860   4.534   1.941   4.909  0.0978 -0.2313  0.1889
 7076SOL    HW132861   4.599   1.982   4.853 -0.6185 -1.2283 -1.3706
 7076SOL    HW232862   4.470   1.913   4.843 -0.8399  1.4072  0.4077
 7077SOL     OW32863   3.804   4.291   8.550  0.8037 -0.1125 -0.2069
 7077SOL    HW132864   3.831   4.244   8.471  2.1608  0.0619  0.1550
 7077SOL    HW232865   3.713   4.309   8.528  0.1190 -3.8242 -0.3925
 7078SOL     OW32866   4.339   0.238  15.172  0.1220  0.4701 -0.3583
 7078SOL    HW132867   4.422   0.227  15.126 -0.9518  0.4874 -2.2733
 7078SOL    HW232868   4.293   0.281  15.101 -1.5939  1.2052  1.1826
 7079SOL     OW32869   1.408   2.327   6.198 -0.5129  0.2626  0.1024
 7079SOL    HW132870   1.486   2.336   6.143 -0.5525 -1.5617 -0.2389
 7079SOL    HW232871   1.425   2.402   6.256 -1.0067 -0.7299  1.5223
 7080SOL     OW32872   0.477   1.181   8.664 -0.2079  0.1883 -0.0971
 7080SOL    HW132873   0.446   1.186   8.574  0.8586 -0.4035 -0.4954
 7080SOL    HW232874   0.533   1.258   8.670 -1.2732  1.0439 -1.2435
 7081SOL     OW32875   0.299   3.587   4.768  0.4005 -0.0904  0.5592
 7081SOL    HW132876   0.214   3.623   4.793  2.0333  2.6443  2.2351
 7081SOL    HW232877   0.351   3.663   4.743 -1.7689  1.7124  1.5383
 7082SOL     OW32878   2.972   3.873   4.512 -0.8526 -0.2555 -0.5052
 7082SOL    HW132879   2.978   3.962   4.547  1.5661 -0.7715  0.3960
 7082SOL    HW232880   3.064   3.847   4.513 -0.2179  2.0156  1.1892
 7083SOL     OW32881   2.669   1.255   4.035  0.2358 -0.4916  0.0387
 7083SOL    HW132882   2.581   1.286   4.014  0.6214 -0.5010 -1.6053
 7083SOL    HW232883   2.670   1.293   4.123 -1.5215 -2.1312  0.7578
 7084SOL     OW32884   2.011   1.081   1.555 -0.5721 -0.1517 -0.0863
 7084SOL    HW132885   2.000   1.108   1.464 -0.8757 -3.2387 -0.9991
 7084SOL    HW232886   1.976   1.156   1.603 -2.0308  0.1897 -1.6978
 7085SOL     OW32887   0.158   3.209  14.817  0.3296 -0.5831  0.9971
 7085SOL    HW132888   0.095   3.183  14.885 -1.7971  0.0114 -0.7360
 7085SOL    HW232889   0.098   3.238  14.748  1.3313  0.9223  0.7867
 7086SOL     OW32890   2.983   0.483   9.819  0.5880  0.3902  0.2376
 7086SOL    HW132891   2.955   0.419   9.883 -0.6983 -1.4218 -2.1262
 7086SOL    HW232892   3.076   0.466   9.806  0.4677 -0.0840 -0.0009
 7087SOL     OW32893   0.490   1.341  15.555 -0.4779  0.6815 -0.0198
 7087SOL    HW132894   0.427   1.358  15.625  0.4997  2.1622  0.4955
 7087SOL    HW232895   0.564   1.298  15.599  0.1747  0.6188 -1.1950
 7088SOL     OW32896   0.541   3.507   1.590 -0.0937 -0.3801  0.0838
 7088SOL    HW132897   0.543   3.590   1.543 -0.6123 -0.4985 -0.1520
 7088SOL    HW232898   0.486   3.533   1.664 -1.6629 -1.3371 -0.7521
 7089SOL     OW32899   2.006   4.123   6.046  0.2095 -0.0391  0.0809
 7089SOL    HW132900   2.052   4.053   6.000  0.9117 -1.0821  2.3532
 7089SOL    HW232901   1.926   4.126   5.992 -0.5658  0.8109  1.2824
 7090SOL     OW32902   2.884   4.520   7.107 -1.0623 -0.2067 -0.2646
 7090SOL    HW132903   2.833   4.582   7.055 -0.7531  0.3714  0.1170
 7090SOL    HW232904   2.843   4.533   7.193  0.9850  0.6267  0.5812
 7091SOL     OW32905   3.576   2.078   2.754  0.1018 -0.9015 -0.5245
 7091SOL    HW132906   3.628   2.156   2.738  0.5957 -1.0931  0.1798
 7091SOL    HW232907   3.649   2.026   2.787  1.6761  1.2586 -0.6325
 7092SOL     OW32908   2.217   3.726   7.361 -0.4443 -0.2261 -0.1785
 7092SOL    HW132909   2.250   3.650   7.409  1.8107  0.4372 -0.6943
 7092SOL    HW232910   2.244   3.701   7.273 -0.3469  0.5412 -0.3621
 7093SOL     OW32911   4.371   3.572  12.286 -0.1207  0.0631 -0.2827
 7093SOL    HW132912   4.427   3.649  12.274  0.0449  0.3223  2.1878
 7093SOL    HW232913   4.381   3.560  12.380 -0.1278  2.1752  0.0021
 7094SOL     OW32914   2.687   2.111   2.080  0.3054 -0.3367  0.1722
 7094SOL    HW132915   2.606   2.131   2.034  0.5309  1.5246  0.5969
 7094SOL    HW232916   2.651   2.110   2.169  1.3853 -0.0210  0.6115
 7095SOL     OW32917   3.084   3.824   1.734 -0.0553 -0.0594  0.0516
 7095SOL    HW132918   3.018   3.776   1.783 -0.8542  1.0889  0.0732
 7095SOL    HW232919   3.150   3.756   1.717 -0.7324 -0.5402 -0.6524
 7096SOL     OW32920   0.276   4.596   6.736  0.1163 -0.0379  0.0745
 7096SOL    HW132921   0.268   4.518   6.681 -0.0326 -0.2298  0.3676
 7096SOL    HW232922   0.261   4.571   6.828 -3.0797 -0.1573 -0.4824
 7097SOL     OW32923   3.689   3.200   3.499 -0.2049 -0.7494 -0.2854
 7097SOL    HW132924   3.743   3.122   3.510  1.4280  0.5703  0.9187
 7097SOL    HW232925   3.642   3.200   3.583  1.0202  0.7962  0.3866
 7098SOL     OW32926   1.343   3.535   7.455 -0.0065  0.0883  0.3557
 7098SOL    HW132927   1.369   3.454   7.412  1.1536  0.4775  0.3159
 7098SOL    HW232928   1.257   3.533   7.413  0.0113  0.9528  0.2812
 7099SOL     OW32929   4.434   3.900  11.721 -0.3786  0.3240  0.0334
 7099SOL    HW132930   4.488   3.823  11.739 -1.0923 -0.4470 -1.1047
 7099SOL    HW232931   4.352   3.873  11.762 -0.1570 -2.3600 -1.3367
 7100SOL     OW32932   2.291   4.400   1.022 -0.5503  0.0037 -0.2885
 7100SOL    HW132933   2.344   4.406   0.943 -0.7856 -0.6002 -0.4932
 7100SOL    HW232934   2.219   4.458   0.997 -1.4873 -1.1230 -0.2004
 7101SOL     OW32935   1.224   0.145   6.467  0.2773 -0.4938 -0.2185
 7101SOL    HW132936   1.310   0.119   6.499  0.6214 -0.4935 -1.1652
 7101SOL    HW232937   1.184   0.175   6.549  0.9095  1.8798 -0.7649
 7102SOL     OW32938   4.489   1.503   1.408 -0.1089  0.0082  0.1010
 7102SOL    HW132939   4.579   1.473   1.425 -0.4739 -0.6058  0.9559
 7102SOL    HW232940   4.438   1.423   1.418 -2.8547  1.6543 -0.7859
 7103SOL     OW32941   3.054   0.295   7.423 -0.2298  0.1496  0.2562
 7103SOL    HW132942   3.011   0.339   7.496 -1.0721 -2.3944  1.2748
 7103SOL    HW232943   3.086   0.368   7.370  0.6066  1.3276  2.3867
 7104SOL     OW32944   4.137   3.685  12.147 -0.0615 -0.2357  0.1223
 7104SOL    HW132945   4.203   3.753  12.131 -4.2645  4.3862  2.5469
 7104SOL    HW232946   4.198   3.624  12.189  1.7896  2.3986  1.2899
 7105SOL     OW32947   1.547   0.656   8.101 -0.2810 -0.0347  0.1887
 7105SOL    HW132948   1.606   0.582   8.113  0.0321  0.1243 -0.3316
 7105SOL    HW232949   1.586   0.718   8.039 -1.2844 -1.5125 -1.9259
 7106SOL     OW32950   4.657   2.320   9.865 -0.2320  0.0725  0.1464
 7106SOL    HW132951   4.714   2.377   9.813 -0.8920  0.0335 -0.6328
 7106SOL    HW232952   4.574   2.366   9.851 -0.0607  1.0241  2.2486
 7107SOL     OW32953   1.540   3.007  14.909  0.5243 -0.3979  0.1294
 7107SOL    HW132954   1.481   2.962  14.848  0.7030 -0.6646  0.1548
 7107SOL    HW232955   1.600   2.935  14.927  0.3489 -1.0430 -1.7933
 7108SOL     OW32956   0.186   4.537   4.749  0.7477  0.1520  0.2870
 7108SOL    HW132957   0.177   4.632   4.745 -1.9265 -0.0509  1.1390
 7108SOL    HW232958   0.097   4.502   4.751 -0.0396  2.0696 -0.8523
 7109SOL     OW32959   3.663   1.869   7.015  0.7489 -0.1765  0.3357
 7109SOL    HW132960   3.630   1.948   7.058  0.0899 -1.4778  2.2416
 7109SOL    HW232961   3.617   1.860   6.932  0.6612 -1.1232  0.4882
 7110SOL     OW32962   3.971   0.457   6.069  0.5706 -0.4177 -0.5743
 7110SOL    HW132963   4.022   0.442   5.990 -1.5610  1.7191 -2.3462
 7110SOL    HW232964   3.918   0.525   6.029 -0.7107 -0.3655  1.1793
 7111SOL     OW32965   0.117   2.225  14.840 -0.2212 -0.5601 -0.0182
 7111SOL    HW132966   0.086   2.219  14.750  1.3676 -2.6672 -0.4101
 7111SOL    HW232967   0.090   2.314  14.863 -0.4661 -0.8878  0.9645
 7112SOL     OW32968   2.326   1.891   0.625  0.0072 -0.7866  0.6825
 7112SOL    HW132969   2.373   1.813   0.655 -0.1382 -0.9989  0.3504
 7112SOL    HW232970   2.261   1.856   0.564 -0.2189  0.4052  0.2515
 7113SOL     OW32971   0.678   1.451   3.671 -0.5909  0.7864  0.0380
 7113SOL    HW132972   0.697   1.505   3.747  1.2613 -1.7003  1.3602
 7113SOL    HW232973   0.760   1.451   3.622 -1.3595  0.8767 -1.2544
 7114SOL     OW32974   3.492   0.947  16.447 -0.3351  0.1729  0.2219
 7114SOL    HW132975   3.541   0.979  16.523  1.7181  2.8121 -2.2168
 7114SOL    HW232976   3.427   1.016  16.431  1.1337  1.6298  0.5041
 7115SOL     OW32977   2.044   1.877  12.762 -0.1563 -0.4455 -0.0539
 7115SOL    HW132978   2.069   1.802  12.815  0.6667 -0.4735 -0.4824
 7115SOL    HW232979   2.130   1.911  12.736 -0.0106 -1.0248 -0.3215
 7116SOL     OW32980   2.555   4.010   6.252 -0.1997 -0.2933  0.0930
 7116SOL    HW132981   2.471   3.978   6.282  0.4385 -0.3512  1.7878
 7116SOL    HW232982   2.607   3.931   6.234 -0.5217 -0.5665  0.3902
 7117SOL     OW32983   0.318   2.451   7.779 -0.0246 -0.1169 -0.1395
 7117SOL    HW132984   0.304   2.488   7.866  0.6702 -0.5965  0.1728
 7117SOL    HW232985   0.233   2.465   7.736  0.2028 -1.2157 -0.9487
 7118SOL     OW32986   3.336   4.672   1.470 -0.2403 -0.0207 -0.1088
 7118SOL    HW132987   3.259   4.675   1.527  2.0146  0.7219  2.9167
 7118SOL    HW232988   3.323   0.011   1.412 -1.2577 -0.5160 -0.5074
 7119SOL     OW32989   0.715   2.795   8.329  0.6687  0.0390 -0.1087
 7119SOL    HW132990   0.771   2.867   8.298 -0.0539  0.0682 -1.3202
 7119SOL    HW232991   0.681   2.848   8.401 -1.3517 -1.4204 -0.0061
 7120SOL     OW32992   4.286   1.201   3.826 -0.0662 -0.5306  0.1255
 7120SOL    HW132993   4.310   1.123   3.877 -1.1848 -1.8966 -1.4614
 7120SOL    HW232994   4.213   1.165   3.776 -0.5504 -1.0577  1.1920
 7121SOL     OW32995   0.620   3.103   5.601  0.4279  0.4745  1.0125
 7121SOL    HW132996   0.651   3.069   5.517 -0.7801 -1.2965  1.2787
 7121SOL    HW232997   0.648   3.034   5.660 -1.9515  0.0363  1.6037
 7122SOL     OW32998   1.629   1.904   5.056  0.7455  0.3805  0.3692
 7122SOL    HW132999   1.538   1.879   5.072 -0.1479  2.8322 -0.8522
 7122SOL    HW233000   1.654   1.897   5.147  0.4181 -0.8891  0.3615
 7123SOL     OW33001   3.521   2.831   5.077 -1.0437 -0.1549 -0.4385
 7123SOL    HW133002   3.513   2.782   4.995 -1.8466  2.3019 -1.8139
 7123SOL    HW233003   3.433   2.848   5.112 -0.6450  1.4196 -0.2046
 7124SOL     OW33004   0.743   0.253  12.109 -0.4622  0.0517  0.1424
 7124SOL    HW133005   0.820   0.255  12.166 -0.2988 -1.2499 -0.0194
 7124SOL    HW233006   0.714   0.343  12.122  0.5847  0.4726 -0.4425
 7125SOL     OW33007   0.539   1.766  11.562  0.0855  0.1958 -0.7102
 7125SOL    HW133008   0.576   1.780  11.650 -0.7468  1.0146 -0.4947
 7125SOL    HW233009   0.530   1.671  11.557  1.0894  0.1209 -1.1311
 7126SOL     OW33010   1.312   3.676   0.087 -0.3150 -0.4000 -0.4660
 7126SOL    HW133011   1.372   3.733   0.136  2.4236 -2.1865 -1.7305
 7126SOL    HW233012   1.319   3.599   0.144 -0.0115  0.7359  1.0386
 7127SOL     OW33013   0.572   2.747   7.808 -0.3165 -0.5204  0.6565
 7127SOL    HW133014   0.534   2.691   7.740  0.7742 -0.1332 -0.2690
 7127SOL    HW233015   0.662   2.716   7.813 -0.4731 -1.0777  0.0885
 7128SOL     OW33016   1.480   2.253  17.114 -0.2610 -0.2195 -0.4091
 7128SOL    HW133017   1.453   2.161  17.104  0.5366 -0.3815 -1.0103
 7128SOL    HW233018   1.546   2.270  17.048 -1.3838 -0.5033 -1.5982
 7129SOL     OW33019   4.448   2.470   9.835  0.1886 -0.1520  0.6781
 7129SOL    HW133020   4.352   2.471   9.827  0.4116 -3.1352 -2.2808
 7129SOL    HW233021   4.460   2.559   9.867 -2.0306 -0.0463  1.2484
 7130SOL     OW33022   3.563   3.551  10.349  0.5464  0.1497  0.0170
 7130SOL    HW133023   3.586   3.635  10.387 -0.1547  0.6394 -0.6492
 7130SOL    HW233024   3.555   3.504  10.433  1.5158 -2.0440 -1.1037
 7131SOL     OW33025   2.994   2.763   1.976  0.4434 -0.3713  0.2691
 7131SOL    HW133026   2.910   2.792   1.941 -0.0729  0.4231  2.1670
 7131SOL    HW233027   2.964   2.711   2.051  2.1196  0.1011  1.2676
 7132SOL     OW33028   3.177   4.680   4.292  0.1511  0.0881 -0.7118
 7132SOL    HW133029   3.108   4.707   4.232 -0.3237 -2.2990 -1.2211
 7132SOL    HW233030   3.180   0.025   4.343 -1.4083 -0.1709 -0.2209
 7133SOL     OW33031   3.944   4.110   7.756 -0.5605  0.3879 -0.1980
 7133SOL    HW133032   3.864   4.113   7.809  0.3751 -0.7135  1.2588
 7133SOL    HW233033   4.004   4.075   7.822  0.0870  3.1016  0.6621
 7134SOL     OW33034   0.200   2.965   2.337 -0.1909  0.3630 -0.3215
 7134SOL    HW133035   0.112   2.965   2.374  0.8297 -0.5200  2.0825
 7134SOL    HW233036   0.223   2.881   2.378 -2.9227 -0.4909 -0.5658
 7135SOL     OW33037   4.643   0.210   6.359 -0.4650  0.0950  0.0693
 7135SOL    HW133038   4.585   0.223   6.284 -1.6471  1.5891  1.2381
 7135SOL    HW233039   4.690   0.133   6.329  0.1436  1.1573 -1.7418
 7136SOL     OW33040   4.302   3.659   8.368  0.3591 -0.3852 -0.5795
 7136SOL    HW133041   4.350   3.578   8.389 -1.2923 -1.2538 -0.1411
 7136SOL    HW233042   4.369   3.719   8.335 -0.0779  0.3237 -0.1779
 7137SOL     OW33043   3.932   0.517   8.672 -0.0358  0.1996  0.4425
 7137SOL    HW133044   3.947   0.610   8.685  1.0109  0.2090 -0.8609
 7137SOL    HW233045   4.018   0.481   8.690 -0.1519 -0.8482 -1.0778
 7138SOL     OW33046   4.243   3.512   5.358 -0.0701  0.1009 -0.0124
 7138SOL    HW133047   4.326   3.517   5.310 -0.4430 -0.2485 -0.6953
 7138SOL    HW233048   4.235   3.417   5.366 -0.9689  0.1460 -0.3359
 7139SOL     OW33049   2.791   1.256   8.209  0.4510  0.1713 -0.0328
 7139SOL    HW133050   2.735   1.220   8.278  1.0618  0.6316  0.7033
 7139SOL    HW233051   2.857   1.187   8.203  0.1699 -0.1342  0.4237
 7140SOL     OW33052   1.310   0.355   7.555 -0.1003 -0.1730  0.0572
 7140SOL    HW133053   1.311   0.418   7.626 -2.3245 -0.7483  0.6060
 7140SOL    HW233054   1.218   0.330   7.564 -0.8222  2.4585 -0.2641
 7141SOL     OW33055   0.164   1.537   8.495  0.5161 -0.3673 -0.3077
 7141SOL    HW133056   0.183   1.533   8.402 -0.6998  0.6887 -0.5965
 7141SOL    HW233057   0.223   1.605   8.528 -2.2396  0.8117  2.1668
 7142SOL     OW33058   1.268   3.084  13.018 -0.1901 -0.2819  0.7426
 7142SOL    HW133059   1.319   3.157  12.983  1.4316 -1.8366 -0.1298
 7142SOL    HW233060   1.342   3.027  13.037 -0.3756 -0.0395  2.1850
 7143SOL     OW33061   1.459   1.178   0.663  0.5419 -0.8076  0.0248
 7143SOL    HW133062   1.410   1.096   0.653 -1.9897  0.2563  3.7933
 7143SOL    HW233063   1.418   1.223   0.737  1.5886 -1.7462  1.1843
 7144SOL     OW33064   3.846   3.294  17.696 -0.3117 -0.1632 -0.3562
 7144SOL    HW133065   3.847   3.387  17.673  1.7504 -0.1483 -0.1692
 7144SOL    HW233066   3.937   3.287  17.722  0.0681  1.6525 -1.2465
 7145SOL     OW33067   1.329   0.875   1.487  0.1579  0.5380  0.5243
 7145SOL    HW133068   1.291   0.947   1.436 -0.8250 -0.0182  0.4730
 7145SOL    HW233069   1.388   0.836   1.423 -0.7313  2.7605 -1.6672
 7146SOL     OW33070   3.231   3.710   0.067  0.2381 -0.4120 -0.0769
 7146SOL    HW133071   3.294   3.778   0.090 -0.1583 -0.6223  1.5766
 7146SOL    HW233072   3.162   3.754   0.018 -2.0295 -2.2570  1.4793
 7147SOL     OW33073   3.001   2.225  14.807  0.1308 -0.2309 -0.6407
 7147SOL    HW133074   3.008   2.319  14.787  2.1396 -0.1322  0.5015
 7147SOL    HW233075   3.094   2.209  14.792  0.6475  1.1871  1.0714
 7148SOL     OW33076   2.493   0.146  16.411 -0.2476  0.6816  0.4095
 7148SOL    HW133077   2.554   0.080  16.378 -0.4083 -1.3276  4.2140
 7148SOL    HW233078   2.523   0.220  16.357 -0.5877 -0.0782 -0.8346
 7149SOL     OW33079   2.994   2.933   6.708 -0.0837 -0.1921  0.1203
 7149SOL    HW133080   2.902   2.915   6.729  0.2162 -0.2590  1.3923
 7149SOL    HW233081   3.003   3.018   6.751  1.1413 -1.8844  3.2498
 7150SOL     OW33082   0.976   3.513  11.025 -0.3590 -0.2639 -0.7338
 7150SOL    HW133083   0.891   3.475  11.001  0.2094 -1.1517 -1.3396
 7150SOL    HW233084   1.011   3.447  11.085 -1.4401  0.7928  1.0639
 7151SOL     OW33085   0.529   1.868   6.217  0.7818  0.2696 -0.2749
 7151SOL    HW133086   0.605   1.914   6.252 -1.1374  3.0751  0.2825
 7151SOL    HW233087   0.460   1.935   6.217 -0.1475 -0.6963  0.1448
 7152SOL     OW33088   3.594   1.911  14.370 -0.3246 -0.0572  0.3922
 7152SOL    HW133089   3.688   1.916  14.356 -0.4867 -0.4829 -0.7889
 7152SOL    HW233090   3.581   1.935  14.462  1.4279 -1.4976  1.0008
 7153SOL     OW33091   3.285   0.145   4.469 -0.3302 -0.2841  0.1649
 7153SOL    HW133092   3.346   0.127   4.541  1.6338  1.6535 -1.0199
 7153SOL    HW233093   3.328   0.217   4.422  0.1449  1.3937  3.1713
 7154SOL     OW33094   0.584   1.003  14.938 -0.6773  0.3758 -0.3088
 7154SOL    HW133095   0.575   1.097  14.920 -0.5248  0.5637  0.5936
 7154SOL    HW233096   0.678   0.999  14.954 -0.5476  0.5273 -1.0136
 7155SOL     OW33097   2.260   4.094  17.506 -0.2129  0.3381  0.5146
 7155SOL    HW133098   2.315   4.130  17.436  1.4409 -2.7351  0.2076
 7155SOL    HW233099   2.178   4.142  17.502 -0.3989  0.0894  1.1831
 7156SOL     OW33100   1.308   4.161  13.609 -0.4279 -0.0880 -0.4891
 7156SOL    HW133101   1.337   4.231  13.551  1.0629 -0.3497 -0.0819
 7156SOL    HW233102   1.367   4.174  13.683 -0.8325 -0.8940 -0.0169
 7157SOL     OW33103   1.832   0.885   7.781 -0.3971 -0.1386  0.3514
 7157SOL    HW133104   1.916   0.871   7.824  0.5875  1.2040 -1.1284
 7157SOL    HW233105   1.841   0.809   7.724  1.2768 -1.2569  2.0851
 7158SOL     OW33106   1.206   2.256  15.305  0.1811  0.3456  0.2731
 7158SOL    HW133107   1.147   2.215  15.241 -0.2105 -0.4437  1.1527
 7158SOL    HW233108   1.284   2.264  15.250 -0.7630 -0.4701 -1.1861
 7159SOL     OW33109   3.098   0.398  16.514  0.1174  0.1654  0.0895
 7159SOL    HW133110   3.076   0.324  16.571  2.2632 -0.3406  0.2559
 7159SOL    HW233111   3.063   0.471  16.565  0.5776  1.1347 -0.9959
 7160SOL     OW33112   4.354   3.513  11.501 -0.0931 -0.3643  0.1134
 7160SOL    HW133113   4.306   3.542  11.579  3.6001 -1.2332  2.6870
 7160SOL    HW233114   4.420   3.463  11.549  0.2148  0.7769  0.8757
 7161SOL     OW33115   0.901   1.186  13.708  0.0844 -0.1913 -0.2828
 7161SOL    HW133116   0.967   1.209  13.773  1.8840 -0.9620 -1.8366
 7161SOL    HW233117   0.949   1.131  13.646 -1.2401  0.2578 -1.7133
 7162SOL     OW33118   1.273   1.453   8.590  0.4401  0.4306 -0.3378
 7162SOL    HW133119   1.265   1.526   8.529 -0.7453 -1.1749 -2.1152
 7162SOL    HW233120   1.207   1.470   8.657  0.7495  0.7827 -0.1232
 7163SOL     OW33121   4.618   1.020   9.436  0.2491  0.2541  0.8072
 7163SOL    HW133122   4.533   1.049   9.469 -0.7930 -0.6101 -1.0790
 7163SOL    HW233123   4.679   1.092   9.452  1.0107 -0.0510 -0.7335
 7164SOL     OW33124   2.481   3.478  16.691 -0.1441 -0.0531  0.4539
 7164SOL    HW133125   2.540   3.403  16.682 -0.1888 -0.0080 -0.1874
 7164SOL    HW233126   2.474   3.493  16.597  0.1116 -2.1828  0.0996
 7165SOL     OW33127   2.568   1.577   3.159 -0.1956  0.0556 -0.0701
 7165SOL    HW133128   2.608   1.492   3.140 -0.2879 -0.0097  0.0335
 7165SOL    HW233129   2.559   1.608   3.069 -3.1443  2.5283  1.0689
 7166SOL     OW33130   1.430   3.578  11.706 -0.1989 -0.1307 -0.7469
 7166SOL    HW133131   1.513   3.621  11.689 -0.0069  0.4598  1.6142
 7166SOL    HW233132   1.382   3.633  11.769  0.6672 -2.2325  1.7558
 7167SOL     OW33133   3.548   3.621   9.961 -0.0623 -0.5788  0.3440
 7167SOL    HW133134   3.512   3.540   9.925  0.3221 -1.2595  1.5304
 7167SOL    HW233135   3.624   3.637   9.905  1.3514 -1.2088  2.1086
 7168SOL     OW33136   2.898   1.327   5.779 -0.1943 -0.1164  0.0107
 7168SOL    HW133137   2.865   1.334   5.869 -0.0785 -0.0016  0.0450
 7168SOL    HW233138   2.941   1.244   5.795 -0.7743 -0.4280 -0.0409
 7169SOL     OW33139   0.196   0.912   6.087  0.4068 -0.0477 -0.3052
 7169SOL    HW133140   0.141   0.883   6.160 -1.7547 -0.4819 -2.0933
 7169SOL    HW233141   0.227   0.833   6.044 -0.9524 -0.0216 -1.3550
 7170SOL     OW33142   3.235   3.163   3.672  0.1812 -0.1420 -0.1512
 7170SOL    HW133143   3.196   3.221   3.606 -0.4088 -1.0406 -0.5956
 7170SOL    HW233144   3.198   3.077   3.654 -1.7807  1.0536 -1.8676
 7171SOL     OW33145   2.767   2.468   1.765  0.0255  0.1807  0.6416
 7171SOL    HW133146   2.684   2.460   1.717  1.2359  0.6885 -1.5083
 7171SOL    HW233147   2.749   2.538   1.827  0.7909  2.0710 -1.2866
 7172SOL     OW33148   0.488   2.335  14.217 -0.2622  0.6569 -0.4956
 7172SOL    HW133149   0.537   2.410  14.183  0.5922  0.7420  0.9162
 7172SOL    HW233150   0.436   2.375  14.287 -0.1913  0.3345 -0.2524
 7173SOL     OW33151   0.927   0.235   9.453  0.2367 -0.0235 -0.2175
 7173SOL    HW133152   0.956   0.309   9.507 -0.2636 -0.2885  0.4099
 7173SOL    HW233153   0.858   0.285   9.411 -0.4623  0.3624  1.3738
 7174SOL     OW33154   3.361   4.272   9.957  0.2445 -0.1517 -0.0494
 7174SOL    HW133155   3.271   4.304   9.961  0.1417 -0.4802  0.3229
 7174SOL    HW233156   3.360   4.235   9.868 -2.3076 -2.9119  1.1151
 7175SOL     OW33157   3.574   1.909   8.294 -0.1667 -0.6618  0.5684
 7175SOL    HW133158   3.623   1.872   8.367  0.6157  1.3379  1.0358
 7175SOL    HW233159   3.516   1.835   8.274 -2.4097  1.2717 -0.1620
 7176SOL     OW33160   0.569   1.127   0.589  0.0591 -0.5898  0.0794
 7176SOL    HW133161   0.518   1.141   0.509 -0.8920 -0.7738  0.6563
 7176SOL    HW233162   0.592   1.217   0.614  0.3393 -0.6043 -0.1221
 7177SOL     OW33163   0.284   1.187   3.498  0.6983 -0.3037 -0.0517
 7177SOL    HW133164   0.375   1.216   3.495  0.7337 -0.3680  0.3735
 7177SOL    HW233165   0.281   1.153   3.588 -0.2801 -0.8033 -0.2797
 7178SOL     OW33166   2.972   0.190   8.197 -0.2514  0.0302  0.1229
 7178SOL    HW133167   2.921   0.252   8.248 -0.0556  1.4425 -1.4018
 7178SOL    HW233168   2.954   0.224   8.109  2.7880  2.7209  0.5540
 7179SOL     OW33169   2.046   3.159  15.660 -0.4978  0.2053 -1.0307
 7179SOL    HW133170   2.139   3.167  15.637 -0.3395  1.9388  0.2239
 7179SOL    HW233171   2.003   3.212  15.592  0.5297  1.3943 -0.7530
 7180SOL     OW33172   3.429   3.059   5.483  0.0655  0.4412  0.3694
 7180SOL    HW133173   3.462   3.130   5.537 -0.6949  0.7187  0.4771
 7180SOL    HW233174   3.384   2.994   5.538  2.6096 -2.1565 -0.6185
 7181SOL     OW33175   4.143   2.283   2.456  0.2537  0.2299  0.0268
 7181SOL    HW133176   4.221   2.228   2.461 -0.5261 -0.9258 -0.5293
 7181SOL    HW233177   4.183   2.368   2.439  0.4677 -0.0226 -0.7186
 7182SOL     OW33178   2.043   4.296   4.915  0.3887 -0.1058 -0.0909
 7182SOL    HW133179   1.996   4.234   4.971 -1.5508  1.7366  0.2845
 7182SOL    HW233180   1.969   4.350   4.890  0.5659  0.7483  1.2900
 7183SOL     OW33181   0.612   2.661  15.933  0.3433 -0.1132  0.3152
 7183SOL    HW133182   0.529   2.681  15.975  0.8709  1.8708  0.4198
 7183SOL    HW233183   0.591   2.581  15.884 -1.4904  0.6329 -0.1154
 7184SOL     OW33184   3.916   2.740   6.443  0.0160 -0.1118  0.0510
 7184SOL    HW133185   3.986   2.713   6.503  0.4925  2.4960  0.6741
 7184SOL    HW233186   3.981   2.782   6.386  1.6219  0.7230  2.4408
 7185SOL     OW33187   4.583   2.978   8.595 -0.1087  0.2013 -0.3157
 7185SOL    HW133188   4.569   2.935   8.510  2.0150 -2.7938  0.8381
 7185SOL    HW233189   4.539   3.062   8.583 -0.2000  0.0272 -1.1713
 7186SOL     OW33190   1.448   3.966  16.706 -1.0204  0.7190 -0.0620
 7186SOL    HW133191   1.504   3.892  16.681  2.6157  3.1197  0.9268
 7186SOL    HW233192   1.508   4.025  16.752 -0.5485 -0.4910  0.8583
 7187SOL     OW33193   2.718   3.421  14.218 -0.0865  0.1182  0.0017
 7187SOL    HW133194   2.779   3.348  14.228 -0.1015  0.3443  1.7160
 7187SOL    HW233195   2.771   3.501  14.219 -2.3647  1.6290 -0.7828
 7188SOL     OW33196   4.610   0.235   3.327 -0.6676 -0.0366 -0.4013
 7188SOL    HW133197   4.582   0.236   3.419 -2.6683 -1.3047 -0.9935
 7188SOL    HW233198   4.609   0.329   3.308 -0.3695  0.5376  2.4263
 7189SOL     OW33199   2.842   2.491   2.107  0.1485 -0.2685  0.0419
 7189SOL    HW133200   2.881   2.407   2.084 -1.1569 -2.0418  4.3264
 7189SOL    HW233201   2.751   2.488   2.078 -0.0130 -0.1427  0.5389
 7190SOL     OW33202   4.054   4.683   2.815 -0.7643 -0.2120 -0.1615
 7190SOL    HW133203   4.012   4.663   2.899 -1.1026  2.4439  0.3144
 7190SOL    HW233204   4.148   4.692   2.833 -0.9501  1.0477  0.1567
 7191SOL     OW33205   3.398   0.564   5.526  0.1748 -0.2750 -0.4384
 7191SOL    HW133206   3.416   0.626   5.455 -0.4385 -0.8833 -1.1287
 7191SOL    HW233207   3.307   0.592   5.535  0.6175  0.9584  0.1589
 7192SOL     OW33208   2.031   1.088   3.837  0.0393  0.0331 -0.5129
 7192SOL    HW133209   2.117   1.081   3.796  0.6820  3.6651  0.2573
 7192SOL    HW233210   2.036   1.182   3.854 -0.5090 -0.0348  0.0155
 7193SOL     OW33211   3.442   3.465   6.900 -0.3735  0.4228  0.5806
 7193SOL    HW133212   3.431   3.560   6.903  0.7121  0.5731 -0.0681
 7193SOL    HW233213   3.497   3.447   6.976 -2.9460 -2.9955  1.6441
 7194SOL     OW33214   0.514   0.037   0.645 -0.2368  0.1512  0.8996
 7194SOL    HW133215   0.467   4.729   0.574 -1.4397  0.8448  1.2716
 7194SOL    HW233216   0.571   0.090   0.590 -2.9065  2.1499  0.0247
 7195SOL     OW33217   1.037   0.312   7.648  0.4679  0.0467 -0.0054
 7195SOL    HW133218   0.960   0.299   7.592  0.3696  0.5686  0.0123
 7195SOL    HW233219   1.008   0.277   7.733  0.2793  0.4439  0.0923
 7196SOL     OW33220   1.379   1.684   5.690 -0.3446  0.7727 -0.3607
 7196SOL    HW133221   1.323   1.701   5.614  0.2624 -0.6024 -1.1192
 7196SOL    HW233222   1.390   1.776   5.714  0.7693  0.1302  1.6095
 7197SOL     OW33223   4.305   1.655   4.106  0.7241  0.1355 -0.4810
 7197SOL    HW133224   4.288   1.574   4.058  1.4823 -0.9744  1.1301
 7197SOL    HW233225   4.397   1.636   4.126  1.1949  2.1790 -0.7168
 7198SOL     OW33226   3.166   3.057   9.949 -0.3890 -0.1842  0.1017
 7198SOL    HW133227   3.199   3.066  10.038 -1.3608  0.9696  0.3428
 7198SOL    HW233228   3.102   3.129   9.952 -1.9910 -1.6648  0.9573
 7199SOL     OW33229   3.632   0.103   2.910 -0.2351  0.3034 -0.0579
 7199SOL    HW133230   3.677   0.049   2.845  0.2686  0.3413  0.2621
 7199SOL    HW233231   3.700   0.162   2.941 -0.6331  1.8637 -2.1351
 7200SOL     OW33232   3.362   4.119   7.737  0.0353  0.1566 -0.2714
 7200SOL    HW133233   3.335   4.038   7.694  0.0535  0.8008 -1.4835
 7200SOL    HW233234   3.293   4.112   7.804  1.8367  1.0904  1.6531
 7201SOL     OW33235   0.988   0.472  16.787  0.5250  0.3950 -0.2698
 7201SOL    HW133236   1.000   0.381  16.759 -0.6863  0.2863 -0.4377
 7201SOL    HW233237   1.001   0.508  16.699 -1.2281  1.5877 -0.0357
 7202SOL     OW33238   4.191   3.297  10.338  0.1683  0.2189  0.1653
 7202SOL    HW133239   4.195   3.358  10.411  0.3112  0.6664 -0.2159
 7202SOL    HW233240   4.195   3.214  10.386  1.4886  1.4846  2.2084
 7203SOL     OW33241   2.395   2.719   2.607  0.4337  0.3858 -0.2695
 7203SOL    HW133242   2.397   2.710   2.511 -2.6010 -0.4280 -0.2646
 7203SOL    HW233243   2.357   2.632   2.626 -0.2121  0.3146 -1.8560
 7204SOL     OW33244   3.447   3.469   9.381 -0.4833 -0.0536 -0.0646
 7204SOL    HW133245   3.388   3.542   9.362 -0.2592  0.2605  0.4336
 7204SOL    HW233246   3.403   3.426   9.455  0.4359 -0.5069  0.2111
 7205SOL     OW33247   3.829   2.321   0.109  0.6294 -0.4565  0.2189
 7205SOL    HW133248   3.742   2.283   0.100  1.2960 -1.7800 -0.6725
 7205SOL    HW233249   3.887   2.247   0.093  1.1589 -0.4899  2.2792
 7206SOL     OW33250   0.832   4.034  16.667  0.5232 -0.0773  0.6788
 7206SOL    HW133251   0.774   3.999  16.599 -0.5400  1.2540  0.8962
 7206SOL    HW233252   0.785   4.022  16.750 -0.0964 -4.2318 -0.2823
 7207SOL     OW33253   1.143   0.281   2.673 -0.0556  0.2012 -0.4840
 7207SOL    HW133254   1.142   0.186   2.683  0.0573  0.1160 -1.3054
 7207SOL    HW233255   1.052   0.300   2.697  0.3861  2.6954 -0.7834
 7208SOL     OW33256   1.418   0.557   2.507 -0.2156 -0.3910 -0.1952
 7208SOL    HW133257   1.460   0.548   2.593 -0.0930 -2.1162 -0.4304
 7208SOL    HW233258   1.457   0.635   2.468  0.1929 -0.2680  0.4560
 7209SOL     OW33259   4.262   1.414  14.238  0.6147 -0.1597 -0.2018
 7209SOL    HW133260   4.356   1.424  14.224  0.5666  0.1691 -0.3008
 7209SOL    HW233261   4.246   1.342  14.178  0.7762  1.0508 -1.6862
 7210SOL     OW33262   0.750   1.863   7.507 -0.4106 -0.1246  0.2868
 7210SOL    HW133263   0.831   1.827   7.473 -1.1810 -1.5989 -0.0001
 7210SOL    HW233264   0.765   1.867   7.601  0.7098  1.2635  0.0542
 7211SOL     OW33265   4.270   3.918   5.013 -0.2662  0.6857 -0.3854
 7211SOL    HW133266   4.319   3.923   5.095  0.1408  1.8416 -0.6932
 7211SOL    HW233267   4.187   3.877   5.038 -0.2554  1.5808  1.1033
 7212SOL     OW33268   3.046   1.437   8.392 -0.0875  0.3751  0.0871
 7212SOL    HW133269   3.025   1.466   8.303  4.2271 -0.7834 -1.2812
 7212SOL    HW233270   3.107   1.504   8.423  1.8831  0.1815 -3.3547
 7213SOL     OW33271   2.692   4.361  11.473 -0.3224  0.2254 -0.0756
 7213SOL    HW133272   2.686   4.292  11.540  1.8906 -1.8896 -2.0531
 7213SOL    HW233273   2.638   4.317  11.407  0.1925  0.2807 -0.5300
 7214SOL     OW33274   1.424   3.900  10.157 -0.1122 -0.6340 -0.4920
 7214SOL    HW133275   1.335   3.932  10.168  0.6806  0.5156  2.4511
 7214SOL    HW233276   1.418   3.825  10.098  3.0619 -1.5332  0.3180
 7215SOL     OW33277   0.442   3.280   8.137  0.0313 -0.6012  0.7719
 7215SOL    HW133278   0.516   3.276   8.077 -0.3307  1.8366  0.1851
 7215SOL    HW233279   0.371   3.230   8.096 -0.4124  1.6933 -1.2579
 7216SOL     OW33280   2.400   1.832   3.364 -0.3355 -0.1027  0.6460
 7216SOL    HW133281   2.346   1.798   3.435 -2.3222  2.8662  0.5420
 7216SOL    HW233282   2.416   1.748   3.320 -1.4023 -0.8383  1.6770
 7217SOL     OW33283   0.675   3.574   3.751 -0.5114  0.0560 -0.1543
 7217SOL    HW133284   0.687   3.484   3.720 -1.2249 -0.5373  1.3161
 7217SOL    HW233285   0.708   3.626   3.678 -0.1453 -0.5039 -0.3851
 7218SOL     OW33286   1.357   2.014   8.516 -0.1933  0.3656 -0.3162
 7218SOL    HW133287   1.446   1.979   8.515  0.1379  1.1500  1.2395
 7218SOL    HW233288   1.372   2.108   8.516 -1.2535  0.5438 -0.1325
 7219SOL     OW33289   0.732   3.466   2.520  0.2205 -0.0600  0.1528
 7219SOL    HW133290   0.710   3.397   2.457 -0.0585  0.2753 -0.1174
 7219SOL    HW233291   0.783   3.513   2.454 -0.0797  0.3726  0.2284
 7220SOL     OW33292   1.648   2.061   4.125 -0.1884 -0.0321 -0.1934
 7220SOL    HW133293   1.696   2.037   4.046 -1.1488  0.1909 -0.8499
 7220SOL    HW233294   1.663   2.156   4.124 -0.0682 -0.0498  0.0960
 7221SOL     OW33295   3.408   1.490   2.087  0.1755 -0.2062 -0.0521
 7221SOL    HW133296   3.445   1.578   2.086 -0.6991  0.1829  2.3718
 7221SOL    HW233297   3.413   1.477   1.993  3.1563 -0.9526  0.2172
 7222SOL     OW33298   0.841   1.724  12.149 -0.4047  0.1552  0.5913
 7222SOL    HW133299   0.761   1.742  12.199  0.0903 -2.1283  2.2273
 7222SOL    HW233300   0.821   1.639  12.111  0.4286 -0.4506  1.5031
 7223SOL     OW33301   2.809   3.063   1.577 -0.3604  0.2415  0.0798
 7223SOL    HW133302   2.858   3.077   1.658  3.7616 -2.3872 -1.9741
 7223SOL    HW233303   2.869   3.027   1.513 -1.0356 -2.7449  1.1226
 7224SOL     OW33304   0.541   1.649   0.623 -0.2617 -0.6333  0.0182
 7224SOL    HW133305   0.496   1.732   0.639  2.0511  0.4014  0.9973
 7224SOL    HW233306   0.542   1.639   0.527  1.5170  0.1729 -0.0383
 7225SOL     OW33307   1.510   2.992   3.440  0.0492 -0.3767 -0.0913
 7225SOL    HW133308   1.465   2.908   3.440 -0.3043 -0.1853  0.4789
 7225SOL    HW233309   1.443   3.056   3.465 -0.6337 -1.2475  0.2908
 7226SOL     OW33310   2.002   3.046   6.765 -0.6986  0.4753  0.0794
 7226SOL    HW133311   1.999   3.052   6.860  1.5182  0.0654  0.1673
 7226SOL    HW233312   2.090   3.078   6.747 -0.9586  1.2936  0.2605
 7227SOL     OW33313   0.049   1.179   2.541 -0.3428  0.8091  0.6195
 7227SOL    HW133314   4.706   1.145   2.499 -0.8082  2.9248 -0.2290
 7227SOL    HW233315   0.045   1.111   2.608  0.4073  1.8038  1.6908
 7228SOL     OW33316   4.352   1.771   5.696  0.0826  0.2091  0.1108
 7228SOL    HW133317   4.289   1.788   5.626  0.1384  0.7954  0.1996
 7228SOL    HW233318   4.432   1.731   5.661  0.0186  0.4798 -0.3573
 7229SOL     OW33319   1.135   2.896   2.396 -0.0356 -0.2203  0.4655
 7229SOL    HW133320   1.082   2.974   2.416 -0.8050 -0.1816 -1.7239
 7229SOL    HW233321   1.086   2.838   2.454 -1.3364  1.1465  0.7422
 7230SOL     OW33322   3.910   4.119   1.563 -0.5344  0.3216  0.1412
 7230SOL    HW133323   3.918   4.192   1.624 -0.5981 -2.1618  3.1045
 7230SOL    HW233324   3.930   4.165   1.482 -0.7076  5.5180  3.0754
 7231SOL     OW33325   2.055   1.153   3.147  0.3454 -0.0605  0.1615
 7231SOL    HW133326   2.039   1.240   3.184 -1.1306 -0.9339  1.5230
 7231SOL    HW233327   1.979   1.101   3.172  0.1958 -0.0852 -0.3436
 7232SOL     OW33328   3.510   1.425  12.517 -0.4183  0.1545  0.7902
 7232SOL    HW133329   3.502   1.488  12.589 -3.4219  0.0757  0.5127
 7232SOL    HW233330   3.593   1.380  12.527  0.2774  1.1823 -0.3536
 7233SOL     OW33331   2.908   3.534  17.144 -0.5117  0.4549 -0.3201
 7233SOL    HW133332   2.948   3.493  17.068 -0.8249 -0.0049 -0.2412
 7233SOL    HW233333   2.960   3.504  17.219 -0.1968 -1.4019 -1.3009
 7234SOL     OW33334   2.397   1.954   2.590 -0.5095  0.7698 -0.4148
 7234SOL    HW133335   2.474   1.952   2.647 -2.0755 -1.6070  1.5912
 7234SOL    HW233336   2.340   1.889   2.631 -0.3783  2.0331  1.7594
 7235SOL     OW33337   0.915   1.857   3.054  0.5156 -0.1015 -0.8535
 7235SOL    HW133338   1.004   1.826   3.033  0.7597 -0.0933  0.1293
 7235SOL    HW233339   0.886   1.882   2.967  0.0848 -0.9595 -0.9529
 7236SOL     OW33340   0.827   3.426  14.794  0.6127 -0.3136  0.7408
 7236SOL    HW133341   0.818   3.345  14.844  0.4122 -0.1409  0.9878
 7236SOL    HW233342   0.915   3.438  14.829  0.8195 -1.5692  0.6657
 7237SOL     OW33343   1.172   3.084  13.661 -0.3991  0.5575  0.1877
 7237SOL    HW133344   1.107   3.110  13.726  0.8202  1.9774  0.8288
 7237SOL    HW233345   1.252   3.074  13.712  0.5352 -1.0498 -1.5668
 7238SOL     OW33346   2.653   4.500  14.511 -0.1835  0.0598  0.2701
 7238SOL    HW133347   2.624   4.588  14.484 -0.4838 -0.5208 -1.2721
 7238SOL    HW233348   2.644   4.496  14.606 -1.2649  1.9489  0.2503
 7239SOL     OW33349   1.677   1.515   0.611  0.3521 -0.0836 -0.2078
 7239SOL    HW133350   1.695   1.569   0.688 -0.3874  0.7348 -0.6054
 7239SOL    HW233351   1.687   1.584   0.545 -1.6484  0.2928 -0.1143
 7240SOL     OW33352   4.044   1.997   2.953 -0.0829  0.4614  0.4791
 7240SOL    HW133353   4.087   2.058   3.013  0.8127 -0.1222  0.4212
 7240SOL    HW233354   4.087   2.022   2.872 -2.2833  0.3812 -0.7015
 7241SOL     OW33355   2.351   1.745   7.879  0.4021  0.2225  0.0035
 7241SOL    HW133356   2.378   1.671   7.824 -1.2440 -0.8568  0.6486
 7241SOL    HW233357   2.305   1.699   7.950 -2.9299  3.9017  0.1771
 7242SOL     OW33358   2.702   2.538   8.260  0.1991  0.2037 -0.2801
 7242SOL    HW133359   2.615   2.561   8.227 -0.3047 -0.7312  0.3725
 7242SOL    HW233360   2.719   2.612   8.319  0.8992 -0.1544 -0.0363
 7243SOL     OW33361   3.824   1.819   3.893  0.3325  0.7138  0.4376
 7243SOL    HW133362   3.889   1.887   3.910  0.1126  0.7155  1.2816
 7243SOL    HW233363   3.816   1.776   3.978  0.2244  0.1655  0.1494
 7244SOL     OW33364   0.954   3.024  11.517 -0.3403 -0.0204 -0.4222
 7244SOL    HW133365   1.033   3.079  11.519 -2.1113  2.4504  2.4430
 7244SOL    HW233366   0.988   2.950  11.467 -0.4420  1.0417 -2.0590
 7245SOL     OW33367   3.092   2.754   6.860 -0.2038 -0.4731 -0.4234
 7245SOL    HW133368   3.046   2.820   6.808 -0.2900  0.3939  0.7561
 7245SOL    HW233369   3.178   2.740   6.819  0.5188 -0.5241  1.1117
 7246SOL     OW33370   3.064   0.169   6.515  0.9762 -0.3576 -0.3518
 7246SOL    HW133371   3.120   0.230   6.467 -0.6143  1.7558  0.4810
 7246SOL    HW233372   2.983   0.166   6.464  2.2477  1.1035 -2.4606
 7247SOL     OW33373   2.188   4.220   8.388  0.4269  0.5154  0.1105
 7247SOL    HW133374   2.097   4.210   8.417 -0.1052  0.3219 -1.5964
 7247SOL    HW233375   2.224   4.135   8.409 -1.5220 -0.4340 -0.3754
 7248SOL     OW33376   2.111   2.446   1.181 -0.4015 -0.4506  0.5044
 7248SOL    HW133377   2.048   2.518   1.176 -0.0540 -0.2016 -0.3130
 7248SOL    HW233378   2.070   2.385   1.243  0.7899 -1.3817  0.3806
 7249SOL     OW33379   2.717   1.107  12.541 -0.3299  0.0196  0.1395
 7249SOL    HW133380   2.702   1.103  12.447 -0.3681  0.7498  0.1143
 7249SOL    HW233381   2.628   1.097  12.574 -0.9780 -1.3802 -2.0745
 7250SOL     OW33382   1.587   3.193   7.536 -0.1666 -0.3617 -0.0690
 7250SOL    HW133383   1.660   3.171   7.594  0.8854 -2.1707 -2.0628
 7250SOL    HW233384   1.549   3.105   7.532  1.9060 -1.2392 -0.5856
 7251SOL     OW33385   4.375   2.784   6.441 -0.2823  0.0880  0.2250
 7251SOL    HW133386   4.292   2.802   6.396 -1.0507 -2.4698  0.6110
 7251SOL    HW233387   4.379   2.690   6.422  2.8849  0.4733 -0.8731
 7252SOL     OW33388   2.450   4.510   1.228  0.1143  0.2527 -0.4623
 7252SOL    HW133389   2.387   4.477   1.164 -3.2965  0.8221  2.6035
 7252SOL    HW233390   2.533   4.468   1.203 -0.4006  0.4616 -2.5312
 7253SOL     OW33391   4.600   0.995   6.143 -0.1619  0.3378  0.0275
 7253SOL    HW133392   4.511   0.997   6.107 -0.4918 -0.7364  0.7696
 7253SOL    HW233393   4.620   0.905   6.120 -0.0981  0.4838 -0.4793
 7254SOL     OW33394   3.956   4.501  13.795 -0.4591  0.0709  0.3430
 7254SOL    HW133395   3.882   4.562  13.793 -1.3746 -0.9968  0.9714
 7254SOL    HW233396   3.907   4.419  13.786 -1.0965  0.4385  0.4808
 7255SOL     OW33397   2.573   2.398   2.032  0.3948 -0.3821  0.1982
 7255SOL    HW133398   2.513   2.470   2.012 -0.2247 -0.2111  2.5825
 7255SOL    HW233399   2.510   2.340   2.076 -1.3288  2.6496  1.7679
 7256SOL     OW33400   4.047   0.996   7.848  0.2710  0.1936 -0.0364
 7256SOL    HW133401   3.977   1.051   7.813 -0.6544 -0.4820  0.7670
 7256SOL    HW233402   4.114   1.064   7.838  2.0057 -1.6343 -0.9165
 7257SOL     OW33403   3.002   2.255   9.052  0.2825  0.1518  0.0518
 7257SOL    HW133404   3.084   2.205   9.047  2.2276  3.0705  2.7600
 7257SOL    HW233405   3.028   2.337   9.009  1.2519  0.6093  1.5222
 7258SOL     OW33406   3.129   1.095  16.631  0.0296 -0.7132 -0.1961
 7258SOL    HW133407   3.157   1.099  16.539  1.3018  3.7620  0.3872
 7258SOL    HW233408   3.100   1.006  16.651 -3.3276  0.0436 -1.8008
 7259SOL     OW33409   3.822   2.733   7.243 -0.6154  0.0906  0.2417
 7259SOL    HW133410   3.819   2.641   7.216  0.7980  0.7733 -2.2105
 7259SOL    HW233411   3.917   2.738   7.248 -0.4793 -1.0674 -1.1522
 7260SOL     OW33412   3.671   0.127   5.501  0.0136 -0.4176  0.4678
 7260SOL    HW133413   3.711   0.147   5.586  1.7432 -0.5358 -0.3130
 7260SOL    HW233414   3.623   0.209   5.487  1.1436 -0.2650 -2.4573
 7261SOL     OW33415   3.977   2.104   5.208 -0.2443  0.1717  0.1238
 7261SOL    HW133416   4.054   2.159   5.221  0.7767 -1.6245  1.4944
 7261SOL    HW233417   4.013   2.047   5.141  0.0478  0.6055 -0.0915
 7262SOL     OW33418   1.173   3.623   4.871  0.1295 -0.0155  0.1967
 7262SOL    HW133419   1.094   3.618   4.925 -1.2426 -1.5336 -1.9465
 7262SOL    HW233420   1.216   3.539   4.885 -2.4986 -1.4734 -0.3905
 7263SOL     OW33421   1.706   0.654   6.700 -0.0602 -0.5604  0.5509
 7263SOL    HW133422   1.720   0.633   6.792  1.4684 -1.2682  0.1580
 7263SOL    HW233423   1.767   0.599   6.651 -1.1033 -0.5833 -0.7448
 7264SOL     OW33424   1.834   0.519   5.433  0.3891  0.1076 -0.4271
 7264SOL    HW133425   1.855   0.526   5.340 -1.4240  1.8339 -0.7115
 7264SOL    HW233426   1.919   0.530   5.476  0.8103 -0.8405 -1.0156
 7265SOL     OW33427   4.351   0.070   7.522  0.3757 -0.0727 -0.0439
 7265SOL    HW133428   4.304   0.153   7.512 -1.0591 -0.8518  0.2100
 7265SOL    HW233429   4.313   0.034   7.602  2.0116 -0.0921  0.7246
 7266SOL     OW33430   2.105   4.294  13.077  0.4675 -0.2726 -0.5521
 7266SOL    HW133431   2.196   4.325  13.080 -0.1102  1.2133  1.7107
 7266SOL    HW233432   2.111   4.198  13.077  1.5623 -0.2066 -3.3487
 7267SOL     OW33433   3.529   4.519  11.113 -0.3282  0.4110  0.2968
 7267SOL    HW133434   3.539   4.446  11.174  2.2930  1.0757  0.6729
 7267SOL    HW233435   3.613   4.561  11.098 -0.3759  0.9728  1.5391
 7268SOL     OW33436   4.537   2.185   2.546 -0.2414 -0.3944 -0.0980
 7268SOL    HW133437   4.575   2.118   2.489  1.6402 -0.2714  1.0015
 7268SOL    HW233438   4.453   2.150   2.575  0.2547 -1.5912 -0.1106
 7269SOL     OW33439   4.357   0.617   1.798  0.4764 -0.4076  0.7331
 7269SOL    HW133440   4.446   0.641   1.824  0.9344 -2.5178  1.0504
 7269SOL    HW233441   4.309   0.695   1.828  1.0812  0.6122 -0.9132
 7270SOL     OW33442   4.588   4.719   4.596  0.0266  0.1571 -0.1972
 7270SOL    HW133443   4.567   4.658   4.525 -2.6177 -0.4430  1.0952
 7270SOL    HW233444   4.683   4.714   4.603  0.0324 -0.8139 -1.0232
 7271SOL     OW33445   3.323   4.222   9.170 -0.2239 -0.3075  0.2083
 7271SOL    HW133446   3.388   4.288   9.195 -2.3346  1.5694  0.7721
 7271SOL    HW233447   3.373   4.198   9.093 -2.0929 -2.6331 -0.2692
 7272SOL     OW33448   2.719   3.532  16.078  0.6379  0.7388 -0.6658
 7272SOL    HW133449   2.809   3.505  16.094  0.3036  0.5786  0.9772
 7272SOL    HW233450   2.725   3.582  15.996 -1.7595  1.4905 -0.4047
 7273SOL     OW33451   1.851   2.132   5.465  0.5170  0.0934 -0.2731
 7273SOL    HW133452   1.786   2.065   5.487 -0.6699  2.0325  2.0979
 7273SOL    HW233453   1.789   2.193   5.425 -1.2871 -2.1214 -0.8752
 7274SOL     OW33454   4.614   3.344   6.850 -0.0502  0.1938  0.3421
 7274SOL    HW133455   4.621   3.296   6.932  0.9947 -0.0502  0.1142
 7274SOL    HW233456   4.530   3.306   6.825  0.4909 -1.7471  1.4625
 7275SOL     OW33457   1.569   2.203  16.370  0.1630  0.1549 -0.2764
 7275SOL    HW133458   1.619   2.136  16.417  0.6182 -0.9087 -2.2708
 7275SOL    HW233459   1.604   2.281  16.412 -0.6736  0.8287 -0.8423
 7276SOL     OW33460   1.585   1.153   8.060 -0.1117 -0.5025  0.1601
 7276SOL    HW133461   1.610   1.068   8.096 -1.4816 -1.3953 -1.0113
 7276SOL    HW233462   1.538   1.195   8.132 -0.9277 -0.8641 -0.1589
 7277SOL     OW33463   4.444   2.491  17.417 -0.1889  0.0581 -0.0457
 7277SOL    HW133464   4.433   2.554  17.346 -1.5014  2.8734  2.6614
 7277SOL    HW233465   4.435   2.406  17.374  1.6857 -0.2640  0.1699
 7278SOL     OW33466   1.994   1.629   8.261 -0.1431 -0.5283 -0.3502
 7278SOL    HW133467   1.901   1.613   8.277  0.1288  1.1811  2.9928
 7278SOL    HW233468   2.035   1.566   8.320  2.5993 -0.8151 -2.5378
 7279SOL     OW33469   0.669   3.829   6.327  0.2156  0.4056 -0.2022
 7279SOL    HW133470   0.679   3.741   6.364  1.9095  0.8313  0.3430
 7279SOL    HW233471   0.739   3.878   6.369  1.5390 -0.9789 -0.8215
 7280SOL     OW33472   4.306   3.838   5.471  0.1009  0.2247 -0.0394
 7280SOL    HW133473   4.279   3.869   5.385  0.5402 -1.4025 -0.7498
 7280SOL    HW233474   4.386   3.798   5.436 -2.2088 -1.8608 -2.8695
 7281SOL     OW33475   3.311   2.619   5.407  0.5887 -0.9532  0.1567
 7281SOL    HW133476   3.224   2.590   5.437  1.4503 -3.1180  0.5550
 7281SOL    HW233477   3.355   2.621   5.492  1.3439 -1.1111 -0.2338
 7282SOL     OW33478   1.219   3.900   4.916 -0.3426  0.0882 -0.8467
 7282SOL    HW133479   1.189   3.905   4.825 -2.8190  0.1890 -0.0298
 7282SOL    HW233480   1.210   3.805   4.924  0.0492  0.3130  2.1536
 7283SOL     OW33481   0.656   1.880  12.935 -0.2471  0.8680 -0.6012
 7283SOL    HW133482   0.561   1.889  12.928 -0.2392  0.3698 -1.3619
 7283SOL    HW233483   0.673   1.905  13.026 -2.1695  2.2742 -0.6320
 7284SOL     OW33484   4.734   0.995   7.992 -0.5458 -0.5113 -0.2307
 7284SOL    HW133485   4.649   0.954   7.976  0.5233 -2.4550 -0.8028
 7284SOL    HW233486   0.011   0.969   8.083  0.4569 -0.3703 -0.3230
 7285SOL     OW33487   2.020   1.635   2.588  0.5955 -0.2329  0.7517
 7285SOL    HW133488   2.060   1.636   2.502  1.6018 -1.6059  1.1998
 7285SOL    HW233489   1.926   1.644   2.571  1.1994 -1.0174 -2.8455
 7286SOL     OW33490   3.612   0.687   0.960  0.0310  0.0469  0.2537
 7286SOL    HW133491   3.606   0.727   1.047 -2.0166 -1.9309  1.0298
 7286SOL    HW233492   3.582   0.760   0.906  3.3889  2.1306  1.2477
 7287SOL     OW33493   1.512   0.788   1.305  0.1310 -0.7216  0.4755
 7287SOL    HW133494   1.456   0.727   1.257  1.0624 -0.4666 -0.9468
 7287SOL    HW233495   1.581   0.805   1.241  0.5029 -2.4304  0.4302
 7288SOL     OW33496   2.064   3.811   2.210  0.0748  0.1510 -0.6355
 7288SOL    HW133497   2.117   3.874   2.160  1.8687 -0.1049  0.9271
 7288SOL    HW233498   1.984   3.806   2.158  0.0614  1.1382 -0.7038
 7289SOL     OW33499   3.002   0.219   6.781  0.4524 -0.0228 -0.2939
 7289SOL    HW133500   2.975   0.310   6.776 -0.0715 -0.2746 -2.0700
 7289SOL    HW233501   3.010   0.207   6.687  1.2752 -0.4041 -0.1718
 7290SOL     OW33502   3.644   3.650   1.702 -0.2091 -0.0900  0.3152
 7290SOL    HW133503   3.667   3.564   1.665  2.1894 -0.0727  1.7136
 7290SOL    HW233504   3.597   3.612   1.777 -0.9182  0.5504  0.1855
 7291SOL     OW33505   1.810   0.510   8.112  0.4393 -0.3764  0.3421
 7291SOL    HW133506   1.828   0.416   8.110  2.4996  0.0630 -1.6741
 7291SOL    HW233507   1.895   0.551   8.095  1.0305 -1.9852 -0.5331
 7292SOL     OW33508   0.523   4.154   7.660 -0.1691  0.0021  0.5162
 7292SOL    HW133509   0.561   4.066   7.660  0.1326  0.1319  0.4247
 7292SOL    HW233510   0.438   4.135   7.699 -0.2289  0.1023  0.4326
 7293SOL     OW33511   2.654   1.111   8.375 -0.1314  0.0326 -0.0613
 7293SOL    HW133512   2.626   1.075   8.460 -0.6474  1.0084  0.1799
 7293SOL    HW233513   2.697   1.028   8.353 -0.0991  0.8659 -3.1025
 7294SOL     OW33514   1.983   1.379   6.386  0.2489 -0.1134  0.8946
 7294SOL    HW133515   1.912   1.316   6.377 -0.2792  0.7641 -1.1127
 7294SOL    HW233516   2.023   1.370   6.472  0.9658 -1.4316  0.4297
 7295SOL     OW33517   1.052   1.411   6.658 -0.4502  0.1440  0.5085
 7295SOL    HW133518   1.087   1.377   6.740 -0.1263  1.0824  0.7634
 7295SOL    HW233519   0.984   1.346   6.642 -1.1788  0.9974  0.1097
 7296SOL     OW33520   2.667   3.385  13.226 -0.0775 -0.1166  0.9349
 7296SOL    HW133521   2.717   3.456  13.268 -0.8824  0.4847  0.8785
 7296SOL    HW233522   2.734   3.318  13.240  1.7571  1.1159 -1.8642
 7297SOL     OW33523   3.593   2.534   2.456 -0.1037  0.3498  0.1392
 7297SOL    HW133524   3.594   2.593   2.382  3.5176  0.9281  0.6826
 7297SOL    HW233525   3.522   2.473   2.438 -1.1565  1.3956  0.7122
 7298SOL     OW33526   3.545   2.569   6.031  0.2544 -0.3953  0.0829
 7298SOL    HW133527   3.573   2.519   5.954 -1.8038  0.2756 -1.0885
 7298SOL    HW233528   3.617   2.632   6.026 -0.3802  0.3924  0.8743
 7299SOL     OW33529   2.024   3.481  17.353 -0.2199  0.1016 -0.5621
 7299SOL    HW133530   2.071   3.440  17.425 -1.6698 -0.6370 -0.0322
 7299SOL    HW233531   2.053   3.568  17.383  0.2883  0.1446 -1.1843
 7300SOL     OW33532   1.755   0.563  15.273  0.2468 -0.0752 -0.0013
 7300SOL    HW133533   1.781   0.560  15.181  0.1919 -1.8900  0.0382
 7300SOL    HW233534   1.691   0.492  15.269 -0.5124  0.5753  0.6498
 7301SOL     OW33535   3.513   0.929   8.386 -0.2539  0.0270 -0.3572
 7301SOL    HW133536   3.593   0.950   8.434 -2.1865 -1.8367  3.6806
 7301SOL    HW233537   3.457   1.005   8.400 -0.5435 -0.4487  1.0575
 7302SOL     OW33538   2.641   4.612   8.543  0.3567  0.0548  0.1704
 7302SOL    HW133539   2.578   4.680   8.517  0.2455 -0.2642 -0.3814
 7302SOL    HW233540   2.618   4.597   8.635 -1.8396  2.8785  0.0841
 7303SOL     OW33541   3.361   2.354   2.443  0.0949  0.6800 -0.2937
 7303SOL    HW133542   3.335   2.366   2.535  0.1294  0.2832 -0.2334
 7303SOL    HW233543   3.306   2.282   2.415  1.2096 -0.6837  0.9599
 7304SOL     OW33544   0.210   0.197   5.056 -0.0610 -0.0998 -0.2057
 7304SOL    HW133545   0.197   0.179   5.149  0.9390  1.4792  0.2344
 7304SOL    HW233546   0.195   0.292   5.061  0.7216  0.0285 -0.4092
 7305SOL     OW33547   0.071   2.443  16.876 -0.0527  0.2958 -0.3096
 7305SOL    HW133548   0.061   2.384  16.950  0.5269 -0.2148 -0.6467
 7305SOL    HW233549   0.106   2.524  16.913  0.9267 -0.2152 -0.1152
 7306SOL     OW33550   3.389   1.317   6.131 -0.0612  0.3860  0.5727
 7306SOL    HW133551   3.320   1.381   6.114  1.0567  0.9783 -1.7682
 7306SOL    HW233552   3.393   1.259   6.055 -1.9035 -1.0248  1.5537
 7307SOL     OW33553   0.960   4.566   3.907  0.1028  0.2073  0.2901
 7307SOL    HW133554   0.928   4.496   3.964 -1.4378  0.7265  0.0810
 7307SOL    HW233555   0.883   4.559   3.850  0.5577  0.4430 -0.3589
 7308SOL     OW33556   0.869   4.560   1.246  0.3537  0.0914 -0.3330
 7308SOL    HW133557   0.871   4.476   1.199  0.5119 -0.1695  0.1379
 7308SOL    HW233558   0.957   4.598   1.250  0.7562 -0.9951  1.4822
 7309SOL     OW33559   1.600   3.091   2.742  0.1206  0.4585 -0.0043
 7309SOL    HW133560   1.552   3.158   2.791 -2.3000 -1.3816  0.1273
 7309SOL    HW233561   1.536   3.043   2.690 -0.1018  0.6399  0.1017
 7310SOL     OW33562   0.504   0.119   2.750  0.0321  0.0121 -0.6806
 7310SOL    HW133563   0.571   0.185   2.769  1.1395 -1.5336  0.8089
 7310SOL    HW233564   0.447   0.145   2.678  0.0189  2.2172  0.1450
 7311SOL     OW33565   2.979   4.231   8.241  0.0395 -0.1125 -0.6458
 7311SOL    HW133566   2.919   4.166   8.204  2.5311 -2.5571 -0.3768
 7311SOL    HW233567   2.967   4.307   8.184 -2.2261  1.2840  1.6602
 7312SOL     OW33568   3.924   2.934   7.432  0.5867  0.2412  0.3239
 7312SOL    HW133569   3.938   2.894   7.518 -0.8111 -1.6237 -0.3039
 7312SOL    HW233570   3.870   2.869   7.387  0.1273  1.6123 -1.1508
 7313SOL     OW33571   3.184   4.058  14.721 -0.5528 -0.0536  0.4732
 7313SOL    HW133572   3.174   4.031  14.630  1.1163  0.3925  0.1690
 7313SOL    HW233573   3.137   3.988  14.767  0.4879 -0.2364  1.2529
 7314SOL     OW33574   0.540   4.109   1.787 -0.4261  0.1244 -0.7133
 7314SOL    HW133575   0.602   4.180   1.802 -0.4162  0.1784 -0.9996
 7314SOL    HW233576   0.462   4.164   1.775  1.0374  1.8497 -2.3815
 7315SOL     OW33577   4.678   1.213   7.645  0.6717  0.0115 -0.0432
 7315SOL    HW133578   0.033   1.181   7.650  0.7638  0.1603 -0.8701
 7315SOL    HW233579   4.696   1.280   7.579  2.4836 -0.9798 -0.5408
 7316SOL     OW33580   1.356   1.446   0.634 -0.0608 -0.1448 -0.2158
 7316SOL    HW133581   1.398   1.532   0.630 -0.4191 -0.0304 -1.2866
 7316SOL    HW233582   1.417   1.394   0.686  1.0551  1.0600 -0.3192
 7317SOL     OW33583   1.470   3.288   7.300 -0.6690  0.2953  0.0242
 7317SOL    HW133584   1.509   3.263   7.384  1.3810  0.1968 -0.9791
 7317SOL    HW233585   1.547   3.295   7.244  0.7490 -1.3647  1.7528
 7318SOL     OW33586   3.074   0.905   2.026 -0.1127 -0.2144 -0.4087
 7318SOL    HW133587   3.070   0.827   2.082  0.9630 -0.0774 -0.1484
 7318SOL    HW233588   2.983   0.931   2.038  0.5121  1.1800  1.2399
 7319SOL     OW33589   0.347   2.660   5.136  0.1067 -0.3062 -0.0440
 7319SOL    HW133590   0.263   2.650   5.182  1.0018 -0.7226  1.5109
 7319SOL    HW233591   0.319   2.639   5.047 -2.3065  2.3893  0.0760
 7320SOL     OW33592   0.544   1.646   0.344  0.1713 -0.4043  0.4234
 7320SOL    HW133593   0.481   1.639   0.272 -1.3048  0.7653  1.6115
 7320SOL    HW233594   0.627   1.606   0.318  0.6185  1.8664 -1.6174
 7321SOL     OW33595   2.550   0.645   9.037 -0.3535 -0.4825 -0.5274
 7321SOL    HW133596   2.535   0.739   9.027  2.3618  0.1122  1.0396
 7321SOL    HW233597   2.641   0.638   9.008 -0.4880 -0.9832 -0.8160
 7322SOL     OW33598   4.048   4.713   5.506  0.7856 -0.5190  0.2589
 7322SOL    HW133599   3.979   0.022   5.555  1.3973 -0.2393  0.8784
 7322SOL    HW233600   4.027   4.726   5.414  2.8738 -0.8323 -0.2639
 7323SOL     OW33601   3.259   1.059   3.070  0.0214  0.2526 -0.7383
 7323SOL    HW133602   3.232   0.978   3.027  1.0964  0.6858 -2.2283
 7323SOL    HW233603   3.309   1.101   3.000  0.6378  0.5875 -0.0895
 7324SOL     OW33604   4.580   1.014  14.363 -0.3525  0.3062 -0.2550
 7324SOL    HW133605   4.654   1.008  14.302 -1.5955 -2.1294 -1.5236
 7324SOL    HW233606   4.547   0.926  14.384 -0.5124  0.0005 -1.8343
 7325SOL     OW33607   4.096   0.235  13.189 -0.4065  0.3147  0.5834
 7325SOL    HW133608   4.153   0.158  13.185  0.1376  0.7760 -0.5937
 7325SOL    HW233609   4.131   0.281  13.112  1.5727 -2.1815 -0.0361
 7326SOL     OW33610   1.271   1.423  17.315 -0.1113  0.0754  0.4216
 7326SOL    HW133611   1.235   1.435  17.403 -1.1064  0.9644 -0.1058
 7326SOL    HW233612   1.208   1.365  17.273  1.3615 -0.7688 -0.5760
 7327SOL     OW33613   3.144   4.240   9.460 -0.2168  0.0021  0.6104
 7327SOL    HW133614   3.125   4.214   9.370  1.8002 -2.5320  0.9135
 7327SOL    HW233615   3.148   4.336   9.459  0.0863 -0.0256 -0.4269
 7328SOL     OW33616   1.417   0.584  12.959  0.5703  0.2459 -0.0747
 7328SOL    HW133617   1.327   0.617  12.953  0.3319 -0.4530 -0.3666
 7328SOL    HW233618   1.436   0.566  13.051  0.9111  1.2949  0.0583
 7329SOL     OW33619   3.516   0.018  13.925  0.2056  0.2882  0.0517
 7329SOL    HW133620   3.559   0.042  14.007 -1.6095 -3.9327  2.2587
 7329SOL    HW233621   3.424   0.024  13.953  1.0219  0.0780  2.7520
 7330SOL     OW33622   0.428   2.256   3.482  0.4429 -0.2548 -0.1415
 7330SOL    HW133623   0.407   2.349   3.496  0.6693 -0.2887  0.4088
 7330SOL    HW233624   0.451   2.220   3.567 -1.5240  0.7624  0.8072
 7331SOL     OW33625   4.045   1.525   2.102  0.0617 -0.5251 -0.4710
 7331SOL    HW133626   4.058   1.433   2.127  1.5332 -0.1068  0.2882
 7331SOL    HW233627   4.092   1.558   2.178  0.2079 -0.7368 -0.4684
 7332SOL     OW33628   1.108   1.539   8.803  0.2551 -0.6701  0.0364
 7332SOL    HW133629   1.051   1.490   8.744  0.0815  0.9857 -1.1621
 7332SOL    HW233630   1.085   1.499   8.887  1.7475  1.0934  1.3018
 7333SOL     OW33631   0.069   4.269   1.936  0.3364  0.1598 -0.1082
 7333SOL    HW133632   0.039   4.360   1.934 -0.7945 -0.1806  1.2976
 7333SOL    HW233633   0.028   4.245   2.019 -1.4458  2.1203 -0.4194
 7334SOL     OW33634   4.144   0.724   7.521 -0.3870 -0.0983  0.1542
 7334SOL    HW133635   4.163   0.667   7.595  0.4325  0.0182  0.0321
 7334SOL    HW233636   4.202   0.799   7.534 -0.4396 -0.5041  2.7396
 7335SOL     OW33637   3.631   1.114   9.986 -0.3396 -0.2783 -0.1618
 7335SOL    HW133638   3.585   1.056   9.925 -0.7136  0.2083 -0.3495
 7335SOL    HW233639   3.563   1.181   9.995  0.5839  0.7963 -1.3280
 7336SOL     OW33640   3.952   3.711  13.125 -0.0085 -0.2416 -0.2734
 7336SOL    HW133641   3.879   3.649  13.128 -0.0338 -0.2474 -1.1228
 7336SOL    HW233642   3.973   3.717  13.218  0.9144  1.1556 -0.5584
 7337SOL     OW33643   3.370   4.660   3.974  0.5075  0.0906 -0.3617
 7337SOL    HW133644   3.361   4.723   4.046  1.1291  0.5119 -0.6541
 7337SOL    HW233645   3.462   4.668   3.950  0.0950  0.3010 -1.9051
 7338SOL     OW33646   3.611   4.309   1.615  0.0029 -0.4179 -0.0373
 7338SOL    HW133647   3.613   4.221   1.577 -1.9751  0.3085 -1.7594
 7338SOL    HW233648   3.518   4.325   1.626 -0.4546 -1.6970 -2.1327
 7339SOL     OW33649   3.980   1.276  12.369 -0.1886  0.4985 -0.3776
 7339SOL    HW133650   3.956   1.263  12.278  0.2968 -0.5786 -0.3603
 7339SOL    HW233651   4.071   1.244  12.375 -0.5654 -0.3263  1.0595
 7340SOL     OW33652   2.046   3.207  16.034  0.2399  1.4906 -0.3859
 7340SOL    HW133653   2.133   3.219  15.997 -0.6952  0.8207 -2.8245
 7340SOL    HW233654   1.993   3.267  15.983 -0.5818 -0.0687 -1.3863
 7341SOL     OW33655   2.810   3.104  12.871 -0.3998  0.1717 -0.0476
 7341SOL    HW133656   2.719   3.136  12.875  0.4207  2.6101 -0.7755
 7341SOL    HW233657   2.866   3.180  12.888  0.4023 -0.0918 -1.5530
 7342SOL     OW33658   3.536   0.658   8.863  0.4173 -0.3299  0.1591
 7342SOL    HW133659   3.472   0.693   8.801  0.6926 -2.6912 -1.4615
 7342SOL    HW233660   3.563   0.578   8.817  0.4737 -0.2219  0.0051
 7343SOL     OW33661   3.553   4.174   1.310 -0.3151  0.1286  0.2710
 7343SOL    HW133662   3.491   4.232   1.354  1.7928  2.4895  0.0710
 7343SOL    HW233663   3.574   4.120   1.386  0.6196  0.2746  0.1129
 7344SOL     OW33664   4.350   1.438   6.627 -0.2946 -0.1020  0.6930
 7344SOL    HW133665   4.436   1.479   6.624 -0.3435 -0.1926 -2.2845
 7344SOL    HW233666   4.360   1.405   6.716  2.6076 -0.4591  0.2323
 7345SOL     OW33667   0.588   4.192   4.269  0.2870  0.6851  0.3045
 7345SOL    HW133668   0.605   4.280   4.302 -0.5535  1.5904 -1.7483
 7345SOL    HW233669   0.675   4.153   4.258  0.6985  1.6471  0.1791
 7346SOL     OW33670   2.315   0.666   3.557 -0.7333  0.2558  0.2604
 7346SOL    HW133671   2.394   0.673   3.610 -0.3404  1.7416 -0.5064
 7346SOL    HW233672   2.344   0.723   3.485  1.6668 -0.4059  0.7091
 7347SOL     OW33673   1.126   2.785   0.981 -0.2137  0.1665  0.5871
 7347SOL    HW133674   1.188   2.854   1.002  1.1577  0.1251 -3.2135
 7347SOL    HW233675   1.145   2.786   0.887  0.2164 -1.6545  0.6419
 7348SOL     OW33676   3.996   3.763  13.399 -0.1305 -0.1222  0.7010
 7348SOL    HW133677   3.981   3.697  13.466 -0.7916  0.1702  0.8457
 7348SOL    HW233678   4.089   3.748  13.382 -0.8529 -1.7353 -1.9155
 7349SOL     OW33679   0.572   4.383   7.548  0.1802  0.2404  0.2795
 7349SOL    HW133680   0.480   4.404   7.564 -0.0796  0.4251 -1.5084
 7349SOL    HW233681   0.579   4.297   7.590 -0.9766 -0.0887 -0.2272
 7350SOL     OW33682   2.822   0.678   8.950 -0.4657  0.0039  0.0676
 7350SOL    HW133683   2.788   0.756   8.907  1.3275 -0.4351 -2.1745
 7350SOL    HW233684   2.867   0.622   8.886 -0.9119  0.7723 -0.9023
 7351SOL     OW33685   2.236   3.995   2.594 -0.3055 -0.0268 -0.3653
 7351SOL    HW133686   2.152   4.029   2.625  0.4249  0.2993  1.2853
 7351SOL    HW233687   2.215   3.911   2.554  2.0330 -0.2296 -1.1480
 7352SOL     OW33688   3.107   4.580   0.929 -0.5906  0.3371 -0.1040
 7352SOL    HW133689   3.127   4.594   1.022  0.4661  0.4427 -0.3562
 7352SOL    HW233690   3.098   4.485   0.936 -0.8308  0.4915  1.7068
 7353SOL     OW33691   3.233   2.973  16.385  0.0337 -0.2054 -0.1386
 7353SOL    HW133692   3.149   3.010  16.357 -1.1432 -2.9787 -0.3274
 7353SOL    HW233693   3.239   3.023  16.467  0.7490 -0.6277  0.0597
 7354SOL     OW33694   0.743   4.024  11.639  0.3173 -0.0657 -0.5284
 7354SOL    HW133695   0.660   3.976  11.646 -0.8025  1.3769 -3.6254
 7354SOL    HW233696   0.760   4.061  11.726 -0.4847  1.4945 -1.0295
 7355SOL     OW33697   1.260   1.877   0.186  0.0542  0.3705 -0.3160
 7355SOL    HW133698   1.304   1.865   0.271 -0.5608 -1.1411 -0.2147
 7355SOL    HW233699   1.188   1.814   0.185  1.1816 -0.9043 -0.6049
 7356SOL     OW33700   2.084   4.236   2.799 -0.5702 -0.5143  0.2377
 7356SOL    HW133701   2.014   4.179   2.769 -0.7620  0.4173 -1.1078
 7356SOL    HW233702   2.068   4.235   2.893 -2.1686  0.3687 -0.0247
 7357SOL     OW33703   3.891   1.184   1.925  0.2273  0.0533 -0.2579
 7357SOL    HW133704   3.811   1.157   1.881  1.0359 -1.5597 -0.7415
 7357SOL    HW233705   3.944   1.225   1.856  0.1861 -1.7844 -1.3693
 7358SOL     OW33706   0.841   1.709   1.282  0.3478 -0.1303 -0.6153
 7358SOL    HW133707   0.887   1.791   1.268  1.7874 -0.4804  2.0969
 7358SOL    HW233708   0.832   1.677   1.192 -0.4388 -1.3448 -0.1222
 7359SOL     OW33709   2.074   0.472   5.588 -0.0013  0.2637  0.4195
 7359SOL    HW133710   2.141   0.442   5.527  0.4433 -2.4961  2.2793
 7359SOL    HW233711   2.105   0.421   5.663 -1.4390 -2.2518 -0.6842
 7360SOL     OW33712   3.650   0.068  10.353 -0.6650 -0.7893 -0.2743
 7360SOL    HW133713   3.635   0.140  10.291  0.4592 -2.3561 -2.3588
 7360SOL    HW233714   3.680   4.731  10.298  2.2783  0.0991  0.1556
 7361SOL     OW33715   1.397   2.649  10.728 -0.6630  0.0729  0.1813
 7361SOL    HW133716   1.407   2.568  10.778  0.4331  0.7088  0.9983
 7361SOL    HW233717   1.318   2.636  10.675  1.2057 -0.7841 -2.3873
 7362SOL     OW33718   2.934   0.253   9.397 -0.2272  0.0851 -0.4309
 7362SOL    HW133719   2.955   0.337   9.356  2.2382  0.7282  2.1910
 7362SOL    HW233720   2.853   0.239   9.347 -0.2013  2.6335 -1.1997
 7363SOL     OW33721   3.517   0.037  11.785 -0.0221  0.3220 -0.3199
 7363SOL    HW133722   3.579   4.713  11.827 -0.9087  0.1416  0.7067
 7363SOL    HW233723   3.543   0.127  11.806 -0.0775  0.2279  0.1410
 7364SOL     OW33724   1.466   4.229  15.366 -0.3113 -0.0209  0.1984
 7364SOL    HW133725   1.515   4.242  15.285  1.4867 -1.5917  1.0625
 7364SOL    HW233726   1.536   4.193  15.420 -0.6682  1.3287  1.5923
 7365SOL     OW33727   4.551   3.944   2.407 -0.2212 -0.3476  0.2465
 7365SOL    HW133728   4.497   4.003   2.459  1.2656  0.3873  0.9491
 7365SOL    HW233729   4.618   3.923   2.472 -0.7103 -0.8709  0.5846
 7366SOL     OW33730   2.516   1.003   4.243 -0.3207 -0.3052  0.1447
 7366SOL    HW133731   2.494   1.096   4.246  0.5062 -0.0694 -1.4147
 7366SOL    HW233732   2.529   0.992   4.149 -0.7595  0.1509  0.0252
 7367SOL     OW33733   2.310   3.858  15.116 -0.0281  0.6239  0.2613
 7367SOL    HW133734   2.350   3.918  15.053  0.8680 -0.6262 -0.3613
 7367SOL    HW233735   2.343   3.778  15.077 -2.1890 -0.2248  0.2155
 7368SOL     OW33736   0.918   0.845   0.985 -0.6421  0.0936 -0.4722
 7368SOL    HW133737   0.957   0.794   1.057 -1.3190  3.2324  2.1264
 7368SOL    HW233738   0.826   0.821   1.001 -0.2645 -0.4592  0.8735
 7369SOL     OW33739   3.066   1.054   5.760  0.7430 -0.0733 -0.0713
 7369SOL    HW133740   3.082   1.011   5.844  1.5552  1.7663  0.7062
 7369SOL    HW233741   2.988   1.004   5.735  2.8975 -2.5786 -1.7977
 7370SOL     OW33742   2.458   3.637   2.965 -0.4948 -0.0801 -0.0018
 7370SOL    HW133743   2.538   3.658   2.917 -1.5163  1.4976 -0.9884
 7370SOL    HW233744   2.486   3.549   2.993 -2.4479  0.3424  3.2667
 7371SOL     OW33745   2.894   1.830   4.507 -0.0998  0.5418  0.5185
 7371SOL    HW133746   2.959   1.898   4.526 -0.1674  0.6719  0.2897
 7371SOL    HW233747   2.879   1.786   4.591  0.4375 -0.0154  0.3169
 7372SOL     OW33748   2.277   3.344   5.067 -0.4969  0.1572 -0.5912
 7372SOL    HW133749   2.307   3.293   4.992 -2.8490 -2.0439 -0.0114
 7372SOL    HW233750   2.334   3.310   5.137  0.1804  1.3356 -0.5618
 7373SOL     OW33751   4.105   2.963   6.842 -0.2020 -0.1870  0.1773
 7373SOL    HW133752   4.186   2.917   6.819  1.2086  1.6292  1.4791
 7373SOL    HW233753   4.078   3.001   6.758  1.7430 -2.2672 -1.3956
 7374SOL     OW33754   0.442   1.837   3.590  0.5342 -0.4306  0.1035
 7374SOL    HW133755   0.485   1.822   3.674 -0.2224  1.4858  0.8236
 7374SOL    HW233756   0.509   1.802   3.532  1.2329 -0.0299  0.6723
 7375SOL     OW33757   1.440   2.494   1.617 -0.4358  0.9543  0.1747
 7375SOL    HW133758   1.516   2.533   1.659  0.9450 -1.1678 -0.3269
 7375SOL    HW233759   1.371   2.531   1.672 -1.7961  0.1804 -0.9963
 7376SOL     OW33760   2.735   3.577   3.454  0.4588  0.4650  0.0466
 7376SOL    HW133761   2.797   3.638   3.413 -0.7344  1.0747 -0.8523
 7376SOL    HW233762   2.656   3.631   3.452 -0.6908 -1.1743  1.0749
 7377SOL     OW33763   0.673   1.406  13.846  0.1870 -0.5663 -0.6115
 7377SOL    HW133764   0.678   1.401  13.750 -0.1672 -0.5187 -0.6311
 7377SOL    HW233765   0.766   1.402  13.868  0.1752 -0.7989 -0.6005
 7378SOL     OW33766   4.042   2.688   3.965 -0.1050  0.4139  0.2005
 7378SOL    HW133767   3.958   2.733   3.977 -1.1403 -1.8497  1.4131
 7378SOL    HW233768   4.083   2.709   4.049 -1.4211 -1.7157  1.3681
 7379SOL     OW33769   0.712   1.914   4.865  0.4754 -0.0557 -0.2747
 7379SOL    HW133770   0.760   1.831   4.861  1.5391  0.4250  2.6606
 7379SOL    HW233771   0.678   1.896   4.953  1.3837 -2.2763 -0.3647
 7380SOL     OW33772   1.087   3.740   5.789 -0.0628  0.0960  0.0109
 7380SOL    HW133773   0.996   3.714   5.777 -0.2066  0.4305  0.4058
 7380SOL    HW233774   1.082   3.835   5.787  1.0285  0.1914  1.2854
 7381SOL     OW33775   2.355   3.830  17.483 -0.1754 -0.1564 -0.0628
 7381SOL    HW133776   2.437   3.858  17.441 -0.3390 -0.8219 -0.8248
 7381SOL    HW233777   2.314   3.913  17.510  0.4501  0.0533  0.2369
 7382SOL     OW33778   3.852   3.610  10.809  0.1022 -0.0524  0.0523
 7382SOL    HW133779   3.866   3.684  10.869 -0.7910  1.0010 -1.0463
 7382SOL    HW233780   3.875   3.649  10.725 -2.2235  0.9171 -0.1157
 7383SOL     OW33781   4.099   2.720   4.240 -0.3144 -0.1272  0.0286
 7383SOL    HW133782   4.171   2.665   4.209  0.4878  1.4118 -0.8836
 7383SOL    HW233783   4.110   2.725   4.335  0.2829 -1.5067  0.0308
 7384SOL     OW33784   2.474   1.757   7.519  0.1196  0.9561  0.1319
 7384SOL    HW133785   2.439   1.846   7.518  0.5197  1.1156  0.2537
 7384SOL    HW233786   2.432   1.704   7.586 -0.8498  1.8779  0.2569
 7385SOL     OW33787   3.898   0.682   2.600 -0.4720 -0.4241 -0.2196
 7385SOL    HW133788   3.927   0.606   2.550 -0.8051 -1.2483  0.8299
 7385SOL    HW233789   3.853   0.731   2.532  0.8320  0.1223 -0.6718
 7386SOL     OW33790   2.737   2.596   6.794  0.1299 -0.5786 -0.4913
 7386SOL    HW133791   2.761   2.561   6.880 -1.9805 -2.9891 -0.8737
 7386SOL    HW233792   2.729   2.518   6.739  0.8241  0.1361 -1.6140
 7387SOL     OW33793   1.648   2.399   6.029 -0.2179 -0.3979 -0.7492
 7387SOL    HW133794   1.721   2.343   6.058 -0.0696 -1.4091 -3.1473
 7387SOL    HW233795   1.688   2.486   6.026 -2.3610  0.6510  0.9621
 7388SOL     OW33796   0.439   2.725   8.230 -0.0904 -0.5274 -0.1283
 7388SOL    HW133797   0.529   2.703   8.252  0.3016  1.4740  0.2252
 7388SOL    HW233798   0.459   2.799   8.173  1.1014  0.2713  1.3380
 7389SOL     OW33799   4.321   1.302   1.416  0.9413 -0.0646  0.2256
 7389SOL    HW133800   4.386   1.262   1.358  0.0297  0.8869 -1.4414
 7389SOL    HW233801   4.327   1.241   1.489  1.9196 -0.8791 -0.5282
 7390SOL     OW33802   3.648   4.381   9.163  0.3661  0.0609 -0.2401
 7390SOL    HW133803   3.625   4.473   9.148  0.9978  0.2234 -0.2302
 7390SOL    HW233804   3.743   4.368   9.151  0.5233 -0.4806  1.6522
 7391SOL     OW33805   1.860   2.996   5.873 -0.6029  0.4756  0.0457
 7391SOL    HW133806   1.829   2.938   5.942  2.3895 -0.5936  0.4935
 7391SOL    HW233807   1.858   2.939   5.796 -2.9293  0.7857 -0.1355
 7392SOL     OW33808   0.192   0.111   9.129 -0.1164  0.2142  0.2076
 7392SOL    HW133809   0.284   0.123   9.154 -1.2869  2.1428  3.6212
 7392SOL    HW233810   0.173   0.188   9.075  2.8227  0.0922 -1.0637
 7393SOL     OW33811   3.778   2.126  16.205 -0.4995 -0.1029  0.1517
 7393SOL    HW133812   3.851   2.137  16.145  0.5120 -0.0290  1.3881
 7393SOL    HW233813   3.705   2.121  16.144 -1.0826 -1.4693  0.9475
 7394SOL     OW33814   4.378   0.827   8.836  0.0331  0.4440 -0.4564
 7394SOL    HW133815   4.418   0.792   8.915 -0.0195  1.5211  0.0475
 7394SOL    HW233816   4.321   0.899   8.863 -0.4391 -0.7257  1.5804
 7395SOL     OW33817   3.923   4.264   6.163 -0.0520  0.5073  0.4909
 7395SOL    HW133818   3.897   4.334   6.103  0.9961 -1.2195 -1.9658
 7395SOL    HW233819   3.892   4.185   6.119 -0.2116  1.5246 -1.2054
 7396SOL     OW33820   0.277   2.461   2.531 -0.7793 -0.3687 -0.0926
 7396SOL    HW133821   0.369   2.469   2.557 -0.0218 -1.4339 -2.4138
 7396SOL    HW233822   0.244   2.400   2.597  0.5774  1.4682  2.3004
 7397SOL     OW33823   0.437   0.577   7.803  0.3830  0.1427  0.0266
 7397SOL    HW133824   0.384   0.498   7.790  0.4107  0.2823 -0.9677
 7397SOL    HW233825   0.464   0.554   7.892  1.5857  1.6047  0.0385
 7398SOL     OW33826   3.246   4.071   4.451 -0.0524  0.6442 -0.0655
 7398SOL    HW133827   3.298   4.055   4.530 -3.4064  0.8549  2.1819
 7398SOL    HW233828   3.173   4.120   4.488 -0.6873 -0.1808 -0.2279
 7399SOL     OW33829   3.979   1.183   3.503 -0.0270  0.6428  0.5158
 7399SOL    HW133830   3.919   1.179   3.578  0.3167 -0.4731  0.7182
 7399SOL    HW233831   3.969   1.278   3.493 -0.3427  0.2455 -2.9461
 7400SOL     OW33832   1.434   4.214   4.052 -0.2730  0.2543  0.1295
 7400SOL    HW133833   1.352   4.264   4.059 -1.2366 -1.1329 -1.1146
 7400SOL    HW233834   1.440   4.178   4.141 -1.4255  0.7180  0.3999
 7401SOL     OW33835   2.575   3.270  12.970 -0.4458  1.0249  0.3651
 7401SOL    HW133836   2.579   3.250  13.064  1.1092 -0.4770 -0.0230
 7401SOL    HW233837   2.481   3.275  12.953 -0.7928 -0.6043  1.7463
 7402SOL     OW33838   4.060   1.126   6.981  0.1511  0.3356 -0.6508
 7402SOL    HW133839   4.031   1.183   7.052  0.6622 -0.1037 -0.0810
 7402SOL    HW233840   4.121   1.063   7.020 -0.2143  0.1631 -0.3651
 7403SOL     OW33841   4.673   3.733  10.747  0.3498  0.1609  0.2714
 7403SOL    HW133842   0.024   3.696  10.765 -0.2747 -1.9952 -1.2191
 7403SOL    HW233843   4.614   3.695  10.812  0.2215 -0.7104 -0.3515
 7404SOL     OW33844   2.507   3.564   3.766  0.0262 -0.5566 -0.2780
 7404SOL    HW133845   2.509   3.476   3.805 -0.2967 -0.5587 -0.2645
 7404SOL    HW233846   2.484   3.537   3.678  1.6263  1.1205 -1.2073
 7405SOL     OW33847   1.940   1.866   8.883  0.0213  0.0426 -0.2649
 7405SOL    HW133848   2.026   1.907   8.873 -0.1221  0.1784 -0.9770
 7405SOL    HW233849   1.966   1.777   8.860  0.9013  0.0121  0.8462
 7406SOL     OW33850   2.411   2.427  11.599 -0.1341  0.4291 -0.4218
 7406SOL    HW133851   2.316   2.429  11.603 -0.1289 -0.3082  0.0341
 7406SOL    HW233852   2.429   2.517  11.572 -0.4304  1.0593  1.5025
 7407SOL     OW33853   1.123   3.280   6.247 -0.1964  0.3896  0.1493
 7407SOL    HW133854   1.122   3.190   6.212  0.1778  0.6961 -0.6518
 7407SOL    HW233855   1.187   3.271   6.319  0.7581 -0.1496 -0.7590
 7408SOL     OW33856   1.340   2.956  17.571  1.0020 -0.1550 -0.2124
 7408SOL    HW133857   1.369   3.001  17.651 -1.7683 -0.4166  0.9550
 7408SOL    HW233858   1.410   2.893  17.558 -2.0485 -3.7307  0.7510
 7409SOL     OW33859   2.486   2.120  10.061 -0.1219 -0.8278 -0.2351
 7409SOL    HW133860   2.566   2.077  10.030  0.8578  0.4431  0.5113
 7409SOL    HW233861   2.473   2.082  10.148  0.6623  1.2929  0.8012
 7410SOL     OW33862   3.843   2.917   9.393  0.0720 -0.0284  0.1690
 7410SOL    HW133863   3.901   2.993   9.383  0.9461 -0.9097 -1.2936
 7410SOL    HW233864   3.791   2.954   9.465  1.1784  0.7945  0.5550
 7411SOL     OW33865   1.743   1.609   1.279 -0.2215  0.4035  0.2237
 7411SOL    HW133866   1.736   1.565   1.363 -2.7082  2.3988  1.0407
 7411SOL    HW233867   1.729   1.701   1.299 -0.4750  0.0090  1.8109
 7412SOL     OW33868   1.096   3.501   7.824 -0.0343 -0.1083 -0.4847
 7412SOL    HW133869   1.094   3.433   7.757  1.4534  0.4136 -1.0762
 7412SOL    HW233870   1.044   3.469   7.897  1.2760  0.2888  0.6256
 7413SOL     OW33871   2.201   2.653   0.817  0.1977  0.1670 -0.4827
 7413SOL    HW133872   2.245   2.625   0.897 -1.0769  2.1611  0.9125
 7413SOL    HW233873   2.268   2.639   0.751  0.1000 -1.6009 -0.2011
 7414SOL     OW33874   0.633   1.987  10.913  0.1022 -0.7811 -0.4165
 7414SOL    HW133875   0.605   1.968  10.823  1.0948 -0.7708 -0.7268
 7414SOL    HW233876   0.724   1.959  10.901  0.7183  1.0776 -0.0021
 7415SOL     OW33877   1.610   2.272  10.749  0.0457  0.3742 -0.2682
 7415SOL    HW133878   1.654   2.203  10.799 -1.8180 -1.2469 -0.8592
 7415SOL    HW233879   1.678   2.340  10.753 -1.1501  1.5112  0.3950
 7416SOL     OW33880   0.629   1.278  11.097  0.0131 -0.3765 -0.2168
 7416SOL    HW133881   0.595   1.236  11.177  0.8962 -4.7178 -2.1011
 7416SOL    HW233882   0.635   1.368  11.126 -2.0286 -0.3272  0.0559
 7417SOL     OW33883   2.122   3.222   3.776 -0.1304  0.7875 -0.4872
 7417SOL    HW133884   2.086   3.136   3.794 -1.9397  2.0464  1.7323
 7417SOL    HW233885   2.081   3.279   3.840 -0.7017 -0.6297  0.3926
 7418SOL     OW33886   1.909   0.756   5.056 -0.8707 -0.1295  0.3053
 7418SOL    HW133887   1.906   0.808   5.136  0.5702  1.1333 -0.4538
 7418SOL    HW233888   1.821   0.721   5.049 -1.3206  1.2281 -0.9806
 7419SOL     OW33889   3.170   2.762   1.338 -0.0752 -0.0483 -0.4001
 7419SOL    HW133890   3.156   2.711   1.417 -0.5314  2.3078  1.0485
 7419SOL    HW233891   3.134   2.691   1.286  0.9372 -0.0609 -1.0764
 7420SOL     OW33892   2.215   4.376   1.626 -0.0479 -0.0629  0.4660
 7420SOL    HW133893   2.133   4.327   1.618 -0.4849  0.1101  3.6559
 7420SOL    HW233894   2.280   4.309   1.610  1.5190  1.5574  0.0120
 7421SOL     OW33895   3.406   3.414   4.485  0.0722 -0.5828  0.3257
 7421SOL    HW133896   3.347   3.339   4.487 -0.6515 -0.0014  0.9595
 7421SOL    HW233897   3.441   3.406   4.573  2.7726 -1.3489 -0.8281
 7422SOL     OW33898   2.563   2.977  13.213 -0.1206 -0.5847  0.1966
 7422SOL    HW133899   2.573   2.937  13.127 -1.8874 -0.2719 -0.1595
 7422SOL    HW233900   2.603   2.916  13.275  1.7394  1.4546  1.0379
 7423SOL     OW33901   4.117   1.474   6.500 -0.4711  0.5740 -0.2362
 7423SOL    HW133902   4.202   1.458   6.542 -0.7509 -1.2630 -0.3560
 7423SOL    HW233903   4.080   1.541   6.557  0.3709 -0.8434  1.9809
 7424SOL     OW33904   0.092   1.707   3.534  0.3406 -0.2243 -0.1815
 7424SOL    HW133905   0.179   1.668   3.531 -0.1410 -1.4899  1.8693
 7424SOL    HW233906   0.035   1.630   3.540  0.0319  0.0282  0.1363
 7425SOL     OW33907   0.227   3.235   6.843  0.1913  0.1872  0.1319
 7425SOL    HW133908   0.211   3.293   6.768 -0.4493 -2.7571 -2.0144
 7425SOL    HW233909   0.188   3.280   6.918  0.3289  0.3851  0.0850
 7426SOL     OW33910   2.235   4.108   7.028 -0.3555  0.0804 -0.3191
 7426SOL    HW133911   2.226   4.200   7.003  2.0626  0.8911  1.8038
 7426SOL    HW233912   2.263   4.113   7.119  1.2124 -2.4199 -0.6666
 7427SOL     OW33913   0.875   3.984   7.100  0.2719 -0.2868 -0.2943
 7427SOL    HW133914   0.882   4.079   7.099 -1.4142 -0.2083 -3.8808
 7427SOL    HW233915   0.865   3.974   7.195 -1.6432  1.5284 -0.2986
 7428SOL     OW33916   1.015   2.415   0.959 -0.0012 -1.0522 -0.2177
 7428SOL    HW133917   0.971   2.499   0.967 -0.6045 -1.4007  0.1032
 7428SOL    HW233918   1.018   2.403   0.864  0.4725  1.6803 -0.5367
 7429SOL     OW33919   4.694   2.412   1.523  0.1493 -0.0662 -0.0140
 7429SOL    HW133920   4.638   2.339   1.497 -0.1359  0.5644 -1.1424
 7429SOL    HW233921   4.635   2.457   1.583  1.1645 -1.1783  1.8517
 7430SOL     OW33922   1.545   1.597   9.102  0.3500  0.4502  0.0094
 7430SOL    HW133923   1.550   1.558   9.015 -0.1736  1.8637 -0.6565
 7430SOL    HW233924   1.630   1.562   9.130  1.0554  1.7010 -0.5822
 7431SOL     OW33925   2.866   0.986   1.266  0.4229 -0.4853  0.1668
 7431SOL    HW133926   2.940   0.939   1.303 -0.4188 -2.2537 -0.4228
 7431SOL    HW233927   2.830   0.917   1.210  0.2996 -0.9621  0.8314
 7432SOL     OW33928   4.175   0.134   7.934 -0.0496 -0.1056 -0.2660
 7432SOL    HW133929   4.090   0.124   7.977  0.0197  1.4510  0.2343
 7432SOL    HW233930   4.172   0.225   7.903 -2.4653  0.2292  0.9301
 7433SOL     OW33931   2.343   4.162   3.980 -0.1431  0.0347  0.3620
 7433SOL    HW133932   2.318   4.253   3.996 -1.0145 -0.3368  1.1555
 7433SOL    HW233933   2.399   4.164   3.903 -0.4883  1.7642  0.1542
 7434SOL     OW33934   3.236   3.965   7.544  0.3985 -0.4709  0.1108
 7434SOL    HW133935   3.273   3.900   7.485 -0.1893  0.6045 -1.4514
 7434SOL    HW233936   3.159   3.987   7.492  0.8569  1.2761  0.1534
 7435SOL     OW33937   1.058   1.058   2.800 -0.6500 -0.1347 -0.8462
 7435SOL    HW133938   1.151   1.062   2.820 -0.6902  1.8491 -1.0270
 7435SOL    HW233939   1.059   1.025   2.711 -4.7892 -1.0517 -0.5694
 7436SOL     OW33940   3.716   1.744   9.933 -0.3667  0.0765 -0.1742
 7436SOL    HW133941   3.773   1.799   9.879  0.1670 -0.7478 -0.4429
 7436SOL    HW233942   3.772   1.693   9.991  0.5455  1.2686 -0.0110
 7437SOL     OW33943   4.300   1.713   2.233  0.8582 -0.5084  0.2755
 7437SOL    HW133944   4.352   1.681   2.159  1.4764  0.0563  0.4624
 7437SOL    HW233945   4.241   1.780   2.199  0.0621 -1.2365  0.2399
 7438SOL     OW33946   1.543   1.404  13.341  0.1019 -0.4180 -0.1575
 7438SOL    HW133947   1.476   1.361  13.288 -3.0021  1.1686  2.4803
 7438SOL    HW233948   1.497   1.470  13.393  1.2360 -1.5699  2.3035
 7439SOL     OW33949   1.094   2.849   8.397  0.4959  0.4366 -0.1480
 7439SOL    HW133950   1.119   2.830   8.488 -0.0366  0.0134 -0.0900
 7439SOL    HW233951   1.157   2.917   8.376 -0.7976  2.0965  1.3464
 7440SOL     OW33952   1.352   0.024   5.779 -0.1131  0.4959 -0.0452
 7440SOL    HW133953   1.315   4.673   5.799  0.3128  0.3564  0.1468
 7440SOL    HW233954   1.372   4.734   5.688 -1.6363 -1.1518  0.0866
 7441SOL     OW33955   2.357   4.501   5.193  0.1783  0.1033  0.4859
 7441SOL    HW133956   2.284   4.561   5.181 -1.3139 -1.7805  0.2035
 7441SOL    HW233957   2.330   4.454   5.272  0.5895 -1.4077 -0.2552
 7442SOL     OW33958   0.712   3.441   7.115 -0.2667 -0.1412  0.0540
 7442SOL    HW133959   0.692   3.373   7.051  4.6466 -2.1809  0.6885
 7442SOL    HW233960   0.632   3.429   7.166  0.9943  0.6632  2.2269
 7443SOL     OW33961   1.508   2.280   5.824  0.2968  0.0118 -0.5273
 7443SOL    HW133962   1.551   2.328   5.895 -1.0869  1.0578 -0.3977
 7443SOL    HW233963   1.487   2.199   5.870  1.2539  1.0320  1.7366
 7444SOL     OW33964   2.322   2.249   4.581  0.0582 -0.3023 -0.9110
 7444SOL    HW133965   2.234   2.212   4.578  0.3349 -0.8383 -2.1690
 7444SOL    HW233966   2.315   2.303   4.660  1.7097 -1.7101  0.2053
 7445SOL     OW33967   3.804   1.195   3.727  0.5881  0.1667  0.1297
 7445SOL    HW133968   3.863   1.192   3.802 -2.0771 -2.0854  2.1452
 7445SOL    HW233969   3.750   1.271   3.748  0.4274 -0.3693  1.6413
 7446SOL     OW33970   1.924   4.464   9.960  0.6600  0.1220  0.1009
 7446SOL    HW133971   1.893   4.406   9.891  0.8106  1.5413 -1.1540
 7446SOL    HW233972   2.012   4.428   9.965 -0.0739 -1.1888  3.8283
 7447SOL     OW33973   1.043   0.477   8.306 -0.4797 -0.1407 -0.3807
 7447SOL    HW133974   1.089   0.395   8.322 -0.9973 -0.5120 -0.7796
 7447SOL    HW233975   1.027   0.511   8.394 -1.2689 -0.8545 -0.2432
 7448SOL     OW33976   0.347   1.973   5.191 -0.4369  0.0956 -0.5370
 7448SOL    HW133977   0.330   2.054   5.241 -0.2054 -0.3493  0.2632
 7448SOL    HW233978   0.394   1.916   5.251 -2.3397 -0.7864  0.0984
 7449SOL     OW33979   4.107   0.908   5.176  0.3263 -0.1590 -0.1016
 7449SOL    HW133980   4.108   1.002   5.190  2.0821 -0.4518  1.6800
 7449SOL    HW233981   4.052   0.899   5.098  1.7321 -0.4294 -1.0578
 7450SOL     OW33982   4.041   0.742   8.165  0.0546  0.0160 -0.2544
 7450SOL    HW133983   4.074   0.689   8.238  2.9080  2.6356  0.3372
 7450SOL    HW233984   4.079   0.686   8.098 -0.5645  0.2272 -0.7805
 7451SOL     OW33985   3.052   4.096   3.158  0.7158  0.8709  0.6351
 7451SOL    HW133986   3.136   4.074   3.199  1.1696 -0.9499 -1.3073
 7451SOL    HW233987   3.068   4.143   3.077 -2.0178  0.0001 -0.4157
 7452SOL     OW33988   4.455   4.134   9.667 -0.0186 -0.0055  0.4211
 7452SOL    HW133989   4.391   4.202   9.643  1.6125  1.8311  1.2553
 7452SOL    HW233990   4.469   4.091   9.583 -0.2337 -1.4640  1.1332
 7453SOL     OW33991   0.931   1.286   3.176 -0.2562 -0.0640  0.6070
 7453SOL    HW133992   0.850   1.258   3.133 -2.0185  1.0934  3.1337
 7453SOL    HW233993   0.986   1.208   3.178 -0.2409 -0.0121  2.2208
 7454SOL     OW33994   0.533   2.421  10.169  0.3766 -0.5326  0.0909
 7454SOL    HW133995   0.569   2.465  10.092  0.5275 -2.4066 -0.9197
 7454SOL    HW233996   0.442   2.420  10.139  0.9363 -0.6839 -1.6337
 7455SOL     OW33997   3.738   3.656   0.546  0.1462 -0.1755  0.0366
 7455SOL    HW133998   3.773   3.579   0.501  0.9932  0.5916 -0.6010
 7455SOL    HW233999   3.644   3.637   0.555  0.1797 -0.6987 -0.7052
 7456SOL     OW34000   2.490   3.990  15.925  0.1856  0.5576 -0.2398
 7456SOL    HW134001   2.396   3.984  15.939  0.3638  1.6808  1.3600
 7456SOL    HW234002   2.496   4.030  15.838 -0.2421  0.5107 -0.2907
 7457SOL     OW34003   3.858   0.252   2.226 -0.1808  0.0363 -0.0513
 7457SOL    HW134004   3.803   0.224   2.299  0.1314 -1.9088 -0.5701
 7457SOL    HW234005   3.948   0.249   2.259  0.2192  2.4941 -0.9160
 7458SOL     OW34006   3.741   2.220   5.163 -0.0799 -0.4287 -0.2339
 7458SOL    HW134007   3.829   2.183   5.165  0.2698  0.4309  0.1438
 7458SOL    HW234008   3.721   2.234   5.256 -0.0046  0.4048 -0.3456
 7459SOL     OW34009   2.804   3.948   3.106  0.1206  0.0811  0.4419
 7459SOL    HW134010   2.869   3.993   3.159  1.0879  0.3746 -1.0195
 7459SOL    HW234011   2.732   4.011   3.110  0.1167  0.1262 -0.4334
 7460SOL     OW34012   1.968   3.835   3.802  0.7248 -0.0177  0.0323
 7460SOL    HW134013   1.924   3.840   3.887  1.6108 -0.6666  0.5359
 7460SOL    HW234014   1.988   3.743   3.787  1.0201 -0.8831  5.6218
 7461SOL     OW34015   2.846   2.809   5.802  0.1142 -0.0548  0.3984
 7461SOL    HW134016   2.811   2.731   5.845 -1.2858  1.3974  1.8863
 7461SOL    HW234017   2.916   2.835   5.862  0.3184 -0.3491  0.2915
 7462SOL     OW34018   2.551   3.136   9.095  0.1639 -0.5665  0.4328
 7462SOL    HW134019   2.592   3.216   9.062 -0.5532 -0.8198 -1.0922
 7462SOL    HW234020   2.488   3.171   9.158 -0.2462 -2.0329  0.8214
 7463SOL     OW34021   3.690   0.306   6.992 -0.4948 -0.1084  0.1492
 7463SOL    HW134022   3.694   0.291   6.897 -0.3618 -0.0028  0.1371
 7463SOL    HW234023   3.781   0.320   7.018 -0.3461 -3.7366  1.4854
 7464SOL     OW34024   4.240   0.647  10.147 -0.0468  0.2114  0.3415
 7464SOL    HW134025   4.232   0.587  10.222 -0.0857 -0.1289  0.0625
 7464SOL    HW234026   4.258   0.735  10.179 -0.1489 -0.1818  1.5035
 7465SOL     OW34027   1.124   4.699  10.847 -0.6020  0.1548  0.1988
 7465SOL    HW134028   1.057   4.642  10.884 -0.5633  0.3710  0.6022
 7465SOL    HW234029   1.071   0.022  10.793  0.2207  0.2901 -0.4544
 7466SOL     OW34030   1.009   3.128  13.879 -0.4713 -0.0312 -0.1095
 7466SOL    HW134031   1.016   3.071  13.956  0.5940 -2.0359 -1.6701
 7466SOL    HW234032   0.916   3.149  13.874 -0.3992 -0.5620 -4.0666
 7467SOL     OW34033   4.172   0.213  10.127  0.6151  0.0224  0.3625
 7467SOL    HW134034   4.267   0.213  10.143  0.7360 -0.3585 -0.3711
 7467SOL    HW234035   4.138   0.254  10.207  2.8016 -0.1069  1.3734
 7468SOL     OW34036   2.516   2.359  14.824  0.2694  0.1727 -0.4558
 7468SOL    HW134037   2.579   2.427  14.848  1.3678 -1.3315  0.9343
 7468SOL    HW234038   2.582   2.290  14.814 -0.6512 -0.4303 -2.3420
 7469SOL     OW34039   2.615   1.943  15.463 -0.1965  0.1926  0.0581
 7469SOL    HW134040   2.619   1.962  15.369  0.5581  1.4015  0.3490
 7469SOL    HW234041   2.706   1.958  15.484 -0.7635  0.0879  2.5793
 7470SOL     OW34042   3.139   2.222  16.430 -0.6001 -0.3933  0.0981
 7470SOL    HW134043   3.196   2.158  16.387  0.4975  0.6369  0.0093
 7470SOL    HW234044   3.208   2.283  16.455 -1.5173  0.2659  1.0242
 7471SOL     OW34045   2.481   0.889   3.039  0.2609 -0.4296  0.9587
 7471SOL    HW134046   2.505   0.837   3.116 -2.8727 -0.8437  1.6701
 7471SOL    HW234047   2.550   0.862   2.979  0.1573  0.1077  0.5965
 7472SOL     OW34048   3.762   1.801  10.291  0.4430 -0.4898 -0.3792
 7472SOL    HW134049   3.843   1.831  10.331  1.2298 -1.7308 -1.0535
 7472SOL    HW234050   3.787   1.709  10.284 -1.0083 -0.7885 -1.7831
 7473SOL     OW34051   3.172   1.090   2.648  0.0437  0.6019  0.2298
 7473SOL    HW134052   3.155   1.184   2.644  2.4260  0.9647 -1.4688
 7473SOL    HW234053   3.256   1.084   2.693  0.8777  1.1194 -1.2467
 7474SOL     OW34054   0.343   2.581   4.835  0.0411 -0.1332  0.0408
 7474SOL    HW134055   0.430   2.551   4.808  1.4454  2.7050  1.4068
 7474SOL    HW234056   0.295   2.499   4.831  0.0134 -0.1757  1.3221
 7475SOL     OW34057   4.421   1.726   8.972  0.1246  0.0367 -0.4248
 7475SOL    HW134058   4.387   1.638   8.957 -1.2470  0.7503 -1.4460
 7475SOL    HW234059   4.450   1.723   9.063 -2.0643  2.6716  0.3417
 7476SOL     OW34060   3.428   2.939   6.382 -0.4135  0.4193 -0.0553
 7476SOL    HW134061   3.420   2.844   6.383  0.1062  0.3982  1.6453
 7476SOL    HW234062   3.362   2.977   6.439  0.0119  1.1602 -0.0449
 7477SOL     OW34063   4.696   3.922   3.075  0.4398 -0.1090 -0.4623
 7477SOL    HW134064   4.661   3.866   3.006  1.3606  2.4061 -2.9347
 7477SOL    HW234065   0.054   3.914   3.060  0.1544  0.1478 -2.3623
 7478SOL     OW34066   3.265   1.851  15.969  0.0699  0.7837  0.1358
 7478SOL    HW134067   3.228   1.902  15.897 -1.6784 -1.8518 -0.8073
 7478SOL    HW234068   3.217   1.768  15.964  0.8632  0.2410  1.5676
 7479SOL     OW34069   4.524   3.090   6.603 -0.4505 -0.7361 -0.1130
 7479SOL    HW134070   4.454   3.152   6.623  0.9435  0.9339 -0.4107
 7479SOL    HW234071   4.597   3.151   6.591 -0.0017 -1.6663 -2.0925
 7480SOL     OW34072   0.819   0.050   3.708 -0.2369  0.6512  0.2582
 7480SOL    HW134073   0.788   4.701   3.676  0.1970  0.5825  0.0141
 7480SOL    HW234074   0.809   0.113   3.637  2.2221  0.2756 -0.4280
 7481SOL     OW34075   0.071   0.558   3.515  0.1739  0.2235  0.7846
 7481SOL    HW134076   0.056   0.464   3.520 -1.1899  0.4544  0.8756
 7481SOL    HW234077   0.122   0.565   3.434 -1.7069  1.3479 -0.2811
 7482SOL     OW34078   4.560   0.205   7.833  0.3935  0.1394 -0.3505
 7482SOL    HW134079   4.542   0.116   7.802 -2.4872  1.3347 -2.0702
 7482SOL    HW234080   4.616   0.178   7.906  0.6862  0.1819 -0.5615
 7483SOL     OW34081   1.460   2.240  15.184 -0.0395 -0.7910 -0.7255
 7483SOL    HW134082   1.461   2.264  15.091  1.9519 -2.8273 -1.2297
 7483SOL    HW234083   1.515   2.308  15.222  1.4094 -0.2745 -3.7305
 7484SOL     OW34084   1.943   3.774   7.413  0.5907 -0.4174  0.2317
 7484SOL    HW134085   2.028   3.778   7.369 -0.1988  0.5468 -1.1694
 7484SOL    HW234086   1.950   3.686   7.450  1.4054 -0.6906 -0.5568
 7485SOL     OW34087   2.488   0.362  12.791  0.2020  0.2494  0.2916
 7485SOL    HW134088   2.531   0.298  12.848 -0.1706 -0.6872 -0.4633
 7485SOL    HW234089   2.394   0.341  12.783 -0.4866  2.2209  3.3702
 7486SOL     OW34090   0.506   4.288   2.077 -0.1108  0.3052  0.2676
 7486SOL    HW134091   0.438   4.258   2.017  1.0487 -1.1521 -0.3212
 7486SOL    HW234092   0.574   4.328   2.023 -0.2908 -0.6654 -0.6651
 7487SOL     OW34093   3.625   0.698   2.386  0.3693 -0.1003 -0.6000
 7487SOL    HW134094   3.648   0.790   2.371  2.2520 -0.2375  1.3782
 7487SOL    HW234095   3.685   0.648   2.332  0.4626 -0.8762  0.2148
 7488SOL     OW34096   0.171   2.972   6.182 -0.4420  0.3331 -0.3930
 7488SOL    HW134097   0.111   2.969   6.256  1.0351  0.0261  0.7893
 7488SOL    HW234098   0.225   3.045   6.210  0.0019  0.7454 -2.3173
 7489SOL     OW34099   1.805   0.407   6.595 -0.1992  0.0249 -0.3118
 7489SOL    HW134100   1.876   0.396   6.531 -0.5736 -0.1373 -0.6974
 7489SOL    HW234101   1.725   0.403   6.543  1.1018  0.8939 -2.4111
 7490SOL     OW34102   1.512   4.094  12.948  0.5410  0.0594  0.2902
 7490SOL    HW134103   1.545   4.019  12.898 -3.1737 -1.3495 -0.0583
 7490SOL    HW234104   1.564   4.168  12.918  2.6740 -0.8265  1.8241
 7491SOL     OW34105   3.669   4.508   6.380 -0.1875 -0.2022 -0.3738
 7491SOL    HW134106   3.692   4.457   6.458 -1.5319 -0.1635  0.0460
 7491SOL    HW234107   3.645   4.434   6.324 -1.4164  0.3447 -0.5758
 7492SOL     OW34108   0.102   1.197  11.152  0.0375  0.5021 -0.3273
 7492SOL    HW134109   0.177   1.246  11.186 -0.8293 -0.9451  3.6593
 7492SOL    HW234110   0.156   1.131  11.108  3.1805  2.0371  1.1837
 7493SOL     OW34111   1.044   2.972  11.135 -0.8201  0.0145  0.5054
 7493SOL    HW134112   1.126   3.019  11.126 -0.7711 -0.7780 -3.0000
 7493SOL    HW234113   1.056   2.945  11.226 -0.7234 -1.3180  0.1037
 7494SOL     OW34114   1.857   0.611  11.895  0.3387 -0.0133 -0.2270
 7494SOL    HW134115   1.834   0.688  11.844 -0.3999 -0.1798 -0.1472
 7494SOL    HW234116   1.783   0.611  11.957  0.4407 -1.7913 -0.1245
 7495SOL     OW34117   0.376   0.851  14.934  0.3901  0.0205 -0.5709
 7495SOL    HW134118   0.451   0.910  14.940  0.9747 -0.6083 -1.6827
 7495SOL    HW234119   0.369   0.819  14.844 -3.7977  0.7481 -0.4962
 7496SOL     OW34120   4.346   0.322   8.276  0.1325  0.2853  0.1313
 7496SOL    HW134121   4.397   0.385   8.328 -1.2954  1.1046  0.5598
 7496SOL    HW234122   4.278   0.376   8.236 -1.5828 -2.5545 -0.7148
 7497SOL     OW34123   3.104   1.139   1.431 -0.4701 -0.0200  0.1882
 7497SOL    HW134124   3.044   1.210   1.455  0.3462  0.7516 -0.0455
 7497SOL    HW234125   3.062   1.077   1.491 -3.7243  1.4187 -0.6256
 7498SOL     OW34126   0.051   1.317   7.388  0.6979 -0.4145 -0.4546
 7498SOL    HW134127   0.002   1.318   7.306 -0.9555 -0.0921  0.5355
 7498SOL    HW234128   0.120   1.252   7.373  0.8869 -0.6325  1.3562
 7499SOL     OW34129   2.831   2.910   7.033  0.4163 -0.2640 -0.6198
 7499SOL    HW134130   2.807   2.896   6.941  0.0452 -0.0467 -0.5594
 7499SOL    HW234131   2.806   2.830   7.079 -2.9191  0.0206 -1.9705
 7500SOL     OW34132   3.997   0.626  14.305  0.3385  0.4807 -0.5842
 7500SOL    HW134133   3.934   0.607  14.236 -0.0615  2.7135 -0.8234
 7500SOL    HW234134   4.072   0.666  14.260 -2.2679  2.0449 -3.4957
 7501SOL     OW34135   2.622   2.275   6.932  0.5612  0.4064  0.2273
 7501SOL    HW134136   2.615   2.248   7.024 -0.9634 -0.0474 -0.0227
 7501SOL    HW234137   2.574   2.357   6.945  0.1991  0.5295 -1.8348
 7502SOL     OW34138   0.377   1.771   3.891 -0.3447 -0.6062 -1.1254
 7502SOL    HW134139   0.355   1.862   3.906  3.0704  0.2129 -1.1071
 7502SOL    HW234140   0.451   1.758   3.951  0.2483  0.5156 -1.6279
 7503SOL     OW34141   2.673   4.625   2.605 -0.6462  0.1373  0.2290
 7503SOL    HW134142   2.617   4.696   2.638 -1.4618  0.0603 -1.0337
 7503SOL    HW234143   2.608   4.560   2.578 -1.6872  1.5267 -0.6280
 7504SOL     OW34144   3.036   1.655  15.983 -0.5466 -0.3707  0.4033
 7504SOL    HW134145   3.096   1.584  15.960  0.3946  0.0778  1.5537
 7504SOL    HW234146   2.997   1.669  15.896  0.2089  0.1459  0.1574
 7505SOL     OW34147   3.801   0.901   5.484  0.3247  0.1809  0.2864
 7505SOL    HW134148   3.844   0.973   5.438 -0.1610  0.8658  0.9056
 7505SOL    HW234149   3.871   0.836   5.474  1.5015  1.6753 -1.2591
 7506SOL     OW34150   1.044   0.630   9.411 -0.0669 -0.0286 -0.2451
 7506SOL    HW134151   0.996   0.603   9.489  1.6095 -0.3806  0.6782
 7506SOL    HW234152   0.985   0.651   9.339  0.4810  1.6551 -0.2028
 7507SOL     OW34153   1.256   2.507   2.673 -0.1076 -0.0142  0.1067
 7507SOL    HW134154   1.288   2.596   2.684  3.2286 -1.2574  0.6137
 7507SOL    HW234155   1.232   2.478   2.761 -1.4207 -2.4065 -1.0311
 7508SOL     OW34156   3.621   4.135   4.208 -0.2705  0.3169 -1.3566
 7508SOL    HW134157   3.687   4.196   4.242  0.6375 -0.4909 -1.6803
 7508SOL    HW234158   3.539   4.180   4.227  2.1534  4.1264  0.1243
 7509SOL     OW34159   1.885   1.592   8.529 -0.1955 -0.4663  0.0487
 7509SOL    HW134160   1.795   1.589   8.498  0.6733  2.6396 -2.7373
 7509SOL    HW234161   1.915   1.502   8.520 -3.1225 -1.7042  2.5882
 7510SOL     OW34162   2.708   3.522   5.604 -0.4531 -0.2565 -0.2774
 7510SOL    HW134163   2.727   3.613   5.626  1.1838 -1.1096  1.8625
 7510SOL    HW234164   2.719   3.488   5.693  0.6528 -2.1285 -1.1342
 7511SOL     OW34165   1.865   0.106   6.979 -0.1046  0.3864 -0.4603
 7511SOL    HW134166   1.873   0.193   6.940  0.7323  0.6290  0.2423
 7511SOL    HW234167   1.888   0.127   7.070 -0.0291 -1.7220  0.0030
 7512SOL     OW34168   0.985   0.762   6.871 -0.2327 -0.2262  0.1759
 7512SOL    HW134169   1.063   0.786   6.821 -0.6415  1.2437  0.2499
 7512SOL    HW234170   0.969   0.672   6.842  0.8791 -0.6006  0.7125
 7513SOL     OW34171   1.195   0.623  14.151  0.0345  0.4691  0.1561
 7513SOL    HW134172   1.272   0.634  14.207 -0.6625  0.2970  1.1286
 7513SOL    HW234173   1.219   0.541  14.107 -0.5068  1.2496 -1.5972
 7514SOL     OW34174   4.656   0.963  15.991  0.1904 -0.0126  0.3864
 7514SOL    HW134175   4.693   0.905  16.058 -0.8511  0.0193  0.9900
 7514SOL    HW234176   4.725   0.966  15.925 -0.5934 -0.4586 -0.4496
 7515SOL     OW34177   2.996   1.219  17.441 -0.3096 -0.1754 -0.4223
 7515SOL    HW134178   3.074   1.230  17.495 -0.5155  0.1530 -0.1942
 7515SOL    HW234179   2.973   1.129  17.466  0.3102 -0.4254 -0.7501
 7516SOL     OW34180   2.533   2.801   7.109  0.1417  0.0513 -0.4502
 7516SOL    HW134181   2.459   2.789   7.168  0.6858 -2.1345 -0.1979
 7516SOL    HW234182   2.594   2.845   7.168 -1.9470 -0.8005  2.3143
 7517SOL     OW34183   0.448   0.870   5.652 -0.0873 -0.1764 -0.0361
 7517SOL    HW134184   0.414   0.920   5.577 -1.3226 -2.1139 -0.7570
 7517SOL    HW234185   0.453   0.783   5.613  1.3015 -0.0958 -0.0364
 7518SOL     OW34186   0.273   4.727   1.999  0.1375 -0.2866 -0.4545
 7518SOL    HW134187   0.204   0.039   1.951  2.1239  0.8802 -2.1495
 7518SOL    HW234188   0.311   4.681   1.925  2.7359 -0.0021  0.7093
 7519SOL     OW34189   1.601   3.297   6.220  0.0847 -0.6562  0.2114
 7519SOL    HW134190   1.548   3.293   6.300  1.6946  2.4961  1.4494
 7519SOL    HW234191   1.617   3.206   6.196  2.0732 -0.1098 -0.5530
 7520SOL     OW34192   1.981   1.564   2.842  0.2153 -0.4017 -0.1787
 7520SOL    HW134193   1.943   1.639   2.888  2.2742 -0.5535  1.7661
 7520SOL    HW234194   2.013   1.601   2.759  1.1748  0.2888  0.4947
 7521SOL     OW34195   4.252   4.366   3.790  0.4019 -0.0009 -0.2556
 7521SOL    HW134196   4.242   4.457   3.818 -1.0977 -0.5055  0.8554
 7521SOL    HW234197   4.258   4.328   3.878 -1.1219  1.2553  0.3969
 7522SOL     OW34198   2.096   2.075   5.261  0.3516 -0.1688 -0.2651
 7522SOL    HW134199   2.175   2.064   5.208 -0.6881 -1.7364 -1.4671
 7522SOL    HW234200   2.051   2.137   5.203 -0.6210 -1.6217 -1.0484
 7523SOL     OW34201   1.457   4.205   5.786 -0.1474  0.3619 -0.5779
 7523SOL    HW134202   1.393   4.273   5.765  1.6027  1.6082 -1.8402
 7523SOL    HW234203   1.517   4.210   5.712  2.3623 -2.2324  1.3086
 7524SOL     OW34204   2.127   1.635   1.915 -0.6655  0.1407 -0.1120
 7524SOL    HW134205   2.084   1.673   1.992  0.4063 -0.3078  0.7118
 7524SOL    HW234206   2.148   1.548   1.951  0.7848  0.4163 -0.2794
 7525SOL     OW34207   1.695   3.918   5.187  0.5353 -0.1582  0.0494
 7525SOL    HW134208   1.622   3.857   5.196  0.9826 -0.7052 -0.0172
 7525SOL    HW234209   1.657   3.951   5.105 -0.8967  0.1244  0.8242
 7526SOL     OW34210   2.570   2.556   5.724  0.5451 -0.5023 -0.4202
 7526SOL    HW134211   2.603   2.549   5.814 -1.4806 -1.4751  0.2580
 7526SOL    HW234212   2.506   2.622   5.748  1.0870  1.0391 -3.2459
 7527SOL     OW34213   1.874   3.011  15.828 -0.6570 -0.3740 -0.0208
 7527SOL    HW134214   1.786   3.006  15.792 -0.2271 -0.4061 -1.0484
 7527SOL    HW234215   1.925   3.043  15.754 -1.3403 -0.5589 -0.5647
 7528SOL     OW34216   2.549   1.829   2.414 -0.1424 -0.3978  0.0358
 7528SOL    HW134217   2.481   1.864   2.471 -0.8921 -2.6017  0.4980
 7528SOL    HW234218   2.574   1.913   2.375 -1.9181 -0.8020 -2.0286
 7529SOL     OW34219   0.076   0.231   7.602 -0.4175 -0.4797 -0.1858
 7529SOL    HW134220   4.729   0.275   7.583  0.3870  0.8093 -0.7661
 7529SOL    HW234221   0.053   0.140   7.588 -0.0102 -0.7548  0.9096
 7530SOL     OW34222   2.688   2.174   3.991 -0.0846  0.1147  0.5097
 7530SOL    HW134223   2.765   2.154   4.045 -1.9388 -1.0334  2.7409
 7530SOL    HW234224   2.662   2.085   3.969  3.1156 -0.9389  1.0184
 7531SOL     OW34225   3.137   2.776   5.044  0.4468  0.4926  0.6540
 7531SOL    HW134226   3.216   2.798   5.093  1.0045 -2.8119  1.2135
 7531SOL    HW234227   3.164   2.702   4.989 -1.0568  0.5675 -0.1746
 7532SOL     OW34228   2.588   4.225   2.563 -0.0808 -0.4841 -0.0546
 7532SOL    HW134229   2.510   4.220   2.618 -0.3431  0.8256 -0.2897
 7532SOL    HW234230   2.555   4.212   2.474  0.8559 -0.2540 -0.4334
 7533SOL     OW34231   1.446   2.060   6.004 -0.2032 -0.0917  0.0415
 7533SOL    HW134232   1.376   2.108   6.047 -1.8646 -0.0221 -2.7398
 7533SOL    HW234233   1.488   2.027   6.084 -0.3728 -1.3405 -0.3800
 7534SOL     OW34234   0.871   2.215   8.977  0.3220 -0.2725  0.2015
 7534SOL    HW134235   0.871   2.197   8.883  0.3753  0.6169  0.0275
 7534SOL    HW234236   0.914   2.135   9.006  0.0572 -0.6012 -0.3270
 7535SOL     OW34237   1.540   1.503   8.034  0.5391  0.0697 -0.2069
 7535SOL    HW134238   1.551   1.436   8.102 -0.1734 -1.0355 -1.1736
 7535SOL    HW234239   1.462   1.553   8.057 -0.0222 -0.5660 -0.7168
 7536SOL     OW34240   3.547   2.112   7.119 -0.8576  0.1064  0.5232
 7536SOL    HW134241   3.602   2.190   7.119  1.3282 -1.4474  0.5925
 7536SOL    HW234242   3.464   2.150   7.087 -1.1413  0.2205  1.4101
 7537SOL     OW34243   1.352   0.807   8.384  0.7832  0.0557 -0.0612
 7537SOL    HW134244   1.311   0.777   8.304 -1.3257 -0.0986  1.0882
 7537SOL    HW234245   1.397   0.726   8.409  0.1865 -0.5898 -1.1188
 7538SOL     OW34246   1.521   4.010  14.136  0.4620  0.7635  0.3611
 7538SOL    HW134247   1.519   4.016  14.231 -0.5257  0.1081  0.3780
 7538SOL    HW234248   1.439   4.053  14.111 -0.0071  0.4132  1.3111
 7539SOL     OW34249   3.592   3.005   7.166  0.2071  0.6247 -0.8759
 7539SOL    HW134250   3.538   3.075   7.129 -1.1428 -0.3668 -0.7762
 7539SOL    HW234251   3.678   3.035   7.137  0.5560 -0.0230 -0.5172
 7540SOL     OW34252   1.460   3.824   4.731 -0.8413  0.4793 -0.4943
 7540SOL    HW134253   1.500   3.737   4.738 -1.5609  0.0376 -1.7979
 7540SOL    HW234254   1.375   3.790   4.704 -0.6114 -1.4254  1.2252
 7541SOL     OW34255   4.410   4.266   1.845  0.0315 -0.0608  0.1734
 7541SOL    HW134256   4.456   4.184   1.864  1.3397  0.7831  0.7065
 7541SOL    HW234257   4.320   4.234   1.847  0.1349 -0.3769 -0.1858
 7542SOL     OW34258   0.176   4.273   3.265 -0.4697 -0.1170  0.2986
 7542SOL    HW134259   0.136   4.189   3.285 -0.4497  0.1588  1.5115
 7542SOL    HW234260   0.250   4.278   3.326 -0.0565 -1.0873 -0.1261
 7543SOL     OW34261   3.710   1.198   7.581 -0.6527 -0.2543 -0.1226
 7543SOL    HW134262   3.703   1.112   7.541  0.7914 -0.7579  0.6851
 7543SOL    HW234263   3.627   1.211   7.626  0.1224 -0.0728  1.2615
 7544SOL     OW34264   3.178   1.860   2.242  0.1819 -0.5718  0.3145
 7544SOL    HW134265   3.126   1.799   2.294 -2.4883  0.5842 -0.9986
 7544SOL    HW234266   3.135   1.851   2.157  0.8960  1.0488 -0.2124
 7545SOL     OW34267   2.456   2.585  11.881  0.4609 -0.2172  0.2705
 7545SOL    HW134268   2.546   2.597  11.913  1.0130  0.9070 -1.7036
 7545SOL    HW234269   2.470   2.515  11.817  0.4555  0.1125 -0.0915
 7546SOL     OW34270   2.658   1.861   5.373  0.8366  0.0211  0.0388
 7546SOL    HW134271   2.596   1.877   5.444  0.5366  0.7768 -0.3873
 7546SOL    HW234272   2.718   1.796   5.410 -0.6724 -0.3364  1.8694
 7547SOL     OW34273   4.215   1.202  16.082  0.6039 -0.3189  0.2229
 7547SOL    HW134274   4.309   1.183  16.074  0.9278  1.1246  0.6444
 7547SOL    HW234275   4.195   1.108  16.085  0.0420 -0.1226  2.4327
 7548SOL     OW34276   0.767   0.827   7.269 -0.6371  0.2221 -0.7241
 7548SOL    HW134277   0.741   0.896   7.331  0.2689  0.7299 -0.9190
 7548SOL    HW234278   0.728   0.744   7.296 -0.8572  1.3911  2.4854
 7549SOL     OW34279   4.472   1.853   3.767 -0.4518  1.0896  0.2206
 7549SOL    HW134280   4.567   1.866   3.768 -0.4570  1.2467 -1.9475
 7549SOL    HW234281   4.468   1.757   3.768  0.6278  1.0363 -1.0575
 7550SOL     OW34282   1.990   1.470  15.002 -0.4345 -0.3503  0.1316
 7550SOL    HW134283   2.016   1.557  14.974 -2.7929  0.0789 -0.7446
 7550SOL    HW234284   2.072   1.421  14.990 -1.1412 -0.8668 -2.6520
 7551SOL     OW34285   2.736   1.825  17.612  0.0545 -0.0238 -0.1321
 7551SOL    HW134286   2.655   1.788  17.576 -0.2420 -1.6213  2.1635
 7551SOL    HW234287   2.789   1.831  17.533  1.7614 -2.2277  0.8701
 7552SOL     OW34288   4.567   2.985  17.626  0.4413  0.2476  0.7522
 7552SOL    HW134289   4.529   3.050  17.567  1.4710  1.1523  1.0917
 7552SOL    HW234290   4.588   2.900  17.587 -1.4385  0.5507 -0.9313
 7553SOL     OW34291   3.615   1.704   8.478 -0.4137  0.9192 -0.1036
 7553SOL    HW134292   3.690   1.722   8.535  0.1028 -0.0174 -0.4870
 7553SOL    HW234293   3.562   1.642   8.528  0.0290  2.0278  1.7364
 7554SOL     OW34294   2.765   2.358   1.375  0.8795  0.2334  0.0270
 7554SOL    HW134295   2.683   2.381   1.332  1.6448  0.2129 -1.4429
 7554SOL    HW234296   2.809   2.336   1.292 -0.6966 -1.6922 -0.2984
 7555SOL     OW34297   2.164   4.098   5.136  0.0855 -0.4289  0.6247
 7555SOL    HW134298   2.115   4.130   5.061  3.4469  1.6222 -0.7035
 7555SOL    HW234299   2.159   4.004   5.122  3.7735 -0.0763 -2.9726
 7556SOL     OW34300   4.029   4.306  17.599 -0.2587  0.3979 -0.0139
 7556SOL    HW134301   4.072   4.372  17.654  0.1369 -0.9417  1.3050
 7556SOL    HW234302   4.046   4.328  17.508 -0.0461 -1.0237 -0.3260
 7557SOL     OW34303   1.717   2.528   7.087  0.5362  0.5572 -0.6209
 7557SOL    HW134304   1.720   2.574   7.003  3.4367  0.5473 -0.5279
 7557SOL    HW234305   1.623   2.522   7.101  0.8311 -0.3878  0.9516
 7558SOL     OW34306   0.515   1.509   8.397  0.3925  0.1439  0.2820
 7558SOL    HW134307   0.473   1.423   8.397 -0.2468  0.4622 -0.2647
 7558SOL    HW234308   0.485   1.554   8.318  1.1359 -0.3245 -0.2705
 7559SOL     OW34309   0.552   2.492   7.149 -0.0024 -0.0962  0.2166
 7559SOL    HW134310   0.467   2.453   7.128 -0.1254  0.1252  0.2954
 7559SOL    HW234311   0.575   2.445   7.229  2.8378 -0.6674 -0.9549
 7560SOL     OW34312   0.960   1.519  13.855 -0.0943 -0.2713  0.1044
 7560SOL    HW134313   0.985   1.593  13.910 -0.1353  0.5515 -0.9726
 7560SOL    HW234314   0.951   1.444  13.913  2.3403  1.9422  3.3516
 7561SOL     OW34315   2.059   0.608   7.106 -0.1381 -0.1342  0.5695
 7561SOL    HW134316   1.975   0.565   7.121 -1.2601  1.1132 -2.0824
 7561SOL    HW234317   2.036   0.701   7.110  2.7149  0.5931  0.2841
 7562SOL     OW34318   2.338   1.614  15.582 -0.2156 -0.2028  0.1525
 7562SOL    HW134319   2.276   1.550  15.547 -0.0657 -1.3908  2.0718
 7562SOL    HW234320   2.315   1.618  15.675 -0.9862  1.0656 -0.0988
 7563SOL     OW34321   3.739   3.942  14.229 -0.1345  0.9825  0.0215
 7563SOL    HW134322   3.807   3.947  14.162 -1.1881  0.5654 -1.0714
 7563SOL    HW234323   3.777   3.875  14.286  0.7791  3.3665  2.1879
 7564SOL     OW34324   3.442   4.714   4.235 -0.0421  0.2601  0.6228
 7564SOL    HW134325   3.463   0.030   4.313 -0.0717 -1.7681  1.9507
 7564SOL    HW234326   3.354   4.679   4.252  0.6430 -1.4030  0.6986
 7565SOL     OW34327   1.435   0.808  16.092 -0.0247  0.0318 -0.0664
 7565SOL    HW134328   1.454   0.855  16.173 -2.6915 -1.3147  1.3462
 7565SOL    HW234329   1.342   0.789  16.103  0.2504 -1.4691 -0.3565
 7566SOL     OW34330   1.598   4.137   7.911 -0.3696 -0.1940 -0.4668
 7566SOL    HW134331   1.562   4.170   7.829 -0.4023 -0.1299 -0.4268
 7566SOL    HW234332   1.545   4.190   7.970 -0.0126 -1.9679  1.4482
 7567SOL     OW34333   3.416   2.411   2.125 -0.2533 -0.2654 -0.1198
 7567SOL    HW134334   3.444   2.361   2.202  1.4801 -2.0393 -1.9065
 7567SOL    HW234335   3.450   2.369   2.046  1.2242 -0.3911  0.5798
 7568SOL     OW34336   1.980   1.847   6.505  0.2612 -0.1405  0.8459
 7568SOL    HW134337   1.931   1.775   6.466  0.2409 -0.0534  0.7079
 7568SOL    HW234338   1.977   1.823   6.597  0.2498 -2.4819  0.2276
 7569SOL     OW34339   3.798   2.106   6.040  0.1092  0.4139 -0.0037
 7569SOL    HW134340   3.829   2.070   5.957 -0.1132 -0.6278  0.3578
 7569SOL    HW234341   3.867   2.094   6.106 -1.2544 -3.1259  0.8260
 7570SOL     OW34342   2.575   3.186   2.909  0.3298 -0.1514 -0.1198
 7570SOL    HW134343   2.628   3.264   2.924 -1.1229  0.6871  0.6979
 7570SOL    HW234344   2.636   3.121   2.945 -1.6129 -2.0788 -0.3169
 7571SOL     OW34345   2.028   1.772  15.668  0.0841 -0.5243  0.0455
 7571SOL    HW134346   2.113   1.744  15.702 -0.4799 -1.4935  0.6639
 7571SOL    HW234347   1.994   1.779  15.758  1.5727 -1.9558  0.7269
 7572SOL     OW34348   1.639   2.191  16.893  0.2487 -0.3170 -0.1342
 7572SOL    HW134349   1.614   2.106  16.856 -1.3779  0.8093 -1.6341
 7572SOL    HW234350   1.715   2.212  16.839 -0.0643  1.0974 -0.0284
 7573SOL     OW34351   0.419   0.277   4.673 -0.9078 -0.2399 -0.2503
 7573SOL    HW134352   0.503   0.277   4.626  0.1296  0.6554  1.6009
 7573SOL    HW234353   0.362   0.218   4.625 -1.2530 -0.4612  0.4358
 7574SOL     OW34354   4.273   4.450   0.678  0.6300  0.0765  0.5417
 7574SOL    HW134355   4.209   4.456   0.606  1.0198 -1.9161  0.0492
 7574SOL    HW234356   4.203   4.445   0.744  1.1384  0.7428  1.1288
 7575SOL     OW34357   4.027   0.106   4.258 -0.4436 -0.3279 -0.1637
 7575SOL    HW134358   3.943   0.118   4.213 -1.6088 -0.1751  2.0731
 7575SOL    HW234359   4.054   0.194   4.283 -1.1179  0.2174 -1.3580
 7576SOL     OW34360   1.495   2.327   2.000  0.0189  0.3100  0.5397
 7576SOL    HW134361   1.427   2.376   2.045 -0.0211  1.5720 -0.8961
 7576SOL    HW234362   1.571   2.385   2.009 -0.0160  0.4333  0.0279
 7577SOL     OW34363   1.729   3.566   2.331 -0.3128  0.3364 -0.3342
 7577SOL    HW134364   1.788   3.530   2.265  0.6392 -0.0429  0.7188
 7577SOL    HW234365   1.647   3.586   2.287  1.7594  1.3669 -3.7588
 7578SOL     OW34366   4.093   3.417   2.093  0.1333  0.5945  0.2815
 7578SOL    HW134367   4.032   3.431   2.020 -0.2044 -0.5665  0.3444
 7578SOL    HW234368   4.153   3.351   2.058  1.9834  2.4599 -0.0344
 7579SOL     OW34369   4.602   3.235   5.177  0.2962 -0.2953 -0.3666
 7579SOL    HW134370   4.672   3.214   5.114  1.4452  0.0083  0.8066
 7579SOL    HW234371   4.653   3.218   5.256  2.0867  0.7243 -1.3043
 7580SOL     OW34372   4.210   1.397   2.755  0.0553  0.2349  0.2660
 7580SOL    HW134373   4.126   1.360   2.728  0.0711 -0.0543  0.6113
 7580SOL    HW234374   4.216   1.350   2.839 -0.6017 -7.0701 -3.8230
 7581SOL     OW34375   2.178   3.973   4.632  0.6120  0.1095  0.1462
 7581SOL    HW134376   2.108   4.028   4.667  0.4834  0.3872 -0.5442
 7581SOL    HW234377   2.145   3.951   4.545  1.2949  0.3623 -0.1754
 7582SOL     OW34378   3.372   1.854   2.744  0.1635  0.2233 -0.4466
 7582SOL    HW134379   3.290   1.904   2.750 -0.0312  0.0321 -1.5505
 7582SOL    HW234380   3.434   1.913   2.702  1.2500 -0.8457 -0.3642
 7583SOL     OW34381   4.658   4.443  10.012 -0.0766  0.1540 -0.2142
 7583SOL    HW134382   4.563   4.430  10.009  0.3413 -2.6043 -1.5244
 7583SOL    HW234383   4.672   4.469   9.921  1.0797 -0.6405 -0.2523
 7584SOL     OW34384   3.687   3.247   6.839 -0.1099  0.5260  0.1083
 7584SOL    HW134385   3.725   3.215   6.756 -0.4101 -1.9143  0.9073
 7584SOL    HW234386   3.726   3.334   6.844  2.3962 -0.6574  1.3064
 7585SOL     OW34387   2.793   1.370   4.513 -0.6116  0.2428 -0.8207
 7585SOL    HW134388   2.774   1.442   4.573 -1.6615  0.8607 -1.8804
 7585SOL    HW234389   2.887   1.380   4.498 -0.4494  1.0292  0.6757
 7586SOL     OW34390   1.727   3.637   6.043  0.5455 -0.0416  0.5609
 7586SOL    HW134391   1.694   3.709   5.990  1.5600  0.9023  1.2214
 7586SOL    HW234392   1.798   3.683   6.087 -0.1400 -0.3953  2.0461
 7587SOL     OW34393   2.021   2.563   3.269 -0.2189  0.3326 -0.6797
 7587SOL    HW134394   1.973   2.503   3.326  0.6871 -0.4514 -0.7484
 7587SOL    HW234395   2.071   2.606   3.338 -1.8040  1.5512 -0.2874
 7588SOL     OW34396   1.495   1.789  10.267  0.0783 -0.2464 -0.5735
 7588SOL    HW134397   1.418   1.844  10.276 -0.6669 -1.1953 -1.1765
 7588SOL    HW234398   1.520   1.795  10.175  1.2823  1.3699 -0.1312
 7589SOL     OW34399   4.547   4.098  10.502  0.2945  0.5808 -0.2226
 7589SOL    HW134400   4.498   4.181  10.502 -2.8768 -1.2922  0.1686
 7589SOL    HW234401   4.565   4.073  10.411 -0.2000 -0.8121  0.0598
 7590SOL     OW34402   1.436   2.427  10.854  0.1378 -0.1377 -0.0555
 7590SOL    HW134403   1.516   2.378  10.834  1.4951  0.6005  3.5512
 7590SOL    HW234404   1.386   2.362  10.904 -0.7137  0.5927  0.0362
 7591SOL     OW34405   4.703   0.627   7.533 -0.4757  0.0518 -0.1423
 7591SOL    HW134406   4.696   0.595   7.443  0.3334 -2.1509  0.5728
 7591SOL    HW234407   4.675   0.547   7.577  1.2020 -1.6165 -2.0786
 7592SOL     OW34408   2.117   2.291  14.389  0.1984 -0.4281 -0.1402
 7592SOL    HW134409   2.212   2.295  14.386  0.1965  0.0751  0.5004
 7592SOL    HW234410   2.095   2.352  14.460  1.6818 -1.1786  0.9588
 7593SOL     OW34411   2.961   2.155   3.219  0.1609  0.4533 -0.0978
 7593SOL    HW134412   3.056   2.149   3.206  0.4304 -2.3324  2.9990
 7593SOL    HW234413   2.964   2.118   3.308  0.7844  0.1158 -0.2550
 7594SOL     OW34414   4.610   0.206   4.056  0.4110 -0.2824 -0.5758
 7594SOL    HW134415   4.559   0.252   3.989 -0.6153  1.7027  1.5659
 7594SOL    HW234416   4.641   0.281   4.106  0.9186  0.7991 -2.5054
 7595SOL     OW34417   2.420   0.183   1.977  0.1979  0.1685  0.4144
 7595SOL    HW134418   2.374   0.242   2.036  0.1678  0.0748  0.4844
 7595SOL    HW234419   2.367   0.159   1.901 -1.6049  2.9709  0.8243
 7596SOL     OW34420   2.818   0.845   3.368 -0.3934  0.1353  0.3315
 7596SOL    HW134421   2.891   0.786   3.348 -0.4745 -0.7206  2.6538
 7596SOL    HW234422   2.779   0.804   3.445 -1.9022 -2.0878 -1.5946
 7597SOL     OW34423   1.019   1.944  15.979 -0.2628  0.4509 -0.6133
 7597SOL    HW134424   1.062   1.953  15.894  1.5277 -0.2065  0.2306
 7597SOL    HW234425   1.024   2.035  16.008  0.6424 -0.2251  1.3493
 7598SOL     OW34426   0.275   2.015   4.065 -0.7207  0.5584  0.0191
 7598SOL    HW134427   0.260   2.104   4.034  1.1363  1.3662  1.4440
 7598SOL    HW234428   0.358   2.036   4.109  0.6501 -2.0808 -1.2816
 7599SOL     OW34429   2.710   2.173   0.933  0.3969  0.3281  0.1234
 7599SOL    HW134430   2.637   2.225   0.964  1.3179  0.3358  2.2772
 7599SOL    HW234431   2.779   2.191   0.997 -0.4069  1.8156  0.5550
 7600SOL     OW34432   3.545   3.048   2.650  0.2969 -0.1253 -0.8204
 7600SOL    HW134433   3.505   2.976   2.600 -0.6639  0.2064 -0.5226
 7600SOL    HW234434   3.475   3.083   2.704  1.3816 -0.5410  0.8530
 7601SOL     OW34435   1.819   3.470   5.210  0.8371 -0.5747 -0.3872
 7601SOL    HW134436   1.842   3.412   5.283 -0.2221  0.9815  1.2056
 7601SOL    HW234437   1.853   3.556   5.233  1.2983 -0.9380  0.3068
 7602SOL     OW34438   4.583   3.653   5.043  0.9022 -0.2903  0.1897
 7602SOL    HW134439   4.524   3.667   4.969  0.3761  1.2416  0.8915
 7602SOL    HW234440   4.654   3.712   5.020  0.7681 -0.9375 -1.8868
 7603SOL     OW34441   1.792   2.151   6.302 -0.1649 -0.8842 -0.0948
 7603SOL    HW134442   1.882   2.125   6.320 -0.2849 -0.3467  1.2840
 7603SOL    HW234443   1.789   2.247   6.299 -1.7270 -0.9305  0.0995
 7604SOL     OW34444   1.779   2.270   0.215 -0.1577 -0.4642  0.1641
 7604SOL    HW134445   1.709   2.209   0.236 -0.2151 -0.5077 -0.1436
 7604SOL    HW234446   1.722   2.345   0.198 -1.6163 -1.5884  0.1750
 7605SOL     OW34447   1.088   2.523  15.688 -0.1053  1.1695  0.6005
 7605SOL    HW134448   1.066   2.576  15.765 -1.9226  1.1056  0.1338
 7605SOL    HW234449   1.103   2.439  15.731  1.0974  1.6611  1.1558
 7606SOL     OW34450   4.498   0.562  17.725 -0.6348  0.3530  0.4798
 7606SOL    HW134451   4.426   0.542   0.046 -0.5911 -1.6363 -0.1292
 7606SOL    HW234452   4.555   0.487  17.739 -0.6122  0.0887 -1.1145
 7607SOL     OW34453   0.387   1.950  12.910 -0.2701 -0.3951  0.3041
 7607SOL    HW134454   0.361   2.040  12.888 -2.2741 -1.3368 -1.2156
 7607SOL    HW234455   0.302   1.925  12.947  0.3649 -0.8995  1.4108
 7608SOL     OW34456   0.069   4.022   7.033 -0.0818 -0.2332  0.5077
 7608SOL    HW134457   0.116   3.940   7.051  1.2196 -0.1315 -2.5672
 7608SOL    HW234458   0.020   4.035   7.115  2.9666 -1.0647  2.4693
 7609SOL     OW34459   0.238   0.695   7.573  0.3578  0.0332 -0.2097
 7609SOL    HW134460   0.147   0.687   7.603  0.3132  4.3012  0.7556
 7609SOL    HW234461   0.249   0.631   7.503 -0.2757  1.1872 -1.3611
 7610SOL     OW34462   0.424   4.215  15.156 -0.2445 -0.0135  0.4422
 7610SOL    HW134463   0.486   4.235  15.085  0.0992 -1.4568  0.3393
 7610SOL    HW234464   0.447   4.288  15.214 -0.8269  1.2896 -0.9396
 7611SOL     OW34465   4.259   3.319   5.764  0.2340  0.0349  0.4043
 7611SOL    HW134466   4.236   3.234   5.726  3.0245  1.0329 -3.5334
 7611SOL    HW234467   4.178   3.368   5.751 -0.7665 -1.4782  0.8948
 7612SOL     OW34468   4.009   0.437   3.608  0.0765 -0.3133 -0.0550
 7612SOL    HW134469   4.012   0.363   3.547 -0.2141  0.9286 -1.5597
 7612SOL    HW234470   3.915   0.455   3.612 -0.0244 -0.5473 -1.5009
 7613SOL     OW34471   0.914   0.552   5.277  0.6917 -0.3585  0.0905
 7613SOL    HW134472   0.935   0.459   5.278 -0.6951 -0.6562  2.4391
 7613SOL    HW234473   0.899   0.557   5.182  1.9226  3.4288  0.0869
 7614SOL     OW34474   3.434   2.142   4.658 -0.6383  0.3767  0.0690
 7614SOL    HW134475   3.522   2.163   4.689 -0.9866  0.5461  0.9797
 7614SOL    HW234476   3.461   2.129   4.568  0.1334 -0.9146  0.4990
 7615SOL     OW34477   2.145   3.820   6.989 -0.3712 -0.3480 -0.6709
 7615SOL    HW134478   2.072   3.838   7.049 -0.7381 -0.6126 -1.0367
 7615SOL    HW234479   2.199   3.897   7.003 -0.0115 -1.0907  2.1410
 7616SOL     OW34480   3.892   4.718   0.639  0.3363  0.2185  0.2394
 7616SOL    HW134481   3.941   0.055   0.677 -2.2450  2.6220 -0.9979
 7616SOL    HW234482   3.870   4.660   0.712  2.5018  0.6135  1.1907
 7617SOL     OW34483   0.641   0.244   1.332 -0.5386 -0.8907 -0.5458
 7617SOL    HW134484   0.651   0.154   1.362  0.1193 -0.7030 -0.1842
 7617SOL    HW234485   0.598   0.274   1.412  0.4446  2.3500 -1.2189
 7618SOL     OW34486   4.515   3.682   8.530 -0.6117  0.0678 -0.1657
 7618SOL    HW134487   4.525   3.605   8.586 -1.2826 -0.8855 -1.3447
 7618SOL    HW234488   4.602   3.693   8.492 -0.8987  1.0453 -0.5617
 7619SOL     OW34489   3.625   0.959  10.201  0.7601 -1.0704 -0.0070
 7619SOL    HW134490   3.638   1.021  10.128  1.0272 -1.0604  0.0495
 7619SOL    HW234491   3.599   1.024  10.266  1.3719 -1.3451  0.5064
 7620SOL     OW34492   0.152   1.815  10.647 -0.0810 -0.1635 -0.1507
 7620SOL    HW134493   0.132   1.840  10.738  0.7918 -2.9125  0.8063
 7620SOL    HW234494   0.203   1.890  10.615  1.3839 -1.3512 -0.6282
 7621SOL     OW34495   2.324   4.090  11.297  0.6479  0.2489 -0.4854
 7621SOL    HW134496   2.417   4.113  11.305  0.5736 -0.2905  2.1004
 7621SOL    HW234497   2.288   4.165  11.251 -0.2102 -1.3460 -2.4349
 7622SOL     OW34498   2.581   0.299   4.241 -0.1200  0.5041 -0.1175
 7622SOL    HW134499   2.622   0.213   4.249 -0.3835  0.3707 -0.1730
 7622SOL    HW234500   2.529   0.297   4.321 -0.4675 -1.0288 -0.3799
 7623SOL     OW34501   1.458   1.059   9.971 -0.2472 -0.2706 -0.2334
 7623SOL    HW134502   1.367   1.048  10.000 -1.2998  2.3569 -2.4876
 7623SOL    HW234503   1.504   1.096  10.046 -0.6606 -2.1600  0.9359
 7624SOL     OW34504   2.598   3.944  11.092 -0.0467 -0.5872 -0.4751
 7624SOL    HW134505   2.644   4.020  11.127  0.3254 -0.0689 -2.0995
 7624SOL    HW234506   2.574   3.985  11.009 -0.3703  1.8706  0.8337
 7625SOL     OW34507   1.930   1.358   1.648 -0.3112  0.7257 -0.2163
 7625SOL    HW134508   1.885   1.440   1.631 -0.5793  1.6686  4.8585
 7625SOL    HW234509   2.014   1.397   1.673 -0.8075  1.8507 -0.3055
 7626SOL     OW34510   0.545   3.839   1.783 -0.1989 -0.7455 -0.0409
 7626SOL    HW134511   0.542   3.935   1.794 -0.0068 -0.7699  0.2218
 7626SOL    HW234512   0.604   3.836   1.708 -1.1603  0.3591 -0.8492
 7627SOL     OW34513   3.123   3.767   9.511  0.1146 -0.1687 -0.5777
 7627SOL    HW134514   3.211   3.773   9.473  0.1072 -1.0241 -0.7164
 7627SOL    HW234515   3.072   3.841   9.479  1.3033  0.3808 -1.2179
 7628SOL     OW34516   3.002   4.497   9.617 -0.3396  0.4411  0.6736
 7628SOL    HW134517   2.945   4.570   9.593 -0.6427  0.5714  1.7718
 7628SOL    HW234518   3.081   4.517   9.568  0.6731 -2.1756  1.2403
 7629SOL     OW34519   0.436   1.510  11.565 -0.1585 -0.5483  0.3015
 7629SOL    HW134520   0.405   1.459  11.490 -1.6282 -0.6771  0.9896
 7629SOL    HW234521   0.366   1.487  11.626  0.7011  0.3829  1.6398
 7630SOL     OW34522   4.532   0.719   4.426  0.7357 -0.1393 -0.3300
 7630SOL    HW134523   4.488   0.795   4.464  1.9788  0.4370 -0.0387
 7630SOL    HW234524   4.591   0.703   4.500  0.0561  2.0986  0.6962
 7631SOL     OW34525   1.000   4.238   6.246  0.8305 -0.0706 -0.5716
 7631SOL    HW134526   1.082   4.219   6.201 -0.8973 -0.6226 -3.4392
 7631SOL    HW234527   0.994   4.157   6.299 -1.4145  0.7445  0.4579
 7632SOL     OW34528   4.470   3.060   1.702 -0.5848 -0.0194  0.3987
 7632SOL    HW134529   4.559   3.093   1.691 -0.5499  0.0171  0.8014
 7632SOL    HW234530   4.439   3.128   1.761 -0.3139  0.1156  0.3822
 7633SOL     OW34531   3.785   2.213   6.862  0.2177 -0.4219  0.0403
 7633SOL    HW134532   3.811   2.278   6.926 -2.8512 -1.5073  2.3870
 7633SOL    HW234533   3.689   2.222   6.866  0.4309  1.3534  1.0049
 7634SOL     OW34534   0.105   2.831  10.443 -0.1077 -0.0863  0.0528
 7634SOL    HW134535   0.182   2.882  10.467 -1.8519  1.5036  2.1869
 7634SOL    HW234536   0.050   2.839  10.521  0.0407  1.0274  0.0375
 7635SOL     OW34537   0.499   3.005  14.173 -0.0011 -0.1352  0.1970
 7635SOL    HW134538   0.448   3.017  14.253 -0.2451 -0.1406  0.0425
 7635SOL    HW234539   0.473   3.088  14.132  0.9595  0.0019 -0.1302
 7636SOL     OW34540   2.372   0.483   8.380  0.6776  0.4280  0.0525
 7636SOL    HW134541   2.424   0.432   8.318 -0.7644 -1.1496  0.1484
 7636SOL    HW234542   2.327   0.407   8.416  0.7767  0.2711 -0.1547
 7637SOL     OW34543   2.999   3.493  16.132 -0.5083 -0.5479  0.3711
 7637SOL    HW134544   3.064   3.496  16.203 -0.8590 -1.8352  0.7388
 7637SOL    HW234545   3.050   3.458  16.059  0.5233  0.2647  0.6893
 7638SOL     OW34546   0.429   1.527  10.899 -0.4072  0.2677  0.3413
 7638SOL    HW134547   0.501   1.576  10.939  0.8603 -0.6082 -0.8639
 7638SOL    HW234548   0.487   1.474  10.844 -0.2609  1.9155 -1.0863
 7639SOL     OW34549   4.546   4.431   4.510  0.0031  0.0537 -0.8051
 7639SOL    HW134550   4.455   4.403   4.499 -0.6691  2.1464 -0.4043
 7639SOL    HW234551   4.595   4.350   4.496 -0.0040 -0.6027  2.9942
 7640SOL     OW34552   0.718   4.100   1.520  0.7003  0.1136  0.0314
 7640SOL    HW134553   0.739   4.191   1.498  0.4969  0.5477  1.6541
 7640SOL    HW234554   0.623   4.107   1.526  0.6629  0.2493 -0.6891
 7641SOL     OW34555   1.061   2.192   1.356 -0.0611  0.1188  0.2362
 7641SOL    HW134556   0.976   2.218   1.392 -1.5181 -0.5049 -2.8126
 7641SOL    HW234557   1.048   2.103   1.323 -0.2484 -0.0161  0.6775
 7642SOL     OW34558   3.973   3.019   2.937  0.0593 -0.6875 -0.0459
 7642SOL    HW134559   3.920   3.024   2.858 -0.9344 -0.0555  0.6573
 7642SOL    HW234560   4.061   3.012   2.901  0.6447 -0.8561  1.3988
 7643SOL     OW34561   3.341   0.956   7.548 -0.6755 -0.8113 -0.4874
 7643SOL    HW134562   3.384   0.973   7.631 -2.0697  0.8809 -0.1113
 7643SOL    HW234563   3.255   0.927   7.577 -0.5237  0.6014  1.3444
 7644SOL     OW34564   0.735   3.329   3.685  0.4775 -0.0059 -0.0964
 7644SOL    HW134565   0.719   3.243   3.645  1.9362  1.3784 -3.5888
 7644SOL    HW234566   0.831   3.329   3.692  0.4479  2.2785  0.0880
 7645SOL     OW34567   0.543   2.806  11.142 -0.2141  0.6100  0.6084
 7645SOL    HW134568   0.635   2.786  11.127 -0.8763 -1.1928 -1.0127
 7645SOL    HW234569   0.545   2.893  11.101 -2.6543 -0.1441 -1.1293
 7646SOL     OW34570   2.022   4.101   6.334  0.2321 -0.1931 -0.2436
 7646SOL    HW134571   1.952   4.127   6.394 -0.1158 -0.6751 -0.4433
 7646SOL    HW234572   1.993   4.133   6.248 -2.9921 -2.1869  0.1167
 7647SOL     OW34573   0.271   2.024   7.166 -0.0859 -0.2890  0.5203
 7647SOL    HW134574   0.358   2.060   7.181  0.5101 -1.3883 -0.3745
 7647SOL    HW234575   0.276   1.929   7.162 -0.0746 -0.2111 -1.2396
 7648SOL     OW34576   0.051   4.724   1.574  0.3647  0.0043  0.5127
 7648SOL    HW134577   0.093   0.068   1.539  0.7878 -1.2958 -1.8899
 7648SOL    HW234578   0.025   4.689   1.489 -0.7214  1.8956  0.0580
 7649SOL     OW34579   0.174   1.145   7.811 -0.1491  0.2599  0.4380
 7649SOL    HW134580   0.224   1.202   7.869  1.0388 -1.4514  1.1135
 7649SOL    HW234581   0.125   1.080   7.862 -3.2387  4.0398  2.2415
 7650SOL     OW34582   1.333   2.839  11.516 -0.3643 -0.0070  0.4754
 7650SOL    HW134583   1.354   2.913  11.574  2.2120  0.8294 -1.5539
 7650SOL    HW234584   1.422   2.810  11.497 -0.5754  0.5158 -1.3008
 7651SOL     OW34585   0.875   1.547   3.237 -0.5807  0.7374  0.1002
 7651SOL    HW134586   0.884   1.452   3.230  2.2678  1.0731 -0.8739
 7651SOL    HW234587   0.894   1.561   3.144 -1.0204 -2.0517 -0.4115
 7652SOL     OW34588   4.647   0.788   8.716 -0.1245  0.2412  0.4255
 7652SOL    HW134589   4.567   0.830   8.746  1.0903  2.8622  0.0461
 7652SOL    HW234590   4.696   0.869   8.703  0.5875  0.0671  2.0084
 7653SOL     OW34591   3.242   3.779   5.860 -0.4438  0.2403 -0.1718
 7653SOL    HW134592   3.240   3.759   5.767 -0.2090  2.8320 -0.7432
 7653SOL    HW234593   3.193   3.862   5.861  0.2253  0.6405 -0.6304
 7654SOL     OW34594   3.240   1.781   8.660 -0.4003 -0.3399  0.1910
 7654SOL    HW134595   3.323   1.802   8.703 -0.9273  0.1286  0.9890
 7654SOL    HW234596   3.190   1.859   8.684 -0.8939 -0.3134 -0.9586
 7655SOL     OW34597   4.735   3.951  17.337 -0.5202 -0.0622 -0.1883
 7655SOL    HW134598   4.724   3.937  17.243  0.7991 -0.3722 -0.2929
 7655SOL    HW234599   4.642   3.961  17.358 -0.8701  0.4290 -1.9250
 7656SOL     OW34600   1.546   0.520   3.056 -0.0373 -0.0793  0.0572
 7656SOL    HW134601   1.551   0.454   3.125  0.5343  0.2969  0.3785
 7656SOL    HW234602   1.472   0.572   3.086 -1.3704 -1.1677 -1.3647
 7657SOL     OW34603   0.048   4.368   0.284  0.0571 -0.1532  0.8063
 7657SOL    HW134604   0.126   4.328   0.245 -0.7564 -0.1015 -0.8578
 7657SOL    HW234605   4.721   4.296   0.292 -0.3784  0.1971  0.5470
 7658SOL     OW34606   0.257   3.433   9.199  0.3243 -0.3252  0.1279
 7658SOL    HW134607   0.172   3.389   9.207  0.9442 -1.7138 -0.9318
 7658SOL    HW234608   0.289   3.453   9.287 -2.8002  1.2467  0.9005
 7659SOL     OW34609   0.853   3.669   5.656  0.5070 -0.3332 -0.0755
 7659SOL    HW134610   0.807   3.702   5.579 -2.0157 -2.5619  0.4775
 7659SOL    HW234611   0.790   3.688   5.726  0.8379  1.0847 -0.1608
 7660SOL     OW34612   4.571   1.245  10.835 -0.4788 -0.0503  0.3307
 7660SOL    HW134613   4.536   1.162  10.869  0.0643 -0.7516 -0.8232
 7660SOL    HW234614   4.490   1.280  10.799  0.6001 -0.2180 -2.2860
 7661SOL     OW34615   2.544   3.927   8.501 -0.2460  0.8346  0.4866
 7661SOL    HW134616   2.453   3.937   8.473 -0.1884  0.6321  0.2248
 7661SOL    HW234617   2.549   3.976   8.583  0.4833  0.4511  0.6742
 7662SOL     OW34618   1.244   2.829   9.020 -0.2041  0.2176 -0.2843
 7662SOL    HW134619   1.299   2.902   8.994  0.3870 -1.1078 -2.7509
 7662SOL    HW234620   1.180   2.820   8.949 -0.7328 -1.7834  0.4369
 7663SOL     OW34621   4.083   1.412   4.273  0.1594  0.1600  0.1007
 7663SOL    HW134622   4.126   1.327   4.278 -0.3343 -0.2114 -2.0115
 7663SOL    HW234623   4.061   1.423   4.181  0.3558  0.7039  0.1193
 7664SOL     OW34624   1.226   2.311   8.936 -0.7594 -0.1580  0.4439
 7664SOL    HW134625   1.318   2.282   8.932 -1.0860 -1.3864  1.8351
 7664SOL    HW234626   1.231   2.400   8.902 -0.0638 -0.2633  0.2554
 7665SOL     OW34627   2.925   2.894   5.143  0.1755  0.4084  0.2759
 7665SOL    HW134628   2.927   2.868   5.235 -1.1384  1.2205  0.5343
 7665SOL    HW234629   2.994   2.839   5.106 -2.0463 -2.5582  0.5224
 7666SOL     OW34630   3.911   2.467   8.794  0.2776  0.1101  0.0993
 7666SOL    HW134631   4.000   2.495   8.818  1.1336  0.1729 -3.1464
 7666SOL    HW234632   3.922   2.427   8.708 -2.5773 -1.7862  0.6350
 7667SOL     OW34633   1.575   3.662   7.388 -0.1544  0.2074 -0.0473
 7667SOL    HW134634   1.551   3.743   7.433 -1.3237 -0.6766  0.9316
 7667SOL    HW234635   1.497   3.610   7.410 -0.1491 -0.4348 -1.5234
 7668SOL     OW34636   1.421   3.023   4.390  0.4166 -0.2704  0.0231
 7668SOL    HW134637   1.476   2.949   4.414  1.2404 -0.1682 -1.5632
 7668SOL    HW234638   1.440   3.091   4.454 -1.7666  0.4071 -0.0433
 7669SOL     OW34639   4.104   4.623   6.812 -0.0284  0.0233  0.7902
 7669SOL    HW134640   4.033   4.626   6.748 -0.3597  0.1970  1.1642
 7669SOL    HW234641   4.146   4.705   6.789  0.6167 -0.9326 -1.3860
 7670SOL     OW34642   0.431   1.293   6.715 -0.4009 -0.0842 -0.1293
 7670SOL    HW134643   0.507   1.242   6.685 -1.0547 -0.7759 -0.6104
 7670SOL    HW234644   0.412   1.259   6.803 -2.6655 -1.6015 -1.2248
 7671SOL     OW34645   3.022   0.012   8.819  0.0416  0.4980  0.1588
 7671SOL    HW134646   3.118   0.010   8.820  0.0253 -0.2293  0.3114
 7671SOL    HW234647   2.995   0.019   8.911  2.9680 -3.6691  1.3522
 7672SOL     OW34648   3.931   0.435   2.464 -0.2094  0.2131  0.0265
 7672SOL    HW134649   3.986   0.362   2.437  1.0494  0.8041  0.9498
 7672SOL    HW234650   3.862   0.391   2.513  1.1113  0.3868  2.0970
 7673SOL     OW34651   1.844   0.263   0.142  0.3836 -0.0553 -0.3147
 7673SOL    HW134652   1.820   0.353   0.117  0.0317 -0.2075 -0.5354
 7673SOL    HW234653   1.828   0.221   0.057  1.2010 -0.1276 -0.4334
 7674SOL     OW34654   2.158   3.935   4.358 -0.2007  0.3415  0.3663
 7674SOL    HW134655   2.224   3.868   4.372  0.3170  0.4851 -1.3797
 7674SOL    HW234656   2.165   3.944   4.263  0.3897  0.0082  0.3813
 7675SOL     OW34657   4.549   3.811  12.306  0.0752  0.1202  0.5408
 7675SOL    HW134658   4.590   3.862  12.375 -2.2857  3.0453 -0.1951
 7675SOL    HW234659   4.622   3.799  12.245 -1.0070  0.6604 -0.8860
 7676SOL     OW34660   0.593   1.299   6.165 -0.5168 -0.1614  0.1186
 7676SOL    HW134661   0.664   1.248   6.127  0.4620  1.8267 -0.7245
 7676SOL    HW234662   0.619   1.390   6.152 -0.0471 -0.2131  0.6653
 7677SOL     OW34663   4.268   3.399   2.875  0.3824 -0.3873 -0.3439
 7677SOL    HW134664   4.324   3.471   2.846 -0.9987  0.9801  0.4274
 7677SOL    HW234665   4.324   3.355   2.939 -1.7718  0.2390  1.9634
 7678SOL     OW34666   1.860   3.055   2.635  0.3111  0.0586  1.1765
 7678SOL    HW134667   1.900   2.994   2.697  0.1674  0.0256  1.2369
 7678SOL    HW234668   1.769   3.064   2.663 -0.0232 -1.1346  0.4577
 7679SOL     OW34669   2.814   2.370   3.845  0.3041 -0.0828  0.0747
 7679SOL    HW134670   2.772   2.292   3.881 -0.9640  0.1505 -0.8933
 7679SOL    HW234671   2.733   2.421   3.847  0.7250  0.5672  0.7299
 7680SOL     OW34672   1.731   3.453   3.339  0.0475 -0.2892  0.5940
 7680SOL    HW134673   1.718   3.467   3.245 -1.9680  0.2170  0.9430
 7680SOL    HW234674   1.746   3.359   3.354  0.9625 -0.3135 -0.4391
 7681SOL     OW34675   1.296   0.564   9.451  0.8281 -0.0360  0.5313
 7681SOL    HW134676   1.231   0.600   9.391  1.7490 -0.5117 -0.7561
 7681SOL    HW234677   1.240   0.507   9.503 -0.1673  2.1868  1.8919
 7682SOL     OW34678   0.729   3.671  14.161 -0.1564  0.1363  0.2706
 7682SOL    HW134679   0.681   3.598  14.201 -0.0246  1.2759  2.4978
 7682SOL    HW234680   0.686   3.682  14.076 -0.8511  2.7372  0.9416
 7683SOL     OW34681   2.732   1.341   0.429  0.3910  0.1626  0.4154
 7683SOL    HW134682   2.811   1.380   0.466  1.3270  0.2752 -1.7261
 7683SOL    HW234683   2.663   1.402   0.456 -0.5674 -1.1405  0.9341
 7684SOL     OW34684   2.333   4.302   2.701 -0.4459 -0.2217  0.2069
 7684SOL    HW134685   2.378   4.270   2.780  0.5699 -1.0429 -0.7001
 7684SOL    HW234686   2.247   4.317   2.738  0.1096 -1.2809  1.9398
 7685SOL     OW34687   4.700   2.358   5.100  0.1856 -0.3321  0.0911
 7685SOL    HW134688   4.707   2.333   5.192  0.6214  0.6178  0.3241
 7685SOL    HW234689   4.613   2.318   5.097 -0.5369  1.1350  1.1824
 7686SOL     OW34690   1.597   4.600  10.717  0.3194 -0.4010  0.8723
 7686SOL    HW134691   1.625   4.518  10.759 -0.5224 -0.2019  1.8273
 7686SOL    HW234692   1.505   4.612  10.742  0.0072 -0.0416 -0.4986
 7687SOL     OW34693   1.050   3.720   3.185 -0.6470 -0.2519  0.5711
 7687SOL    HW134694   1.004   3.666   3.120 -2.1412  2.1578 -0.3737
 7687SOL    HW234695   1.108   3.660   3.232  0.8126  1.6412  1.1619
 7688SOL     OW34696   1.300   3.957  14.914  0.3613  0.5440 -0.0398
 7688SOL    HW134697   1.209   3.956  14.886  0.4938  0.0380 -0.4404
 7688SOL    HW234698   1.287   4.003  14.997 -0.6546  2.6054 -1.3320
 7689SOL     OW34699   0.638   2.254  10.636  0.5344 -0.1070 -0.1604
 7689SOL    HW134700   0.617   2.281  10.726  0.4890  0.7452 -0.4266
 7689SOL    HW234701   0.557   2.281  10.593  0.3696  2.0210  1.5319
 7690SOL     OW34702   3.198   0.721   6.787 -0.2948  0.3730  0.0638
 7690SOL    HW134703   3.237   0.668   6.857 -0.7214  0.9354  0.7281
 7690SOL    HW234704   3.233   0.806   6.814  0.5604 -0.3235  1.1233
 7691SOL     OW34705   0.991   1.183  12.891  0.1292 -0.0596  0.0202
 7691SOL    HW134706   0.960   1.120  12.957 -1.5399  1.1386  0.3721
 7691SOL    HW234707   1.087   1.181  12.896  0.0592 -1.4613  0.9756
 7692SOL     OW34708   3.090   1.107   8.304 -0.0178  0.2817  0.1685
 7692SOL    HW134709   3.033   1.068   8.238 -1.9128  0.3889  1.7278
 7692SOL    HW234710   3.120   1.189   8.265  1.0487  0.4076  1.2439
 7693SOL     OW34711   2.421   2.847   2.845  0.0594 -0.0804  0.2979
 7693SOL    HW134712   2.412   2.777   2.780  1.7649  0.7732 -0.8594
 7693SOL    HW234713   2.330   2.844   2.874  0.1238 -1.1102  0.3851
 7694SOL     OW34714   0.058   2.363   3.254 -0.3119 -0.1426 -0.2350
 7694SOL    HW134715   0.058   2.433   3.319  2.0524 -1.7430  1.4690
 7694SOL    HW234716   4.717   2.312   3.280 -0.4058 -1.1741 -2.5847
 7695SOL     OW34717   0.754   2.405   7.619 -0.2259  0.2384  1.2249
 7695SOL    HW134718   0.845   2.434   7.629  0.8898 -2.5923 -0.6492
 7695SOL    HW234719   0.743   2.334   7.682  2.1087 -2.5096 -1.4514
 7696SOL     OW34720   0.746   2.240   3.711  0.7960 -0.1274 -0.5295
 7696SOL    HW134721   0.757   2.197   3.626  3.6997 -0.3731 -0.0355
 7696SOL    HW234722   0.809   2.186   3.759  1.5997  2.5184  1.3919
 7697SOL     OW34723   1.269   3.282  10.885 -0.0901  0.0708  0.3432
 7697SOL    HW134724   1.361   3.302  10.900  0.0823 -0.8278  0.4711
 7697SOL    HW234725   1.247   3.235  10.966 -1.1517 -0.8480 -0.4723
 7698SOL     OW34726   2.532   1.424  14.939 -0.5056  0.3450  0.5377
 7698SOL    HW134727   2.488   1.481  14.877  1.8096  0.1179 -1.3397
 7698SOL    HW234728   2.515   1.467  15.023 -1.7905 -1.9706  1.4577
 7699SOL     OW34729   2.158   4.572  16.867  0.1851  0.0093 -0.1366
 7699SOL    HW134730   2.164   4.607  16.778  0.1963 -0.5259 -0.3495
 7699SOL    HW234731   2.073   4.613  16.883  0.9593  1.7050 -0.3349
 7700SOL     OW34732   1.710   3.654   6.653  0.0833 -0.0867 -0.4560
 7700SOL    HW134733   1.765   3.581   6.625  2.6935  1.0584  1.7363
 7700SOL    HW234734   1.777   3.710   6.692 -0.3560  0.4309 -0.4447
 7701SOL     OW34735   4.551   3.650   6.100 -0.8591  0.1463 -0.6419
 7701SOL    HW134736   4.634   3.620   6.064 -0.1529 -1.1864  2.1419
 7701SOL    HW234737   4.483   3.608   6.048 -1.2009 -1.3184  1.0207
 7702SOL     OW34738   4.551   1.068   9.021 -0.2764  0.4907  0.4344
 7702SOL    HW134739   4.619   1.133   9.005 -0.9799  1.3771  1.0142
 7702SOL    HW234740   4.472   1.121   9.012 -0.5027 -0.1578 -1.4762
 7703SOL     OW34741   2.531   3.031   2.696  0.5640 -0.5933 -0.0603
 7703SOL    HW134742   2.552   3.101   2.758  0.9273 -0.4148 -0.3827
 7703SOL    HW234743   2.513   2.963   2.761  0.3117 -1.5532 -1.1357
 7704SOL     OW34744   2.809   1.105   4.968  0.7948  0.1279  0.2309
 7704SOL    HW134745   2.853   1.085   4.886  0.4004  0.0127  0.0480
 7704SOL    HW234746   2.810   1.018   5.009  2.9916 -0.9314 -2.0847
 7705SOL     OW34747   3.172   2.731   9.633  0.4483 -0.2413 -0.0774
 7705SOL    HW134748   3.250   2.694   9.591 -1.0092 -1.7021 -1.5075
 7705SOL    HW234749   3.103   2.665   9.627 -2.5108  2.9551 -0.5919
 7706SOL     OW34750   4.699   0.964   7.207  0.1107  0.0137 -0.6695
 7706SOL    HW134751   0.047   1.011   7.204 -1.2782  2.5600  0.2698
 7706SOL    HW234752   4.699   0.930   7.296 -0.3767  0.2246 -0.5878
 7707SOL     OW34753   1.031   1.139   3.650  0.3354 -0.4318 -0.1772
 7707SOL    HW134754   1.065   1.131   3.560  0.8013 -0.9744  0.0476
 7707SOL    HW234755   1.046   1.233   3.658 -0.6367 -0.2795 -0.1492
 7708SOL     OW34756   0.854   2.143   0.997  0.2467 -0.3847  0.2113
 7708SOL    HW134757   0.866   2.237   0.982 -1.1050 -0.1540  0.5397
 7708SOL    HW234758   0.760   2.123   0.991  0.3192 -1.0060  1.1795
 7709SOL     OW34759   0.918   0.546   3.586 -0.2081  0.0696  0.0248
 7709SOL    HW134760   0.954   0.590   3.509 -2.3881 -1.2196 -1.7579
 7709SOL    HW234761   0.979   0.576   3.653 -0.7789  0.9988  0.1255
 7710SOL     OW34762   4.351   2.582   4.875 -0.4881  0.2286  0.5447
 7710SOL    HW134763   4.403   2.591   4.795  1.3345  2.2486  1.9736
 7710SOL    HW234764   4.378   2.492   4.895  2.5445  0.3561 -2.8571
 7711SOL     OW34765   3.737   4.575   2.180  0.0067 -0.4802  0.3046
 7711SOL    HW134766   3.816   4.543   2.223  0.1966 -1.4312 -0.7764
 7711SOL    HW234767   3.665   4.524   2.218 -0.9114  0.4531 -0.2073
 7712SOL     OW34768   0.105   3.303   5.337 -0.4852 -0.0052 -0.1406
 7712SOL    HW134769   0.095   3.267   5.425  1.3853 -0.8178 -0.2599
 7712SOL    HW234770   0.192   3.267   5.317 -1.5249 -2.9655  0.7427
 7713SOL     OW34771   3.976   4.100  11.065  0.1007 -0.3088 -0.3613
 7713SOL    HW134772   4.072   4.094  11.058  0.0872 -0.0124 -0.8155
 7713SOL    HW234773   3.976   4.194  11.047  0.8425 -0.4384 -1.0178
 7714SOL     OW34774   3.167   2.160  10.933 -0.9554  0.6185  0.5182
 7714SOL    HW134775   3.095   2.223  10.924 -1.8991 -0.4176  0.7113
 7714SOL    HW234776   3.212   2.182  10.852 -0.3408 -1.0655  0.3962
 7715SOL     OW34777   3.167   1.874  13.627 -0.2050  0.4222  0.3620
 7715SOL    HW134778   3.205   1.945  13.679 -1.1364 -0.0072  1.6240
 7715SOL    HW234779   3.238   1.810  13.637 -0.1256  0.3982 -0.3381
 7716SOL     OW34780   2.895   3.963   8.713 -0.0980  0.6507 -0.4301
 7716SOL    HW134781   2.816   4.017   8.713 -1.0832 -0.7795 -1.7749
 7716SOL    HW234782   2.953   3.998   8.645 -0.8624  0.5960 -1.1112
 7717SOL     OW34783   2.014   3.059   7.037 -0.4095  0.7663 -0.0415
 7717SOL    HW134784   1.928   3.102   7.035 -0.9052 -0.2014  0.4351
 7717SOL    HW234785   2.007   3.004   7.115 -0.1746 -0.2206 -0.7141
 7718SOL     OW34786   4.327   0.578   6.929  0.0361 -0.2816  0.2202
 7718SOL    HW134787   4.319   0.663   6.886  0.9996 -2.0804 -3.5138
 7718SOL    HW234788   4.423   0.575   6.922  0.0369  0.1903  0.0522
 7719SOL     OW34789   3.156   0.517   0.060 -0.1841 -0.8420 -0.3626
 7719SOL    HW134790   3.231   0.480   0.105 -0.7226 -1.6345 -0.1218
 7719SOL    HW234791   3.082   0.488   0.114 -1.4187  3.2382  0.1240
 7720SOL     OW34792   2.448   1.880   1.617 -0.2936 -0.0459  0.0386
 7720SOL    HW134793   2.489   1.798   1.590  1.7782  0.1394  2.6586
 7720SOL    HW234794   2.451   1.865   1.711  1.6794  0.4847  0.0688
 7721SOL     OW34795   1.664   1.492   1.901 -0.4273 -0.0039  0.6336
 7721SOL    HW134796   1.644   1.580   1.868 -2.7496 -0.1270  1.6773
 7721SOL    HW234797   1.599   1.441   1.853 -1.1298  0.3700  1.1896
 7722SOL     OW34798   0.651   0.289   5.697  0.0053  0.6179  0.4425
 7722SOL    HW134799   0.743   0.297   5.672  0.1762 -0.8852  0.6447
 7722SOL    HW234800   0.647   0.194   5.697 -0.0342  0.6226  0.0959
 7723SOL     OW34801   0.885   1.243  11.232  0.5925 -0.5469 -0.5181
 7723SOL    HW134802   0.820   1.200  11.177 -0.3913  0.5939 -0.2364
 7723SOL    HW234803   0.897   1.329  11.192  2.1020 -0.0818  0.9344
 7724SOL     OW34804   2.448   3.907   2.254 -0.1233 -0.0719 -0.0099
 7724SOL    HW134805   2.454   3.937   2.164 -0.2511 -0.1206 -0.0344
 7724SOL    HW234806   2.425   3.986   2.304 -2.5062  0.0780 -1.3543
 7725SOL     OW34807   3.906   4.065   2.397 -0.0884  0.5782 -0.5872
 7725SOL    HW134808   3.945   4.115   2.469  2.6265 -0.0594 -1.6066
 7725SOL    HW234809   3.868   3.992   2.445 -1.2562  1.0120 -0.8521
 7726SOL     OW34810   0.278   0.448   7.472 -0.1428  0.0894 -0.0172
 7726SOL    HW134811   0.364   0.421   7.439 -0.2595  0.6129 -0.7658
 7726SOL    HW234812   0.278   0.404   7.557  1.0635  1.3144  0.6275
 7727SOL     OW34813   4.550   3.307   6.247 -0.3068 -0.4820  0.3103
 7727SOL    HW134814   4.511   3.252   6.180 -0.6022 -0.2225  0.2652
 7727SOL    HW234815   4.624   3.255   6.279  1.0927  3.2279  3.1291
 7728SOL     OW34816   1.329   0.941   7.177  0.2036  0.0292 -0.4295
 7728SOL    HW134817   1.238   0.910   7.181  0.0087  0.3014 -2.5355
 7728SOL    HW234818   1.323   1.019   7.122 -2.1955  0.3114  0.2334
 7729SOL     OW34819   1.826   1.934   0.969 -0.1245 -0.2771 -0.3038
 7729SOL    HW134820   1.903   1.903   0.920 -0.8863  1.0101 -2.3199
 7729SOL    HW234821   1.859   1.968   1.052 -2.5974  1.8624 -0.1981
 7730SOL     OW34822   2.334   3.489   4.353 -0.2045  0.0071  0.2907
 7730SOL    HW134823   2.257   3.545   4.361 -0.2904 -0.2069  0.9677
 7730SOL    HW234824   2.386   3.539   4.415  1.3557  1.1855 -1.9524
 7731SOL     OW34825   0.145   0.250   0.236  0.3376 -0.4790  0.6235
 7731SOL    HW134826   0.091   0.315   0.191  0.1677 -0.0857  1.3946
 7731SOL    HW234827   0.084   0.176   0.227 -0.2871 -0.1999  2.5424
 7732SOL     OW34828   3.326   2.773   6.016  0.3893  0.5757 -0.0804
 7732SOL    HW134829   3.369   2.858   6.020  2.0436 -0.2024 -1.3550
 7732SOL    HW234830   3.400   2.712   6.026 -2.0767 -1.9898  2.7714
 7733SOL     OW34831   4.655   1.409   3.301  0.4270 -0.2190 -0.1400
 7733SOL    HW134832   4.708   1.330   3.313 -0.8782 -1.1967 -0.8752
 7733SOL    HW234833   4.675   1.455   3.383  0.6906 -2.9518  1.3296
 7734SOL     OW34834   0.423   3.890   8.911 -0.3041 -0.7209 -0.8006
 7734SOL    HW134835   0.479   3.821   8.876  2.3836  0.1670  1.8563
 7734SOL    HW234836   0.366   3.847   8.975  1.4506 -1.2562  0.3745
 7735SOL     OW34837   3.055   0.787  15.996  0.6418 -0.2137  0.6228
 7735SOL    HW134838   3.049   0.693  15.979  0.2777  0.2546 -1.7505
 7735SOL    HW234839   3.096   0.819  15.915  0.0146 -1.9833 -0.3889
 7736SOL     OW34840   4.172   2.427   1.778  0.0259 -0.0345 -0.2904
 7736SOL    HW134841   4.114   2.452   1.706  0.4366 -1.6150 -1.1716
 7736SOL    HW234842   4.132   2.346   1.809 -0.1652 -0.1119 -0.7351
 7737SOL     OW34843   1.321   1.281   4.475 -0.7968 -0.0131 -0.1176
 7737SOL    HW134844   1.413   1.296   4.453 -0.2886 -2.9881 -0.0078
 7737SOL    HW234845   1.334   1.197   4.520  0.5817  1.5754  2.4305
 7738SOL     OW34846   1.262   4.153  15.127 -0.0083  0.5212 -0.4791
 7738SOL    HW134847   1.247   4.144  15.221 -0.9730  0.1577 -0.6631
 7738SOL    HW234848   1.351   4.186  15.123 -0.3649  1.6215  0.6673
 7739SOL     OW34849   0.375   1.671   7.185 -0.2073 -0.3337 -0.3127
 7739SOL    HW134850   0.419   1.643   7.265 -2.6345 -0.4809  0.9983
 7739SOL    HW234851   0.442   1.681   7.117 -0.7905 -0.0593 -0.8494
 7740SOL     OW34852   3.193   2.460   7.947  0.2522  0.1658  0.0040
 7740SOL    HW134853   3.208   2.386   8.006 -0.9720 -0.4864 -0.5153
 7740SOL    HW234854   3.283   2.477   7.916  0.5116 -0.1849  0.5625
 7741SOL     OW34855   2.636   2.193  11.924  0.1133 -0.0377  0.5838
 7741SOL    HW134856   2.643   2.136  12.001  2.6286 -0.0160  0.3631
 7741SOL    HW234857   2.546   2.224  11.927 -0.3439 -1.2499 -0.4368
 7742SOL     OW34858   0.766   2.503   3.420  0.0120  0.1551 -0.4288
 7742SOL    HW134859   0.812   2.431   3.379 -0.6450 -1.1241  1.0899
 7742SOL    HW234860   0.737   2.547   3.339 -2.0085  1.3953  0.9556
 7743SOL     OW34861   3.415   2.838  10.409 -0.2978 -0.3021  0.3556
 7743SOL    HW134862   3.431   2.744  10.411 -4.4520 -1.0085  1.5916
 7743SOL    HW234863   3.339   2.831  10.351 -0.2665  1.7157  0.0789
 7744SOL     OW34864   2.245   0.291   8.485 -0.2806 -0.3303  0.0778
 7744SOL    HW134865   2.278   0.203   8.503  0.4349  0.1964  1.4136
 7744SOL    HW234866   2.157   0.278   8.519  0.1609 -0.9847  0.9888
 7745SOL     OW34867   0.634   1.861   4.028 -0.5443 -0.2021  0.5104
 7745SOL    HW134868   0.710   1.901   3.986 -2.0691  1.5928 -0.5321
 7745SOL    HW234869   0.616   1.924   4.098 -1.1336  0.5722 -0.3344
 7746SOL     OW34870   3.273   4.440   5.458  0.1084 -0.2716 -0.6023
 7746SOL    HW134871   3.200   4.493   5.427 -3.1088 -2.4318  3.3373
 7746SOL    HW234872   3.273   4.376   5.387  1.2756  0.0253 -0.8712
 7747SOL     OW34873   3.335   0.384   7.132 -0.4136 -0.2590 -0.4523
 7747SOL    HW134874   3.286   0.446   7.185  0.5362 -1.8449  2.3005
 7747SOL    HW234875   3.345   0.313   7.196 -0.8729  0.3423  0.2829
 7748SOL     OW34876   3.643   2.649  13.392 -0.0412  0.0312 -0.4557
 7748SOL    HW134877   3.584   2.582  13.357 -0.4847  1.1021 -1.7637
 7748SOL    HW234878   3.703   2.637  13.318 -1.7267 -1.1647 -1.6227
 7749SOL     OW34879   4.542   3.418   3.660  0.0455  0.1929 -0.2569
 7749SOL    HW134880   4.510   3.505   3.683 -1.0729 -0.4500  0.6041
 7749SOL    HW234881   4.620   3.418   3.715 -0.4234  0.0929  0.4103
 7750SOL     OW34882   3.544   2.292   2.981 -0.5332 -0.0599  0.5486
 7750SOL    HW134883   3.635   2.307   3.008 -0.1709  1.7555 -1.6779
 7750SOL    HW234884   3.512   2.382   2.975  0.9165  0.3103 -1.7446
 7751SOL     OW34885   0.734   2.425   5.275  0.1882  0.6351  0.2573
 7751SOL    HW134886   0.700   2.377   5.200  0.0026  1.0694  0.0683
 7751SOL    HW234887   0.669   2.494   5.278  0.2986  0.7306  0.5174
 7752SOL     OW34888   1.264   2.449   2.121 -0.4230  0.2058  0.4523
 7752SOL    HW134889   1.238   2.368   2.166  1.0103 -0.6104 -0.1760
 7752SOL    HW234890   1.309   2.500   2.188  1.0291 -0.2532 -0.1661
 7753SOL     OW34891   2.602   3.256   4.488  0.1801  0.3428 -0.5370
 7753SOL    HW134892   2.573   3.331   4.540  0.6090  0.7412 -0.8605
 7753SOL    HW234893   2.532   3.191   4.493  1.4405 -1.0857 -1.4740
 7754SOL     OW34894   3.766   4.598  10.213  0.3239 -0.1138  0.7833
 7754SOL    HW134895   3.857   4.577  10.190 -0.1882 -0.4055 -1.0031
 7754SOL    HW234896   3.742   4.532  10.278  0.6950  0.0733  1.1157
 7755SOL     OW34897   2.749   2.730   8.452  0.4353  0.1503  0.4177
 7755SOL    HW134898   2.793   2.746   8.535 -0.6931  1.7938  0.7083
 7755SOL    HW234899   2.763   2.816   8.412 -3.4309 -0.0476 -1.3617
 7756SOL     OW34900   1.645   0.349   4.600  0.5355 -0.2796  0.4370
 7756SOL    HW134901   1.554   0.320   4.610  0.3925  0.0104 -0.0443
 7756SOL    HW234902   1.654   0.350   4.505  1.0965 -1.0282  0.4817
 7757SOL     OW34903   3.083   2.932   7.164  0.1275 -0.3071  0.5409
 7757SOL    HW134904   3.118   3.021   7.156 -3.2669  0.7266 -2.7917
 7757SOL    HW234905   3.008   2.937   7.104  0.9783  0.2953 -0.4634
 7758SOL     OW34906   1.747   1.403  12.869 -0.2974 -0.0030  0.4888
 7758SOL    HW134907   1.756   1.497  12.853 -0.0999  0.4861  3.4596
 7758SOL    HW234908   1.771   1.394  12.961 -0.1782 -2.2341  0.2629
 7759SOL     OW34909   1.766   4.630  12.800 -0.3463 -0.2859 -0.1129
 7759SOL    HW134910   1.696   4.569  12.775  1.0456 -2.5578  1.5963
 7759SOL    HW234911   1.737   4.660  12.886 -0.6928  0.1841 -0.3968
 7760SOL     OW34912   4.689   1.558   0.240  0.0783 -0.0038 -0.0898
 7760SOL    HW134913   4.631   1.552   0.164 -0.4788 -1.5661  0.4518
 7760SOL    HW234914   4.689   1.652   0.255  0.5876 -0.0985  0.5097
 7761SOL     OW34915   0.497   3.372   9.092 -0.1477 -0.1676 -0.1240
 7761SOL    HW134916   0.403   3.386   9.105 -0.0711  0.3918 -0.1667
 7761SOL    HW234917   0.499   3.299   9.154  1.3605  0.8065  0.9714
 7762SOL     OW34918   0.002   4.485   9.747  0.3782 -0.0108  1.0133
 7762SOL    HW134919   0.044   4.570   9.754 -1.0128  0.7211  0.5079
 7762SOL    HW234920   0.069   4.429   9.708  0.7558  1.3663 -0.2779
 7763SOL     OW34921   2.933   1.546   1.004  0.6912 -0.9734 -0.3027
 7763SOL    HW134922   2.963   1.475   1.059 -1.1046 -0.8395  0.8565
 7763SOL    HW234923   2.933   1.505   0.917  1.0814  0.4949 -1.0089
 7764SOL     OW34924   0.311   1.427   4.688 -0.2768  0.0244  0.5476
 7764SOL    HW134925   0.371   1.365   4.645  1.2624  1.4877  0.5792
 7764SOL    HW234926   0.228   1.380   4.685 -0.5016  0.5070 -0.8406
 7765SOL     OW34927   0.886   0.074  16.589 -0.1124  0.1701  0.7428
 7765SOL    HW134928   0.934   4.727  16.600  0.6428  0.4770 -0.2424
 7765SOL    HW234929   0.792   0.057  16.597  0.0643 -1.4197 -0.6513
 7766SOL     OW34930   3.252   0.666   1.143 -0.1404  0.3034 -0.2984
 7766SOL    HW134931   3.330   0.721   1.148  0.3775 -0.0683 -4.1637
 7766SOL    HW234932   3.213   0.698   1.061  1.0816  2.1198 -0.1633
 7767SOL     OW34933   0.688   3.935   8.387 -0.6806 -0.4613  0.1490
 7767SOL    HW134934   0.618   3.960   8.447  0.0933  1.7311  0.1208
 7767SOL    HW234935   0.674   4.000   8.318  0.4233 -2.3599 -1.8980
 7768SOL     OW34936   2.815   1.043  13.412 -0.0040 -0.4057  0.6391
 7768SOL    HW134937   2.834   0.989  13.336 -0.9852  0.1931 -0.0343
 7768SOL    HW234938   2.804   1.126  13.366  0.8201  0.2268  1.5848
 7769SOL     OW34939   4.282   0.412   3.394 -0.5399  0.3406 -0.3457
 7769SOL    HW134940   4.282   0.452   3.306  2.2678 -2.3930 -1.5646
 7769SOL    HW234941   4.281   0.480   3.460  1.4969 -0.4565  0.4746
 7770SOL     OW34942   3.976   2.421   2.892 -0.5399  0.3394  0.3847
 7770SOL    HW134943   3.944   2.499   2.848  2.1532  0.5459 -1.1883
 7770SOL    HW234944   4.030   2.367   2.834  1.2437  1.5317  0.9216
 7771SOL     OW34945   4.172   2.022  17.535 -0.9782  0.2752 -0.1629
 7771SOL    HW134946   4.138   1.983  17.454 -0.1427  0.2467 -0.4936
 7771SOL    HW234947   4.262   1.990  17.539 -0.6223  1.1156 -1.2521
 7772SOL     OW34948   4.279   2.466  11.796 -0.4433  0.2228 -0.3059
 7772SOL    HW134949   4.290   2.507  11.710  0.3793  1.8489  0.5681
 7772SOL    HW234950   4.221   2.391  11.791 -0.1566  0.1357 -2.1287
 7773SOL     OW34951   2.115   3.787   8.296  0.1169 -0.1958 -0.1393
 7773SOL    HW134952   2.118   3.792   8.200 -0.9429 -0.5420 -0.1830
 7773SOL    HW234953   2.152   3.703   8.321  0.2763  0.6903  2.5661
 7774SOL     OW34954   2.938   0.283   3.042  0.3342 -0.2304 -0.2310
 7774SOL    HW134955   2.998   0.209   3.052  0.1223 -0.4385 -0.4861
 7774SOL    HW234956   2.943   0.308   2.950 -1.0777  1.6266  0.1974
 7775SOL     OW34957   1.559   2.845  10.693 -0.1958 -0.5307  0.0891
 7775SOL    HW134958   1.494   2.788  10.733 -0.1324 -0.3042  0.5114
 7775SOL    HW234959   1.542   2.835  10.599  0.3743 -1.1470  0.0464
 7776SOL     OW34960   0.223   0.173   7.193 -0.5310 -0.2172 -0.3081
 7776SOL    HW134961   0.299   0.116   7.194  1.0358  1.8786  1.3180
 7776SOL    HW234962   0.170   0.102   7.228 -1.1523  0.0056 -0.7703
 7777SOL     OW34963   2.721   3.600   7.459 -0.6095 -0.0417 -0.0735
 7777SOL    HW134964   2.772   3.671   7.498 -0.1236  1.1363 -2.7943
 7777SOL    HW234965   2.679   3.567   7.538 -1.8587  1.8211  0.0443
 7778SOL     OW34966   3.956   0.834   7.660  0.3431  0.9031  0.0204
 7778SOL    HW134967   4.026   0.809   7.601  0.3144 -0.1182  0.4082
 7778SOL    HW234968   3.990   0.892   7.727  1.3909 -1.5114  1.5877
 7779SOL     OW34969   3.034   2.229  14.470  0.0593 -0.5211 -0.2753
 7779SOL    HW134970   3.090   2.235  14.393 -1.2748 -0.6115 -1.2445
 7779SOL    HW234971   3.082   2.156  14.509 -1.5457 -1.8796 -0.8597
 7780SOL     OW34972   4.103   3.963   7.916 -0.0955  0.8858  0.3965
 7780SOL    HW134973   4.060   3.912   7.984  0.7840 -0.0509  0.2609
 7780SOL    HW234974   4.192   3.929   7.901 -0.3079  0.0738  0.9793
 7781SOL     OW34975   4.646   1.529   4.602  0.0827 -0.0870 -0.0025
 7781SOL    HW134976   4.574   1.578   4.565 -0.3512 -1.4753 -1.0082
 7781SOL    HW234977   4.667   1.577   4.682  1.4237 -0.4451 -0.1231
 7782SOL     OW34978   1.498   0.811   5.043  0.6596 -0.1106  0.2536
 7782SOL    HW134979   1.495   0.890   5.097 -1.0631  0.5534 -0.8241
 7782SOL    HW234980   1.564   0.828   4.977 -1.1938 -3.3184 -2.3952
 7783SOL     OW34981   2.395   1.665  15.149 -0.0346 -0.4225  0.1233
 7783SOL    HW134982   2.431   1.746  15.114 -0.6680 -0.5756 -0.9084
 7783SOL    HW234983   2.471   1.625  15.191 -0.8518 -1.3498  0.7153
 7784SOL     OW34984   0.024   0.976   6.565 -0.3095  0.0875 -0.5272
 7784SOL    HW134985   4.730   1.062   6.536 -0.5756  0.1215 -0.1592
 7784SOL    HW234986   0.094   1.011   6.620  0.0214  3.2511 -2.9583
 7785SOL     OW34987   3.218   3.856   8.807 -0.1739 -0.0358 -0.5032
 7785SOL    HW134988   3.241   3.940   8.766 -0.1662 -0.8434 -2.1207
 7785SOL    HW234989   3.135   3.881   8.849  1.9011  0.8805  3.1128
 7786SOL     OW34990   2.959   1.700   9.215  0.8061  0.2603 -0.2932
 7786SOL    HW134991   2.926   1.698   9.304 -0.4621  1.3038 -0.7446
 7786SOL    HW234992   2.940   1.787   9.181  0.2322 -0.2573 -1.2959
 7787SOL     OW34993   4.157   3.327   6.277  0.5078 -0.3126 -0.3958
 7787SOL    HW134994   4.182   3.337   6.185 -0.5342  0.2052 -0.6235
 7787SOL    HW234995   4.236   3.353   6.324  0.2324 -0.9267  0.4157
 7788SOL     OW34996   4.607   3.563  16.534 -0.1631 -0.5849 -0.5141
 7788SOL    HW134997   4.591   3.509  16.457 -0.2403  1.6819 -2.0774
 7788SOL    HW234998   4.531   3.620  16.538  0.5818  0.3314  0.4394
 7789SOL     OW34999   0.784   4.123   3.247 -0.1340  0.1901  0.7218
 7789SOL    HW135000   0.807   4.155   3.160  0.0026 -1.0518  0.3023
 7789SOL    HW235001   0.781   4.029   3.231  1.1483  0.4299 -0.8809
 7790SOL     OW35002   0.843   4.124   7.949 -0.3464 -0.1139  0.3193
 7790SOL    HW135003   0.865   4.033   7.927 -1.4787 -0.6847  1.5674
 7790SOL    HW235004   0.853   4.174   7.869  1.7337 -1.9138 -0.5660
 7791SOL     OW35005   0.835   2.511   4.194 -0.5952  0.0526  0.3404
 7791SOL    HW135006   0.804   2.481   4.108  0.9139  0.8506 -0.4979
 7791SOL    HW235007   0.893   2.443   4.229 -0.2810 -0.7183 -1.6683
 7792SOL     OW35008   3.468   3.276  10.214 -0.5602 -0.4418  0.2187
 7792SOL    HW135009   3.496   3.362  10.246  3.0214 -0.4349 -2.9095
 7792SOL    HW235010   3.420   3.231  10.284 -0.2186 -2.1435 -0.6254
 7793SOL     OW35011   2.794   0.519  12.977 -0.7625  0.0732 -0.4632
 7793SOL    HW135012   2.836   0.604  12.965  0.3819 -0.4574 -0.2370
 7793SOL    HW235013   2.871   0.469  12.947 -0.2572  0.6088 -0.0455
 7794SOL     OW35014   2.754   0.728   4.123 -0.4950 -0.1867  0.4878
 7794SOL    HW135015   2.698   0.653   4.107  0.8839 -1.3833  1.3240
 7794SOL    HW235016   2.720   0.797   4.065  2.2895  1.0311  0.3026
 7795SOL     OW35017   0.369   2.657  11.013 -0.3310 -0.3151  0.1605
 7795SOL    HW135018   0.344   2.702  10.933  1.1783  1.8384  0.8970
 7795SOL    HW235019   0.441   2.712  11.043  0.2932 -1.3673  0.6295
 7796SOL     OW35020   3.736   3.608   8.892  0.3470 -0.2599 -0.5471
 7796SOL    HW135021   3.776   3.695   8.887  2.3054 -1.0759  0.6407
 7796SOL    HW235022   3.766   3.572   8.976  0.3618 -0.1679 -0.5124
 7797SOL     OW35023   2.533   2.669   4.273 -0.0248  0.0599  0.1392
 7797SOL    HW135024   2.596   2.691   4.204  0.0333  1.6518  0.7007
 7797SOL    HW235025   2.558   2.580   4.298  0.9995  0.4199  0.3745
 7798SOL     OW35026   3.956   0.459   2.820 -0.5022 -0.1705 -0.0673
 7798SOL    HW135027   3.935   0.531   2.761 -0.6008  0.8690  1.2194
 7798SOL    HW235028   4.025   0.413   2.772  1.6509  2.3047  0.6515
 7799SOL     OW35029   0.614   0.822   7.877  0.1369  0.5421 -0.2988
 7799SOL    HW135030   0.679   0.779   7.932 -0.6167 -0.4447 -0.1726
 7799SOL    HW235031   0.562   0.746   7.850 -0.5449  1.0348 -0.3819
 7800SOL     OW35032   2.310   2.238  16.933  0.1411  0.0554  0.0032
 7800SOL    HW135033   2.216   2.221  16.934  0.1016  0.3104  0.3694
 7800SOL    HW235034   2.316   2.309  16.868 -4.0673 -0.2544 -0.7196
 7801SOL     OW35035   3.997   0.968  15.903  0.3075 -0.6227 -0.7050
 7801SOL    HW135036   4.023   1.049  15.859 -1.9175  0.8721  0.7273
 7801SOL    HW235037   3.910   0.944  15.870 -0.5759 -0.4912  1.5213
 7802SOL     OW35038   0.087   1.708  13.606 -0.2131 -0.1828  0.5212
 7802SOL    HW135039   0.141   1.740  13.678 -1.4779 -0.1237  1.4467
 7802SOL    HW235040   0.084   1.612  13.615  0.4663 -0.4195 -1.8781
 7803SOL     OW35041   0.349   1.164   6.927  0.7680  0.1598  0.2047
 7803SOL    HW135042   0.400   1.195   7.001 -0.5507  2.4474  0.1380
 7803SOL    HW235043   0.391   1.078   6.920  1.1845  0.4367 -0.8458
 7804SOL     OW35044   4.097   1.799   8.577  0.3340 -0.3208  0.3006
 7804SOL    HW135045   4.175   1.814   8.630  0.9586  0.8275 -0.9235
 7804SOL    HW235046   4.123   1.744   8.504 -2.3640 -1.1035 -0.0721
 7805SOL     OW35047   2.525   1.943   5.859  0.3587 -0.3202 -0.8096
 7805SOL    HW135048   2.516   1.885   5.935 -3.2794 -1.1503 -1.9000
 7805SOL    HW235049   2.463   2.012   5.882 -0.9610 -1.5225 -0.7791
 7806SOL     OW35050   0.331   2.279   6.741  0.3141  0.3034  1.0461
 7806SOL    HW135051   0.260   2.220   6.717  1.2396 -1.3524  2.3938
 7806SOL    HW235052   0.306   2.358   6.693 -2.0268 -1.4743 -0.6767
 7807SOL     OW35053   2.209   2.032   0.374  0.3701 -0.2765 -0.0613
 7807SOL    HW135054   2.185   1.943   0.399  1.3086 -0.3514  0.5601
 7807SOL    HW235055   2.124   2.075   0.381  0.7785  0.3549  0.8654
 7808SOL     OW35056   2.825   2.212   1.852  0.1825  0.2521 -0.1310
 7808SOL    HW135057   2.783   2.191   1.936  1.3750 -3.4140 -0.4471
 7808SOL    HW235058   2.811   2.306   1.854 -0.2298  0.2282 -2.1855
 7809SOL     OW35059   3.782   2.336   1.711  0.4356  0.6867 -0.7605
 7809SOL    HW135060   3.786   2.431   1.701 -3.0070  0.8855 -0.1319
 7809SOL    HW235061   3.690   2.313   1.723  0.9016 -0.3963  0.6208
 7810SOL     OW35062   4.176   1.566  16.025 -0.0980  0.3454  0.0192
 7810SOL    HW135063   4.254   1.518  15.999  0.2535  0.3814  0.9993
 7810SOL    HW235064   4.202   1.657  16.030 -1.8133  0.8580 -0.2559
 7811SOL     OW35065   0.364   0.849   5.116  0.2201 -0.1264  0.3232
 7811SOL    HW135066   0.315   0.770   5.094  0.4597 -0.2542  0.2497
 7811SOL    HW235067   0.339   0.903   5.042 -1.8539  1.3015  2.0719
 7812SOL     OW35068   1.384   1.887  14.338 -0.0018 -0.1772 -0.2857
 7812SOL    HW135069   1.411   1.893  14.429  1.8510  0.1155 -0.8536
 7812SOL    HW235070   1.346   1.971  14.311  0.2218 -0.0971 -0.3476
 7813SOL     OW35071   0.056   1.132  10.700  0.1914  0.4047  0.1180
 7813SOL    HW135072   0.119   1.204  10.703 -0.4583  0.9663  0.3183
 7813SOL    HW235073   4.728   1.155  10.768  0.8315 -0.4617  1.0175
 7814SOL     OW35074   1.914   3.905  17.558 -0.3403 -0.1440  0.0425
 7814SOL    HW135075   1.941   3.993  17.587 -0.7723 -0.7636  2.2613
 7814SOL    HW235076   1.911   3.922  17.463  1.6643  2.6284  0.4625
 7815SOL     OW35077   2.652   4.026   4.344  0.7125 -0.0635  0.0564
 7815SOL    HW135078   2.574   4.004   4.293  0.5936 -0.0778  0.2440
 7815SOL    HW235079   2.712   3.957   4.319  1.6513  0.5982  0.4709
 7816SOL     OW35080   4.609   1.753  11.046 -0.4509 -0.0380 -0.2780
 7816SOL    HW135081   4.568   1.801  10.974  0.0090  1.6846  0.5952
 7816SOL    HW235082   4.611   1.663  11.013 -0.6974  0.0762 -0.6167
 7817SOL     OW35083   3.262   1.014   6.332  0.0424  0.3252  0.1863
 7817SOL    HW135084   3.218   0.958   6.396  0.7770  0.4198  0.7754
 7817SOL    HW235085   3.322   0.953   6.289 -0.2592 -0.0052  0.2320
 7818SOL     OW35086   1.426   0.921   8.926 -0.6087  0.1066 -0.9305
 7818SOL    HW135087   1.506   0.868   8.932  0.4747  1.8810  0.3100
 7818SOL    HW235088   1.367   0.879   8.989  1.4819 -0.5625  0.5894
 7819SOL     OW35089   0.393   1.440  15.060  0.4223 -0.2254 -0.0159
 7819SOL    HW135090   0.298   1.429  15.060  0.0622  2.7039 -0.1077
 7819SOL    HW235091   0.415   1.445  15.153  0.6648 -0.0568 -0.0812
 7820SOL     OW35092   4.194   2.790   4.487 -0.3505  0.3232 -0.7110
 7820SOL    HW135093   4.285   2.817   4.481 -0.3293  0.7430  1.3894
 7820SOL    HW235094   4.180   2.756   4.576 -0.2424 -0.2287 -0.9052
 7821SOL     OW35095   1.901   1.812   3.303  0.4049  0.0872 -0.1888
 7821SOL    HW135096   1.969   1.763   3.257  0.3368 -2.1343  2.0736
 7821SOL    HW235097   1.866   1.874   3.239  0.5594  0.8427  0.4586
 7822SOL     OW35098   4.524   0.639  10.986  0.0083 -0.4920 -0.4049
 7822SOL    HW135099   4.594   0.584  10.952  0.4778 -0.3867  0.3931
 7822SOL    HW235100   4.567   0.673  11.064 -1.3713 -0.2824  0.2759
 7823SOL     OW35101   4.236   3.344  11.326 -0.6031  0.4828  0.0857
 7823SOL    HW135102   4.166   3.328  11.389  0.7806 -0.0119  1.5082
 7823SOL    HW235103   4.288   3.409  11.373 -1.1916  0.8727  0.1965
 7824SOL     OW35104   1.394   0.537  16.260  0.7258  0.5770  0.0418
 7824SOL    HW135105   1.395   0.632  16.249  2.5095  0.1522 -3.5129
 7824SOL    HW235106   1.330   0.521  16.329  0.6403 -0.9432 -0.3938
 7825SOL     OW35107   1.977   0.278   2.890  0.2030 -0.0859  0.2484
 7825SOL    HW135108   1.971   0.192   2.849 -0.5512  0.3720 -0.6135
 7825SOL    HW235109   2.009   0.256   2.977  1.9136 -0.9827 -0.6286
 7826SOL     OW35110   1.746   0.626   0.746  0.5317  0.2321 -0.0083
 7826SOL    HW135111   1.699   0.580   0.677  0.7408 -1.2773  0.8493
 7826SOL    HW235112   1.802   0.682   0.692  2.3072 -0.4211  1.1576
 7827SOL     OW35113   1.687   3.540  13.575  0.0835 -0.1633  0.0521
 7827SOL    HW135114   1.754   3.589  13.528 -1.3894  2.4042  0.6453
 7827SOL    HW235115   1.717   3.546  13.665 -2.3175  1.6841  0.7261
 7828SOL     OW35116   2.639   2.405   2.922  0.0731  0.0793  0.5151
 7828SOL    HW135117   2.707   2.383   2.986  0.2882 -2.0498 -0.4650
 7828SOL    HW235118   2.578   2.458   2.973  0.6978  1.2250  0.0926
 7829SOL     OW35119   4.087   3.290   4.270 -0.0791 -0.0726  0.5437
 7829SOL    HW135120   4.062   3.209   4.226  0.6955 -0.5506  0.9690
 7829SOL    HW235121   4.057   3.270   4.359 -0.3620 -1.1612  0.2090
 7830SOL     OW35122   2.252   4.397   8.574  0.0097  0.0998 -0.4538
 7830SOL    HW135123   2.329   4.428   8.526  1.2676 -0.9320  0.8981
 7830SOL    HW235124   2.221   4.333   8.511 -0.2194 -0.8514  0.6328
 7831SOL     OW35125   1.350   1.079   2.890 -0.0973  0.3461 -0.1883
 7831SOL    HW135126   1.413   1.116   2.829 -0.3915  2.3639  0.7495
 7831SOL    HW235127   1.375   1.116   2.974  0.9448  0.8343 -0.7146
 7832SOL     OW35128   2.166   4.360   1.995  0.1225  0.6663 -0.1345
 7832SOL    HW135129   2.134   4.431   2.051  0.1002  0.6249 -0.0940
 7832SOL    HW235130   2.255   4.389   1.980  0.7093  0.4962  2.9281
 7833SOL     OW35131   0.428   0.143  11.734  0.3915 -0.1313  0.0311
 7833SOL    HW135132   0.346   0.096  11.746  0.6742 -0.6427 -0.0244
 7833SOL    HW235133   0.400   0.220  11.686  0.9296 -0.0475 -0.1508
 7834SOL     OW35134   1.567   3.601   6.872 -0.1381 -0.3408 -0.6313
 7834SOL    HW135135   1.642   3.607   6.931  1.1116 -1.3834 -2.1189
 7834SOL    HW235136   1.607   3.601   6.785  0.9404  0.0176 -0.1248
 7835SOL     OW35137   0.351   0.456   6.876 -0.0734  0.1001 -0.1214
 7835SOL    HW135138   0.329   0.473   6.784 -3.1109 -1.7546  0.2479
 7835SOL    HW235139   0.263   0.429   6.903  0.0302 -1.4858 -1.3432
 7836SOL     OW35140   2.889   3.700   1.905  0.5935  0.2525 -0.5459
 7836SOL    HW135141   2.892   3.677   1.998 -0.5276 -0.8949 -0.7947
 7836SOL    HW235142   2.840   3.629   1.863  2.2314 -1.3700  0.2539
 7837SOL     OW35143   1.802   0.963   2.904  0.1460 -0.5688 -0.3796
 7837SOL    HW135144   1.843   0.919   2.979 -1.3196  2.1351  1.9825
 7837SOL    HW235145   1.880   1.004   2.867 -1.0762  2.0376 -0.0096
 7838SOL     OW35146   2.571   3.178   5.473  0.2818 -0.0485 -0.0051
 7838SOL    HW135147   2.623   3.145   5.400 -1.4379  0.7773 -1.6290
 7838SOL    HW235148   2.604   3.128   5.548  0.1378  2.2355  1.5889
 7839SOL     OW35149   0.591   1.286   2.369 -0.2976 -0.2270  0.2763
 7839SOL    HW135150   0.503   1.281   2.407 -1.2046 -2.2132 -2.0903
 7839SOL    HW235151   0.598   1.208   2.314 -2.9495 -0.9932  1.0231
 7840SOL     OW35152   2.825   1.887   6.018  0.3945  0.2530  0.1246
 7840SOL    HW135153   2.860   1.844   5.940 -0.8634 -4.4212  2.1033
 7840SOL    HW235154   2.787   1.959   5.969 -0.6994 -1.4132 -1.4866
 7841SOL     OW35155   2.071   1.535   1.362  0.1318 -0.1217  0.1962
 7841SOL    HW135156   1.982   1.557   1.389  0.7921 -2.3835  4.1455
 7841SOL    HW235157   2.111   1.509   1.445  3.7711 -0.8074 -1.7998
 7842SOL     OW35158   4.659   4.496   0.729 -0.4013 -0.3135  0.0477
 7842SOL    HW135159   4.710   4.532   0.801  2.1944  1.6361 -2.8095
 7842SOL    HW235160   4.731   4.484   0.668 -0.5804 -2.1582  0.2018
 7843SOL     OW35161   2.508   0.805   4.854 -0.3242  0.1376  0.4237
 7843SOL    HW135162   2.510   0.784   4.948  1.5408 -0.0287  0.3343
 7843SOL    HW235163   2.455   0.729   4.830  0.4004 -0.4164  0.5534
 7844SOL     OW35164   0.846   3.371   6.690 -0.0475 -0.2235 -0.2683
 7844SOL    HW135165   0.777   3.341   6.749 -0.5866 -0.2304 -0.9044
 7844SOL    HW235166   0.879   3.445   6.741 -1.6505  0.5512 -0.3660
 7845SOL     OW35167   1.726   2.787   8.923 -0.5908  0.3839 -0.1158
 7845SOL    HW135168   1.793   2.736   8.878 -1.3655 -1.7652  1.1825
 7845SOL    HW235169   1.777   2.821   8.996 -0.7119 -1.6618  0.9274
 7846SOL     OW35170   2.952   3.369  14.423  0.1048 -0.1277 -0.5582
 7846SOL    HW135171   3.024   3.414  14.378 -0.2821  2.3666  1.3420
 7846SOL    HW235172   2.924   3.305  14.357 -0.9437  0.4536 -0.6680
 7847SOL     OW35173   2.707   2.135  14.827  0.3312 -0.3676  0.4694
 7847SOL    HW135174   2.694   2.040  14.827  0.9346 -0.4380  2.0354
 7847SOL    HW235175   2.795   2.146  14.790  0.5608  0.5820  1.2905
 7848SOL     OW35176   3.954   3.649   3.595 -0.1866 -0.0951 -0.2251
 7848SOL    HW135177   3.927   3.661   3.504  0.4473  2.3788 -0.1070
 7848SOL    HW235178   3.931   3.559   3.615 -2.5939  0.7614  0.9001
 7849SOL     OW35179   2.094   0.825  13.518 -0.2422 -0.1930 -1.0678
 7849SOL    HW135180   2.128   0.890  13.457  0.1236 -0.9985 -1.7309
 7849SOL    HW235181   2.168   0.765  13.515  0.9191  1.1425  1.3700
 7850SOL     OW35182   4.207   3.630   5.973 -0.5079 -1.2080 -0.3163
 7850SOL    HW135183   4.221   3.627   5.878 -2.3069 -1.2898 -0.5731
 7850SOL    HW235184   4.267   3.561   6.001  2.2046  0.8672 -0.9993
 7851SOL     OW35185   4.348   1.716  12.429  0.0543  0.3371  0.4174
 7851SOL    HW135186   4.425   1.703  12.375 -0.1274  1.3905 -0.0984
 7851SOL    HW235187   4.329   1.808  12.416 -0.0931  0.1536 -0.6577
 7852SOL     OW35188   1.527   4.500   4.792  0.7094 -0.4184  0.0701
 7852SOL    HW135189   1.603   4.559   4.786 -0.9299  1.7714  0.9402
 7852SOL    HW235190   1.467   4.562   4.752 -0.8077 -1.1212  1.2839
 7853SOL     OW35191   1.242   0.937   5.382 -0.3357 -0.8331 -0.1354
 7853SOL    HW135192   1.193   0.880   5.323 -1.0429 -0.0636 -0.3003
 7853SOL    HW235193   1.303   0.970   5.317 -0.1631  1.0496  0.9680
 7854SOL     OW35194   0.668   1.729   6.536 -0.1405  0.3557  0.2924
 7854SOL    HW135195   0.630   1.650   6.573  0.8614 -0.5793 -0.6546
 7854SOL    HW235196   0.738   1.689   6.485  0.3069 -3.2501  3.7508
 7855SOL     OW35197   2.192   3.738   2.964 -0.0279 -0.5291  0.1234
 7855SOL    HW135198   2.281   3.703   2.954 -0.1009 -0.5437 -0.4881
 7855SOL    HW235199   2.216   3.831   2.961  0.3841 -0.5729  1.8022
 7856SOL     OW35200   1.689   1.609   7.288 -0.3726 -0.0298 -0.0230
 7856SOL    HW135201   1.682   1.697   7.324  0.0910  0.7488 -1.8437
 7856SOL    HW235202   1.784   1.595   7.285 -0.4809 -1.0474  0.8562
 7857SOL     OW35203   2.772   0.412   4.434  0.2520 -0.4911  0.1261
 7857SOL    HW135204   2.695   0.402   4.378  0.9158 -0.6451 -0.7486
 7857SOL    HW235205   2.728   0.394   4.517 -0.9104 -1.1128 -0.6180
 7858SOL     OW35206   2.802   1.720   2.460  0.4002 -0.3728 -0.0978
 7858SOL    HW135207   2.782   1.654   2.526  3.9965  1.6079  3.0152
 7858SOL    HW235208   2.714   1.749   2.439 -0.1237 -1.9523 -0.0735
 7859SOL     OW35209   3.157   4.706   2.516 -0.4496 -0.0348  0.3689
 7859SOL    HW135210   3.229   4.716   2.454 -1.7755 -1.6289 -1.4253
 7859SOL    HW235211   3.096   4.675   2.449 -0.8261  1.3026  0.0981
 7860SOL     OW35212   2.661   4.487   5.198 -0.7023 -0.2463  0.4656
 7860SOL    HW135213   2.566   4.478   5.194 -0.9562  2.3578  0.6475
 7860SOL    HW235214   2.687   4.551   5.265  0.1526  0.0615 -0.1491
 7861SOL     OW35215   2.808   3.974  14.670  0.1073 -0.0144 -0.0726
 7861SOL    HW135216   2.889   3.956  14.718  0.3164  2.1281  0.3641
 7861SOL    HW235217   2.813   4.069  14.679  1.0315 -0.0620 -0.1376
 7862SOL     OW35218   1.822   1.560   3.335 -0.4643 -0.2067 -0.4324
 7862SOL    HW135219   1.775   1.563   3.252 -1.9342  0.5040  0.4292
 7862SOL    HW235220   1.863   1.646   3.331  2.0008 -1.1424  3.8036
 7863SOL     OW35221   2.965   2.622  13.506 -0.1671 -0.3987  0.3778
 7863SOL    HW135222   2.989   2.647  13.417 -1.6384  0.9414  0.3484
 7863SOL    HW235223   2.995   2.532  13.500  1.5002  0.2393 -0.8917
 7864SOL     OW35224   4.279   3.312   3.984  0.1705 -0.0551  0.0509
 7864SOL    HW135225   4.239   3.310   4.071  2.6206  0.7466  1.2222
 7864SOL    HW235226   4.375   3.311   3.990  0.0447  1.0095  2.6885
 7865SOL     OW35227   3.794   2.252   3.032 -0.2395 -0.1521 -0.2988
 7865SOL    HW135228   3.857   2.314   2.995  1.2320 -1.5519 -0.1316
 7865SOL    HW235229   3.804   2.180   2.970 -0.3099 -1.7497  1.5478
 7866SOL     OW35230   4.732   1.485  11.885 -0.4690  0.3799 -0.0297
 7866SOL    HW135231   4.657   1.426  11.898  0.2214 -0.5571 -0.2598
 7866SOL    HW235232   4.691   1.537  11.816  0.0167  0.6838 -0.0812
 7867SOL     OW35233   1.397   2.329  17.363  0.6614  0.4538  0.8110
 7867SOL    HW135234   1.445   2.306  17.284  0.3489  1.7089  0.2571
 7867SOL    HW235235   1.339   2.259  17.393  0.2381  0.6127  0.3437
 7868SOL     OW35236   0.746   3.639   5.927  0.1784 -0.2791  0.2877
 7868SOL    HW135237   0.785   3.710   5.979 -2.4207  0.4209  1.2891
 7868SOL    HW235238   0.655   3.661   5.947  0.6046  0.5909  1.2964
 7869SOL     OW35239   2.623   3.341   3.518 -0.3774 -0.4020  0.2198
 7869SOL    HW135240   2.539   3.368   3.555 -1.6498 -2.0393 -1.4764
 7869SOL    HW235241   2.664   3.426   3.507  0.3224 -0.6449  0.9605
 7870SOL     OW35242   2.458   2.241   5.764  0.2601  0.2511 -0.0398
 7870SOL    HW135243   2.369   2.207   5.774  0.1030  0.2757 -1.4183
 7870SOL    HW235244   2.477   2.292   5.843 -2.1046  0.6596  0.2798
 7871SOL     OW35245   3.776   0.936   2.290 -0.1641 -0.1013  0.1730
 7871SOL    HW135246   3.716   0.973   2.225 -0.7821 -0.7840  0.3515
 7871SOL    HW235247   3.814   1.010   2.339 -0.6588 -0.2137  0.7333
 7872SOL     OW35248   0.235   1.832  17.736  0.0029 -0.3894  0.5142
 7872SOL    HW135249   0.212   1.921   0.024 -1.5986 -0.3237 -1.0013
 7872SOL    HW235250   0.273   1.842  17.648 -0.5068  0.2995  0.3749
 7873SOL     OW35251   1.085   2.106  12.170  0.2821 -0.7761  0.4771
 7873SOL    HW135252   1.069   2.191  12.211  0.1887 -0.5602 -0.0155
 7873SOL    HW235253   1.070   2.039  12.237  1.2230 -1.4034  0.0582
 7874SOL     OW35254   0.257   0.172   3.686  0.0098 -0.1337 -0.1021
 7874SOL    HW135255   0.293   0.189   3.599  1.4340 -0.5907  0.4104
 7874SOL    HW235256   0.281   0.253   3.731 -1.3929 -0.2459  0.8507
 7875SOL     OW35257   4.014   2.733   9.509 -0.2467  0.3022 -0.3035
 7875SOL    HW135258   3.963   2.811   9.485 -0.4510  0.5421  0.8797
 7875SOL    HW235259   3.947   2.667   9.522  0.3315  0.2428  2.4302
 7876SOL     OW35260   4.456   3.874   8.119  0.4749 -0.8113 -0.4649
 7876SOL    HW135261   4.509   3.950   8.094  0.0912 -0.0702  0.9591
 7876SOL    HW235262   4.519   3.821   8.167  0.1065 -0.1559  0.7473
 7877SOL     OW35263   0.784   0.371   4.089  0.0103  0.3775 -0.2284
 7877SOL    HW135264   0.750   0.292   4.047  0.5910  0.4002 -0.7420
 7877SOL    HW235265   0.835   0.400   4.013  0.9401 -0.9888 -0.1311
 7878SOL     OW35266   3.103   4.099   8.996  0.3352 -1.0722 -0.2646
 7878SOL    HW135267   3.179   4.155   8.983  0.4167 -0.8212  1.3377
 7878SOL    HW235268   3.030   4.160   8.988 -0.5114 -1.8277  1.7821
 7879SOL     OW35269   4.592   0.103   1.904 -0.1592 -0.2895  0.0604
 7879SOL    HW135270   4.546   0.187   1.901 -2.7130 -1.7012  0.0418
 7879SOL    HW235271   4.516   0.046   1.917 -0.8574  0.7298  0.4421
 7880SOL     OW35272   2.244   2.912   4.210  0.3726 -0.0381  0.1793
 7880SOL    HW135273   2.287   2.840   4.256  0.5240  1.3394  2.1853
 7880SOL    HW235274   2.215   2.969   4.281  2.2353 -0.1885  1.0563
 7881SOL     OW35275   0.905   0.261   5.639 -0.7968  0.5878 -0.2873
 7881SOL    HW135276   0.932   0.308   5.561 -2.8302  0.8402 -0.8258
 7881SOL    HW235277   0.991   0.220   5.652 -0.1820  1.3684 -1.9261
 7882SOL     OW35278   1.494   0.072   7.428  0.1271 -0.2052  0.5396
 7882SOL    HW135279   1.589   0.085   7.427  0.2900 -1.5354 -0.3451
 7882SOL    HW235280   1.480   0.131   7.503  0.4631 -0.8896  1.1348
 7883SOL     OW35281   3.855   1.485   0.755 -0.6365  0.0094 -0.6680
 7883SOL    HW135282   3.771   1.450   0.787 -0.7257 -0.2534 -1.1901
 7883SOL    HW235283   3.876   1.544   0.828 -2.5097  0.2010 -0.2717
 7884SOL     OW35284   3.451   0.510  13.011  0.0619  0.2076  0.4091
 7884SOL    HW135285   3.452   0.415  13.014  2.1505  0.2046 -0.0528
 7884SOL    HW235286   3.397   0.516  12.933 -0.2508 -0.6203  0.5636
 7885SOL     OW35287   4.277   2.483   6.117 -0.0745  0.0877 -0.2664
 7885SOL    HW135288   4.185   2.490   6.093  0.4000  1.2355 -1.7491
 7885SOL    HW235289   4.269   2.469   6.211 -0.9782 -0.7550 -0.4818
 7886SOL     OW35290   2.011   1.571   7.368  0.5873 -0.0191 -0.0100
 7886SOL    HW135291   2.101   1.539   7.369  0.7039  0.4702  3.1579
 7886SOL    HW235292   2.026   1.664   7.351 -0.1629  0.1643  0.3353
 7887SOL     OW35293   3.037   2.673   2.903  0.4230 -0.1266  0.0658
 7887SOL    HW135294   3.070   2.585   2.922  0.2397 -0.3200 -0.5063
 7887SOL    HW235295   2.997   2.689   2.988  0.9185 -2.3058  0.7236
 7888SOL     OW35296   0.646   2.084   7.345  0.2114  0.0303  0.3795
 7888SOL    HW135297   0.637   2.010   7.406 -1.4250  0.3190  0.4750
 7888SOL    HW235298   0.725   2.042   7.310  0.7851  2.4703 -1.2874
 7889SOL     OW35299   4.304   4.235  10.793  0.6804  0.2091  0.3097
 7889SOL    HW135300   4.233   4.299  10.784  0.9733  0.4086 -0.5760
 7889SOL    HW235301   4.280   4.162  10.851  0.8556 -1.5477 -1.8352
 7890SOL     OW35302   3.647   2.031   5.599 -0.6331 -0.0809 -0.3291
 7890SOL    HW135303   3.665   1.961   5.661 -3.0145 -0.1041  0.3369
 7890SOL    HW235304   3.682   1.991   5.519 -1.9395 -2.2569  0.1777
 7891SOL     OW35305   3.044   0.593   8.754 -0.1966  0.3522  0.0060
 7891SOL    HW135306   3.101   0.630   8.822 -0.7247 -0.2913  0.7930
 7891SOL    HW235307   3.035   0.506   8.793  2.2339  0.7583  1.4935
 7892SOL     OW35308   1.358   4.343   6.572  0.4589  0.3506 -0.5852
 7892SOL    HW135309   1.411   4.371   6.647  0.6967 -0.0991 -0.5866
 7892SOL    HW235310   1.403   4.268   6.534 -0.7396  0.0400 -1.3920
 7893SOL     OW35311   2.975   1.948   7.947  0.1029 -0.0682  0.4077
 7893SOL    HW135312   2.941   2.020   7.893 -0.5362 -2.1987 -2.0470
 7893SOL    HW235313   3.033   1.996   8.006 -2.4176  0.6502  2.3153
 7894SOL     OW35314   0.181   1.639  12.050  0.4820  0.3680 -0.5203
 7894SOL    HW135315   0.221   1.565  12.096 -0.4900 -0.8070 -1.5676
 7894SOL    HW235316   0.129   1.600  11.979  1.2116 -0.6109 -0.5170
 7895SOL     OW35317   0.987   3.358   4.739 -0.3622 -0.1213  0.8021
 7895SOL    HW135318   0.956   3.277   4.779 -2.3879 -1.0759 -2.6816
 7895SOL    HW235319   0.907   3.408   4.723 -0.4859 -0.1680  1.2702
 7896SOL     OW35320   2.081   4.576  14.847 -0.5140 -0.0981 -0.6489
 7896SOL    HW135321   2.112   4.581  14.937  1.1786 -0.0183 -1.2282
 7896SOL    HW235322   2.142   4.630  14.797 -1.4066 -0.7176 -2.4120
 7897SOL     OW35323   2.407   3.158   1.562 -0.8660  0.1506  0.0216
 7897SOL    HW135324   2.342   3.101   1.602 -0.2008 -2.1501 -2.1888
 7897SOL    HW235325   2.432   3.208   1.640  0.3897 -1.2647  0.5282
 7898SOL     OW35326   3.621   1.871   1.573 -0.2731  0.4388 -0.7809
 7898SOL    HW135327   3.655   1.833   1.654 -2.5338 -2.0821 -1.0266
 7898SOL    HW235328   3.592   1.961   1.589  2.5589  1.4887 -1.6220
 7899SOL     OW35329   3.942   2.769   3.070  0.0266 -0.5001 -0.5881
 7899SOL    HW135330   3.957   2.851   3.024  1.4875 -0.8381 -0.7061
 7899SOL    HW235331   3.862   2.738   3.028 -0.8911  0.7693  0.2450
 7900SOL     OW35332   0.634   4.027   5.461  0.2119 -0.2121  1.0091
 7900SOL    HW135333   0.707   3.964   5.468 -0.0516 -0.9296 -2.3623
 7900SOL    HW235334   0.669   4.085   5.393 -5.1612  1.0757 -0.6642
 7901SOL     OW35335   2.360   2.251   2.136  0.4771  0.1214  0.1576
 7901SOL    HW135336   2.356   2.202   2.054 -1.4170  1.7255 -0.7007
 7901SOL    HW235337   2.318   2.189   2.195  0.7727  1.5729  1.8784
 7902SOL     OW35338   0.519   0.309   7.064 -0.6785  0.5756  0.2537
 7902SOL    HW135339   0.528   0.265   6.979 -1.4236 -1.1144  1.0599
 7902SOL    HW235340   0.454   0.368   7.025 -1.5250 -0.4521  0.1085
 7903SOL     OW35341   1.922   1.484   4.799  0.3509 -0.0263  0.1888
 7903SOL    HW135342   1.868   1.560   4.820  0.6400  0.0228  0.7566
 7903SOL    HW235343   2.007   1.502   4.839 -0.2712 -0.6011  1.7963
 7904SOL     OW35344   1.670   4.301  12.894 -0.8620  0.6214  0.5133
 7904SOL    HW135345   1.659   4.355  12.816 -0.2245 -0.5211 -0.3538
 7904SOL    HW235346   1.750   4.336  12.933  1.6141 -0.7590 -3.3750
 7905SOL     OW35347   4.106   0.290   9.285 -0.8807  0.1909 -0.5090
 7905SOL    HW135348   4.066   0.206   9.262 -4.1084  0.4954  4.0458
 7905SOL    HW235349   4.131   0.282   9.377 -0.0626  0.7370 -0.6865
 7906SOL     OW35350   4.702   4.212   4.451  0.4028  0.2452 -0.1412
 7906SOL    HW135351   0.024   4.138   4.428  1.2237 -0.1647  3.2688
 7906SOL    HW235352   4.664   4.173   4.530  0.9110  1.1296  0.5462
 7907SOL     OW35353   0.261   4.588  16.468  0.3454  0.1439 -0.5800
 7907SOL    HW135354   0.198   4.660  16.477  0.0575 -0.1811  0.0042
 7907SOL    HW235355   0.276   4.577  16.374 -2.3870 -1.0125 -0.8954
 7908SOL     OW35356   3.428   0.455  14.440 -0.2323  0.6190  0.1821
 7908SOL    HW135357   3.333   0.446  14.431 -0.1765  2.2739 -2.0292
 7908SOL    HW235358   3.457   0.370  14.471 -0.2082 -0.3016 -2.3548
 7909SOL     OW35359   3.568   2.198   7.637 -0.2016 -0.1708  0.0796
 7909SOL    HW135360   3.509   2.233   7.704  1.2733 -1.9347  2.2842
 7909SOL    HW235361   3.574   2.276   7.583 -1.1003  0.8880  1.5029
 7910SOL     OW35362   0.370   3.321  13.667 -0.1153  0.5341  0.6130
 7910SOL    HW135363   0.359   3.246  13.725 -0.8206 -0.1321 -0.3954
 7910SOL    HW235364   0.322   3.306  13.586  0.1448  1.1305  0.3508
 7911SOL     OW35365   2.546   3.038   3.644  0.3216  0.6261  0.1579
 7911SOL    HW135366   2.553   3.130   3.618 -2.4582  0.6181 -0.5886
 7911SOL    HW235367   2.455   3.010   3.633  1.0044 -1.4849 -0.0523
 7912SOL     OW35368   3.451   2.482   9.725 -0.0571  0.2300  0.2363
 7912SOL    HW135369   3.435   2.564   9.772  1.0361  0.3177  0.4341
 7912SOL    HW235370   3.402   2.503   9.645  0.0684  0.3861  0.2003
 7913SOL     OW35371   2.896   3.730   2.936  0.9559  0.3515  0.1278
 7913SOL    HW135372   2.834   3.746   3.008  0.6729  2.4131 -0.5540
 7913SOL    HW235373   2.966   3.793   2.951  0.6060  0.3812  1.6645
 7914SOL     OW35374   4.223   0.222   7.005  0.1561 -0.0572 -0.0121
 7914SOL    HW135375   4.225   0.128   7.019  1.2347 -0.1329 -0.7219
 7914SOL    HW235376   4.274   0.235   6.925 -3.5465  0.7110 -2.2599
 7915SOL     OW35377   2.619   1.247   0.201  0.0575  0.3833 -0.3265
 7915SOL    HW135378   2.595   1.337   0.180  2.3993  1.5121  1.8975
 7915SOL    HW235379   2.664   1.266   0.283 -2.7148 -0.0162  1.2516
 7916SOL     OW35380   2.934   0.567   1.747 -0.6296  0.2405 -0.0195
 7916SOL    HW135381   2.932   0.662   1.761 -1.2535  0.0995  0.8381
 7916SOL    HW235382   2.905   0.531   1.831  0.3632 -2.1829 -0.7147
 7917SOL     OW35383   4.485   4.295   5.933  0.3938  0.0171 -0.3903
 7917SOL    HW135384   4.414   4.260   5.879 -0.8463  1.1039  0.5664
 7917SOL    HW235385   4.561   4.264   5.883  0.2799  1.9638 -1.7757
 7918SOL     OW35386   1.299   4.164  14.661  0.6075  0.0501 -0.6112
 7918SOL    HW135387   1.263   4.077  14.646  1.9703 -0.5950 -0.1269
 7918SOL    HW235388   1.382   4.142  14.704  0.3277  1.6156  0.7307
 7919SOL     OW35389   3.777   1.725   6.601  0.4196 -0.0278  0.1226
 7919SOL    HW135390   3.694   1.763   6.573  0.1091 -1.2565 -0.6352
 7919SOL    HW235391   3.820   1.713   6.516  1.5037  2.4126  0.3547
 7920SOL     OW35392   3.367   3.166   5.838 -0.4670  0.2213  0.3366
 7920SOL    HW135393   3.451   3.135   5.872 -0.9445  0.7472  1.9946
 7920SOL    HW235394   3.385   3.258   5.821  1.0007 -0.4185 -1.6291
 7921SOL     OW35395   1.499   3.241   5.277  0.4045  0.5156 -0.7036
 7921SOL    HW135396   1.493   3.196   5.192 -0.4232 -2.8091  1.0991
 7921SOL    HW235397   1.445   3.319   5.269  0.9376  0.9091 -0.4294
 7922SOL     OW35398   2.529   2.859  12.941 -0.1316  0.4546 -0.2239
 7922SOL    HW135399   2.489   2.781  12.979 -0.5343  0.4708 -0.6129
 7922SOL    HW235400   2.491   2.839  12.855 -4.2400  1.1616  1.3904
 7923SOL     OW35401   1.938   3.923  17.232 -0.4570 -0.5708 -0.3841
 7923SOL    HW135402   1.935   4.018  17.218  0.2499 -0.8213 -2.1246
 7923SOL    HW235403   1.854   3.908  17.188 -1.4972 -1.6523  1.9326
 7924SOL     OW35404   3.338   2.958   6.828  0.5028  0.5687 -0.2700
 7924SOL    HW135405   3.377   3.025   6.886 -1.4005  0.8313  0.6937
 7924SOL    HW235406   3.249   2.992   6.837  0.5718  0.7274 -0.1843
 7925SOL     OW35407   1.025   1.090  11.398 -0.0444 -0.3831 -0.5500
 7925SOL    HW135408   0.966   1.029  11.443 -1.2727  0.8337 -0.5305
 7925SOL    HW235409   0.969   1.135  11.335  1.1068  1.6513 -0.1020
 7926SOL     OW35410   3.523   0.991   7.755  0.0623 -0.2280 -0.3417
 7926SOL    HW135411   3.530   1.001   7.850 -0.5275 -0.3624 -0.2853
 7926SOL    HW235412   3.600   0.942   7.727  0.4177  0.5776 -0.7701
 7927SOL     OW35413   2.291   1.885   4.696  0.4408  0.1021 -0.4761
 7927SOL    HW135414   2.386   1.874   4.700  0.2085 -0.5196  3.3909
 7927SOL    HW235415   2.277   1.840   4.779  0.6872  0.5128 -0.2148
 7928SOL     OW35416   1.737   0.349   3.273 -0.1151 -0.2537 -0.4254
 7928SOL    HW135417   1.661   0.295   3.255 -0.1063  0.2849 -2.1179
 7928SOL    HW235418   1.789   0.361   3.193  1.3373 -0.6833  0.4426
 7929SOL     OW35419   1.576   3.223   3.688  0.1706 -0.2828  0.1140
 7929SOL    HW135420   1.577   3.174   3.606 -0.5395  0.5885 -0.4132
 7929SOL    HW235421   1.525   3.302   3.671 -1.2922 -0.7623  2.3118
 7930SOL     OW35422   1.976   1.784   7.665  0.3647  0.9794 -0.7770
 7930SOL    HW135423   2.039   1.832   7.719  1.8092 -1.3101 -0.3946
 7930SOL    HW235424   2.027   1.703   7.659  0.3015  0.8775  0.0231
 7931SOL     OW35425   0.874   2.350  16.172 -0.3378 -0.1672 -0.0448
 7931SOL    HW135426   0.868   2.437  16.134 -1.1210 -1.0857 -2.0141
 7931SOL    HW235427   0.788   2.345  16.214 -0.7333 -0.2068 -0.8663
 7932SOL     OW35428   3.351   3.472   9.799 -0.2853  0.0999 -0.2411
 7932SOL    HW135429   3.269   3.436   9.765 -0.3671  1.8639 -1.9077
 7932SOL    HW235430   3.328   3.563   9.815  3.2980  0.8072  0.8836
 7933SOL     OW35431   1.704   1.480   6.154  0.0966 -0.0948  0.1080
 7933SOL    HW135432   1.719   1.441   6.068  2.3601 -2.0888  1.3896
 7933SOL    HW235433   1.691   1.574   6.142 -0.5217 -0.0866  0.8818
 7934SOL     OW35434   1.227   2.152   2.176  0.4169 -0.3793 -0.8630
 7934SOL    HW135435   1.132   2.158   2.178  0.4735  0.3725 -0.6538
 7934SOL    HW235436   1.247   2.201   2.255 -2.3305 -0.6652 -0.0004
 7935SOL     OW35437   2.778   2.209  14.389  0.4205 -0.2292  0.4836
 7935SOL    HW135438   2.855   2.219  14.446  0.5537 -0.1219  0.2869
 7935SOL    HW235439   2.824   2.174  14.312 -0.1394 -1.0249  0.5087
 7936SOL     OW35440   0.053   3.063   3.918  0.2516  0.2523 -0.4447
 7936SOL    HW135441   4.709   3.076   3.971  0.3769 -1.2849  0.1457
 7936SOL    HW235442   0.019   3.034   3.834  0.2752 -1.0179 -0.0252
 7937SOL     OW35443   1.571   1.891   0.747  0.1257 -0.4033  0.3991
 7937SOL    HW135444   1.563   1.829   0.819  4.1381 -1.9567 -0.4921
 7937SOL    HW235445   1.579   1.977   0.787  2.8390 -0.3215 -0.2786
 7938SOL     OW35446   0.712   0.911   9.287 -0.2219  0.1590  0.4739
 7938SOL    HW135447   0.759   0.961   9.354  0.0856  0.4141  0.0689
 7938SOL    HW235448   0.686   0.978   9.225 -4.1469 -0.4566  1.4993
 7939SOL     OW35449   4.654   3.896   1.109 -0.7273 -0.1496 -0.4542
 7939SOL    HW135450   4.645   3.805   1.079 -0.5662 -0.3353  0.0659
 7939SOL    HW235451   4.696   3.899   1.195  0.1407  0.0709 -0.8919
 7940SOL     OW35452   2.104   1.358   5.099 -0.1610 -0.6091  0.0442
 7940SOL    HW135453   2.140   1.306   5.171  0.3911 -1.1753 -0.6330
 7940SOL    HW235454   2.014   1.325   5.097  0.0812 -1.2706  0.2446
 7941SOL     OW35455   3.415   4.417   2.047 -0.0952 -0.0659 -0.2036
 7941SOL    HW135456   3.353   4.396   2.117  0.9351 -2.7358 -0.1062
 7941SOL    HW235457   3.407   4.512   2.039  1.4994 -0.0072 -1.0942
 7942SOL     OW35458   0.539   1.301   3.489  0.3200 -0.0191  0.1139
 7942SOL    HW135459   0.588   1.358   3.549  5.2567 -3.1906 -0.9411
 7942SOL    HW235460   0.611   1.259   3.443 -0.0194  0.8805 -1.2255
 7943SOL     OW35461   4.016   2.680   6.125  0.9202 -0.0473  0.0660
 7943SOL    HW135462   3.924   2.708   6.116  1.3641  0.7330 -2.0743
 7943SOL    HW235463   4.000   2.585   6.124 -0.0544  0.0968  1.9174
 7944SOL     OW35464   0.043   2.188  10.230  0.0146 -0.0261  0.3346
 7944SOL    HW135465   0.057   2.127  10.302  1.6848 -0.6614 -0.5262
 7944SOL    HW235466   4.691   2.161  10.200  0.1296 -0.0409  0.0078
 7945SOL     OW35467   1.942   1.445   5.581  0.1738  0.0623  0.4291
 7945SOL    HW135468   1.907   1.358   5.598 -0.2630  0.0047 -0.8010
 7945SOL    HW235469   2.000   1.431   5.507 -0.0764  0.6865  0.1147
 7946SOL     OW35470   3.035   2.233   2.919  0.2338  0.0654  0.1121
 7946SOL    HW135471   2.965   2.225   2.985  0.6870  2.0389  0.8263
 7946SOL    HW235472   3.099   2.288   2.965  0.2195 -0.3666  0.6542
 7947SOL     OW35473   3.694   0.290  10.782 -0.3238 -0.1033 -0.8446
 7947SOL    HW135474   3.667   0.271  10.872  0.4595 -0.2662 -0.6436
 7947SOL    HW235475   3.674   0.384  10.782 -2.9185 -0.6704 -0.4782
 7948SOL     OW35476   3.130   4.266   2.572 -0.0882 -0.1644 -0.0650
 7948SOL    HW135477   3.169   4.191   2.616 -1.1251 -1.8351 -1.9528
 7948SOL    HW235478   3.035   4.253   2.581 -0.2804  0.4353 -1.1869
 7949SOL     OW35479   2.637   4.114   4.615 -0.0618  0.2138 -0.1394
 7949SOL    HW135480   2.543   4.132   4.614  0.1796  1.3116 -2.6980
 7949SOL    HW235481   2.648   4.087   4.524 -0.3498  0.7890 -0.3442
 7950SOL     OW35482   0.762   0.399   9.308  0.5763 -0.0822  0.1187
 7950SOL    HW135483   0.762   0.491   9.283 -0.8612 -0.0284  0.3612
 7950SOL    HW235484   0.678   0.360   9.284  0.8709 -1.2933  1.0653
 7951SOL     OW35485   4.651   0.610   1.783  0.6435  0.8586 -0.1830
 7951SOL    HW135486   4.698   0.587   1.864 -0.6455 -1.4005 -0.0753
 7951SOL    HW235487   4.705   0.555   1.726 -0.3771  0.3004 -0.6004
 7952SOL     OW35488   0.130   4.734  14.536  0.2510  0.3722 -0.0045
 7952SOL    HW135489   0.219   0.033  14.528  1.4885 -2.8598 -0.1005
 7952SOL    HW235490   0.083   0.082  14.526 -1.9459 -0.7877  0.7282
 7953SOL     OW35491   1.388   2.547   6.359  0.2879 -0.0778  0.5127
 7953SOL    HW135492   1.321   2.604   6.398  1.3133  2.2917 -1.1533
 7953SOL    HW235493   1.425   2.520   6.442 -0.6530  0.2080  1.0289
 7954SOL     OW35494   3.274   0.497   0.537  0.0124  0.2018  0.1095
 7954SOL    HW135495   3.252   0.404   0.548 -0.7614  0.1951 -1.5655
 7954SOL    HW235496   3.281   0.515   0.443 -1.1443  0.3849  0.0514
 7955SOL     OW35497   0.651   3.777   3.016  0.3891  0.5099  0.0370
 7955SOL    HW135498   0.732   3.815   2.981 -0.7188  1.4156 -1.5197
 7955SOL    HW235499   0.679   3.688   3.038 -0.1591 -0.0533 -1.5514
 7956SOL     OW35500   3.048   3.827   8.448 -0.2476 -0.3899 -0.6348
 7956SOL    HW135501   3.073   3.918   8.461  2.5082 -1.2769  0.3925
 7956SOL    HW235502   3.130   3.779   8.462 -0.4639  0.0543  1.9903
 7957SOL     OW35503   2.057   2.028  14.357  0.0561 -0.2563 -0.3812
 7957SOL    HW135504   2.059   2.122  14.336  0.8267 -0.1182  0.3062
 7957SOL    HW235505   2.047   2.046  14.451  1.1919 -2.6706  0.1950
 7958SOL     OW35506   0.046   0.877  15.731 -0.4323  0.1244 -0.6203
 7958SOL    HW135507   0.061   0.805  15.670  1.9982 -0.9325  1.2414
 7958SOL    HW235508   0.137   0.905  15.743 -1.2961  2.1292  1.3614
 7959SOL     OW35509   1.902   2.055   3.579 -0.3084 -0.1643 -0.1139
 7959SOL    HW135510   1.952   2.115   3.524 -0.9864 -0.8759 -1.5046
 7959SOL    HW235511   1.942   2.078   3.663 -1.5613 -0.0694  0.4480
 7960SOL     OW35512   1.979   0.528   4.222  0.5422  0.1115  0.1403
 7960SOL    HW135513   2.066   0.518   4.183  0.9236  1.4292  0.6463
 7960SOL    HW235514   1.921   0.508   4.149 -0.3953 -2.3165  1.5561
 7961SOL     OW35515   4.510   1.894   4.312  0.2564  0.2374  0.0503
 7961SOL    HW135516   4.597   1.858   4.332  0.8452  1.3390 -0.5382
 7961SOL    HW235517   4.525   1.908   4.219 -2.6874  0.6713 -0.3417
 7962SOL     OW35518   3.600   0.262   3.481 -0.1453  0.2574 -0.0571
 7962SOL    HW135519   3.572   0.210   3.405 -0.2587  2.2585 -1.3644
 7962SOL    HW235520   3.667   0.205   3.520 -0.8963  1.0156  2.3386
 7963SOL     OW35521   0.976   1.477   5.812  0.6937  0.6377  0.0634
 7963SOL    HW135522   1.033   1.401   5.809 -0.3503 -0.1098 -0.9348
 7963SOL    HW235523   0.901   1.450   5.759 -0.5638 -0.9132  2.6290
 7964SOL     OW35524   2.791   0.482   8.478 -0.0247  0.2467  0.2009
 7964SOL    HW135525   2.860   0.548   8.490 -0.1228 -0.0490  2.2927
 7964SOL    HW235526   2.844   0.402   8.484  0.2110  0.4235  0.4513
 7965SOL     OW35527   2.448   1.409   7.986 -0.0611  1.0536  0.0160
 7965SOL    HW135528   2.513   1.373   8.047 -0.7641 -2.5299 -1.2999
 7965SOL    HW235529   2.410   1.477   8.041 -1.2370  0.0595  0.4457
 7966SOL     OW35530   3.862   0.841   3.209 -0.3479 -0.2828 -0.3437
 7966SOL    HW135531   3.794   0.787   3.168  0.7613 -1.4370 -0.6924
 7966SOL    HW235532   3.896   0.774   3.269 -0.4315 -0.5796 -0.6245
 7967SOL     OW35533   2.934   4.066  17.071 -0.3220  0.1308  0.2807
 7967SOL    HW135534   2.956   3.990  17.124 -0.5153  0.5485  0.9563
 7967SOL    HW235535   2.955   4.044  16.980  2.7305  0.1021  0.9818
 7968SOL     OW35536   4.248   4.259   6.096  0.3384 -0.0157 -0.1068
 7968SOL    HW135537   4.186   4.226   6.032 -0.6784 -1.1632  1.4537
 7968SOL    HW235538   4.228   4.351   6.110  0.5208  0.3368 -2.1751
 7969SOL     OW35539   4.096   2.198  15.634  0.2463  0.5525 -0.0942
 7969SOL    HW135540   4.152   2.185  15.557 -1.1788 -0.0428 -1.0377
 7969SOL    HW235541   4.008   2.212  15.599  0.2904  0.9399 -0.0440
 7970SOL     OW35542   4.198   2.137   7.644  0.2233  0.3370  0.2899
 7970SOL    HW135543   4.160   2.223   7.661  0.0847  0.1981  0.6834
 7970SOL    HW235544   4.116   2.098   7.614  0.6975  0.4982 -1.2419
 7971SOL     OW35545   1.036   2.220   8.448  0.3642  0.1397  0.6157
 7971SOL    HW135546   1.099   2.284   8.480 -1.5011  2.8189 -1.0635
 7971SOL    HW235547   1.019   2.256   8.361 -0.7092 -2.2933 -0.1861
 7972SOL     OW35548   1.502   0.535   2.791 -0.4323  0.0527 -0.0769
 7972SOL    HW135549   1.479   0.627   2.805 -0.3688  0.1422 -0.5837
 7972SOL    HW235550   1.514   0.512   2.883  0.4380  0.0706 -0.1864
 7973SOL     OW35551   4.600   1.128   5.458  0.0385 -0.3095 -0.0636
 7973SOL    HW135552   4.657   1.126   5.534 -2.4542  0.6139  1.8485
 7973SOL    HW235553   4.540   1.059   5.487 -1.2549  1.2975  1.1414
 7974SOL     OW35554   2.417   0.969  12.288 -0.0581 -0.1199  0.2184
 7974SOL    HW135555   2.348   1.036  12.296 -0.6662 -0.9833  2.3422
 7974SOL    HW235556   2.373   0.884  12.284 -0.9580  0.2502  2.1199
 7975SOL     OW35557   1.895   4.412  12.969  0.1495 -0.2836  0.1557
 7975SOL    HW135558   1.978   4.371  12.993  0.2432  1.5199  2.9329
 7975SOL    HW235559   1.918   4.498  13.005  0.7055 -0.9434  1.3563
 7976SOL     OW35560   2.078   0.478  14.968 -0.2039  0.1367  0.1194
 7976SOL    HW135561   2.112   0.405  15.019 -0.7337  0.7461  1.3616
 7976SOL    HW235562   2.141   0.476  14.896  1.2503 -0.5414  1.4312
 7977SOL     OW35563   2.704   0.144   2.960  0.1551 -0.4299 -0.3680
 7977SOL    HW135564   2.773   0.079   2.970 -1.8491 -3.0039 -3.0540
 7977SOL    HW235565   2.746   0.217   3.006 -0.3728 -0.1522 -0.3241
 7978SOL     OW35566   4.207   3.837   4.179  0.1615 -0.6460  0.7156
 7978SOL    HW135567   4.196   3.742   4.184 -2.3954 -0.3826  0.2157
 7978SOL    HW235568   4.184   3.876   4.263  1.9935 -1.4571  1.5945
 7979SOL     OW35569   1.787   1.348   8.815  0.2024 -0.3237  0.0850
 7979SOL    HW135570   1.749   1.431   8.843  0.4140  0.0471 -0.7313
 7979SOL    HW235571   1.748   1.294   8.883  2.5876 -2.4388 -0.2103
 7980SOL     OW35572   3.801   2.390   5.559  0.0056  0.0986  0.0260
 7980SOL    HW135573   3.890   2.355   5.556 -0.6517 -1.7673  2.4462
 7980SOL    HW235574   3.745   2.320   5.527 -0.1292 -0.5925  1.7715
 7981SOL     OW35575   4.487   3.698  11.933 -0.3714  0.2206  0.0259
 7981SOL    HW135576   4.568   3.679  11.979 -1.1862  0.0498  1.3876
 7981SOL    HW235577   4.446   3.749  12.003  1.7453  1.7032  0.1709
 7982SOL     OW35578   4.463   4.423   9.005  0.3010  0.4074  0.5436
 7982SOL    HW135579   4.441   4.511   9.035  1.3125  1.3682 -1.5478
 7982SOL    HW235580   4.545   4.454   8.966  0.8452  0.7852  1.9643
 7983SOL     OW35581   0.905   0.992   5.886  0.2711  0.2094  0.0488
 7983SOL    HW135582   0.818   1.021   5.859  0.3332 -1.3613 -1.8293
 7983SOL    HW235583   0.921   0.918   5.828 -2.4257 -0.3116 -0.0477
 7984SOL     OW35584   3.289   4.431   4.607 -0.3380 -0.1461  0.4778
 7984SOL    HW135585   3.310   4.399   4.519 -1.8436  1.0569 -0.3064
 7984SOL    HW235586   3.240   4.511   4.587  0.0117 -0.4557 -1.6650
 7985SOL     OW35587   0.060   2.061   7.728  0.6579 -0.1352  0.6535
 7985SOL    HW135588   0.059   2.156   7.714 -1.9906 -0.7634 -3.4778
 7985SOL    HW235589   0.024   2.036   7.643  0.4242 -0.9999  1.0055
 7986SOL     OW35590   3.901   1.054   2.962  0.1339  0.0427 -0.0703
 7986SOL    HW135591   3.881   0.965   2.934 -4.7645  1.1888 -0.2782
 7986SOL    HW235592   3.983   1.053   3.011 -0.0515  1.1953  0.2766
 7987SOL     OW35593   3.543   0.984   7.372  0.6857 -0.0016 -0.0077
 7987SOL    HW135594   3.508   0.951   7.454  2.0447  0.2612  0.6817
 7987SOL    HW235595   3.636   0.973   7.391  1.0271  0.8212 -1.1333
 7988SOL     OW35596   1.697   0.770   4.253  0.6782  0.0094 -0.0695
 7988SOL    HW135597   1.690   0.681   4.219 -0.8229 -0.0404  0.3600
 7988SOL    HW235598   1.791   0.787   4.244  0.8579 -1.8834 -1.8116
 7989SOL     OW35599   0.172   0.912   6.858 -0.9867 -0.0576  0.4630
 7989SOL    HW135600   0.162   1.000   6.821  1.3335  1.1659  2.7236
 7989SOL    HW235601   0.260   0.929   6.892 -1.1801  1.4423  0.2453
 7990SOL     OW35602   3.317   4.080   3.275 -0.1010 -0.7233  0.3413
 7990SOL    HW135603   3.361   3.996   3.293 -0.7451 -1.8365 -3.3546
 7990SOL    HW235604   3.381   4.130   3.224 -0.2644 -0.5229  0.3334
 7991SOL     OW35605   3.777   1.520  16.073  0.0584  0.0532  0.0806
 7991SOL    HW135606   3.839   1.470  16.125  0.4438  0.0222 -0.4052
 7991SOL    HW235607   3.808   1.524  15.983  1.5865 -2.8472  0.4993
 7992SOL     OW35608   2.652   2.226  15.069 -0.4289 -0.3210  0.1024
 7992SOL    HW135609   2.657   2.319  15.048 -2.4727 -0.3910 -0.6525
 7992SOL    HW235610   2.675   2.179  14.989  0.2767 -0.4344  0.3632
 7993SOL     OW35611   3.841   3.936  10.026 -0.0621 -0.5358 -0.0383
 7993SOL    HW135612   3.854   3.968   9.937 -0.3486 -4.1788 -1.4222
 7993SOL    HW235613   3.875   3.848  10.009 -2.2078 -0.6782 -3.6415
 7994SOL     OW35614   3.405   2.557   5.135 -0.2822 -0.2661 -0.2780
 7994SOL    HW135615   3.333   2.498   5.110  0.3035 -1.4923  0.9124
 7994SOL    HW235616   3.377   2.576   5.225  0.9447 -0.1155  0.0713
 7995SOL     OW35617   0.076   3.266   8.823  0.5246  0.2980 -0.4977
 7995SOL    HW135618   0.162   3.231   8.800  0.3604 -1.4483  1.4655
 7995SOL    HW235619   0.095   3.341   8.879 -1.9618  0.3474  0.2643
 7996SOL     OW35620   2.088   1.231   2.438  0.0445 -0.5374  0.0668
 7996SOL    HW135621   2.048   1.181   2.508 -1.3953  0.0828 -0.3163
 7996SOL    HW235622   2.161   1.172   2.420 -1.0198 -1.7566 -0.2021
 7997SOL     OW35623   3.698   3.046   4.959  0.1186  0.1335  0.4918
 7997SOL    HW135624   3.723   2.998   4.881 -1.9557  2.3255 -1.5064
 7997SOL    HW235625   3.658   2.978   5.013 -0.3290 -0.7620 -1.0049
 7998SOL     OW35626   2.590   2.738   9.777  0.0332  0.0863  0.0750
 7998SOL    HW135627   2.512   2.683   9.780  0.2336 -0.1334  1.2177
 7998SOL    HW235628   2.575   2.791   9.855 -0.1047 -2.3782  1.7238
 7999SOL     OW35629   0.777   4.462  14.002  0.2665 -0.6022 -0.1226
 7999SOL    HW135630   0.767   4.468  13.907  0.3821  1.7517  0.0064
 7999SOL    HW235631   0.778   4.556  14.021 -0.8786 -0.1978 -1.9989
 8000SOL     OW35632   3.318   3.448   1.506 -0.5768  0.2484 -0.0932
 8000SOL    HW135633   3.401   3.454   1.459 -0.7100 -1.3323 -0.5061
 8000SOL    HW235634   3.308   3.535   1.545 -0.2284  1.3856 -2.5677
 8001SOL     OW35635   3.548   4.371   7.892 -0.7777  0.2987  0.2701
 8001SOL    HW135636   3.604   4.446   7.912 -0.0171 -0.4550  0.9239
 8001SOL    HW235637   3.482   4.412   7.835 -0.0798  1.5274  0.3530
 8002SOL     OW35638   2.921   0.504   3.660 -0.3046 -0.1165 -0.1199
 8002SOL    HW135639   2.926   0.597   3.683 -1.5075  0.3562 -1.8192
 8002SOL    HW235640   2.974   0.475   3.735  2.6639  2.0552 -1.3894
 8003SOL     OW35641   2.521   0.502  17.228  0.5041 -0.4399 -0.0902
 8003SOL    HW135642   2.464   0.434  17.263 -0.5171  0.3997 -0.1209
 8003SOL    HW235643   2.455   0.568  17.208  0.3890 -0.5894 -0.2015
 8004SOL     OW35644   2.367   3.785   4.297 -0.0865 -0.0990 -0.4792
 8004SOL    HW135645   2.389   3.855   4.236  0.7268 -0.8498 -1.0510
 8004SOL    HW235646   2.425   3.712   4.275  1.9774  1.5031 -0.4135
 8005SOL     OW35647   3.084   2.951   3.556 -0.4558 -0.2298  0.0889
 8005SOL    HW135648   3.084   2.869   3.506  1.7027 -0.6868  0.8409
 8005SOL    HW235649   2.990   2.972   3.562 -1.0758 -3.0980  0.5333
 8006SOL     OW35650   3.174   2.026   8.861  0.5027 -0.3097 -0.5232
 8006SOL    HW135651   3.212   2.027   8.949 -0.9758  2.2530  0.0773
 8006SOL    HW235652   3.253   1.997   8.815  0.2266  1.0517 -1.8519
 8007SOL     OW35653   0.316   0.932   5.392 -0.1349  0.1552  0.2537
 8007SOL    HW135654   0.223   0.912   5.374 -0.2923 -1.2860  2.7416
 8007SOL    HW235655   0.351   0.900   5.309  0.8020  0.3758  0.5712
 8008SOL     OW35656   0.576   4.689   5.968 -0.4448 -0.6413  0.0875
 8008SOL    HW135657   0.590   0.048   5.973 -0.7815 -0.5637 -0.4750
 8008SOL    HW235658   0.598   4.679   5.875 -0.2962  2.4795 -0.2077
 8009SOL     OW35659   2.072   0.008  12.220  0.8239 -0.1590  0.3589
 8009SOL    HW135660   2.001   0.072  12.210  0.7679 -0.7107 -2.6001
 8009SOL    HW235661   2.151   0.059  12.239  2.2233 -2.3981  0.4705
 8010SOL     OW35662   0.699   1.110   4.329 -0.6988 -0.2219 -0.1562
 8010SOL    HW135663   0.706   1.172   4.257 -2.1655 -0.7534 -0.7306
 8010SOL    HW235664   0.721   1.030   4.282 -1.1104  0.0616 -0.8276
 8011SOL     OW35665   0.942   2.947  16.551 -0.1847 -0.5126  0.2267
 8011SOL    HW135666   0.998   2.962  16.475  0.2295 -1.4463  0.3503
 8011SOL    HW235667   1.000   2.884  16.594  2.6813  0.7682 -1.7666
 8012SOL     OW35668   1.474   3.918   5.424  0.0231  0.3831  0.0887
 8012SOL    HW135669   1.438   3.951   5.507 -0.0510  2.0318 -0.6047
 8012SOL    HW235670   1.549   3.975   5.407  0.7452 -0.7729 -0.6120
 8013SOL     OW35671   4.336   3.154   5.244 -0.7960  0.1376  0.2811
 8013SOL    HW135672   4.326   3.061   5.262 -3.3573  0.1506 -1.0493
 8013SOL    HW235673   4.414   3.162   5.188  0.4183  1.9699  2.2253
 8014SOL     OW35674   0.978   2.803   2.584  0.0944  0.4518 -0.2748
 8014SOL    HW135675   1.004   2.755   2.663  1.1415  0.0147 -0.8765
 8014SOL    HW235676   0.967   2.893   2.615  2.4369  0.6173  0.0788
 8015SOL     OW35677   2.994   1.158  12.580  0.6802 -0.1284 -0.3342
 8015SOL    HW135678   2.996   1.111  12.663  0.4780 -0.4340 -0.5017
 8015SOL    HW235679   2.910   1.124  12.549  1.1692 -0.2613 -1.5147
 8016SOL     OW35680   0.089   3.425   1.540 -0.2938  0.4726  0.2773
 8016SOL    HW135681   0.046   3.438   1.455 -0.2751 -0.1153  0.1802
 8016SOL    HW235682   0.124   3.512   1.560 -1.1879  1.1072 -0.8668
 8017SOL     OW35683   2.108   4.699   8.542  0.4866  0.3021  0.5114
 8017SOL    HW135684   2.087   4.605   8.542 -0.7078  0.5718  1.0660
 8017SOL    HW235685   2.160   4.723   8.618  2.8658  0.2296 -1.0924
 8018SOL     OW35686   2.356   2.729   6.725 -0.4066 -0.1235  0.6291
 8018SOL    HW135687   2.431   2.676   6.701 -1.2938 -0.5235 -1.2875
 8018SOL    HW235688   2.390   2.813   6.756  0.1845 -0.3915  0.7031
 8019SOL     OW35689   3.910   2.065   4.447 -0.7185  0.0346  0.1080
 8019SOL    HW135690   3.960   2.078   4.367  0.1864  2.0911  1.0255
 8019SOL    HW235691   3.883   2.153   4.473  0.9998  0.5166  0.2303
 8020SOL     OW35692   0.691   2.778   6.653 -0.1944 -0.0907  0.2862
 8020SOL    HW135693   0.763   2.827   6.693 -0.4792  1.3358 -0.9558
 8020SOL    HW235694   0.682   2.696   6.702 -1.0807 -0.5941 -0.7116
 8021SOL     OW35695   2.784   3.967   4.839  0.0343  0.1987  0.7538
 8021SOL    HW135696   2.716   3.924   4.892 -0.3228 -0.8017 -0.5051
 8021SOL    HW235697   2.732   3.995   4.764 -0.3538 -3.2087 -0.2707
 8022SOL     OW35698   3.900   0.071   6.080  0.0047  0.4985 -0.4742
 8022SOL    HW135699   3.913   0.156   6.122  2.8389 -0.4147  0.4937
 8022SOL    HW235700   3.953   0.072   6.000 -0.4958  1.1213 -0.7969
 8023SOL     OW35701   3.543   2.211  11.959  0.1697  0.0191  0.0632
 8023SOL    HW135702   3.599   2.184  12.032  1.8539  0.5948 -1.0093
 8023SOL    HW235703   3.602   2.191  11.886  1.1666  0.3955  0.7651
 8024SOL     OW35704   2.676   0.671   6.764  0.1070 -0.3678 -0.6347
 8024SOL    HW135705   2.708   0.732   6.831  2.5010 -2.0549 -0.2712
 8024SOL    HW235706   2.659   0.719   6.683  2.1281  0.0220 -0.8269
 8025SOL     OW35707   4.464   4.085   9.944  0.0193 -0.7529  0.0480
 8025SOL    HW135708   4.479   4.099   9.851 -1.4064 -0.2097 -0.1133
 8025SOL    HW235709   4.555   4.094   9.971 -0.6679 -0.5160  2.3024
 8026SOL     OW35710   1.090   1.150   1.805 -0.0162 -0.1475  0.3349
 8026SOL    HW135711   1.179   1.186   1.804  0.2308 -0.7499  0.3179
 8026SOL    HW235712   1.048   1.211   1.865 -0.8663 -1.2802  0.9005
 8027SOL     OW35713   2.833   4.679   7.389  0.5147 -0.3521  0.1496
 8027SOL    HW135714   2.857   0.005   7.459  1.4639  1.2805 -1.6004
 8027SOL    HW235715   2.881   4.604   7.423  2.0219 -0.1121 -1.4371
 8028SOL     OW35716   3.580   2.206  16.019  0.0514  0.0093 -0.7038
 8028SOL    HW135717   3.507   2.265  15.998 -0.8671 -1.6605 -2.1901
 8028SOL    HW235718   3.536   2.121  16.012 -2.1071  0.7949  3.2779
 8029SOL     OW35719   1.615   1.861  17.736  0.1469 -0.4049  0.4375
 8029SOL    HW135720   1.656   1.890   0.077  0.4319  0.0241  0.1427
 8029SOL    HW235721   1.592   1.946  17.698 -2.4750 -1.1132  0.4186
 8030SOL     OW35722   3.176   2.326   5.346 -0.3514  0.1302  0.1904
 8030SOL    HW135723   3.138   2.391   5.406  1.7188  1.2335  0.2830
 8030SOL    HW235724   3.149   2.369   5.265 -2.2212 -0.7952  0.3277
 8031SOL     OW35725   2.057   3.589   2.781  0.1201 -0.3792  0.4300
 8031SOL    HW135726   2.097   3.657   2.835  0.1327 -0.7473  0.8846
 8031SOL    HW235727   2.130   3.531   2.758  1.5357  0.9163  1.6495
 8032SOL     OW35728   3.857   4.685   7.767  0.5752  0.4628 -0.1773
 8032SOL    HW135729   3.894   4.681   7.678  2.9846 -0.6893  0.8751
 8032SOL    HW235730   3.904   0.025   7.804  1.3461 -0.5804  0.9289
 8033SOL     OW35731   3.744   4.411   9.539 -0.5373 -0.4541 -0.3338
 8033SOL    HW135732   3.731   4.457   9.622 -1.0126  0.8358 -1.1225
 8033SOL    HW235733   3.766   4.320   9.557  0.4236 -0.1808 -0.0998
 8034SOL     OW35734   1.591   3.516   2.580 -0.1385 -0.0847 -0.0906
 8034SOL    HW135735   1.633   3.522   2.494 -3.0580 -0.2926 -1.5243
 8034SOL    HW235736   1.612   3.607   2.601 -0.8392  0.0067  0.1986
 8035SOL     OW35737   1.606   3.013   8.749 -0.2219 -0.6324 -0.2229
 8035SOL    HW135738   1.596   2.918   8.743 -2.2714 -0.2844 -2.2471
 8035SOL    HW235739   1.546   3.042   8.817  0.8321  1.4079 -0.1589
 8036SOL     OW35740   0.501   1.839   9.045 -0.2762  0.2662  0.1153
 8036SOL    HW135741   0.507   1.908   9.111  2.6289 -0.5207  0.6618
 8036SOL    HW235742   0.593   1.812   9.048  0.0085  1.3961  1.5899
 8037SOL     OW35743   4.152   4.724  16.635  0.2591 -0.1813  0.5751
 8037SOL    HW135744   4.210   0.051  16.590 -0.9346  0.0381 -0.6590
 8037SOL    HW235745   4.132   0.036  16.715 -2.2562  1.4324 -1.0068
 8038SOL     OW35746   0.946   1.904   4.561 -0.0518 -1.0556 -0.2527
 8038SOL    HW135747   0.972   1.901   4.653  1.1570 -1.6559 -0.6141
 8038SOL    HW235748   1.026   1.865   4.526  1.5986 -0.5927  3.0108
 8039SOL     OW35749   2.012   1.271   8.702 -0.0403  0.0040 -0.9474
 8039SOL    HW135750   1.990   1.180   8.722 -1.0875  0.6463  0.7994
 8039SOL    HW235751   1.923   1.305   8.713  0.0665  0.6126 -1.9382
 8040SOL     OW35752   2.392   1.248   5.573  0.1719  0.3368 -0.3944
 8040SOL    HW135753   2.443   1.171   5.599 -1.8085 -0.7733  0.2025
 8040SOL    HW235754   2.323   1.247   5.640  0.7742  0.7088  0.2322
 8041SOL     OW35755   0.519   3.754  16.934 -0.1883 -0.5641  0.0987
 8041SOL    HW135756   0.461   3.783  16.864  0.6923 -0.2165 -0.4814
 8041SOL    HW235757   0.552   3.677  16.888  2.3721  0.4677  0.2225
 8042SOL     OW35758   0.671   3.205   6.924  0.1990  0.8393 -0.2910
 8042SOL    HW135759   0.665   3.191   6.829  1.4792 -3.7763  0.3146
 8042SOL    HW235760   0.667   3.116   6.960  1.4668  1.0100  0.2490
 8043SOL     OW35761   3.076   2.062   9.306  0.1701 -0.3771  0.1042
 8043SOL    HW135762   3.009   2.129   9.322  3.1845  3.0158 -1.3666
 8043SOL    HW235763   3.089   2.023   9.392  0.9026  0.3214  0.3059
 8044SOL     OW35764   3.710   0.762   7.894 -0.1440 -0.5453  0.1295
 8044SOL    HW135765   3.638   0.698   7.898  0.6488 -1.3468  1.7584
 8044SOL    HW235766   3.766   0.709   7.838 -0.2503  0.7943 -1.2245
 8045SOL     OW35767   2.491   4.689  15.413  0.2722 -0.2166  0.2261
 8045SOL    HW135768   2.526   0.026  15.464 -0.5770 -0.0995  0.6420
 8045SOL    HW235769   2.458   0.003  15.339 -2.8668 -2.4426  0.1160
 8046SOL     OW35770   0.782   1.725   5.997 -0.5307 -0.1308 -0.3415
 8046SOL    HW135771   0.814   1.721   5.908 -0.6052  0.4998 -0.3973
 8046SOL    HW235772   0.848   1.782   6.035 -0.4691 -0.3323 -0.1440
 8047SOL     OW35773   3.449   3.975  10.011 -0.0121 -0.3089 -0.4631
 8047SOL    HW135774   3.470   3.947   9.921  1.0172  0.1620 -0.3634
 8047SOL    HW235775   3.407   4.059   9.993  0.2808 -0.6901 -3.0439
 8048SOL     OW35776   0.062   1.364  14.157 -0.0962 -0.3053  0.3350
 8048SOL    HW135777   0.124   1.300  14.122  2.3261  1.8028  0.7392
 8048SOL    HW235778   0.127   1.434  14.169 -0.8730  0.5070 -0.1500
 8049SOL     OW35779   3.566   0.367   9.079  0.5543 -0.2739 -0.0108
 8049SOL    HW135780   3.483   0.332   9.047  1.1156 -0.8739 -0.7907
 8049SOL    HW235781   3.629   0.369   9.007 -0.7251 -0.9972 -1.1531
 8050SOL     OW35782   1.203   0.065   7.794 -0.2774  0.7060 -0.5530
 8050SOL    HW135783   1.136   0.009   7.833  0.8596 -0.0950  0.2588
 8050SOL    HW235784   1.145   0.118   7.740 -1.6110 -1.0733 -0.8692
 8051SOL     OW35785   1.222   4.080   3.537  0.4287 -0.4934 -0.7103
 8051SOL    HW135786   1.275   4.148   3.577 -0.3199  0.8914 -2.0721
 8051SOL    HW235787   1.228   4.107   3.445 -1.1464  1.8011 -0.1251
 8052SOL     OW35788   0.689   3.489   5.483  0.5711 -0.2767  0.1238
 8052SOL    HW135789   0.732   3.416   5.440 -0.4795 -1.7949  1.6439
 8052SOL    HW235790   0.727   3.564   5.437 -0.1383  0.2156  0.3272
 8053SOL     OW35791   1.217   3.087   5.650  0.1896 -0.1244  0.4659
 8053SOL    HW135792   1.157   3.054   5.583 -0.6440  0.3510  0.9821
 8053SOL    HW235793   1.278   3.142   5.602 -1.0635 -1.2909 -2.4624
 8054SOL     OW35794   2.638   2.934   3.035  0.0383  0.0888  0.5017
 8054SOL    HW135795   2.677   2.847   3.035  1.6347  0.8094 -0.8862
 8054SOL    HW235796   2.548   2.919   3.006  0.1756 -0.1364  0.2004
 8055SOL     OW35797   2.094   0.495   2.784  0.3396  0.8684  0.0303
 8055SOL    HW135798   2.037   0.425   2.818  0.3158  0.7170 -0.3288
 8055SOL    HW235799   2.057   0.504   2.696  1.0233  1.4760 -0.1895
 8056SOL     OW35800   4.729   4.382   5.548 -0.0489  0.3662  0.2538
 8056SOL    HW135801   4.648   4.407   5.592 -1.1605  0.2627 -1.7296
 8056SOL    HW235802   0.046   4.400   5.626 -0.3238 -0.1053  0.5416
 8057SOL     OW35803   1.009   4.681  17.354 -0.6254 -0.1508  0.2218
 8057SOL    HW135804   1.095   4.652  17.323 -0.6381  0.5676 -0.4763
 8057SOL    HW235805   1.021   4.640  17.440  1.7256  2.0212  0.9471
 8058SOL     OW35806   4.718   2.020   8.329 -0.8222  0.2878  0.3038
 8058SOL    HW135807   0.035   1.946   8.299 -0.4396  1.2517 -1.4033
 8058SOL    HW235808   4.641   2.015   8.272 -1.8386 -2.4230  1.8912
 8059SOL     OW35809   1.798   3.260   6.930  0.6882  0.1565  0.4370
 8059SOL    HW135810   1.791   3.220   6.843 -2.3244 -0.2196  0.8483
 8059SOL    HW235811   1.839   3.343   6.908 -0.1596  0.6028  0.5419
 8060SOL     OW35812   0.687   4.478   7.078 -0.4039  0.1533  0.1795
 8060SOL    HW135813   0.782   4.492   7.068 -0.5438  0.9111 -0.0714
 8060SOL    HW235814   0.666   4.454   6.989 -0.1174  0.8831 -0.0917
 8061SOL     OW35815   0.245   4.030  12.377  0.3202  0.4915 -0.1769
 8061SOL    HW135816   0.231   4.068  12.464  3.2827 -0.1870  0.6003
 8061SOL    HW235817   0.181   4.077  12.324  0.4980 -0.6759 -1.4343
 8062SOL     OW35818   2.074   4.503   6.786 -0.4721 -0.7271 -0.3485
 8062SOL    HW135819   2.023   4.440   6.735 -3.5152  0.5783  1.1219
 8062SOL    HW235820   2.091   4.577   6.727 -2.4583  0.7662  0.9436
 8063SOL     OW35821   3.616   3.765   4.550 -0.0377 -0.2348  0.1262
 8063SOL    HW135822   3.548   3.698   4.549 -0.8424  0.5731  0.2636
 8063SOL    HW235823   3.631   3.791   4.459  0.0306  1.4291  0.6057
 8064SOL     OW35824   4.562   2.007   9.599  0.2537  0.2836  0.4290
 8064SOL    HW135825   4.574   2.061   9.522 -0.8538  0.4043  0.3373
 8064SOL    HW235826   4.487   2.051   9.639 -0.4097 -0.0972 -0.3820
 8065SOL     OW35827   3.186   2.286  14.229  0.4239  0.5585  0.0917
 8065SOL    HW135828   3.181   2.312  14.137 -0.3490 -0.0841 -0.0447
 8065SOL    HW235829   3.246   2.212  14.222  1.7257  1.7247 -1.2107
 8066SOL     OW35830   1.994   2.246  13.824 -0.1800  0.1325  0.2312
 8066SOL    HW135831   2.036   2.194  13.893  0.6041  1.4243  0.7105
 8066SOL    HW235832   1.951   2.175  13.776 -0.5684  0.4590  0.1040
 8067SOL     OW35833   1.878   2.700   4.208  0.7945  0.7879 -0.5042
 8067SOL    HW135834   1.829   2.696   4.125  0.2859  1.7888 -0.2555
 8067SOL    HW235835   1.914   2.788   4.214  1.8232  0.3884 -0.7208
 8068SOL     OW35836   3.590   2.096   3.583  0.1263 -0.2728  0.8018
 8068SOL    HW135837   3.585   2.190   3.599 -0.1790  0.4791 -3.7287
 8068SOL    HW235838   3.618   2.101   3.491  0.2229  0.3740  0.8683
 8069SOL     OW35839   3.024   2.431  15.589 -0.0879  0.2096 -0.2773
 8069SOL    HW135840   2.951   2.489  15.613  0.1380 -0.5069  2.1117
 8069SOL    HW235841   2.993   2.412  15.500 -0.7771 -0.4660  0.1039
 8070SOL     OW35842   1.241   0.761   6.771  0.1978  0.0069  0.2532
 8070SOL    HW135843   1.302   0.720   6.712  1.4914  2.0817  0.1402
 8070SOL    HW235844   1.223   0.846   6.730 -2.3747  0.7466  2.8303
 8071SOL     OW35845   4.322   0.488   4.211  0.2137 -0.3132 -0.2064
 8071SOL    HW135846   4.376   0.421   4.252 -2.3584 -2.1998  0.1227
 8071SOL    HW235847   4.394   0.546   4.185 -0.2476  0.7009  0.7644
 8072SOL     OW35848   1.681   0.512   7.350  0.5651  0.0452 -0.4376
 8072SOL    HW135849   1.672   0.566   7.429 -0.6284  0.8216 -1.1051
 8072SOL    HW235850   1.756   0.456   7.369  2.1231  1.9390 -0.9556
 8073SOL     OW35851   2.870   1.538  15.219  0.6169  0.4333  0.6258
 8073SOL    HW135852   2.833   1.623  15.196 -0.0510 -0.1565 -0.5255
 8073SOL    HW235853   2.909   1.507  15.137 -0.3115 -1.1535  0.7669
 8074SOL     OW35854   3.426   3.196   5.126 -0.5671 -0.0661 -0.2075
 8074SOL    HW135855   3.494   3.221   5.063 -0.5823  2.5911  0.8309
 8074SOL    HW235856   3.403   3.111   5.089 -0.8228  0.7863 -2.0099
 8075SOL     OW35857   0.792   3.338   9.860 -0.2065  0.3798 -0.6104
 8075SOL    HW135858   0.739   3.418   9.854  1.3327  1.3994 -0.7425
 8075SOL    HW235859   0.835   3.354   9.776 -0.6878 -1.4656 -1.1952
 8076SOL     OW35860   4.725   3.769   7.238 -0.2503 -0.3638  0.2938
 8076SOL    HW135861   4.705   3.693   7.183  0.8087  0.6723 -1.5257
 8076SOL    HW235862   0.081   3.787   7.218  0.0508 -1.4569  0.6733
 8077SOL     OW35863   0.708   3.198  15.424  0.2227 -0.2298 -0.4087
 8077SOL    HW135864   0.769   3.185  15.352  0.4681  2.8567 -0.7450
 8077SOL    HW235865   0.716   3.113  15.468 -0.3884 -0.2747 -0.3826
 8078SOL     OW35866   0.096   1.201   3.290  0.0349  0.0477  0.3416
 8078SOL    HW135867   0.159   1.180   3.359  0.4634 -0.4658 -0.1983
 8078SOL    HW235868   0.024   1.138   3.298 -1.1502  1.2547 -0.8178
 8079SOL     OW35869   4.228   3.387   5.098  0.2476  0.2210  0.0910
 8079SOL    HW135870   4.262   3.311   5.144  0.5485  0.0909 -0.3404
 8079SOL    HW235871   4.282   3.401   5.020 -0.8685  0.7544 -0.5963
 8080SOL     OW35872   2.224   2.481   7.575  0.2246 -0.3608  0.3295
 8080SOL    HW135873   2.262   2.400   7.608 -0.3315 -1.2024 -1.0924
 8080SOL    HW235874   2.270   2.535   7.639  1.0148  0.9259 -1.3037
 8081SOL     OW35875   2.382   3.084   2.476 -0.4949 -0.2172  0.2285
 8081SOL    HW135876   2.353   2.992   2.478 -0.2517 -0.3261 -1.5925
 8081SOL    HW235877   2.408   3.078   2.568 -0.4208 -1.9456  0.0921
 8082SOL     OW35878   3.628   2.516   4.719 -0.3480 -0.1166  0.0909
 8082SOL    HW135879   3.722   2.536   4.713 -0.5041 -0.0141 -2.3087
 8082SOL    HW235880   3.622   2.516   4.814  0.7570 -0.1432  0.1609
 8083SOL     OW35881   3.244   4.667   1.174 -0.8526  0.1799  0.1720
 8083SOL    HW135882   3.291   0.015   1.185  0.0442 -0.2521 -0.3394
 8083SOL    HW235883   3.321   4.613   1.156 -1.7774 -1.3674  0.8740
 8084SOL     OW35884   4.065   3.621   8.226 -0.0492  0.3616  0.2160
 8084SOL    HW135885   4.075   3.532   8.190  0.1316  0.9337 -1.1503
 8084SOL    HW235886   4.153   3.625   8.265 -0.5998 -0.1670  1.4834
 8085SOL     OW35887   4.210   3.283   7.736 -0.2916 -0.5177  0.1087
 8085SOL    HW135888   4.144   3.287   7.667 -0.5713  0.5734  0.4293
 8085SOL    HW235889   4.194   3.365   7.784  0.8746  0.1715 -0.6866
 8086SOL     OW35890   1.887   4.074   6.945  0.3480  0.9297 -1.1178
 8086SOL    HW135891   1.818   4.141   6.939 -1.6860 -1.1224 -0.6577
 8086SOL    HW235892   1.922   4.109   7.027  2.8148 -2.8184 -0.5954
 8087SOL     OW35893   4.669   2.695   3.729  0.8406 -0.0198 -0.0795
 8087SOL    HW135894   4.646   2.734   3.645 -0.3725  1.4356  0.9338
 8087SOL    HW235895   4.618   2.616   3.746 -0.3733  0.8956  0.4820
 8088SOL     OW35896   0.548   1.121  11.346 -0.5694  0.4772 -0.1002
 8088SOL    HW135897   0.606   1.098  11.419  1.7842  2.3037 -1.3871
 8088SOL    HW235898   0.508   1.039  11.318 -0.1436  1.2528 -2.9117
 8089SOL     OW35899   3.956   4.674   7.037  0.7129  0.4420 -0.2442
 8089SOL    HW135900   4.011   4.651   6.961  3.5752  0.3259  1.8623
 8089SOL    HW235901   3.884   4.626   6.997 -1.0088  2.7383  0.1170
 8090SOL     OW35902   0.101   2.880  14.778  0.2565  0.1908 -0.1901
 8090SOL    HW135903   0.038   2.811  14.799  0.9486 -0.4592 -0.2262
 8090SOL    HW235904   0.056   2.932  14.711 -0.0078  2.2489  1.6069
 8091SOL     OW35905   0.079   1.373   9.058  0.4562 -0.4161  0.5909
 8091SOL    HW135906   4.723   1.363   9.031  0.6264 -1.9902  0.5987
 8091SOL    HW235907   0.103   1.441   8.995 -2.3414 -0.9024 -0.9943
 8092SOL     OW35908   2.028   1.415   3.222 -0.2052 -0.0691  0.2804
 8092SOL    HW135909   2.069   1.484   3.169  0.1009 -0.8383 -0.4874
 8092SOL    HW235910   1.958   1.456   3.271 -0.0484 -0.5845  0.9343
 8093SOL     OW35911   1.734   3.300  13.150  0.4442  0.6681  0.4209
 8093SOL    HW135912   1.690   3.362  13.208 -2.9312 -2.4303  1.1321
 8093SOL    HW235913   1.799   3.357  13.108 -0.4544  0.6598 -1.0020
 8094SOL     OW35914   1.996   2.633   7.450 -0.1922 -0.7522 -0.1201
 8094SOL    HW135915   2.077   2.591   7.477  0.1497 -0.4192 -0.6315
 8094SOL    HW235916   1.986   2.612   7.357 -0.2737  0.8037 -0.4771
 8095SOL     OW35917   3.082   1.785   3.948 -0.2360 -0.3122  0.6169
 8095SOL    HW135918   3.134   1.708   3.966 -2.9936 -1.9587  1.6074
 8095SOL    HW235919   3.037   1.812   4.028 -0.5334 -0.4084  0.4845
 8096SOL     OW35920   0.667   1.893   8.480 -0.3070 -0.3503 -0.2697
 8096SOL    HW135921   0.574   1.869   8.486 -0.6778  1.8796  2.7182
 8096SOL    HW235922   0.695   1.911   8.570 -2.0302  0.5085  0.0828
 8097SOL     OW35923   4.482   3.920   6.462 -0.1391  0.6637 -0.7106
 8097SOL    HW135924   4.387   3.929   6.471 -0.4309 -2.6934 -0.7141
 8097SOL    HW235925   4.499   3.915   6.368 -1.5666  0.9572 -0.9805
 8098SOL     OW35926   3.506   0.468  14.777  0.0783 -0.1549 -0.0681
 8098SOL    HW135927   3.553   0.543  14.813 -1.2075  0.6090 -0.0179
 8098SOL    HW235928   3.416   0.494  14.797  0.0932  1.3463 -2.0373
 8099SOL     OW35929   2.397   4.298   2.147  0.7631  0.3727 -0.5934
 8099SOL    HW135930   2.404   4.215   2.099 -0.1081 -1.2644  2.1141
 8099SOL    HW235931   2.302   4.306   2.153  0.6835 -0.1313 -1.1027
 8100SOL     OW35932   1.414   0.782   2.273 -0.1447 -0.0963 -0.3875
 8100SOL    HW135933   1.345   0.716   2.266  0.4037 -0.7448  0.2831
 8100SOL    HW235934   1.476   0.740   2.214  1.0671 -1.0731  1.5677
 8101SOL     OW35935   0.736   3.695   2.675 -0.0568 -0.1890  0.1289
 8101SOL    HW135936   0.710   3.638   2.603 -0.1620 -0.1714  0.1531
 8101SOL    HW235937   0.699   3.650   2.751  0.9884  1.7770  1.7922
 8102SOL     OW35938   0.853   1.644  12.975  0.6440 -0.2711 -0.0752
 8102SOL    HW135939   0.858   1.585  13.049 -4.5511  1.5098  1.6396
 8102SOL    HW235940   0.778   1.700  12.996  1.5364  0.7693  0.3357
 8103SOL     OW35941   3.756   4.360   4.296  0.0393 -0.1166  0.1044
 8103SOL    HW135942   3.772   4.376   4.389 -1.2385  1.1172  0.1150
 8103SOL    HW235943   3.745   4.450   4.266  0.6942  0.2807  1.0523
 8104SOL     OW35944   1.379   0.498   6.438 -0.1437  0.1873  0.4017
 8104SOL    HW135945   1.381   0.429   6.371 -1.5584 -0.2091  0.7547
 8104SOL    HW235946   1.304   0.547   6.406 -1.9994 -1.2368  2.5045
 8105SOL     OW35947   4.246   0.205  10.999 -0.6009 -0.6383  0.6881
 8105SOL    HW135948   4.296   0.281  11.030  0.4362 -1.9765  2.3141
 8105SOL    HW235949   4.267   0.204  10.906 -2.1093  0.3212  0.3375
 8106SOL     OW35950   4.150   1.633   6.743  0.3986 -0.0931 -0.5335
 8106SOL    HW135951   4.125   1.556   6.794 -0.9860 -0.4155 -1.7122
 8106SOL    HW235952   4.090   1.705   6.764  0.5834 -0.8045  2.4117
 8107SOL     OW35953   3.888   1.796   8.034  0.3838 -0.0303  0.5725
 8107SOL    HW135954   3.892   1.783   8.128 -0.6345 -0.3021  0.5736
 8107SOL    HW235955   3.812   1.855   8.028  0.9404  0.6609  0.2362
 8108SOL     OW35956   1.735   4.092  15.149 -0.6615  0.1474  1.0932
 8108SOL    HW135957   1.739   4.136  15.064  0.1787 -0.4601  0.8154
 8108SOL    HW235958   1.658   4.035  15.145 -0.0827 -0.4386 -1.7584
 8109SOL     OW35959   2.430   0.355   4.446 -0.0570 -0.9970  0.3105
 8109SOL    HW135960   2.380   0.436   4.453  1.6133  0.0019  0.5560
 8109SOL    HW235961   2.374   0.297   4.498 -2.3804  1.2908  0.3759
 8110SOL     OW35962   4.498   2.414   4.073 -0.1915 -0.7102 -0.2177
 8110SOL    HW135963   4.554   2.362   4.015 -1.5630 -1.0564 -1.2340
 8110SOL    HW235964   4.462   2.345   4.129 -0.0027 -1.3587 -0.8866
 8111SOL     OW35965   0.003   0.355   5.397 -0.6294  0.0992  0.7243
 8111SOL    HW135966   4.686   0.359   5.317 -0.2643  0.3567  0.4983
 8111SOL    HW235967   0.065   0.285   5.379 -0.0732 -0.0725  3.1915
 8112SOL     OW35968   0.497   1.847   5.908 -0.4588 -0.2986 -0.1770
 8112SOL    HW135969   0.404   1.857   5.888 -0.6220  0.8459  1.1481
 8112SOL    HW235970   0.504   1.837   6.003  0.4790 -0.0420 -0.2196
 8113SOL     OW35971   4.290   4.283   7.468  0.1447  0.0695  0.1190
 8113SOL    HW135972   4.210   4.263   7.515  0.1696  0.2983  0.2586
 8113SOL    HW235973   4.265   4.362   7.420  0.8351 -0.4949 -1.1812
 8114SOL     OW35974   3.726   0.469   3.638  0.5641 -0.3853  0.0325
 8114SOL    HW135975   3.682   0.410   3.577  0.4283 -0.5872  0.3271
 8114SOL    HW235976   3.674   0.549   3.632 -1.5399 -1.5848  2.5003
 8115SOL     OW35977   2.544   2.243   1.584  0.8859  0.3391 -0.7460
 8115SOL    HW135978   2.547   2.338   1.571  0.3013  0.3033 -1.1171
 8115SOL    HW235979   2.629   2.218   1.547  0.9658  0.1653 -0.4457
 8116SOL     OW35980   3.461   0.790  17.664  0.3048  0.1604 -0.1003
 8116SOL    HW135981   3.499   0.874  17.637 -0.4155  0.4196 -0.3028
 8116SOL    HW235982   3.538   0.738  17.683  1.0901  1.1693 -0.5143
 8117SOL     OW35983   0.465   0.319   9.289  0.5957  0.0224  0.1067
 8117SOL    HW135984   0.430   0.376   9.220  1.8152  0.8135  0.1416
 8117SOL    HW235985   0.448   0.361   9.373  0.9145  2.3561 -1.0016
 8118SOL     OW35986   2.546   0.814   6.046 -0.6228  0.1161  0.1137
 8118SOL    HW135987   2.496   0.843   5.969  2.2533 -0.9824 -2.1670
 8118SOL    HW235988   2.488   0.743   6.073 -1.2271  0.0689 -1.2816
 8119SOL     OW35989   1.609   1.003   1.711 -0.4120  0.2812 -0.1828
 8119SOL    HW135990   1.661   0.971   1.638  0.7856 -0.6289  1.0745
 8119SOL    HW235991   1.598   0.927   1.767  1.2916 -1.0234 -1.6433
 8120SOL     OW35992   2.374   1.930  15.575  0.3865  0.4311 -0.2767
 8120SOL    HW135993   2.337   1.844  15.559 -1.5652  1.3271 -0.5812
 8120SOL    HW235994   2.460   1.918  15.536  0.1836 -0.3505 -0.4812
 8121SOL     OW35995   3.208   3.499   4.796  0.5188  0.3124  0.1334
 8121SOL    HW135996   3.152   3.543   4.860  0.6725  0.7203 -0.0103
 8121SOL    HW235997   3.205   3.410   4.829  0.1640  0.7938  1.3847
 8122SOL     OW35998   2.207   0.645   4.709  0.3844 -0.2918 -0.4624
 8122SOL    HW135999   2.184   0.657   4.801 -2.5437  2.0788 -1.5010
 8122SOL    HW236000   2.239   0.733   4.693  1.0187  0.2044  3.5816
 8123SOL     OW36001   3.522   0.312  11.797 -0.3404  0.8867  0.3150
 8123SOL    HW136002   3.513   0.368  11.719 -0.9839  1.9769  1.1778
 8123SOL    HW236003   3.443   0.323  11.849 -0.2129  0.2865  0.6315
 8124SOL     OW36004   3.949   3.813  12.009 -0.1615  0.3700 -0.8195
 8124SOL    HW136005   4.009   3.765  12.065 -0.4060 -0.5656 -1.3531
 8124SOL    HW236006   3.946   3.900  12.047  0.1913 -0.1783  0.4756
 8125SOL     OW36007   4.463   3.516   5.829  0.3052 -0.5349  0.2148
 8125SOL    HW136008   4.548   3.507   5.786 -1.0289  0.7277 -2.6635
 8125SOL    HW236009   4.433   3.428   5.807  1.9224 -1.0949  0.2731
 8126SOL     OW36010   1.461   3.628   5.479  0.4075 -0.0714 -0.3559
 8126SOL    HW136011   1.556   3.630   5.494  0.4331  0.5796 -0.6354
 8126SOL    HW236012   1.435   3.718   5.459 -1.7000 -0.8291 -1.0199
 8127SOL     OW36013   2.905   2.811  14.589  0.4682 -0.2580  0.1942
 8127SOL    HW136014   2.914   2.760  14.509  3.1396  0.8496 -0.2157
 8127SOL    HW236015   2.993   2.841  14.611  0.5443 -0.4379  0.1294
 8128SOL     OW36016   2.139   3.168   8.195  0.4296  0.7401 -1.1059
 8128SOL    HW136017   2.194   3.198   8.267 -0.3307 -0.9509  0.1835
 8128SOL    HW236018   2.065   3.227   8.205  0.2892  0.5225 -0.8606
 8129SOL     OW36019   1.309   2.002   8.243  0.0702 -0.3676 -0.5902
 8129SOL    HW136020   1.216   2.004   8.264  0.1819 -0.0125 -0.1295
 8129SOL    HW236021   1.344   1.996   8.332  0.5223  0.3896 -0.7221
 8130SOL     OW36022   1.954   0.549   2.101 -0.6078  0.6191 -0.1928
 8130SOL    HW136023   1.961   0.621   2.038  1.3364 -1.2637 -2.1477
 8130SOL    HW236024   1.863   0.519   2.102 -0.3652 -0.2378 -2.7896
 8131SOL     OW36025   2.447   0.541   4.789 -0.0244 -0.1866  0.0726
 8131SOL    HW136026   2.363   0.557   4.745 -0.6089 -0.4105  1.0991
 8131SOL    HW236027   2.464   0.447   4.778  0.0252 -0.2344  0.5328
 8132SOL     OW36028   3.119   4.394  10.008  0.3132  0.0885 -0.0423
 8132SOL    HW136029   3.032   4.362   9.988  0.0362  0.9236 -0.1715
 8132SOL    HW236030   3.106   4.486  10.033 -0.3982  0.3142 -1.2250
 8133SOL     OW36031   0.171   1.622   6.958 -0.1072  0.3368 -0.4588
 8133SOL    HW136032   0.159   1.533   6.926 -0.9831  0.7166 -1.2094
 8133SOL    HW236033   0.243   1.603   7.017 -1.5334  0.7782  1.4327
 8134SOL     OW36034   0.745   0.092   5.432  0.0370 -0.2776 -0.6392
 8134SOL    HW136035   0.824   0.141   5.411 -0.2354 -0.1719 -1.4279
 8134SOL    HW236036   0.677   0.159   5.432  3.4826  3.1707  1.7304
 8135SOL     OW36037   1.407   1.689   3.557  0.1998  0.1879  0.2647
 8135SOL    HW136038   1.475   1.720   3.617  1.7977  0.5263 -1.7149
 8135SOL    HW236039   1.445   1.707   3.471  0.5278  0.0616  0.3797
 8136SOL     OW36040   4.439   1.534   2.886 -0.4234  0.0698 -0.6229
 8136SOL    HW136041   4.384   1.486   2.824  1.2688 -3.3087  0.4875
 8136SOL    HW236042   4.374   1.548   2.955  1.3170 -1.7106  1.3791
 8137SOL     OW36043   2.606   1.272   5.004  0.3440 -0.1311 -0.2491
 8137SOL    HW136044   2.671   1.206   4.979 -0.2753 -0.5191 -0.8398
 8137SOL    HW236045   2.589   1.251   5.096 -0.8866 -2.3514 -0.9800
 8138SOL     OW36046   1.364   2.500   3.143  0.3194 -0.6235 -0.2747
 8138SOL    HW136047   1.331   2.501   3.233  0.6990 -2.6614 -0.1023
 8138SOL    HW236048   1.457   2.521   3.140  0.1017  0.3392 -0.2342
 8139SOL     OW36049   3.023   3.451   4.232 -0.2407  1.0191  0.4452
 8139SOL    HW136050   3.087   3.482   4.296 -0.5704 -0.9628  1.7575
 8139SOL    HW236051   2.994   3.526   4.181 -3.6226 -0.4201  0.2318
 8140SOL     OW36052   2.110   1.882   4.052 -0.6573  0.2073 -0.4223
 8140SOL    HW136053   2.091   1.923   4.136 -1.2671 -1.8641  0.4416
 8140SOL    HW236054   2.197   1.914   4.028  0.7364 -1.2908  2.6241
 8141SOL     OW36055   4.519   2.679   2.318  0.1778  0.5908  0.2217
 8141SOL    HW136056   4.489   2.708   2.404 -0.4051  4.2203 -1.2211
 8141SOL    HW236057   4.503   2.585   2.320 -1.1894  0.7862 -1.2572
 8142SOL     OW36058   4.444   0.609  13.349 -0.1848  0.0276 -0.2838
 8142SOL    HW136059   4.408   0.520  13.349 -0.0608 -0.0067  3.6570
 8142SOL    HW236060   4.494   0.616  13.268 -0.6615 -1.0288 -0.6672
 8143SOL     OW36061   2.853   1.973  11.668 -0.0587  0.2938 -0.5575
 8143SOL    HW136062   2.831   1.906  11.604 -0.9537  1.3338 -1.3518
 8143SOL    HW236063   2.838   1.932  11.753 -1.2426  0.7483 -0.5376
 8144SOL     OW36064   0.304   2.942   3.660 -0.1471  0.2729  0.3830
 8144SOL    HW136065   0.234   3.004   3.636 -0.5660 -0.2502  0.2437
 8144SOL    HW236066   0.357   2.992   3.721  1.6423 -2.3538  0.9529
 8145SOL     OW36067   1.889   2.049  15.291 -0.5670 -0.3178 -0.3662
 8145SOL    HW136068   1.938   1.969  15.307 -0.2946 -0.5600 -2.5198
 8145SOL    HW236069   1.808   2.017  15.332 -0.4862  2.8045  2.3126
 8146SOL     OW36070   3.583   0.510  16.449 -0.1526 -0.0600  0.2407
 8146SOL    HW136071   3.490   0.506  16.426 -0.4745 -1.6615  1.8575
 8146SOL    HW236072   3.613   0.589  16.403 -1.2168 -0.5905 -1.3592
 8147SOL     OW36073   1.261   2.053  14.564  0.6365  0.0446 -0.8249
 8147SOL    HW136074   1.209   1.977  14.589  0.4942 -0.6240 -3.0802
 8147SOL    HW236075   1.230   2.074  14.476  0.2611  1.3218 -0.3805
 8148SOL     OW36076   2.037   1.396   8.437 -0.0559 -0.1788 -0.0190
 8148SOL    HW136077   2.114   1.394   8.381 -0.9754 -1.0843 -1.2423
 8148SOL    HW236078   2.027   1.303   8.457  0.8117  0.3735  3.0020
 8149SOL     OW36079   2.882   0.802  13.524  0.6677 -0.0145  0.2106
 8149SOL    HW136080   2.960   0.805  13.468  0.5710 -2.1125 -0.0422
 8149SOL    HW236081   2.864   0.896  13.533 -3.0741 -0.7816  0.5249
 8150SOL     OW36082   0.131   0.850   2.914 -0.1014 -0.1179 -0.5687
 8150SOL    HW136083   0.115   0.777   2.854  1.7912  1.1753 -2.6408
 8150SOL    HW236084   0.188   0.913   2.870  2.3090 -1.0263  1.3177
 8151SOL     OW36085   1.604   3.594  12.037  0.3052 -0.0096  0.0660
 8151SOL    HW136086   1.599   3.504  12.071  0.7685  0.6194  1.7970
 8151SOL    HW236087   1.521   3.623  12.076  1.1710  1.5380  0.7517
 8152SOL     OW36088   4.534   3.157   9.457  0.0298  0.3268 -0.5935
 8152SOL    HW136089   4.572   3.073   9.483 -1.0449 -0.0038 -0.0979
 8152SOL    HW236090   4.467   3.131   9.395  1.1465 -1.2793 -1.1142
 8153SOL     OW36091   2.546   2.181   5.453  0.3974  0.6564 -0.0582
 8153SOL    HW136092   2.476   2.118   5.467 -0.2668  1.3125 -0.4605
 8153SOL    HW236093   2.576   2.208   5.540 -0.9483  1.6357  0.0992
 8154SOL     OW36094   1.127   1.109   2.093 -0.8471 -0.2110 -0.0715
 8154SOL    HW136095   1.218   1.129   2.116 -0.3447 -1.8689 -0.6878
 8154SOL    HW236096   1.099   1.192   2.054 -0.3166 -1.2264 -2.6048
 8155SOL     OW36097   2.549   2.255   6.253  0.5695 -0.7838 -0.0655
 8155SOL    HW136098   2.610   2.214   6.315  2.6129  0.8933 -0.9814
 8155SOL    HW236099   2.498   2.183   6.216  0.6089  0.0492 -1.7205
 8156SOL     OW36100   1.486   3.828   3.341  0.0813 -0.2696 -0.0213
 8156SOL    HW136101   1.452   3.898   3.284 -2.7758 -1.4819  0.2433
 8156SOL    HW236102   1.532   3.885   3.402 -0.6032  1.8379 -1.4410
 8157SOL     OW36103   0.686   4.102   8.150 -0.4277  0.3806 -0.0082
 8157SOL    HW136104   0.683   4.191   8.185 -2.5786  1.7001 -3.4813
 8157SOL    HW236105   0.714   4.103   8.059 -0.9058  1.4120 -0.1368
 8158SOL     OW36106   3.021   4.667   5.695  0.1170  0.1279 -0.0659
 8158SOL    HW136107   3.020   4.681   5.790 -1.6685 -1.2003  0.1166
 8158SOL    HW236108   2.983   4.579   5.686  1.6605 -0.3333 -2.1039
 8159SOL     OW36109   1.105   1.701  16.257 -0.1313  0.1271  0.0346
 8159SOL    HW136110   1.185   1.649  16.250 -1.4952 -1.5844 -2.8774
 8159SOL    HW236111   1.046   1.648  16.204  1.9872 -2.6373  0.4244
 8160SOL     OW36112   3.233   1.423  15.343  0.0838 -0.3053  0.0519
 8160SOL    HW136113   3.172   1.487  15.305  0.9066  0.3351 -0.1992
 8160SOL    HW236114   3.313   1.476  15.344  0.0519 -0.2593  0.1812
 8161SOL     OW36115   2.831   3.624  15.016  0.5341 -0.2799 -0.0743
 8161SOL    HW136116   2.880   3.593  15.092  0.7142  0.3004  0.0463
 8161SOL    HW236117   2.836   3.717  15.037 -0.5868 -0.4103  0.7601
 8162SOL     OW36118   3.907   2.948  10.713  0.3089  0.4515 -0.1367
 8162SOL    HW136119   3.952   2.863  10.715  0.2746  0.4306 -0.2551
 8162SOL    HW236120   3.842   2.940  10.782  1.6053  0.4984  1.0797
 8163SOL     OW36121   3.867   3.907   9.704  0.2758  0.4155 -0.2618
 8163SOL    HW136122   3.794   3.846   9.692 -0.1663  1.5048 -3.2609
 8163SOL    HW236123   3.878   3.950   9.619  0.7349  2.5318  0.8663
 8164SOL     OW36124   3.971   1.258   2.713  0.4277  0.4141 -0.2523
 8164SOL    HW136125   3.925   1.186   2.755 -0.2790  2.0748  1.8248
 8164SOL    HW236126   3.901   1.292   2.658 -1.7271 -0.1000  2.1841
 8165SOL     OW36127   2.474   4.438   4.016 -0.5540 -0.5465 -0.9593
 8165SOL    HW136128   2.506   4.391   3.938  0.4655 -1.4840  0.0183
 8165SOL    HW236129   2.379   4.434   4.010 -0.7426  2.5979 -0.2717
 8166SOL     OW36130   3.476   0.606   9.673 -0.4172 -0.4162  0.8826
 8166SOL    HW136131   3.458   0.699   9.686  0.0660 -0.3126  0.8393
 8166SOL    HW236132   3.469   0.597   9.578  0.9095  0.8371  0.6542
 8167SOL     OW36133   0.854   1.155   6.131  0.1891  0.2647 -0.1874
 8167SOL    HW136134   0.883   1.121   6.047 -0.9127 -2.0400  0.3790
 8167SOL    HW236135   0.934   1.196   6.164  0.2081  1.9306 -2.2978
 8168SOL     OW36136   3.497   1.966   2.504 -0.1448  0.0328 -0.1243
 8168SOL    HW136137   3.460   2.018   2.433 -0.9863 -0.1949  0.1439
 8168SOL    HW236138   3.539   2.030   2.561 -1.4143  0.8635 -0.1117
 8169SOL     OW36139   1.560   2.946   5.763 -0.1493 -0.2286  0.0192
 8169SOL    HW136140   1.609   3.027   5.748  0.5565 -0.1961  2.5716
 8169SOL    HW236141   1.637   2.892   5.747 -0.6379 -0.6910 -0.7363
 8170SOL     OW36142   4.551   1.119   2.414  0.7382  0.3740  0.0930
 8170SOL    HW136143   4.534   1.026   2.431  0.1911  0.3606 -0.5286
 8170SOL    HW236144   4.475   1.150   2.364 -0.9047 -0.3795  2.0830
 8171SOL     OW36145   4.084   3.508   6.726  0.0180 -0.5230 -0.3701
 8171SOL    HW136146   4.069   3.445   6.797  3.0314  0.3198  1.0217
 8171SOL    HW236147   4.019   3.474   6.664 -0.2149 -0.5974 -0.0875
 8172SOL     OW36148   1.688   2.644   5.010 -0.5288 -0.4130  0.1120
 8172SOL    HW136149   1.768   2.598   5.036 -0.2056  0.3330  0.4469
 8172SOL    HW236150   1.686   2.617   4.918 -0.9192 -0.4252  0.1238
 8173SOL     OW36151   3.891   3.560   2.417 -0.1777 -0.0442 -0.4324
 8173SOL    HW136152   3.916   3.471   2.393  0.6046 -0.3340  1.4333
 8173SOL    HW236153   3.931   3.608   2.345 -1.5430  1.2500 -0.3285
 8174SOL     OW36154   3.665   3.127   4.236 -0.1383  0.4599  0.4336
 8174SOL    HW136155   3.737   3.064   4.242 -1.8077 -1.5005 -0.0721
 8174SOL    HW236156   3.707   3.212   4.250  1.4294 -0.5018  1.5532
 8175SOL     OW36157   3.641   1.999   6.493  0.0245  0.3343  0.0347
 8175SOL    HW136158   3.629   2.015   6.587 -2.1775 -1.8669  0.1194
 8175SOL    HW236159   3.692   2.079   6.477  0.6450 -0.0659  0.0215
 8176SOL     OW36160   0.333   4.460   7.649 -0.2560 -0.8495 -0.4759
 8176SOL    HW136161   0.354   4.447   7.742 -1.1374  0.0586 -0.1421
 8176SOL    HW236162   0.314   4.553   7.654  0.4763 -0.7509  0.4173
 8177SOL     OW36163   0.408   1.000   4.180 -0.2734 -0.7785  0.1889
 8177SOL    HW136164   0.359   1.071   4.139  1.1404 -0.2705 -0.6394
 8177SOL    HW236165   0.440   1.048   4.256  2.0730  0.9270 -1.8706
 8178SOL     OW36166   0.284   1.788   2.810 -0.6513 -0.1002 -0.2618
 8178SOL    HW136167   0.304   1.777   2.717 -0.7760 -2.8447  0.0563
 8178SOL    HW236168   0.230   1.714   2.837 -0.2774  0.3669  1.7434
 8179SOL     OW36169   4.357   1.706  12.056  0.3764 -0.4121  0.3504
 8179SOL    HW136170   4.413   1.782  12.042  0.9522 -1.3365 -2.5165
 8179SOL    HW236171   4.270   1.740  12.079 -0.5937 -4.0427  2.0130
 8180SOL     OW36172   2.961   2.365   1.569  0.0544  0.0420 -0.1360
 8180SOL    HW136173   2.906   2.343   1.494  1.0801  0.0088 -0.8747
 8180SOL    HW236174   2.900   2.364   1.643 -0.5671 -0.6194 -0.6578
 8181SOL     OW36175   4.596   3.494   8.723  0.0554  0.0627 -0.5987
 8181SOL    HW136176   4.677   3.528   8.762 -0.0226 -0.3076 -0.1091
 8181SOL    HW236177   4.530   3.519   8.788  0.3674 -0.5592 -0.0423
 8182SOL     OW36178   0.523   0.400  10.395  0.1577  0.3316 -0.1934
 8182SOL    HW136179   0.510   0.357  10.311 -1.5947  0.2604  0.1058
 8182SOL    HW236180   0.516   0.323  10.452  2.4616 -0.7507 -1.3875
 8183SOL     OW36181   2.983   3.500   2.802  0.2790  0.2191  0.0258
 8183SOL    HW136182   2.934   3.433   2.849  0.3103  1.7772  2.2365
 8183SOL    HW236183   2.974   3.576   2.859 -0.4186 -0.0152  0.2273
 8184SOL     OW36184   0.660   4.083   6.627 -0.0636 -0.5464 -0.0028
 8184SOL    HW136185   0.702   4.136   6.559  0.8241  0.3471  1.2483
 8184SOL    HW236186   0.591   4.135   6.667  0.6192 -2.0614  3.1612
 8185SOL     OW36187   2.621   1.385   1.672 -0.1578 -0.0237  0.3111
 8185SOL    HW136188   2.623   1.365   1.578  1.2077  1.5451  0.0121
 8185SOL    HW236189   2.535   1.345   1.686  0.8821 -1.3507  2.8662
 8186SOL     OW36190   2.260   3.644   2.078  0.0104 -0.3431  0.5413
 8186SOL    HW136191   2.196   3.639   2.148 -1.0556 -0.1599 -0.4094
 8186SOL    HW236192   2.222   3.719   2.032 -0.4798 -1.4945 -0.9306
 8187SOL     OW36193   2.129   3.356  12.165  0.2967 -0.3659 -0.0291
 8187SOL    HW136194   2.066   3.408  12.115  0.5924  0.3003  0.3024
 8187SOL    HW236195   2.209   3.392  12.126  0.4747 -1.3255 -0.5624
 8188SOL     OW36196   4.176   1.600   3.392 -0.0171  0.5453 -0.1842
 8188SOL    HW136197   4.213   1.670   3.445  2.2558 -1.5185  0.9284
 8188SOL    HW236198   4.259   1.556   3.374 -0.6731 -0.2752 -1.2306
 8189SOL     OW36199   4.667   0.541   5.079  0.3936  0.0554  0.3475
 8189SOL    HW136200   4.588   0.547   5.132  1.6875 -0.0295  2.2487
 8189SOL    HW236201   4.630   0.473   5.022 -3.0709  0.9572  1.5461
 8190SOL     OW36202   4.120   0.814   5.853 -0.0583 -0.2546  0.8938
 8190SOL    HW136203   4.161   0.751   5.793 -0.1332  0.4320  0.1201
 8190SOL    HW236204   4.052   0.763   5.898  0.8063  0.6841  3.2786
 8191SOL     OW36205   3.687   2.146  10.371 -0.0240 -0.3669 -0.3312
 8191SOL    HW136206   3.724   2.102  10.295 -2.2372 -0.6860 -1.2420
 8191SOL    HW236207   3.770   2.179  10.406 -0.2438  2.0950 -2.1861
 8192SOL     OW36208   1.120   2.341   7.923 -0.1302 -1.0760 -0.3809
 8192SOL    HW136209   1.169   2.262   7.898  0.5728 -0.3143 -1.4301
 8192SOL    HW236210   1.069   2.341   7.842 -1.0465 -0.9610  0.2061
 8193SOL     OW36211   3.048   3.555   7.107  0.2640 -0.3438  0.1981
 8193SOL    HW136212   3.083   3.575   7.020  0.3812  3.4123  1.0992
 8193SOL    HW236213   3.094   3.620   7.161  1.5538 -1.5362  0.5350
 8194SOL     OW36214   4.521   0.118   3.096 -0.5880 -0.2892 -0.1475
 8194SOL    HW136215   4.435   0.157   3.079 -1.5531 -1.5969  1.7542
 8194SOL    HW236216   4.551   0.162   3.175 -1.2717  1.1791 -0.7108
 8195SOL     OW36217   0.015   4.699   5.447  0.1190  0.7482 -0.2033
 8195SOL    HW136218   0.001   0.017   5.525  1.6722  0.7174  0.0938
 8195SOL    HW236219   0.029   4.613   5.486 -4.1806 -0.4784 -1.2822
 8196SOL     OW36220   2.555   3.997  15.612 -0.1852 -0.1067 -0.1620
 8196SOL    HW136221   2.648   4.018  15.607 -0.0181 -0.9532 -0.5731
 8196SOL    HW236222   2.509   4.072  15.651  1.0836  0.7159 -0.2372
 8197SOL     OW36223   1.493   0.772   0.170  0.5229  0.4508 -0.0893
 8197SOL    HW136224   1.453   0.816   0.095 -0.0067  1.8404  1.0061
 8197SOL    HW236225   1.523   0.845   0.224  0.0716 -0.9651  2.0664
 8198SOL     OW36226   0.628   2.413   8.764  0.3224 -0.4697 -0.7192
 8198SOL    HW136227   0.608   2.319   8.761  2.6042 -1.0488  2.4621
 8198SOL    HW236228   0.596   2.428   8.853  1.9369  1.8749 -0.5164
 8199SOL     OW36229   0.496   3.323  15.595  0.2287  0.1933  0.0197
 8199SOL    HW136230   0.487   3.394  15.532  0.0372  0.1029 -0.0548
 8199SOL    HW236231   0.570   3.268  15.567  0.4079 -1.3061  3.4083
 8200SOL     OW36232   4.601   2.778   5.154 -0.0458 -0.4304 -0.1081
 8200SOL    HW136233   4.563   2.712   5.213 -0.2420 -0.7814 -0.6255
 8200SOL    HW236234   4.604   2.855   5.210 -1.4272 -0.7227  0.3729
 8201SOL     OW36235   3.177   3.070   5.373 -0.3853 -0.5144 -0.0947
 8201SOL    HW136236   3.114   3.052   5.443  1.2930  0.1992  1.6207
 8201SOL    HW236237   3.252   3.101   5.424 -0.5208 -2.6563  1.4406
 8202SOL     OW36238   2.936   3.751   3.609  0.1113 -0.1694 -0.0473
 8202SOL    HW136239   2.865   3.808   3.581 -0.8042 -0.5597  1.4891
 8202SOL    HW236240   2.902   3.661   3.603 -3.3609  1.0716  0.7994
 8203SOL     OW36241   2.329   2.105   1.520 -0.0181  0.7020 -0.2432
 8203SOL    HW136242   2.405   2.161   1.533 -0.7723  1.8596 -0.8228
 8203SOL    HW236243   2.362   2.018   1.543 -2.1523  0.1658  0.8324
 8204SOL     OW36244   2.760   1.352   8.787 -0.9087 -0.1419  0.6518
 8204SOL    HW136245   2.697   1.302   8.735 -2.5652 -0.0482  2.5674
 8204SOL    HW236246   2.790   1.274   8.834 -0.5876 -1.7653 -2.2509
 8205SOL     OW36247   4.266   3.750   7.040  0.3886  0.5921  0.8915
 8205SOL    HW136248   4.336   3.795   7.085 -0.0003  0.3148  1.7635
 8205SOL    HW236249   4.296   3.663   7.013 -0.1692  0.5693  0.3361
 8206SOL     OW36250   3.477   2.980   2.131 -0.3176  0.0789 -0.2005
 8206SOL    HW136251   3.427   2.902   2.154 -0.8021  0.7691  1.0984
 8206SOL    HW236252   3.405   3.042   2.117 -0.4306 -0.2365 -1.0150
 8207SOL     OW36253   2.529   0.941   8.577  0.1994 -0.4983  0.0220
 8207SOL    HW136254   2.602   0.913   8.633 -0.1135 -1.1108  0.1294
 8207SOL    HW236255   2.466   0.870   8.591 -0.6672  0.5463  1.4838
 8208SOL     OW36256   4.683   4.192   9.041  0.3079 -0.0590 -0.1207
 8208SOL    HW136257   4.657   4.173   8.951 -0.3223  1.2458 -0.2249
 8208SOL    HW236258   4.667   4.286   9.032 -0.6651 -0.2385 -0.2838
 8209SOL     OW36259   4.402   2.787   7.445 -0.5640 -0.3044  0.3188
 8209SOL    HW136260   4.423   2.695   7.426  0.5880 -0.2786  1.4647
 8209SOL    HW236261   4.340   2.777   7.517 -1.3602  0.3164 -0.2899
 8210SOL     OW36262   1.789   2.024   7.428  0.6095  0.4655  0.1552
 8210SOL    HW136263   1.699   2.031   7.458  0.5342  1.0785 -0.1998
 8210SOL    HW236264   1.847   2.052   7.499 -1.2588  0.2141  1.7783
 8211SOL     OW36265   1.060   2.616   8.614  0.2341 -0.2024  0.0936
 8211SOL    HW136266   1.119   2.691   8.621 -1.5462  1.2603 -0.3096
 8211SOL    HW236267   0.984   2.657   8.658  1.6229  0.9616  1.4085
 8212SOL     OW36268   4.347   0.402  15.401 -0.1243 -0.0187  0.0945
 8212SOL    HW136269   4.329   0.350  15.322  2.4733 -0.1401 -0.4233
 8212SOL    HW236270   4.284   0.380  15.469 -0.7952  0.6546 -0.3031
 8213SOL     OW36271   2.163   1.322   1.007  0.0965  0.1892 -0.4640
 8213SOL    HW136272   2.123   1.316   1.094 -1.4870 -1.4708 -1.3030
 8213SOL    HW236273   2.211   1.404   1.023 -0.8808  0.1139  2.7404
 8214SOL     OW36274   0.309   1.056   7.575  0.0558 -0.3871  0.6043
 8214SOL    HW136275   0.237   1.026   7.520 -1.4186  2.4690  0.9544
 8214SOL    HW236276   0.250   1.080   7.647 -0.1722 -3.4409  1.4277
 8215SOL     OW36277   0.932   3.358   7.613 -0.1879  0.3455  0.5744
 8215SOL    HW136278   0.851   3.387   7.655 -2.1384 -3.7239 -0.3269
 8215SOL    HW236279   0.897   3.338   7.526 -0.0618 -1.1113  0.8530
 8216SOL     OW36280   4.587   3.305   4.002 -0.3026 -0.3535  0.1296
 8216SOL    HW136281   4.633   3.364   3.942 -1.0605  1.2811  1.1751
 8216SOL    HW236282   4.536   3.368   4.052  0.9829 -0.3906  1.4824
 8217SOL     OW36283   0.530   4.282   7.190  0.4235  0.4540  0.3454
 8217SOL    HW136284   0.456   4.260   7.134  0.7492  0.6619 -0.1701
 8217SOL    HW236285   0.579   4.343   7.135 -2.3459  0.0223 -2.5809
 8218SOL     OW36286   1.004   4.715   9.029  0.0930 -0.4756 -0.0842
 8218SOL    HW136287   0.950   4.700   9.106  0.4224  0.6410  0.3787
 8218SOL    HW236288   0.948   0.026   8.967  1.6513  0.8917 -0.4868
 8219SOL     OW36289   3.771   1.586   2.387  0.1397  0.3978  0.3705
 8219SOL    HW136290   3.734   1.659   2.338  0.5808 -0.7551 -1.7447
 8219SOL    HW236291   3.866   1.600   2.381  0.3600 -1.2667 -0.3572
 8220SOL     OW36292   4.707   3.412   2.972  0.5680 -1.0181  0.5686
 8220SOL    HW136293   4.621   3.372   2.959 -0.0662  0.4947  0.0623
 8220SOL    HW236294   0.013   3.398   2.887 -0.3918 -0.0898 -0.0482
 8221SOL     OW36295   4.511   0.699   9.053 -0.0792 -0.0353 -0.2829
 8221SOL    HW136296   4.599   0.724   9.084 -0.4043 -0.2741  0.8339
 8221SOL    HW236297   4.457   0.737   9.122  0.1789  0.8621 -0.5760
 8222SOL     OW36298   3.049   1.157  15.797 -0.1423  0.1542 -0.2489
 8222SOL    HW136299   3.063   1.062  15.799 -1.2401  0.0425  1.3287
 8222SOL    HW236300   3.070   1.189  15.709  3.3817  0.7051  0.7636
 8223SOL     OW36301   0.562   0.869   1.210  0.2325 -0.4812 -0.4237
 8223SOL    HW136302   0.593   0.820   1.135  0.3019 -0.5824 -0.3277
 8223SOL    HW236303   0.535   0.948   1.162 -1.0602  0.0640  1.1685
 8224SOL     OW36304   4.645   2.330  12.704 -1.1169  0.0900 -0.1782
 8224SOL    HW136305   4.649   2.420  12.735 -1.0776 -0.2059  0.6791
 8224SOL    HW236306   4.706   2.321  12.631 -1.6911  0.4903 -0.7136
 8225SOL     OW36307   4.044   1.622   2.366  0.0788  0.7975  0.0791
 8225SOL    HW136308   4.079   1.555   2.425 -0.5477  0.8536  0.5155
 8225SOL    HW236309   4.102   1.690   2.399 -0.6956  1.3176  0.3930
 8226SOL     OW36310   2.651   4.383   1.874 -0.2169 -0.0144  0.2062
 8226SOL    HW136311   2.722   4.352   1.817 -0.4577  1.2271 -0.7745
 8226SOL    HW236312   2.683   4.473   1.876  0.2397 -0.1205 -2.3339
 8227SOL     OW36313   2.798   1.459   1.862 -0.3443 -0.7652  0.1278
 8227SOL    HW136314   2.838   1.373   1.866  1.5002  0.0946  0.2883
 8227SOL    HW236315   2.738   1.443   1.790 -0.6637 -1.8090  0.6260
 8228SOL     OW36316   4.234   3.585   3.894  0.1419 -0.3554 -0.0456
 8228SOL    HW136317   4.179   3.621   3.964  0.1501  0.2501 -0.3597
 8228SOL    HW236318   4.214   3.492   3.904  2.4821 -0.6309  2.3139
 8229SOL     OW36319   3.526   0.335   4.833 -0.3677  0.4298  0.5925
 8229SOL    HW136320   3.543   0.290   4.915 -1.1360  0.5989  0.8441
 8229SOL    HW236321   3.435   0.359   4.850  0.0591  1.9808  0.7049
 8230SOL     OW36322   1.287   0.188  13.844  0.2682 -0.2496 -0.1095
 8230SOL    HW136323   1.225   0.253  13.811  0.0327 -0.8340 -0.8173
 8230SOL    HW236324   1.277   0.207  13.938  0.4396 -0.3083 -0.0804
 8231SOL     OW36325   1.956   4.391   3.164 -0.2946  0.7945 -0.0633
 8231SOL    HW136326   1.865   4.359   3.166 -0.2575  0.7114  0.3079
 8231SOL    HW236327   1.950   4.456   3.234  3.5152  2.5782 -1.4336
 8232SOL     OW36328   3.499   0.922   1.646 -0.0617 -0.9551  0.7509
 8232SOL    HW136329   3.589   0.954   1.653  0.0995 -0.6984 -2.3806
 8232SOL    HW236330   3.450   0.984   1.701  0.0686 -0.3831  0.2294
 8233SOL     OW36331   2.990   1.130  12.877 -0.0768  0.3577  0.2362
 8233SOL    HW136332   2.927   1.141  12.948 -0.1821 -0.0521  0.2078
 8233SOL    HW236333   3.071   1.164  12.914  1.0199  0.0454 -1.8517
 8234SOL     OW36334   0.801   4.653   2.498  0.0027  0.0214 -0.0347
 8234SOL    HW136335   0.830   4.728   2.445  2.4827 -1.0845 -0.2641
 8234SOL    HW236336   0.708   4.640   2.482  0.2298 -0.6690 -0.8102
 8235SOL     OW36337   4.304   4.553   7.365 -0.3764  0.0735  0.0082
 8235SOL    HW136338   4.287   4.596   7.281 -0.2736  0.3951  0.1502
 8235SOL    HW236339   4.314   4.632   7.418  0.2154  1.2756 -1.8996
 8236SOL     OW36340   0.507   3.420   8.816  0.3238  0.3247 -0.0513
 8236SOL    HW136341   0.525   3.406   8.909 -0.1054 -0.7145 -0.1258
 8236SOL    HW236342   0.441   3.351   8.809  0.0406  0.4545  1.3731
 8237SOL     OW36343   1.898   3.626  13.448 -0.9119 -0.8791  0.2817
 8237SOL    HW136344   1.906   3.611  13.353  1.8533 -0.3574  0.4388
 8237SOL    HW236345   1.902   3.722  13.450 -0.4947 -0.8739 -0.6020
 8238SOL     OW36346   1.699   0.433   0.495 -0.2805  0.0417  0.0205
 8238SOL    HW136347   1.663   0.475   0.417 -1.1736  3.1306  2.0758
 8238SOL    HW236348   1.627   0.377   0.524  1.2048 -0.5796  2.5467
 8239SOL     OW36349   0.174   4.641   7.802  0.1881 -0.3924  0.0454
 8239SOL    HW136350   0.199   4.732   7.788 -0.3816 -0.1696  0.4927
 8239SOL    HW236351   0.175   4.629   7.897 -2.3789  0.2453  0.1496
 8240SOL     OW36352   2.185   2.373  15.174  0.2316  0.2383  0.5720
 8240SOL    HW136353   2.172   2.459  15.134  0.1455  0.2863  0.7065
 8240SOL    HW236354   2.156   2.386  15.264 -1.4119  1.9861 -0.2210
 8241SOL     OW36355   2.563   0.396   8.674  0.1139  0.4615  0.2475
 8241SOL    HW136356   2.473   0.423   8.690 -0.4375 -1.0090 -0.3386
 8241SOL    HW236357   2.592   0.448   8.599 -0.9204  1.6428  0.6759
 8242SOL     OW36358   3.671   1.419   8.063  0.5626 -0.0029  0.0104
 8242SOL    HW136359   3.720   1.348   8.022 -0.8941 -1.5947  1.0798
 8242SOL    HW236360   3.714   1.435   8.147  0.1693 -2.0800  0.5934
 8243SOL     OW36361   0.377   3.254   2.043 -0.0060 -0.4994  0.0266
 8243SOL    HW136362   0.336   3.264   2.129  0.6337 -2.2517  0.5176
 8243SOL    HW236363   0.360   3.164   2.017  1.4715 -1.1161  1.2488
 8244SOL     OW36364   4.623   4.119  10.225 -0.0970  0.2843  0.0714
 8244SOL    HW136365   4.708   4.099  10.262 -0.9068 -1.1224  1.1696
 8244SOL    HW236366   4.641   4.106  10.132  1.7628 -2.1569  0.7813
 8245SOL     OW36367   4.610   0.788   3.196 -0.6144  0.1940  0.1364
 8245SOL    HW136368   4.635   0.859   3.256 -0.4706 -0.3274  0.6993
 8245SOL    HW236369   4.595   0.834   3.114 -0.3485 -0.1270 -0.0955
 8246SOL     OW36370   1.747   2.287   8.535  0.3632  0.0934  0.5058
 8246SOL    HW136371   1.797   2.210   8.563 -0.4785 -0.7138 -0.1775
 8246SOL    HW236372   1.656   2.257   8.544  0.9829 -0.9981  3.3250
 8247SOL     OW36373   2.967   1.795   6.896 -0.2948  0.4888  0.0268
 8247SOL    HW136374   2.952   1.852   6.821  0.5983 -0.9970 -1.2868
 8247SOL    HW236375   2.933   1.844   6.971  0.1595  2.0042 -0.7690
 8248SOL     OW36376   0.782   0.206   7.639 -0.0301  0.1762  0.2204
 8248SOL    HW136377   0.745   0.161   7.715 -0.9119  0.2484 -0.1670
 8248SOL    HW236378   0.767   0.147   7.566 -0.9403 -0.2157  0.7228
 8249SOL     OW36379   1.098   1.291   9.007  0.0649 -0.4287  0.3575
 8249SOL    HW136380   1.109   1.215   8.949 -2.2484  1.2380 -2.2665
 8249SOL    HW236381   1.189   1.321   9.011  0.1609 -0.6292 -0.2677
 8250SOL     OW36382   3.493   4.535   5.722  0.0943  0.6865 -0.4262
 8250SOL    HW136383   3.447   4.578   5.649 -1.3693  0.1995  0.2100
 8250SOL    HW236384   3.432   4.558   5.792 -1.1838  3.5238 -2.4904
 8251SOL     OW36385   2.752   0.434   5.609 -0.2891  0.4832  0.1368
 8251SOL    HW136386   2.681   0.382   5.646 -0.8020  0.3854 -0.9653
 8251SOL    HW236387   2.796   0.451   5.692 -0.0026 -0.4432  0.1710
 8252SOL     OW36388   0.078   0.331  14.994 -0.3297  0.4144 -0.0235
 8252SOL    HW136389   0.148   0.286  15.040 -0.5415  0.7112  0.5899
 8252SOL    HW236390   0.111   0.419  14.975  1.0175 -0.2484 -0.7392
 8253SOL     OW36391   4.026   3.061   5.343  0.4532 -0.2894 -0.2044
 8253SOL    HW136392   4.067   2.976   5.360  0.9094 -0.0538 -0.1417
 8253SOL    HW236393   4.092   3.121   5.377 -0.8954  1.0244  0.1008
 8254SOL     OW36394   0.513   2.006   9.274 -0.1046 -0.1548  0.0868
 8254SOL    HW136395   0.526   1.978   9.365 -2.6102 -0.3331  0.4027
 8254SOL    HW236396   0.560   2.089   9.279 -1.6186  0.7120 -0.1132
 8255SOL     OW36397   1.663   1.940   2.779 -0.5193  0.0248 -0.0309
 8255SOL    HW136398   1.685   1.917   2.689 -0.8168  1.3617 -0.4473
 8255SOL    HW236399   1.606   2.015   2.766  1.3038  1.6067  1.0827
 8256SOL     OW36400   2.815   3.111   8.726 -0.0522  0.2510 -0.2353
 8256SOL    HW136401   2.859   3.195   8.741 -2.6214  1.0039  2.8220
 8256SOL    HW236402   2.724   3.137   8.737  0.6502  3.0022 -0.9220
 8257SOL     OW36403   1.859   2.771  11.817  0.1871 -0.5840 -0.2017
 8257SOL    HW136404   1.899   2.785  11.902 -0.9014 -0.9681  0.3798
 8257SOL    HW236405   1.931   2.776  11.755  1.1021  0.3514  0.9582
 8258SOL     OW36406   4.628   4.341   6.442 -0.1238 -0.2366 -0.1499
 8258SOL    HW136407   4.600   4.293   6.364  0.5364 -0.1998 -0.4135
 8258SOL    HW236408   4.644   4.266   6.500 -0.5974 -0.7087 -0.6226
 8259SOL     OW36409   2.204   2.173   5.767 -0.5301 -0.5006 -0.8573
 8259SOL    HW136410   2.159   2.211   5.691 -2.1300 -0.5624  0.0472
 8259SOL    HW236411   2.131   2.125   5.807 -0.9351  0.6262 -0.2423
 8260SOL     OW36412   2.980   3.483  11.746  0.4493  0.0697  0.1787
 8260SOL    HW136413   2.985   3.553  11.811  0.3987 -0.2443  0.5219
 8260SOL    HW236414   3.067   3.491  11.707  0.6802  0.9017  0.8830
 8261SOL     OW36415   4.023   4.287   7.567  0.3581  0.0855 -0.0682
 8261SOL    HW136416   3.993   4.209   7.614 -0.1443 -0.1455 -0.7736
 8261SOL    HW236417   4.034   4.354   7.634 -2.2952 -0.7597  1.2184
 8262SOL     OW36418   0.341   2.316   4.506 -0.2595 -1.0605 -0.0523
 8262SOL    HW136419   0.428   2.279   4.518  0.9420  0.8213 -2.8808
 8262SOL    HW236420   0.376   2.398   4.470  1.0176 -1.7353 -0.3601
 8263SOL     OW36421   0.136   3.147   5.584 -0.1734  0.0842  0.8759
 8263SOL    HW136422   0.086   3.067   5.599 -0.3031  0.1485  0.7893
 8263SOL    HW236423   0.226   3.117   5.578 -1.0559 -2.1996 -0.7380
 8264SOL     OW36424   1.532   3.805   3.023 -0.1160  0.3053 -0.3833
 8264SOL    HW136425   1.534   3.891   2.983  1.9801  1.7322  2.8093
 8264SOL    HW236426   1.496   3.827   3.109  1.4907  0.4763  0.2498
 8265SOL     OW36427   3.552   3.972   8.951  0.0372 -0.0153 -0.2007
 8265SOL    HW136428   3.528   4.062   8.930 -1.1648 -1.4862 -5.1541
 8265SOL    HW236429   3.639   3.962   8.912  0.0006  0.7722 -0.4805
 8266SOL     OW36430   1.298   4.452   1.798 -0.0951  0.4274 -0.8363
 8266SOL    HW136431   1.301   4.539   1.758  0.5530  1.4872  1.5185
 8266SOL    HW236432   1.213   4.429   1.760  0.1278  0.7223 -1.5099
 8267SOL     OW36433   3.470   2.552   2.981 -0.1903 -0.0370 -0.3075
 8267SOL    HW136434   3.472   2.614   2.908  0.7846  1.0591  0.6516
 8267SOL    HW236435   3.538   2.590   3.036  0.7727 -0.4728 -1.1966
 8268SOL     OW36436   1.738   2.295   3.066  0.4047  0.5661 -0.2975
 8268SOL    HW136437   1.766   2.293   2.975 -1.1270  1.1800 -0.7916
 8268SOL    HW236438   1.712   2.387   3.070 -2.0210 -0.1724  0.8150
 8269SOL     OW36439   0.295   2.810   6.993  0.1781  0.0018 -0.5356
 8269SOL    HW136440   0.347   2.878   7.036 -1.5846  1.4243 -0.6242
 8269SOL    HW236441   0.263   2.765   7.071  1.5005 -1.7785 -1.0267
 8270SOL     OW36442   1.342   2.535   8.830 -0.0951  0.2349 -0.5473
 8270SOL    HW136443   1.362   2.552   8.922  0.6712  0.4420 -0.7530
 8270SOL    HW236444   1.401   2.599   8.790  0.8524  0.2483  0.8704
 8271SOL     OW36445   4.047   4.477   7.763  0.5421 -0.0038  0.3814
 8271SOL    HW136446   3.972   4.519   7.804  2.2047 -0.6226  4.0860
 8271SOL    HW236447   4.089   4.428   7.833 -0.7567 -1.9379 -0.2183
 8272SOL     OW36448   2.625   2.523   2.438  0.1064 -0.6799  0.2119
 8272SOL    HW136449   2.664   2.475   2.511  1.8375  2.0184  1.0868
 8272SOL    HW236450   2.676   2.604   2.437  0.2627 -0.7910 -0.7190
 8273SOL     OW36451   3.539   1.706   7.854  0.5886 -0.8942 -0.1399
 8273SOL    HW136452   3.633   1.693   7.846  0.7619  2.0364 -2.9859
 8273SOL    HW236453   3.513   1.678   7.766 -0.7914  0.8866 -0.3162
 8274SOL     OW36454   4.157   2.836   6.292  0.2512  0.6007 -0.3476
 8274SOL    HW136455   4.176   2.902   6.225  0.8923 -2.4505 -3.1532
 8274SOL    HW236456   4.103   2.787   6.231  0.6305 -1.7364  1.1779
 8275SOL     OW36457   3.827   3.125   7.103  0.2110  0.2831 -0.2811
 8275SOL    HW136458   3.915   3.088   7.110 -0.3860 -1.1688 -0.5137
 8275SOL    HW236459   3.841   3.196   7.041 -0.2658  1.6177  1.1543
 8276SOL     OW36460   0.368   2.326   5.858  0.3357 -0.2367 -0.0709
 8276SOL    HW136461   0.426   2.256   5.889  3.9080  3.1037  0.7363
 8276SOL    HW236462   0.321   2.356   5.935  1.5861  0.2374  0.4931
 8277SOL     OW36463   0.000   3.695  12.083 -0.0638 -0.8102 -0.3377
 8277SOL    HW136464   0.045   3.628  12.032  0.2105  1.2759 -2.8596
 8277SOL    HW236465   0.051   3.693  12.164 -1.0520 -0.5625  0.2938
 8278SOL     OW36466   4.443   2.825  17.338  0.2948 -0.2171 -0.0834
 8278SOL    HW136467   4.423   2.846  17.429 -0.0681  1.2790 -0.5152
 8278SOL    HW236468   4.453   2.916  17.310 -1.6099 -1.0958 -3.6015
 8279SOL     OW36469   2.079   0.130   7.682 -0.0874 -0.4175 -0.2897
 8279SOL    HW136470   2.097   0.219   7.713 -1.8609  0.3021 -1.3196
 8279SOL    HW236471   2.146   0.118   7.615 -0.0830 -0.2698 -0.3116
 8280SOL     OW36472   0.237   2.717   2.416  0.1904  0.3875 -0.0578
 8280SOL    HW136473   0.237   2.622   2.425 -1.4349  0.3070 -0.9427
 8280SOL    HW236474   0.145   2.731   2.435 -0.6037  0.4095 -3.9989
 8281SOL     OW36475   3.871   1.755  11.776 -0.0466 -0.5283 -0.2412
 8281SOL    HW136476   3.898   1.721  11.861 -1.4932 -2.9668 -0.7681
 8281SOL    HW236477   3.823   1.832  11.805 -1.2435 -1.6117  0.6620
 8282SOL     OW36478   3.941   1.794  15.892 -0.2258 -0.8065  0.4798
 8282SOL    HW136479   3.901   1.710  15.867  1.7209 -1.4721 -0.4280
 8282SOL    HW236480   3.860   1.841  15.871 -0.5106 -1.1064  0.9223
 8283SOL     OW36481   4.007   0.320   5.057  0.2739  0.4248 -0.2116
 8283SOL    HW136482   3.970   0.232   5.053 -0.4311  0.7176 -0.3160
 8283SOL    HW236483   3.982   0.349   4.969 -0.2235 -1.8149 -0.7945
 8284SOL     OW36484   3.283   2.863   8.524  0.1043  0.1239  0.1658
 8284SOL    HW136485   3.194   2.899   8.533 -0.2495 -0.7188  0.0247
 8284SOL    HW236486   3.319   2.927   8.462 -2.0048  1.1999  0.0284
 8285SOL     OW36487   2.416   4.616   7.104 -0.3298  0.1333 -0.1973
 8285SOL    HW136488   2.363   4.650   7.175  0.3272  3.8102 -1.4449
 8285SOL    HW236489   2.489   4.664   7.143 -1.2476  0.5735  0.9739
 8286SOL     OW36490   1.371   4.183  15.972 -0.0778 -0.5854  0.0729
 8286SOL    HW136491   1.329   4.185  15.886 -0.1104 -0.7566  0.0850
 8286SOL    HW236492   1.341   4.098  16.004 -0.9255  0.0444  0.9405
 8287SOL     OW36493   3.521   0.286   1.183  0.4923 -0.5561 -0.1025
 8287SOL    HW136494   3.522   0.194   1.157 -1.3484 -0.5756 -0.1253
 8287SOL    HW236495   3.524   0.339   1.103  0.3427  2.0801  1.6379
 8288SOL     OW36496   2.208   3.635   8.701  0.2225  0.0208 -0.1520
 8288SOL    HW136497   2.183   3.586   8.779 -0.1937  2.0822  1.0219
 8288SOL    HW236498   2.189   3.725   8.728  1.2029 -0.3841  1.8838
 8289SOL     OW36499   0.477   0.910   3.923 -0.5503  0.1928  0.2034
 8289SOL    HW136500   0.429   0.934   4.002 -2.4107  0.0637 -0.9052
 8289SOL    HW236501   0.560   0.950   3.949  0.3232  0.4390 -2.9979
 8290SOL     OW36502   2.425   2.637   1.962  0.2072  0.2458  0.2715
 8290SOL    HW136503   2.399   2.631   1.870 -0.1422  2.3850  0.2492
 8290SOL    HW236504   2.353   2.690   1.996  0.7620  0.5440  0.9728
 8291SOL     OW36505   1.335   0.365   4.615 -0.1919  0.4114 -0.4898
 8291SOL    HW136506   1.348   0.459   4.630  1.5427 -0.0515  0.8495
 8291SOL    HW236507   1.268   0.340   4.678 -0.7742 -0.4848 -1.4615
 8292SOL     OW36508   0.285   0.370  14.716 -0.4579 -0.1381  0.3104
 8292SOL    HW136509   0.263   0.424  14.792  0.6839  0.7459  0.0246
 8292SOL    HW236510   0.364   0.412  14.681 -0.0257  0.1785  1.6478
 8293SOL     OW36511   0.710   0.730   2.179  0.6233  0.0210  0.1047
 8293SOL    HW136512   0.736   0.758   2.266  2.6718 -1.6052  0.0109
 8293SOL    HW236513   0.717   0.806   2.122  2.2094  0.0687  0.3749
 8294SOL     OW36514   2.369   1.691   0.080 -0.1964  0.2327  0.1194
 8294SOL    HW136515   2.330   1.674  17.734 -0.7034  0.1999  0.3569
 8294SOL    HW236516   2.338   1.780   0.099 -1.7964 -0.3454  0.1576
 8295SOL     OW36517   1.921   2.987  16.102 -0.0458 -0.1609 -0.1211
 8295SOL    HW136518   1.961   3.074  16.091 -1.2866  0.5345  0.7991
 8295SOL    HW236519   1.921   2.981  16.007 -2.0209 -0.5624 -0.0909
 8296SOL     OW36520   2.281   3.365   1.953 -0.3186 -0.2663 -0.4823
 8296SOL    HW136521   2.305   3.458   1.947 -0.7705 -0.0699  0.6058
 8296SOL    HW236522   2.270   3.367   2.049 -1.2327  2.0746 -0.6183
 8297SOL     OW36523   4.141   0.543  14.760 -0.3997  0.2218  0.4697
 8297SOL    HW136524   4.080   0.500  14.699 -0.3024  0.0795  0.4731
 8297SOL    HW236525   4.176   0.617  14.712 -0.4748  0.9568  1.5480
 8298SOL     OW36526   3.864   1.894   4.883  0.2306 -0.4037 -0.2897
 8298SOL    HW136527   3.959   1.898   4.895  0.1095  1.3912  0.1745
 8298SOL    HW236528   3.826   1.880   4.970 -0.5966 -1.9459 -0.9145
 8299SOL     OW36529   3.527   1.675   5.203  0.1871  1.0652  0.2440
 8299SOL    HW136530   3.473   1.642   5.131  2.4954  2.7607 -2.3361
 8299SOL    HW236531   3.587   1.602   5.219  0.6328  1.4099  0.1665
 8300SOL     OW36532   4.517   0.676  13.930  0.6019 -0.0009 -0.1353
 8300SOL    HW136533   4.470   0.609  13.879  0.2673  0.3143 -0.2398
 8300SOL    HW236534   4.538   0.740  13.862 -1.1312  0.1769 -0.5225
 8301SOL     OW36535   1.691   2.799  10.210  0.3182 -0.1628 -0.4412
 8301SOL    HW136536   1.757   2.847  10.160  0.9448 -0.3159  0.2438
 8301SOL    HW236537   1.677   2.857  10.285  1.6637  2.6174 -2.3247
 8302SOL     OW36538   0.620   3.333   2.311 -0.0209 -0.3610  0.0250
 8302SOL    HW136539   0.559   3.261   2.327 -1.3905  0.9280  0.5802
 8302SOL    HW236540   0.662   3.285   2.239  1.5147  1.7238 -0.4553
 8303SOL     OW36541   3.713   3.641   4.054 -0.2553 -0.2220  0.0168
 8303SOL    HW136542   3.640   3.686   4.014  1.1480  0.5821 -1.6311
 8303SOL    HW236543   3.678   3.608   4.137  0.1139 -0.0445  0.2434
 8304SOL     OW36544   4.477   3.676   3.877  0.7938  0.4263 -0.0432
 8304SOL    HW136545   4.505   3.653   3.966  3.9618  0.1202 -1.0916
 8304SOL    HW236546   4.383   3.664   3.879  0.7114  0.8155 -1.6944
 8305SOL     OW36547   2.618   4.084   7.428 -0.1631 -0.4302  0.5936
 8305SOL    HW136548   2.649   4.040   7.349  1.5248  2.9234 -0.5935
 8305SOL    HW236549   2.551   4.018   7.449 -0.7160 -0.0448  0.0424
 8306SOL     OW36550   1.448   1.258   5.371  0.0336 -0.1833 -0.0162
 8306SOL    HW136551   1.511   1.321   5.408 -1.3941  0.4032  1.4247
 8306SOL    HW236552   1.483   1.182   5.416 -1.3849  0.4805  2.2233
 8307SOL     OW36553   3.182   1.265   8.637 -0.2664  0.2389 -0.3613
 8307SOL    HW136554   3.093   1.251   8.667 -0.0377  2.1054  1.2022
 8307SOL    HW236555   3.176   1.361   8.642  0.0006  0.2959 -1.0799
 8308SOL     OW36556   4.492   4.654  15.121 -0.1185 -0.5459 -0.6138
 8308SOL    HW136557   4.579   4.621  15.147  0.0548  0.3149 -0.0975
 8308SOL    HW236558   4.519   4.715  15.053 -1.0245  2.1040  1.4290
 8309SOL     OW36559   0.674   1.751   3.459  0.5107 -0.1178 -0.1668
 8309SOL    HW136560   0.750   1.752   3.401  1.0262 -0.7113  0.5054
 8309SOL    HW236561   0.634   1.674   3.419  1.0426  1.1804 -3.1758
 8310SOL     OW36562   2.994   1.582   6.436 -0.2151 -0.0534  0.5984
 8310SOL    HW136563   2.943   1.640   6.492  2.9013  3.6300 -0.3424
 8310SOL    HW236564   3.073   1.573   6.490  0.3912 -0.0611 -0.2751
 8311SOL     OW36565   2.909   1.621  17.193  0.4620  0.2460  0.3862
 8311SOL    HW136566   2.996   1.641  17.229  0.8605  0.7778 -0.8631
 8311SOL    HW236567   2.899   1.532  17.227  3.5328 -0.4319 -0.4952
 8312SOL     OW36568   3.819   3.597   3.363  0.2293 -0.7727  0.2735
 8312SOL    HW136569   3.801   3.625   3.274  2.0143 -0.0772  0.1368
 8312SOL    HW236570   3.741   3.629   3.408 -0.1470 -0.9567 -0.2515
 8313SOL     OW36571   3.158   1.255   6.644 -0.0332  0.1504 -0.5275
 8313SOL    HW136572   3.087   1.236   6.583  1.8833  0.3346 -2.8393
 8313SOL    HW236573   3.225   1.261   6.576 -1.0253 -0.7532 -1.5728
 8314SOL     OW36574   4.204   0.321   7.281 -0.3137 -0.1208  0.4464
 8314SOL    HW136575   4.123   0.321   7.230 -0.0776  2.1511  0.0682
 8314SOL    HW236576   4.260   0.256   7.238 -0.5089 -1.7183  2.6153
 8315SOL     OW36577   1.296   4.237   6.216  0.0344  0.2845  0.7865
 8315SOL    HW136578   1.327   4.195   6.136  2.4780 -0.5125  2.1454
 8315SOL    HW236579   1.379   4.228   6.263 -0.1512 -1.2988  0.8084
 8316SOL     OW36580   2.275   0.003   5.683  0.9180  0.2351 -0.4905
 8316SOL    HW136581   2.327   4.709   5.757 -2.6703  0.2745  2.0538
 8316SOL    HW236582   2.268   0.098   5.695  0.7806  0.0082  1.1326
 8317SOL     OW36583   3.566   2.641   2.138  0.1163 -0.2069 -0.4367
 8317SOL    HW136584   3.531   2.552   2.130 -2.6054  0.8807 -0.4176
 8317SOL    HW236585   3.489   2.698   2.140  1.1522  1.1275  1.0932
 8318SOL     OW36586   0.454   2.276  11.863  0.2058  0.2957  0.0688
 8318SOL    HW136587   0.392   2.233  11.921  0.4319 -0.2314 -0.0871
 8318SOL    HW236588   0.516   2.206  11.843 -0.4576 -0.5950  1.1298
 8319SOL     OW36589   0.075   2.660   4.508 -0.1232  0.0623  0.4263
 8319SOL    HW136590   0.019   2.693   4.579 -2.2290  2.9937 -2.6207
 8319SOL    HW236591   0.078   2.565   4.521 -0.4565  0.1097  0.8783
 8320SOL     OW36592   3.670   2.772   3.304  0.2390 -0.0343  0.3124
 8320SOL    HW136593   3.599   2.777   3.368  0.1859  1.8301  0.1060
 8320SOL    HW236594   3.640   2.829   3.234  2.5073 -0.1359 -0.7546
 8321SOL     OW36595   2.746   2.392  12.375  0.1500 -0.1413  0.2386
 8321SOL    HW136596   2.798   2.454  12.323 -0.0877 -0.8837 -0.8748
 8321SOL    HW236597   2.745   2.442  12.456  0.1030  0.4260 -0.1123
 8322SOL     OW36598   2.090   2.842  11.691  0.2152 -0.2804  0.0432
 8322SOL    HW136599   2.183   2.835  11.713 -0.2327 -0.5870  1.8398
 8322SOL    HW236600   2.098   2.795  11.607 -0.0073  1.9920 -1.2594
 8323SOL     OW36601   2.530   1.233   8.649  0.4072 -0.1259  0.3931
 8323SOL    HW136602   2.437   1.257   8.649  0.0278 -1.6099 -0.1901
 8323SOL    HW236603   2.516   1.139   8.659  2.1228 -0.4463 -0.2920
 8324SOL     OW36604   1.823   3.648   8.753 -0.5707 -0.0752 -0.0430
 8324SOL    HW136605   1.746   3.591   8.758  0.5661 -1.3051  3.1024
 8324SOL    HW236606   1.845   3.634   8.660 -1.1000  1.5730 -0.4074
 8325SOL     OW36607   1.789   4.182   6.468  0.1464 -0.5036 -0.2835
 8325SOL    HW136608   1.861   4.201   6.529  0.6248 -1.3815 -0.5682
 8325SOL    HW236609   1.752   4.106   6.515  0.6144  0.5639  1.8072
 8326SOL     OW36610   3.907   3.661  10.033  0.6101  0.5094 -0.0782
 8326SOL    HW136611   3.852   3.612  10.095  2.0100  0.7676  1.3759
 8326SOL    HW236612   3.902   3.613   9.951  0.6346 -0.0437  0.2471
 8327SOL     OW36613   4.142   2.036  11.281 -0.3031 -0.4916  0.3698
 8327SOL    HW136614   4.150   2.069  11.370  0.7926 -2.8790  1.1517
 8327SOL    HW236615   4.225   2.050  11.236 -0.6191  0.0552 -0.0445
 8328SOL     OW36616   2.407   1.211   6.039 -0.8334 -0.1918 -0.6269
 8328SOL    HW136617   2.366   1.296   6.025  1.9496  1.4580  1.1325
 8328SOL    HW236618   2.337   1.146   6.039 -2.1347  1.2259 -0.5373
 8329SOL     OW36619   1.177   1.549   6.313 -0.5634  0.3693 -0.1725
 8329SOL    HW136620   1.123   1.508   6.381  1.7817  1.1776  2.1918
 8329SOL    HW236621   1.257   1.495   6.317 -1.3658 -0.6677  1.9025
 8330SOL     OW36622   2.792   0.943  11.748 -0.0820 -0.0720  0.0676
 8330SOL    HW136623   2.814   1.002  11.676  2.9236  0.1476  1.1866
 8330SOL    HW236624   2.875   0.898  11.760  0.8533  1.5277 -0.4498
 8331SOL     OW36625   0.890   0.583   0.575 -0.2803  0.3888  0.0338
 8331SOL    HW136626   0.918   0.494   0.598  0.9699  0.9416  0.7042
 8331SOL    HW236627   0.796   0.575   0.591 -0.9449  1.7698 -3.1995
 8332SOL     OW36628   2.090   0.337   4.526  0.2253  0.2186  0.1612
 8332SOL    HW136629   2.158   0.276   4.498  1.1756  2.5273 -2.6427
 8332SOL    HW236630   2.011   0.284   4.521 -0.1174  0.6517  0.9177
 8333SOL     OW36631   4.276   3.242   1.908  0.4251 -0.6783  0.1823
 8333SOL    HW136632   4.191   3.199   1.899  0.5153 -0.9036  0.4248
 8333SOL    HW236633   4.280   3.308   1.838 -0.5006 -1.7844 -0.9114
 8334SOL     OW36634   4.220   1.113   8.676  0.1206  0.0083  0.0483
 8334SOL    HW136635   4.241   1.069   8.759  0.2792  0.3598  0.1981
 8334SOL    HW236636   4.283   1.185   8.668  0.3639 -0.1544  0.4626
 8335SOL     OW36637   2.546   0.113   0.506 -0.0809 -0.2201 -0.3312
 8335SOL    HW136638   2.581   0.202   0.517  0.7824 -0.6036  0.0569
 8335SOL    HW236639   2.462   0.123   0.462  0.3285 -0.7606 -1.2335
 8336SOL     OW36640   4.617   0.148   9.353  0.2013  0.6235 -0.1336
 8336SOL    HW136641   4.689   0.184   9.405  1.0830 -1.8317  0.3443
 8336SOL    HW236642   4.624   0.217   9.287  3.4389 -2.2659 -2.8413
 8337SOL     OW36643   1.870   4.303   5.525 -0.4442 -0.3471 -0.1948
 8337SOL    HW136644   1.946   4.262   5.484  0.4962  0.6772  0.5171
 8337SOL    HW236645   1.803   4.282   5.460 -2.1953  1.8663  0.9223
 8338SOL     OW36646   4.158   4.501   1.903 -0.4083  0.7073  0.3964
 8338SOL    HW136647   4.080   4.556   1.893 -0.9398 -0.1264 -0.0119
 8338SOL    HW236648   4.119   4.416   1.922  1.9422 -0.2609  0.8375
 8339SOL     OW36649   0.111   2.735   8.729 -0.2554 -0.1197  0.3977
 8339SOL    HW136650   0.029   2.743   8.679 -0.5967 -1.0037  0.8222
 8339SOL    HW236651   0.136   2.644   8.716  0.2754  0.0399  0.2942
 8340SOL     OW36652   3.785   2.187   8.447  0.6065  0.2940  0.4807
 8340SOL    HW136653   3.797   2.094   8.470  1.5158  0.4109  0.4878
 8340SOL    HW236654   3.695   2.200   8.476  0.6756 -1.3349  1.4337
 8341SOL     OW36655   3.130   3.326   3.462  0.0491  0.3750  0.2898
 8341SOL    HW136656   3.042   3.295   3.444  0.2167  0.2338 -0.2926
 8341SOL    HW236657   3.177   3.351   3.383  1.6640 -0.9652  0.8235
 8342SOL     OW36658   1.475   4.222   7.665 -0.0941 -0.4048  0.3405
 8342SOL    HW136659   1.392   4.269   7.676  0.2053 -0.0615  1.1746
 8342SOL    HW236660   1.545   4.279   7.632 -1.3343  1.8766  1.6134
 8343SOL     OW36661   4.122   3.337  11.553 -0.0928 -0.2891 -0.0770
 8343SOL    HW136662   4.070   3.287  11.616 -1.7525  1.5712  0.0426
 8343SOL    HW236663   4.203   3.290  11.568 -1.1390 -1.6968  1.1259
 8344SOL     OW36664   0.159   0.130   5.307  0.4217 -0.1234 -0.2159
 8344SOL    HW136665   0.122   0.061   5.362 -0.1056 -0.9245 -1.5745
 8344SOL    HW236666   0.244   0.136   5.351  0.3454  0.5827 -0.1583
 8345SOL     OW36667   3.628   3.393   8.749  0.1280 -0.0765 -0.1678
 8345SOL    HW136668   3.691   3.454   8.787  1.3737 -1.4896  0.0185
 8345SOL    HW236669   3.567   3.375   8.820  1.1925 -0.5833  0.6267
 8346SOL     OW36670   0.606   2.335   7.361  0.8783 -0.5062  0.4214
 8346SOL    HW136671   0.667   2.367   7.427 -0.6327 -0.1878  1.6399
 8346SOL    HW236672   0.597   2.242   7.384 -1.8555 -0.4252 -0.2991
 8347SOL     OW36673   3.879   1.597  11.310 -0.5561 -0.1078  0.6758
 8347SOL    HW136674   3.942   1.670  11.314 -1.8581  1.0665 -0.1706
 8347SOL    HW236675   3.891   1.591  11.215  2.5719 -0.7651  1.1130
 8348SOL     OW36676   2.551   3.761  15.004  0.2774 -0.3197 -0.1726
 8348SOL    HW136677   2.547   3.759  14.908  0.4084  1.5046 -0.2174
 8348SOL    HW236678   2.616   3.691  15.012  0.4347 -0.3873 -1.9462
 8349SOL     OW36679   3.357   3.334   5.554  0.1670 -0.2424 -0.7611
 8349SOL    HW136680   3.387   3.409   5.605  0.1227 -0.1437 -0.8803
 8349SOL    HW236681   3.273   3.334   5.599  0.0031 -0.1440 -1.0670
 8350SOL     OW36682   2.832   0.889   6.152  0.0460  0.0124 -0.5524
 8350SOL    HW136683   2.833   0.873   6.057 -0.3605  2.1746 -0.9297
 8350SOL    HW236684   2.746   0.856   6.175 -0.7322  1.2763 -1.6528
 8351SOL     OW36685   3.515   3.761   6.945 -0.3018 -0.1378 -0.2550
 8351SOL    HW136686   3.476   3.822   6.882 -0.1752  0.0839 -0.1191
 8351SOL    HW236687   3.586   3.817   6.979 -0.9981  0.1596  0.7076
 8352SOL     OW36688   1.167   0.849   3.755 -0.8219  0.9011  0.4510
 8352SOL    HW136689   1.258   0.825   3.773 -0.7315 -2.2441 -4.3172
 8352SOL    HW236690   1.113   0.797   3.815  0.4990  0.0560  0.8987
 8353SOL     OW36691   2.416   3.596   5.100  0.0313 -0.0214  0.0228
 8353SOL    HW136692   2.374   3.510   5.106  0.4808 -0.0702  2.2342
 8353SOL    HW236693   2.455   3.589   5.013  0.1182  0.4491  0.0246
 8354SOL     OW36694   0.062   3.198  12.955  0.3091 -0.4093 -0.4120
 8354SOL    HW136695   0.067   3.288  12.923  1.4167  0.2989  1.7379
 8354SOL    HW236696   0.117   3.161  12.887  1.9661 -0.1081  0.7568
 8355SOL     OW36697   0.474   0.119   5.074 -1.0156  0.1960 -0.1783
 8355SOL    HW136698   0.505   0.205   5.044  0.3883 -0.3610 -0.3557
 8355SOL    HW236699   0.379   0.114   5.066 -0.9533  0.4311 -1.0680
 8356SOL     OW36700   2.241   4.124   3.652 -0.6075  0.2560 -0.0122
 8356SOL    HW136701   2.336   4.128   3.648 -0.6140  0.7135  0.3472
 8356SOL    HW236702   2.235   4.047   3.709  0.4697  0.3572  0.2218
 8357SOL     OW36703   3.410   2.207  14.515 -0.2985  0.4842 -0.4426
 8357SOL    HW136704   3.484   2.260  14.487 -0.7436  1.1034 -0.4266
 8357SOL    HW236705   3.373   2.178  14.432  1.7454  2.1686 -1.9375
 8358SOL     OW36706   0.388   2.323   8.424 -0.3801  0.1808 -0.2483
 8358SOL    HW136707   0.398   2.418   8.430  0.4546 -0.0153  1.4011
 8358SOL    HW236708   0.453   2.312   8.355  1.7908 -0.4091  1.8839
 8359SOL     OW36709   3.956   3.886   3.029 -0.2045 -0.0956 -0.2908
 8359SOL    HW136710   4.024   3.889   3.095 -3.2817  0.5888  2.8651
 8359SOL    HW236711   3.898   3.816   3.059 -0.5776  0.4357  0.2340
 8360SOL     OW36712   2.165   0.352   7.770  0.5216 -0.2394 -0.1710
 8360SOL    HW136713   2.249   0.352   7.723  0.6675 -0.4760  0.0869
 8360SOL    HW236714   2.193   0.360   7.861  1.7850  1.2243 -0.6850
 8361SOL     OW36715   0.318   0.032   6.168  0.8862 -0.0680  0.0002
 8361SOL    HW136716   0.391   4.705   6.172 -0.8341 -1.9493  2.7741
 8361SOL    HW236717   0.362   0.114   6.146  0.8790  0.4193  1.8263
 8362SOL     OW36718   2.909   2.752   7.793 -0.1899 -0.2127  0.0097
 8362SOL    HW136719   2.838   2.727   7.852 -1.2879  1.1714 -0.7262
 8362SOL    HW236720   2.975   2.784   7.854  0.6407 -0.0193 -0.9912
 8363SOL     OW36721   4.543   2.852   7.856 -0.5990  0.0100  0.0121
 8363SOL    HW136722   4.487   2.847   7.778  0.6731 -1.7249 -0.7732
 8363SOL    HW236723   4.511   2.926   7.908 -1.8578  0.7253 -1.7562
 8364SOL     OW36724   2.507   4.327  11.255 -0.3109 -0.2843 -0.0053
 8364SOL    HW136725   2.422   4.366  11.274 -0.6735 -1.3125  0.4534
 8364SOL    HW236726   2.526   4.367  11.169  3.7897  0.0478  1.0494
 8365SOL     OW36727   3.022   1.384   1.218  0.8180 -0.4472  0.5778
 8365SOL    HW136728   3.009   1.292   1.241  0.0990 -0.5312 -0.1391
 8365SOL    HW236729   3.117   1.394   1.209  0.8820 -0.7482  0.9379
 8366SOL     OW36730   3.602   0.410   3.917  0.7028 -0.6086  0.0955
 8366SOL    HW136731   3.687   0.382   3.883  0.4505  0.0581 -1.0639
 8366SOL    HW236732   3.586   0.493   3.873 -1.6657 -1.1396 -0.0049
 8367SOL     OW36733   2.787   0.365   9.062  0.5014  0.1298  0.5772
 8367SOL    HW136734   2.752   0.330   9.144  1.4674 -3.8407 -0.6696
 8367SOL    HW236735   2.838   0.439   9.094 -0.2452  0.5533  0.7775
 8368SOL     OW36736   2.611   3.862  16.357 -0.4613  0.3145 -0.7799
 8368SOL    HW136737   2.549   3.816  16.300  0.8865 -0.1690 -1.8756
 8368SOL    HW236738   2.649   3.923  16.293  0.1804  1.0387  0.2943
 8369SOL     OW36739   3.812   0.553   6.554 -0.0456  0.5939  0.0364
 8369SOL    HW136740   3.766   0.513   6.627 -0.1395 -0.4101 -0.5685
 8369SOL    HW236741   3.778   0.511   6.475 -0.1786 -0.5870  0.7208
 8370SOL     OW36742   0.017   2.874  13.153  0.3100 -0.2881 -0.5156
 8370SOL    HW136743   0.027   2.849  13.061  1.3619 -0.5749 -0.3242
 8370SOL    HW236744   4.658   2.869  13.170  0.1806  1.9755 -0.5092
 8371SOL     OW36745   1.612   1.381   4.666  0.3681  0.3402 -0.3272
 8371SOL    HW136746   1.577   1.309   4.613  2.3103 -0.0926 -1.0478
 8371SOL    HW236747   1.655   1.340   4.741 -1.0177  0.7457  0.6749
 8372SOL     OW36748   1.358   2.002   3.586  0.4405 -0.2390 -0.0102
 8372SOL    HW136749   1.372   2.032   3.496  0.5630  1.2883  0.5133
 8372SOL    HW236750   1.310   1.921   3.570 -1.6502  0.2051  4.0349
 8373SOL     OW36751   1.069   1.372  17.487 -0.0924 -0.1020 -0.3239
 8373SOL    HW136752   1.100   1.281  17.490 -0.2765 -0.1708 -0.5970
 8373SOL    HW236753   0.985   1.365  17.533  0.3996  1.0573  0.7704
 8374SOL     OW36754   2.536   0.563   9.304  1.2804 -0.1302  0.3954
 8374SOL    HW136755   2.533   0.654   9.334 -0.9346  0.2985 -1.1414
 8374SOL    HW236756   2.545   0.588   9.213  1.5063 -2.5768 -0.2609
 8375SOL     OW36757   3.065   2.585   1.778 -0.4986  0.8809 -0.5969
 8375SOL    HW136758   3.067   2.662   1.833 -0.4585  0.5988 -0.2028
 8375SOL    HW236759   2.995   2.532   1.815  0.6783  0.8123  1.5301
 8376SOL     OW36760   3.379   2.011   3.358  0.2889 -0.4668 -0.0884
 8376SOL    HW136761   3.397   1.963   3.439 -3.2496  1.8445  2.0328
 8376SOL    HW236762   3.465   2.008   3.315  0.6845 -0.6194  0.7107
 8377SOL     OW36763   1.594   3.050   6.077 -0.6616 -1.0082  0.3176
 8377SOL    HW136764   1.613   2.962   6.109 -1.6872 -0.8743  1.3235
 8377SOL    HW236765   1.516   3.030   6.026  0.2728  1.5460 -2.1175
 8378SOL     OW36766   2.746   1.315   6.117 -0.0470 -0.1252 -0.0836
 8378SOL    HW136767   2.706   1.401   6.104  1.2815  0.4454 -0.4468
 8378SOL    HW236768   2.705   1.265   6.047 -1.7027  2.8498 -1.2485
 8379SOL     OW36769   3.835   1.094  11.862  0.2870 -0.6324  0.0872
 8379SOL    HW136770   3.900   1.069  11.796  0.8644 -0.0319  0.4298
 8379SOL    HW236771   3.816   1.181  11.827 -1.9441 -1.1473  0.0175
 8380SOL     OW36772   2.242   4.380  11.236  0.2099 -0.1416  0.3805
 8380SOL    HW136773   2.169   4.353  11.291  2.3845 -1.1599  2.7488
 8380SOL    HW236774   2.200   4.392  11.150  0.5569 -0.6279  0.1410
 8381SOL     OW36775   1.440   0.750  17.548  0.5183 -0.2373  0.5302
 8381SOL    HW136776   1.446   0.779  17.457 -1.5616 -1.4009  0.0147
 8381SOL    HW236777   1.345   0.741  17.556  0.3516  0.1178 -0.9653
 8382SOL     OW36778   2.275   1.043   2.423  0.1532 -0.0951 -0.0126
 8382SOL    HW136779   2.322   1.046   2.340  0.3025 -1.2097  0.0251
 8382SOL    HW236780   2.290   0.952   2.450 -0.2518  0.5350  2.3244
 8383SOL     OW36781   4.492   2.878   4.554  0.6672  0.1821 -0.2645
 8383SOL    HW136782   4.572   2.845   4.595 -0.9363 -2.1240  1.0299
 8383SOL    HW236783   4.464   2.800   4.505  0.4813  0.4642 -0.6092
 8384SOL     OW36784   1.663   0.438   4.986 -0.3708 -0.1273  0.0473
 8384SOL    HW136785   1.738   0.450   5.044  0.3411  1.1251 -1.1399
 8384SOL    HW236786   1.698   0.479   4.907 -1.3497 -0.0604 -0.3618
 8385SOL     OW36787   2.219   1.779   8.553  0.0442 -0.0024  0.7931
 8385SOL    HW136788   2.276   1.716   8.598  0.4190 -0.6064 -0.5301
 8385SOL    HW236789   2.230   1.761   8.460 -0.4552  0.1623  0.7019
 8386SOL     OW36790   2.031   0.405  15.280  0.0847  0.0535 -0.1752
 8386SOL    HW136791   1.946   0.391  15.239  0.2635 -0.1199 -0.4864
 8386SOL    HW236792   2.052   0.491  15.245 -1.9454  1.0336  0.9941
 8387SOL     OW36793   4.463   1.621  14.371  0.6240  0.1940 -0.4373
 8387SOL    HW136794   4.406   1.697  14.358 -1.2955 -1.4550 -1.6488
 8387SOL    HW236795   4.512   1.618  14.289 -1.2879  0.7319 -1.6135
 8388SOL     OW36796   0.861   2.920  12.277 -0.3053  0.2167  0.5242
 8388SOL    HW136797   0.882   2.991  12.217  1.3984 -0.8480 -0.1361
 8388SOL    HW236798   0.907   2.847  12.236 -0.8127 -1.0822  2.2543
 8389SOL     OW36799   4.109   1.280   9.374  0.3852  0.7571  0.5897
 8389SOL    HW136800   4.081   1.371   9.382  0.1822  0.5788  1.9254
 8389SOL    HW236801   4.088   1.234   9.455  1.2800 -0.5749  0.0709
 8390SOL     OW36802   1.895   4.706   7.793  0.0830 -0.3889  0.4942
 8390SOL    HW136803   1.958   0.016   7.736  0.9986 -2.2594  0.0090
 8390SOL    HW236804   1.926   4.616   7.782 -0.6459 -0.8758  2.4755
 8391SOL     OW36805   4.221   0.791   7.863 -0.1385 -0.8230  0.5799
 8391SOL    HW136806   4.142   0.845   7.865  0.4111  0.1280 -2.8776
 8391SOL    HW236807   4.265   0.839   7.933  0.6874 -0.3168 -0.2702
 8392SOL     OW36808   2.686   1.362   3.730 -0.0785 -0.0668  0.4884
 8392SOL    HW136809   2.626   1.432   3.756  0.0189 -0.4279  1.6796
 8392SOL    HW236810   2.701   1.326   3.817 -1.0553 -3.0324 -0.5635
 8393SOL     OW36811   2.534   4.336   7.923 -0.3302  0.4650  0.4255
 8393SOL    HW136812   2.510   4.428   7.929  0.3961  0.5956  1.2435
 8393SOL    HW236813   2.539   4.306   8.013 -1.7761  0.3355  0.4677
 8394SOL     OW36814   1.896   1.167  11.658 -0.4779  0.0124  0.2407
 8394SOL    HW136815   1.839   1.240  11.634 -1.2421 -0.1233  1.6244
 8394SOL    HW236816   1.977   1.199  11.619 -1.8772  0.7664 -2.0734
 8395SOL     OW36817   2.982   3.086   7.887 -0.5768  0.1116  0.0351
 8395SOL    HW136818   3.048   3.046   7.830 -1.1152  0.8977 -1.1438
 8395SOL    HW236819   2.979   3.176   7.855  1.4708 -0.3526 -1.5095
 8396SOL     OW36820   4.438   1.622   7.389 -0.1541 -0.1222 -0.3389
 8396SOL    HW136821   4.512   1.602   7.447  0.2047  1.9166 -0.0860
 8396SOL    HW236822   4.483   1.606   7.306 -0.3602  0.5108 -0.5667
 8397SOL     OW36823   0.625   2.469   3.654 -0.1275  0.0122 -0.3861
 8397SOL    HW136824   0.660   2.498   3.570  1.6074  2.6143  1.2297
 8397SOL    HW236825   0.673   2.388   3.673  0.3102  0.6139  1.0999
 8398SOL     OW36826   1.259   2.416   8.608  0.3627  0.6703 -0.1810
 8398SOL    HW136827   1.289   2.444   8.694  2.2998 -1.5341 -0.1426
 8398SOL    HW236828   1.206   2.494   8.592  2.0266  1.7126 -0.6083
 8399SOL     OW36829   2.765   3.850   7.566  0.2339  0.2618  0.5866
 8399SOL    HW136830   2.681   3.896   7.561  0.8624  1.5315  1.5516
 8399SOL    HW236831   2.764   3.825   7.658 -0.1319  0.7108  0.7032
 8400SOL     OW36832   2.898   3.843   6.914 -0.2980 -0.0510  0.1329
 8400SOL    HW136833   2.906   3.938   6.920 -0.2301 -0.0446 -0.0547
 8400SOL    HW236834   2.873   3.825   6.824 -1.6131  1.7499  0.1483
 8401SOL     OW36835   0.965   0.018  12.403  0.5906 -0.2704  0.2166
 8401SOL    HW136836   0.893   0.079  12.422  1.3707  1.0091 -0.9283
 8401SOL    HW236837   0.954   4.680  12.463 -0.9077  0.2843  0.6229
 8402SOL     OW36838   0.086   4.602  15.479  0.3759 -0.4218 -0.0570
 8402SOL    HW136839   0.027   4.624  15.551 -0.3993  1.1533 -1.1872
 8402SOL    HW236840   0.121   4.516  15.502 -0.5165 -1.3365 -2.0769
 8403SOL     OW36841   0.614   0.650  12.705  0.2834 -0.0099  0.0891
 8403SOL    HW136842   0.663   0.586  12.757  1.1042 -0.2785 -1.0148
 8403SOL    HW236843   0.661   0.732  12.719  1.5191 -1.0041  1.7694
 8404SOL     OW36844   4.047   4.235   6.854 -0.1930 -0.3272  0.1461
 8404SOL    HW136845   4.141   4.227   6.838 -0.4600 -0.3247 -1.4163
 8404SOL    HW236846   4.025   4.301   6.788 -0.2625  1.0622  1.5616
 8405SOL     OW36847   2.553   1.721  13.074 -0.1210 -0.0261 -0.3758
 8405SOL    HW136848   2.597   1.720  12.989  1.6928  0.6999  0.5329
 8405SOL    HW236849   2.468   1.748  13.040  1.0464  3.2763 -0.7237
 8406SOL     OW36850   3.758   3.825   5.216  0.5206  0.4586 -0.0251
 8406SOL    HW136851   3.759   3.879   5.295  2.3850  0.8349 -0.2930
 8406SOL    HW236852   3.664   3.826   5.198  0.5034  1.5589  0.0915
 8407SOL     OW36853   4.637   2.948  15.608 -0.3995 -0.0689  0.3296
 8407SOL    HW136854   4.639   2.883  15.537  1.0154  1.6910 -1.2454
 8407SOL    HW236855   4.662   3.030  15.565 -1.7543 -0.6249 -1.5314
 8408SOL     OW36856   4.495   0.323   2.811 -0.0679  0.0974 -0.5832
 8408SOL    HW136857   4.569   0.262   2.802  0.7405  1.1522 -1.0560
 8408SOL    HW236858   4.489   0.350   2.720 -1.2241 -1.1591 -0.8829
 8409SOL     OW36859   2.291   3.955   6.330 -0.4710  0.6028  0.0315
 8409SOL    HW136860   2.277   3.875   6.280 -1.4513  0.8990 -0.1761
 8409SOL    HW236861   2.204   3.996   6.325  0.0814  1.6224 -1.3266
 8410SOL     OW36862   4.326   3.657   2.782 -0.0129 -0.3463  0.0895
 8410SOL    HW136863   4.305   3.674   2.874 -1.8808 -2.9759  0.1837
 8410SOL    HW236864   4.249   3.701   2.746 -0.2176  2.2261  3.6842
 8411SOL     OW36865   0.198   0.688   9.192  0.4176 -0.2338 -0.6447
 8411SOL    HW136866   0.230   0.747   9.260  1.5031 -1.0453 -0.4673
 8411SOL    HW236867   0.123   0.744   9.168  1.4496  1.9582  1.3298
 8412SOL     OW36868   3.653   4.704   3.172  0.0329 -0.1071 -0.1898
 8412SOL    HW136869   3.664   4.730   3.080  1.9194 -1.6226 -0.3862
 8412SOL    HW236870   3.704   4.624   3.186  1.4176  1.0004  1.1163
 8413SOL     OW36871   3.606   3.450  12.837 -0.0328  0.0112 -0.1407
 8413SOL    HW136872   3.599   3.546  12.835  2.2300  0.1853  0.0282
 8413SOL    HW236873   3.563   3.427  12.755 -1.0338 -1.3323  0.7770
 8414SOL     OW36874   2.026   0.215  14.357  0.3252 -0.0060 -0.4830
 8414SOL    HW136875   2.042   0.123  14.382  0.6951  0.3064  0.4493
 8414SOL    HW236876   1.999   0.207  14.266  0.5593  1.4766 -0.6723
 8415SOL     OW36877   4.582   3.965  11.495 -0.1011 -0.1238 -0.0641
 8415SOL    HW136878   4.581   4.059  11.517 -2.2406 -0.0015 -0.6384
 8415SOL    HW236879   4.510   3.936  11.551 -0.7270 -1.0636 -1.3710
 8416SOL     OW36880   3.053   3.307   5.697 -0.1932 -0.1922 -0.0199
 8416SOL    HW136881   3.042   3.265   5.783  2.4602 -2.2877 -0.6990
 8416SOL    HW236882   3.012   3.240   5.644 -0.4024  0.1770 -0.3262
 8417SOL     OW36883   0.397   4.528   4.375  0.1015  0.2852 -0.2276
 8417SOL    HW136884   0.372   4.531   4.283 -2.5452  3.3648  0.5688
 8417SOL    HW236885   0.491   4.514   4.375 -0.3940 -2.9285 -1.4065
 8418SOL     OW36886   0.195   2.176   1.002  0.1517  0.1394  0.3653
 8418SOL    HW136887   0.204   2.139   1.090  0.0496 -1.3200 -0.2326
 8418SOL    HW236888   0.229   2.113   0.939  1.0896 -0.6580  1.6834
 8419SOL     OW36889   1.172   3.075   0.822  1.3807 -0.0447  0.1787
 8419SOL    HW136890   1.212   3.161   0.824 -0.9401  1.0638 -1.2688
 8419SOL    HW236891   1.246   3.014   0.815  2.4481  1.3518 -0.5606
 8420SOL     OW36892   0.317   2.942   4.646  0.6010  0.2185  0.3801
 8420SOL    HW136893   0.358   2.995   4.577 -0.4667  0.5322 -0.0187
 8420SOL    HW236894   0.288   2.874   4.585 -1.7720  0.4062  1.2866
 8421SOL     OW36895   2.184   1.384   2.023  0.0891 -0.1861 -0.4208
 8421SOL    HW136896   2.112   1.385   2.086  0.0864 -0.4617 -0.4209
 8421SOL    HW236897   2.165   1.308   1.968  0.5811  0.6872 -1.7986
 8422SOL     OW36898   0.159   2.348   6.337 -0.2904 -0.3426  0.0157
 8422SOL    HW136899   0.251   2.341   6.311 -0.0468  0.2084  0.7346
 8422SOL    HW236900   0.129   2.280   6.277 -1.0222  0.9503 -1.0708
 8423SOL     OW36901   2.287   4.095   0.566 -0.2948  0.2731  0.3925
 8423SOL    HW136902   2.201   4.117   0.532 -0.0294 -1.1369 -1.2178
 8423SOL    HW236903   2.283   4.109   0.661  1.0975 -2.0558  0.8164
 8424SOL     OW36904   4.607   0.173  11.816 -0.3190 -0.1641  0.1981
 8424SOL    HW136905   4.656   0.103  11.858  0.9105  1.6766  1.8608
 8424SOL    HW236906   4.553   0.132  11.749 -0.4830  0.3562  0.0126
 8425SOL     OW36907   4.258   2.371   0.490  0.3438  0.0333 -0.1162
 8425SOL    HW136908   4.208   2.304   0.537  1.9479 -0.0639  1.4683
 8425SOL    HW236909   4.303   2.417   0.561 -1.7779  0.4688  0.9351
 8426SOL     OW36910   1.007   2.033   7.339  0.2112 -0.0778 -0.7087
 8426SOL    HW136911   0.956   2.024   7.259 -0.2114  0.0510 -0.4519
 8426SOL    HW236912   0.999   1.943   7.372 -0.9934  0.3113  0.0849
 8427SOL     OW36913   1.549   1.546   8.845 -0.1441 -0.1542  0.1498
 8427SOL    HW136914   1.467   1.572   8.804  0.3148  0.3240 -0.4749
 8427SOL    HW236915   1.602   1.621   8.817  0.4375 -0.4400  0.4773
 8428SOL     OW36916   4.576   4.602   5.842 -0.4161  0.7632 -0.0249
 8428SOL    HW136917   4.542   4.567   5.760  3.4409  1.2948 -1.8990
 8428SOL    HW236918   4.668   4.616   5.818 -0.7283 -2.8065 -3.2453
 8429SOL     OW36919   0.189   2.744   4.074 -0.1175  0.4489  0.1570
 8429SOL    HW136920   0.176   2.828   4.030 -1.3525  1.0972  1.7180
 8429SOL    HW236921   0.209   2.690   3.998 -1.8302 -1.7605  1.2620
 8430SOL     OW36922   4.705   3.581   1.175  0.2282  0.3550  0.2085
 8430SOL    HW136923   4.647   3.512   1.207 -0.0139  0.5308  0.1442
 8430SOL    HW236924   4.665   3.583   1.088  1.6097 -4.0073 -0.5193
 8431SOL     OW36925   2.825   4.620   1.871 -0.1902 -0.2380 -0.1626
 8431SOL    HW136926   2.743   4.648   1.911 -0.1301 -0.4659  0.1149
 8431SOL    HW236927   2.862   4.706   1.851 -0.0653 -0.2903 -0.1590
 8432SOL     OW36928   2.522   2.779   3.268  0.3800 -0.0569  0.4224
 8432SOL    HW136929   2.434   2.810   3.248  1.5073  2.8197  0.0144
 8432SOL    HW236930   2.573   2.840   3.215 -2.0559 -0.1923 -2.0960
 8433SOL     OW36931   1.212   0.519  16.951  0.3715  0.0454  0.1710
 8433SOL    HW136932   1.136   0.508  16.893  0.1923  1.8110  0.0640
 8433SOL    HW236933   1.263   0.438  16.952  1.6608  0.8859  2.0117
 8434SOL     OW36934   2.827   2.273  16.749 -0.8333  0.1240 -0.0680
 8434SOL    HW136935   2.784   2.296  16.666  0.3004  2.6352  0.0304
 8434SOL    HW236936   2.759   2.286  16.815 -2.5405  0.1910 -1.8223
 8435SOL     OW36937   1.992   1.409  10.538  0.7220  0.1558  0.5158
 8435SOL    HW136938   1.941   1.444  10.465  1.0835  1.8240  1.0703
 8435SOL    HW236939   2.060   1.475  10.550  0.0658  0.9847 -0.3899
 8436SOL     OW36940   0.126   1.499   1.766  0.3369  0.7257 -0.2039
 8436SOL    HW136941   0.118   1.443   1.843 -1.6011 -1.0806 -1.6859
 8436SOL    HW236942   0.132   1.584   1.810  1.3828  1.6477 -2.1290
 8437SOL     OW36943   3.084   2.603   7.154 -0.1911 -0.4707 -0.0317
 8437SOL    HW136944   2.989   2.611   7.145 -0.3560 -2.0078  0.3391
 8437SOL    HW236945   3.103   2.622   7.062 -1.5020 -1.5093 -0.5233
 8438SOL     OW36946   0.696   3.330  16.242 -0.3102  0.9534  0.0166
 8438SOL    HW136947   0.784   3.293  16.246 -0.7624  0.0956  1.9401
 8438SOL    HW236948   0.642   3.265  16.287 -0.1113 -0.1498 -1.3448
 8439SOL     OW36949   2.535   3.723  15.645  0.1448 -0.5949 -0.0358
 8439SOL    HW136950   2.455   3.686  15.608 -0.6195  1.5916 -0.5928
 8439SOL    HW236951   2.541   3.813  15.614 -0.8645 -1.3190 -2.3609
 8440SOL     OW36952   1.848   1.590   3.914 -0.1593  0.3856 -0.0665
 8440SOL    HW136953   1.871   1.552   3.829  1.9877  1.2330  0.1471
 8440SOL    HW236954   1.900   1.532   3.970  0.0346 -0.1479 -0.7941
 8441SOL     OW36955   3.582   4.159   5.275  0.3800 -0.4104  0.3266
 8441SOL    HW136956   3.665   4.131   5.236  0.6001  0.7948 -0.0819
 8441SOL    HW236957   3.617   4.196   5.355  0.1506  2.0925 -0.7340
 8442SOL     OW36958   4.134   2.009   9.438  1.0451 -0.6690 -0.4110
 8442SOL    HW136959   4.155   2.103   9.444  0.7607 -0.6648  0.4802
 8442SOL    HW236960   4.131   1.992   9.344 -2.0609 -1.5328 -0.1612
 8443SOL     OW36961   3.023   1.091   1.089  0.5648  0.3463  0.5815
 8443SOL    HW136962   2.950   1.077   1.149 -0.3137 -0.5150 -0.7075
 8443SOL    HW236963   2.997   1.048   1.008  4.6189 -0.4443 -0.3171
 8444SOL     OW36964   3.516   2.773   8.642 -0.4262 -0.5370  0.4175
 8444SOL    HW136965   3.457   2.804   8.574 -2.3327 -1.0135  1.8547
 8444SOL    HW236966   3.475   2.801   8.724 -3.0592  0.2812 -1.1785
 8445SOL     OW36967   2.584   0.776   2.105  0.4281 -0.0587 -0.0900
 8445SOL    HW136968   2.567   0.726   2.025  0.0782  0.8827 -0.5988
 8445SOL    HW236969   2.552   0.719   2.176 -2.1996  0.9733 -0.4368
 8446SOL     OW36970   1.177   0.767  16.198 -0.4450  0.2195  0.4076
 8446SOL    HW136971   1.090   0.755  16.160 -0.2484  2.0976 -0.6150
 8446SOL    HW236972   1.165   0.813  16.281  1.3461  0.1582  0.6997
 8447SOL     OW36973   2.071   1.128   9.737 -0.2186  0.1219 -0.3432
 8447SOL    HW136974   2.131   1.174   9.795 -2.5293  1.6799  0.7895
 8447SOL    HW236975   2.128   1.121   9.660 -0.5612  0.5236 -0.6382
 8448SOL     OW36976   4.356   4.618   9.137 -0.2099 -0.0815 -0.0039
 8448SOL    HW136977   4.373   4.605   9.231 -2.7955 -1.0180  0.3200
 8448SOL    HW236978   4.261   4.629   9.137 -0.3872 -1.7299 -1.5683
 8449SOL     OW36979   1.861   2.098   8.721 -0.0608 -0.2516 -0.2184
 8449SOL    HW136980   1.887   2.008   8.738 -1.1104 -0.8669 -1.8241
 8449SOL    HW236981   1.882   2.133   8.807  0.8792 -0.2063 -0.4682
 8450SOL     OW36982   3.657   3.180   8.290 -0.3537  0.0260  0.4299
 8450SOL    HW136983   3.680   3.230   8.369 -3.7789  1.5553  0.4613
 8450SOL    HW236984   3.743   3.148   8.263 -0.1383  2.1978 -1.3893
 8451SOL     OW36985   1.578   4.684   4.420  0.4762  0.0369 -0.1020
 8451SOL    HW136986   1.667   4.667   4.389  0.8634 -0.9215  1.4822
 8451SOL    HW236987   1.530   4.653   4.344  0.3563  2.4397 -1.0023
 8452SOL     OW36988   1.680   1.826  11.559  0.1332 -0.5535  0.1361
 8452SOL    HW136989   1.754   1.843  11.618 -0.7654 -2.4037  1.7716
 8452SOL    HW236990   1.690   1.733  11.537  0.8920 -0.6555  0.8892
 8453SOL     OW36991   4.236   2.488   3.401 -0.3295  0.0647 -0.1328
 8453SOL    HW136992   4.273   2.558   3.348  1.7519 -2.3247 -1.8786
 8453SOL    HW236993   4.153   2.477   3.353 -1.3063 -0.1251  1.6063
 8454SOL     OW36994   0.210   2.035   0.714 -0.4150  0.0990  0.2613
 8454SOL    HW136995   0.233   2.069   0.628 -0.7381  1.8648  0.8873
 8454SOL    HW236996   0.140   2.098   0.730 -0.0860  0.7706 -0.9612
 8455SOL     OW36997   3.528   3.645  10.697  0.3987  0.0505  0.4920
 8455SOL    HW136998   3.570   3.722  10.659 -1.9659 -0.0583 -2.2772
 8455SOL    HW236999   3.439   3.665  10.666  0.0852  0.9028  1.8735
 8456SOL     OW37000   3.753   4.167  12.107 -0.3768  0.4044 -0.0888
 8456SOL    HW137001   3.844   4.144  12.087  0.0332 -0.8107  3.2069
 8456SOL    HW237002   3.735   4.232  12.039  1.3307 -0.6057 -1.4897
 8457SOL     OW37003   3.368   1.417   2.358  0.1909 -0.5839  0.3735
 8457SOL    HW137004   3.398   1.421   2.268 -0.0364 -1.6274  0.2516
 8457SOL    HW237005   3.370   1.510   2.382 -1.4903 -0.8610  1.5891
 8458SOL     OW37006   0.330   1.367   7.693  0.0502  0.2757 -0.1120
 8458SOL    HW137007   0.288   1.284   7.716 -1.5733  1.0788 -0.1698
 8458SOL    HW237008   0.370   1.387   7.777  2.0681 -0.1470 -0.9628
 8459SOL     OW37009   0.949   1.219   7.586 -0.3592 -0.0022  0.2389
 8459SOL    HW137010   0.987   1.141   7.544 -3.1657 -1.7141  0.9317
 8459SOL    HW237011   0.865   1.239   7.545 -0.3746 -1.4714 -0.4363
 8460SOL     OW37012   0.004   3.565   6.991 -0.1895  0.1608 -0.1116
 8460SOL    HW137013   0.004   3.642   6.933 -0.7653  0.9530  0.9463
 8460SOL    HW237014   4.676   3.504   6.953  1.7709 -2.9061  1.6455
 8461SOL     OW37015   4.597   0.765   2.095  0.2228 -0.0889  0.1430
 8461SOL    HW137016   4.538   0.809   2.034  3.0853  1.7979 -1.2763
 8461SOL    HW237017   4.685   0.791   2.067  0.8788 -1.9061  0.5072
 8462SOL     OW37018   2.394   0.833  15.803 -0.2381 -0.1836 -0.2206
 8462SOL    HW137019   2.451   0.898  15.844  0.7835  0.0062 -1.9431
 8462SOL    HW237020   2.322   0.893  15.782 -0.6696 -1.0034 -1.0694
 8463SOL     OW37021   3.787   2.042   7.840 -0.0768 -0.5052 -0.0050
 8463SOL    HW137022   3.720   2.015   7.903  1.1217  0.6927  1.7719
 8463SOL    HW237023   3.740   2.026   7.758  3.1498 -0.4408 -1.8663
 8464SOL     OW37024   0.857   2.439  13.989  0.3905 -0.5510  0.7719
 8464SOL    HW137025   0.901   2.438  14.074 -0.4055 -2.6168  1.1470
 8464SOL    HW237026   0.854   2.532  13.967 -0.7029 -0.7488  0.1129
 8465SOL     OW37027   2.037   4.680  14.442  0.2532  0.0201  0.7143
 8465SOL    HW137028   1.969   4.624  14.480  0.5002 -1.2653 -0.7161
 8465SOL    HW237029   2.116   4.627  14.447 -0.7031 -1.5903 -0.9909
 8466SOL     OW37030   4.558   2.287   9.083 -0.5412 -0.1259 -0.8035
 8466SOL    HW137031   4.504   2.357   9.047 -0.2158  1.2494  1.3328
 8466SOL    HW237032   4.636   2.335   9.113 -0.6341  1.1573 -2.6484
 8467SOL     OW37033   2.057   1.072   8.406 -0.1122  0.1557 -0.3117
 8467SOL    HW137034   2.065   0.993   8.460 -0.9827  0.1482 -0.1889
 8467SOL    HW237035   1.961   1.075   8.403 -0.1292  1.3508  1.6995
 8468SOL     OW37036   2.087   2.157  17.286 -0.3444 -0.5167  0.2209
 8468SOL    HW137037   2.150   2.085  17.287 -2.0621 -2.0439 -0.0527
 8468SOL    HW237038   2.009   2.104  17.270  0.5297 -1.3446 -1.3381
 8469SOL     OW37039   4.204   4.093   8.541 -0.3740 -0.0107 -0.1533
 8469SOL    HW137040   4.281   4.039   8.525  2.6389  4.3483 -0.2805
 8469SOL    HW237041   4.169   4.097   8.452 -1.0687  2.9958  0.2722
 8470SOL     OW37042   4.129   3.489  10.533  0.6534  0.5134  0.2498
 8470SOL    HW137043   4.081   3.566  10.563  0.1558  0.2220  0.1938
 8470SOL    HW237044   4.213   3.533  10.522 -0.3330  2.7177  1.6613
 8471SOL     OW37045   0.565   1.793  17.738  0.2493  0.0426  0.3311
 8471SOL    HW137046   0.540   1.884  17.724  2.6186  0.6054 -0.2125
 8471SOL    HW237047   0.505   1.745  17.681  2.1831 -1.6302 -0.2904
 8472SOL     OW37048   0.577   2.911   8.514 -0.2040  0.2688  0.1644
 8472SOL    HW137049   0.487   2.877   8.516  1.0917 -3.1438  0.7063
 8472SOL    HW237050   0.569   3.005   8.526 -1.1686  0.3655 -1.2629
 8473SOL     OW37051   2.731   1.824  10.125 -0.4347 -0.1987  0.0395
 8473SOL    HW137052   2.744   1.914  10.093 -3.9421  0.3103  0.0270
 8473SOL    HW237053   2.637   1.819  10.106 -0.9409  1.4535  2.1518
 8474SOL     OW37054   4.134   1.834   7.210 -0.3156  0.5221 -0.0250
 8474SOL    HW137055   4.078   1.763   7.180  2.0704 -0.9377 -1.0474
 8474SOL    HW237056   4.073   1.903   7.187  0.3187  1.4099  0.9398
 8475SOL     OW37057   3.806   0.509   0.683 -0.0456  0.3140 -0.3219
 8475SOL    HW137058   3.803   0.491   0.777  0.7735 -0.2309 -0.4048
 8475SOL    HW237059   3.762   0.426   0.664 -1.4366  0.8712  0.4494
 8476SOL     OW37060   3.248   1.225   0.919 -0.4234  0.2717 -0.8886
 8476SOL    HW137061   3.153   1.226   0.931 -0.6916  3.1809 -3.1518
 8476SOL    HW237062   3.269   1.287   0.989 -1.9144  1.1787 -1.2470
 8477SOL     OW37063   1.305   1.816   4.794  0.5586 -0.6364 -0.1919
 8477SOL    HW137064   1.328   1.817   4.887 -0.5048  1.4316  0.0428
 8477SOL    HW237065   1.359   1.748   4.753  0.4346 -0.2160 -1.0594
 8478SOL     OW37066   2.246   1.126   3.663  0.1544  0.2454 -0.0112
 8478SOL    HW137067   2.319   1.072   3.632  0.4938  0.7327 -0.0528
 8478SOL    HW237068   2.219   1.158   3.577  3.1846  1.7270 -0.3664
 8479SOL     OW37069   0.259   4.105  16.720  0.6897 -0.2783  0.1893
 8479SOL    HW137070   0.224   4.140  16.802 -0.6918 -4.5710  1.4223
 8479SOL    HW237071   0.350   4.133  16.727  0.4376  0.7037 -0.3934
 8480SOL     OW37072   2.863   1.914  16.043  0.4809  0.1883 -0.2477
 8480SOL    HW137073   2.945   1.907  16.092  0.5260 -0.1296 -0.3680
 8480SOL    HW237074   2.808   1.854  16.094 -1.6637  2.5991  0.2768
 8481SOL     OW37075   3.127   2.148   7.729  0.3197  0.4977 -0.2971
 8481SOL    HW137076   3.044   2.184   7.759 -0.5403 -1.3343 -0.4895
 8481SOL    HW237077   3.123   2.159   7.634 -0.9086 -0.3377 -0.3415
 8482SOL     OW37078   3.376   0.860   2.293  0.0518 -0.0694 -0.1035
 8482SOL    HW137079   3.292   0.906   2.289  0.6410  0.9688 -0.6079
 8482SOL    HW237080   3.421   0.935   2.332  1.2122 -0.5034 -0.6216
 8483SOL     OW37081   1.583   1.622   2.896 -0.4209 -0.2964 -0.0980
 8483SOL    HW137082   1.498   1.584   2.915 -0.9978 -0.1907 -2.3860
 8483SOL    HW237083   1.578   1.649   2.804 -1.4863  0.7864  0.2730
 8484SOL     OW37084   0.847   4.398   4.077 -0.6001 -0.2095 -0.4670
 8484SOL    HW137085   0.891   4.349   4.147  2.4573  1.3565 -1.2995
 8484SOL    HW237086   0.756   4.369   4.080 -0.5124 -0.2247  2.3287
 8485SOL     OW37087   3.066   3.161   8.387  0.4585  0.2529 -0.1424
 8485SOL    HW137088   3.091   3.134   8.299  3.2711  0.1263  0.6928
 8485SOL    HW237089   3.103   3.249   8.390  1.1049  0.0194 -1.4897
 8486SOL     OW37090   3.369   4.483   6.001  0.2962 -0.2061 -0.7078
 8486SOL    HW137091   3.372   4.542   6.076 -0.8862 -1.4991  0.3512
 8486SOL    HW237092   3.463   4.463   5.999  0.0642 -1.5140  1.6714
 8487SOL     OW37093   1.789   1.020   9.941 -0.4700 -0.2885 -0.4356
 8487SOL    HW137094   1.844   0.947   9.913 -0.5374 -1.4199  2.4347
 8487SOL    HW237095   1.795   1.018  10.036 -1.5238  0.9248 -0.3532
 8488SOL     OW37096   2.211   1.172  12.204 -0.2911 -0.1421  0.3513
 8488SOL    HW137097   2.141   1.151  12.142 -1.6189 -0.6280  2.0129
 8488SOL    HW237098   2.179   1.121  12.278 -1.5408  0.9669  0.5898
 8489SOL     OW37099   4.274   0.668   2.952 -0.4102 -0.2778 -0.4168
 8489SOL    HW137100   4.201   0.654   2.892 -1.6370  1.0536  0.7578
 8489SOL    HW237101   4.340   0.718   2.904 -1.2791  1.6229  0.3992
 8490SOL     OW37102   2.676   0.061   4.274 -0.3284  0.4410 -0.2354
 8490SOL    HW137103   2.647   4.722   4.221  0.6217 -0.8743  1.0862
 8490SOL    HW237104   2.729   0.009   4.335 -1.5898 -0.9315 -0.3130
 8491SOL     OW37105   1.350   3.726  14.815 -0.0426 -0.6815 -0.0054
 8491SOL    HW137106   1.316   3.793  14.875  0.5154  0.3999 -0.9030
 8491SOL    HW237107   1.402   3.665  14.867  0.6733 -1.4521 -1.6387
 8492SOL     OW37108   0.861   2.011   3.859  0.2105 -0.0638  1.0998
 8492SOL    HW137109   0.950   1.991   3.885  0.1796 -1.7105 -0.0707
 8492SOL    HW237110   0.827   1.941   3.804  0.7389  0.8506 -0.3743
 8493SOL     OW37111   4.506   0.193   5.899 -1.1279 -0.5311  0.0246
 8493SOL    HW137112   4.462   0.221   5.980  1.2921  2.0516  0.4332
 8493SOL    HW237113   4.537   0.104   5.914  0.4240  0.6069  3.4656
 8494SOL     OW37114   4.443   1.977  17.536  0.0278  0.4101 -0.4764
 8494SOL    HW137115   4.533   1.947  17.530 -0.2474 -0.7025  1.0824
 8494SOL    HW237116   4.432   1.971  17.631 -0.0367  0.1728 -0.4992
 8495SOL     OW37117   0.341   2.340   7.011  0.2033 -0.5133 -0.2958
 8495SOL    HW137118   0.349   2.328   6.916 -0.0781 -0.8124 -0.2814
 8495SOL    HW237119   0.248   2.319   7.020  0.3217 -1.7898 -1.9777
 8496SOL     OW37120   0.540   0.709   0.737 -0.0837  0.1536 -0.0483
 8496SOL    HW137121   0.454   0.750   0.746 -1.4390 -2.1377 -2.5401
 8496SOL    HW237122   0.519   0.617   0.722  1.5823 -0.3414  0.7351
 8497SOL     OW37123   3.283   0.437   4.933 -0.3879  0.2328 -0.1579
 8497SOL    HW137124   3.337   0.509   4.964  2.4541 -1.0048 -2.2478
 8497SOL    HW237125   3.223   0.488   4.878  2.0966  0.6767 -2.4600
 8498SOL     OW37126   4.599   2.908  11.471  1.2482  0.1534 -0.4729
 8498SOL    HW137127   4.555   2.953  11.398  0.0695  0.0026  0.1426
 8498SOL    HW237128   4.574   2.819  11.446 -1.9635  0.7945  0.4793
 8499SOL     OW37129   1.169   4.660   6.703 -0.4604 -0.1622 -0.0877
 8499SOL    HW137130   1.147   0.018   6.714  0.1139 -0.0003 -0.3505
 8499SOL    HW237131   1.083   4.635   6.669 -0.5025  1.3414 -1.0810
 8500SOL     OW37132   0.014   2.043   4.789 -0.1009  0.7515 -0.1476
 8500SOL    HW137133   0.083   2.067   4.851 -0.3649 -2.1105  1.2656
 8500SOL    HW237134   0.061   1.989   4.725  0.0840 -1.7743  2.1191
 8501SOL     OW37135   2.164   3.681  17.024 -0.2025  0.2236 -0.7140
 8501SOL    HW137136   2.190   3.762  17.068  2.4221 -0.0203 -1.8215
 8501SOL    HW237137   2.256   3.656  17.015 -1.0646 -3.1729 -0.4761
 8502SOL     OW37138   2.877   4.325   5.161 -0.8334 -0.0327  0.4243
 8502SOL    HW137139   2.885   4.259   5.092 -1.5023  0.2052  0.1250
 8502SOL    HW237140   2.790   4.355   5.138 -0.6153 -0.5463 -1.0234
 8503SOL     OW37141   3.949   1.346   8.573  0.8168  0.9642 -0.1615
 8503SOL    HW137142   3.948   1.257   8.539  0.8464  0.3813  1.3789
 8503SOL    HW237143   3.916   1.397   8.499 -1.0323 -1.0630 -0.7359
 8504SOL     OW37144   2.591   2.543   7.882 -0.2384  1.3469  0.0696
 8504SOL    HW137145   2.507   2.570   7.844  1.0489  0.9325 -3.1083
 8504SOL    HW237146   2.611   2.626   7.924 -1.4264 -0.4713  4.2297
 8505SOL     OW37147   4.305   3.485  14.821  0.3823 -0.3017 -0.1638
 8505SOL    HW137148   4.291   3.472  14.915  0.0414 -1.7046 -0.4083
 8505SOL    HW237149   4.341   3.573  14.813  0.9219 -0.4749  0.3712
 8506SOL     OW37150   4.353   0.778   6.749  0.2883  0.0874  0.4203
 8506SOL    HW137151   4.268   0.820   6.739  0.7968  0.7191 -1.1853
 8506SOL    HW237152   4.407   0.814   6.678 -0.3885  1.4105  0.5803
 8507SOL     OW37153   2.007   1.330   0.652  0.0969 -0.2154 -0.0820
 8507SOL    HW137154   1.982   1.293   0.567  0.1397  0.9758 -0.6231
 8507SOL    HW237155   2.086   1.276   0.653  1.7003  2.1177 -0.5248
 8508SOL     OW37156   2.891   3.088   3.123  0.2780  0.2802  0.2734
 8508SOL    HW137157   2.915   3.062   3.212 -0.6113  1.5838  0.9032
 8508SOL    HW237158   2.818   3.031   3.102  0.7753 -1.0977  2.2304
 8509SOL     OW37159   2.722   2.032   1.485 -0.7898 -0.3042  0.0094
 8509SOL    HW137160   2.772   1.996   1.412 -2.2270 -2.1932 -0.0475
 8509SOL    HW237161   2.731   1.967   1.555  0.4013 -1.1200 -0.9040
 8510SOL     OW37162   0.967   1.240  10.545 -0.2132 -0.0925 -0.1365
 8510SOL    HW137163   1.049   1.288  10.537 -0.3989  0.1309 -0.7131
 8510SOL    HW237164   0.979   1.205  10.634  0.7613  0.4697 -0.0548
 8511SOL     OW37165   3.154   4.357   7.785 -0.0705 -0.4636  0.5824
 8511SOL    HW137166   3.103   4.325   7.711 -2.0650 -1.5381  2.4279
 8511SOL    HW237167   3.217   4.413   7.739 -0.2999 -0.2723  0.5010
 8512SOL     OW37168   2.794   0.659   4.409  0.1146 -0.3708  0.0011
 8512SOL    HW137169   2.775   0.693   4.322 -0.1669  0.5578  0.4310
 8512SOL    HW237170   2.762   0.569   4.398 -0.9159 -0.0864  0.6660
 8513SOL     OW37171   0.857   0.711  16.105  1.1802  0.1194 -0.1695
 8513SOL    HW137172   0.871   0.630  16.154 -0.9397 -0.6911 -0.8978
 8513SOL    HW237173   0.774   0.703  16.058  2.7840  1.6721 -3.2456
 8514SOL     OW37174   4.126   3.246   8.283 -0.3466  0.0022  0.8999
 8514SOL    HW137175   4.177   3.309   8.232 -2.0234  0.9713  0.4294
 8514SOL    HW237176   4.117   3.295   8.365 -2.5035  0.6791  0.2623
 8515SOL     OW37177   4.130   4.707  11.027 -0.5450 -0.2751 -0.2503
 8515SOL    HW137178   4.035   4.721  11.023 -0.3689  1.3413  1.4959
 8515SOL    HW237179   4.158   0.060  11.006  0.6230  0.0125  2.5797
 8516SOL     OW37180   4.185   1.126   0.168  0.2330  0.6658  0.2889
 8516SOL    HW137181   4.189   1.096   0.258  2.0671 -0.5422 -0.2017
 8516SOL    HW237182   4.228   1.210   0.187  1.3200 -0.2226  1.6801
 8517SOL     OW37183   2.982   1.700   3.224  0.1684  0.3068 -0.2383
 8517SOL    HW137184   2.986   1.645   3.302 -0.3961  1.2093  0.4146
 8517SOL    HW237185   3.057   1.666   3.175  0.6590  2.1763 -0.7903
 8518SOL     OW37186   4.473   3.511   4.123 -0.0214  0.3952 -0.3265
 8518SOL    HW137187   4.405   3.555   4.173  0.7216  1.7680 -0.5070
 8518SOL    HW237188   4.526   3.471   4.192  0.7116 -1.5980 -2.0338
 8519SOL     OW37189   4.423   3.570   7.506  0.1761 -0.1862  0.3053
 8519SOL    HW137190   4.413   3.652   7.554  0.4165 -0.6160  1.0834
 8519SOL    HW237191   4.340   3.567   7.457 -0.0505  0.1787  0.6627
 8520SOL     OW37192   1.111   0.197   1.257 -0.4565 -0.3348  0.2573
 8520SOL    HW137193   1.114   0.101   1.261  1.4743 -0.3042 -0.2295
 8520SOL    HW237194   1.020   0.218   1.276 -0.5076 -0.7591  0.4815
 8521SOL     OW37195   2.866   3.626  12.356  0.7453  0.5258  0.0814
 8521SOL    HW137196   2.816   3.674  12.423  0.8478  1.4683 -0.5082
 8521SOL    HW237197   2.905   3.553  12.403 -0.2535  0.3406  0.6346
 8522SOL     OW37198   0.970   1.027   3.926  0.1153 -0.7345 -0.2066
 8522SOL    HW137199   1.004   1.073   3.849 -1.8249  1.9469  0.5580
 8522SOL    HW237200   1.046   1.047   3.980  1.4413 -2.4697 -1.4196
 8523SOL     OW37201   2.261   3.847  13.238  0.8722  0.0089  0.5791
 8523SOL    HW137202   2.319   3.841  13.313  0.3448 -1.0198  0.8981
 8523SOL    HW237203   2.218   3.762  13.235 -0.1318  0.6184 -2.8202
 8524SOL     OW37204   3.324   2.855   8.014  0.4269  0.0312 -0.6637
 8524SOL    HW137205   3.325   2.876   8.107  1.1396  0.2921 -0.7329
 8524SOL    HW237206   3.277   2.771   8.013  1.9391 -0.8162  1.2081
 8525SOL     OW37207   4.166   2.298   9.415  0.1843 -0.0142  0.5040
 8525SOL    HW137208   4.197   2.372   9.467 -0.0088  1.4037 -1.3716
 8525SOL    HW237209   4.192   2.331   9.329  3.2257 -2.6552  0.4172
 8526SOL     OW37210   0.037   3.735   7.527 -0.4079 -0.2787  0.4093
 8526SOL    HW137211   0.125   3.764   7.551 -0.4026 -0.7292  0.9287
 8526SOL    HW237212   0.033   3.774   7.440  0.0912 -3.0146 -0.8478
 8527SOL     OW37213   1.949   2.119  12.845  0.2712  0.0050 -0.2860
 8527SOL    HW137214   1.984   2.180  12.780  0.0356  2.0637  1.4933
 8527SOL    HW237215   1.956   2.036  12.798  2.6138 -1.5645  2.8519
 8528SOL     OW37216   3.697   0.343   3.211  0.0154 -0.3761 -0.5923
 8528SOL    HW137217   3.739   0.273   3.161  0.8960 -0.8266  0.7924
 8528SOL    HW237218   3.729   0.321   3.298 -0.2511  1.3068 -0.0597
 8529SOL     OW37219   0.864   3.438  12.218  0.2797 -0.3446 -0.5761
 8529SOL    HW137220   0.957   3.449  12.235 -0.1604  3.0981 -0.4500
 8529SOL    HW237221   0.820   3.436  12.303 -0.5944 -0.3674 -1.0252
 8530SOL     OW37222   0.721   2.475   3.940  0.2404  0.3479 -0.4631
 8530SOL    HW137223   0.722   2.499   3.848 -0.8398 -0.6028 -0.7185
 8530SOL    HW237224   0.656   2.532   3.980  0.9995  1.3690 -0.6820
 8531SOL     OW37225   1.061   0.594  15.025 -0.3965  0.3177 -0.2633
 8531SOL    HW137226   1.081   0.669  15.081  2.3054 -0.0952 -0.6806
 8531SOL    HW237227   1.094   0.611  14.937 -0.9421  3.2444  0.1041
 8532SOL     OW37228   0.858   4.628  11.801  0.3627  0.7480 -0.1714
 8532SOL    HW137229   0.833   4.640  11.710 -2.6058  1.2013  0.7048
 8532SOL    HW237230   0.796   4.681  11.851 -1.0951 -0.8040 -0.3132
 8533SOL     OW37231   4.692   1.312  11.529 -0.3827 -0.3294 -0.7131
 8533SOL    HW137232   0.021   1.382  11.537  0.6942 -1.3945 -0.0521
 8533SOL    HW237233   4.614   1.345  11.572  1.8796  0.3418  2.8658
 8534SOL     OW37234   1.699   1.907   5.988  0.0715  0.0208  0.2931
 8534SOL    HW137235   1.661   1.943   6.067 -0.5991 -0.6203  0.2564
 8534SOL    HW237236   1.707   1.816   6.016 -0.4790  0.2350  1.1415
 8535SOL     OW37237   1.175   3.029  17.065 -0.0203  0.6133  0.0374
 8535SOL    HW137238   1.248   3.036  17.004  0.5535 -1.3227  0.4968
 8535SOL    HW237239   1.210   2.972  17.133 -0.9590 -1.1538 -0.9661
 8536SOL     OW37240   1.121   1.289   5.439  0.6898  0.0632  0.8100
 8536SOL    HW137241   1.184   1.229   5.400  0.0601  1.0863 -1.7633
 8536SOL    HW237242   1.041   1.245   5.410  0.0793  1.7023 -0.0222
 8537SOL     OW37243   1.459   1.134  13.998  0.4088 -0.1447 -0.3172
 8537SOL    HW137244   1.470   1.208  13.939 -2.6390  0.6817  0.1851
 8537SOL    HW237245   1.366   1.136  14.016  0.1147 -1.0246 -1.6857
 8538SOL     OW37246   3.281   1.112  15.349  0.6125 -0.4836  0.3554
 8538SOL    HW137247   3.188   1.094  15.336  1.1064 -0.9560 -2.3768
 8538SOL    HW237248   3.265   1.185  15.409 -0.1930  0.8001 -1.4411
 8539SOL     OW37249   0.677   2.108   5.236  0.4924 -0.2783  0.4234
 8539SOL    HW137250   0.582   2.113   5.223  0.2973 -0.0494  1.9409
 8539SOL    HW237251   0.700   2.169   5.166  2.2060  0.3526  1.5535
 8540SOL     OW37252   3.158   0.524   7.297 -0.4421  1.0749  0.1567
 8540SOL    HW137253   3.134   0.615   7.280 -0.5513  1.2493  1.2378
 8540SOL    HW237254   3.177   0.536   7.390  0.4737 -2.0273  0.3538
 8541SOL     OW37255   1.095   0.637   5.853  0.4601 -0.2420 -1.0675
 8541SOL    HW137256   1.011   0.678   5.830  0.9358  1.6692  0.6792
 8541SOL    HW237257   1.068   0.577   5.922 -2.7890  0.1555 -1.9896
 8542SOL     OW37258   2.448   2.886  16.550  0.5161 -0.0898  0.0161
 8542SOL    HW137259   2.369   2.940  16.549  0.5344 -0.0805 -0.8458
 8542SOL    HW237260   2.498   2.929  16.480  0.6064  2.4119  1.6203
 8543SOL     OW37261   2.057   2.861  12.432  0.5481  0.0263 -0.0434
 8543SOL    HW137262   2.058   2.948  12.392 -0.0253 -0.0826 -0.2952
 8543SOL    HW237263   2.148   2.837  12.413  0.4176 -0.6727  0.2123
 8544SOL     OW37264   3.478   1.095   7.072 -0.4683  0.2198  0.4564
 8544SOL    HW137265   3.534   1.159   7.027 -0.3944 -0.0458  0.1731
 8544SOL    HW237266   3.500   1.114   7.163 -0.7582  0.7552  0.4148
 8545SOL     OW37267   4.290   1.495   8.919  0.0023  0.3283  1.1359
 8545SOL    HW137268   4.246   1.447   8.849  2.2753 -0.0034 -0.0537
 8545SOL    HW237269   4.214   1.532   8.965  0.1032 -0.0456  1.6070
 8546SOL     OW37270   4.259   0.217   9.886 -0.1934  0.2960  0.2663
 8546SOL    HW137271   4.207   0.215   9.967 -0.9916 -0.8745 -0.2649
 8546SOL    HW237272   4.239   0.306   9.859 -3.3108 -0.6139 -0.3957
 8547SOL     OW37273   2.704   1.888   7.251  0.8995  0.0834  0.3171
 8547SOL    HW137274   2.767   1.865   7.319 -1.1065 -3.5319  0.9700
 8547SOL    HW237275   2.698   1.803   7.207  2.9021  0.1339 -0.0433
 8548SOL     OW37276   3.951   3.420   6.518  0.2723  0.0135 -0.2550
 8548SOL    HW137277   3.896   3.345   6.539  0.1749 -0.7187 -3.0764
 8548SOL    HW237278   3.992   3.390   6.437 -1.7038 -1.2657 -0.7720
 8549SOL     OW37279   1.704   4.148   3.140  0.1260 -0.3054  0.2704
 8549SOL    HW137280   1.643   4.221   3.132 -2.2964 -2.4285 -0.5902
 8549SOL    HW237281   1.734   4.147   3.049  2.4837 -0.1723  1.0550
 8550SOL     OW37282   2.545   1.126  16.198 -0.0422 -0.1451 -0.0248
 8550SOL    HW137283   2.464   1.099  16.156  0.1173 -1.4728  0.5222
 8550SOL    HW237284   2.593   1.173  16.130  3.2745 -1.7251  1.2246
 8551SOL     OW37285   2.784   3.837  13.959  0.4771 -0.0923 -0.4991
 8551SOL    HW137286   2.861   3.831  14.015  0.7045  2.8797 -0.5170
 8551SOL    HW237287   2.730   3.774  14.008 -0.7022 -0.3196 -2.1073
 8552SOL     OW37288   0.821   2.695   3.593 -0.4282  0.0720  0.0749
 8552SOL    HW137289   0.810   2.613   3.545 -0.2580 -0.2565  0.5928
 8552SOL    HW237290   0.803   2.754   3.520  2.0928  1.7586  0.8167
 8553SOL     OW37291   0.831   3.231   5.282 -0.2007 -0.2371 -0.9496
 8553SOL    HW137292   0.886   3.193   5.214  0.0331 -0.4546 -0.6447
 8553SOL    HW237293   0.760   3.166   5.287  0.5794 -1.0913 -0.9189
 8554SOL     OW37294   4.172   4.674  11.303  0.3782 -0.6015  0.1197
 8554SOL    HW137295   4.085   4.678  11.342  0.8520 -0.3794  1.1750
 8554SOL    HW237296   4.155   4.696  11.212 -0.7465  1.8046  0.8911
 8555SOL     OW37297   0.269   0.446  14.058 -0.5242  0.1179  0.7224
 8555SOL    HW137298   0.217   0.507  14.006 -1.8348 -0.4118  1.4005
 8555SOL    HW237299   0.290   0.384  13.988 -1.7603 -1.7546  1.9919
 8556SOL     OW37300   1.070   3.343   3.061  0.2898  0.1360 -0.2106
 8556SOL    HW137301   1.020   3.424   3.050 -0.7353 -0.8227 -2.6716
 8556SOL    HW237302   1.151   3.360   3.013  1.4785  0.6923  2.0287
 8557SOL     OW37303   2.815   3.420   3.235  0.1645 -0.2556  0.5781
 8557SOL    HW137304   2.870   3.361   3.287 -0.3205  0.5238  1.9867
 8557SOL    HW237305   2.774   3.476   3.302  3.4251  3.0974 -0.2522
 8558SOL     OW37306   1.610   0.014   3.447 -0.1241 -0.8414 -0.4797
 8558SOL    HW137307   1.538   0.062   3.489  0.1459 -1.8692  1.1158
 8558SOL    HW237308   1.686   0.066   3.471  0.1357 -0.6128 -1.7551
 8559SOL     OW37309   3.187   1.907   3.040  0.4704  0.2363  0.2743
 8559SOL    HW137310   3.277   1.931   3.019  0.8927 -2.2693 -0.7479
 8559SOL    HW237311   3.198   1.830   3.096 -0.6064  0.4920  0.8451
 8560SOL     OW37312   2.945   1.240  12.322 -0.6134 -0.6085 -0.5505
 8560SOL    HW137313   2.961   1.238  12.417  0.0728 -0.3268 -0.6617
 8560SOL    HW237314   2.867   1.296  12.317  1.8119  2.7784 -0.1916
 8561SOL     OW37315   1.332   1.913   2.429 -0.2127 -0.4197 -0.1312
 8561SOL    HW137316   1.251   1.901   2.478 -0.0939  0.2225  0.2219
 8561SOL    HW237317   1.379   1.834   2.456  3.0112  1.5771  0.0142
 8562SOL     OW37318   2.899   3.213  13.226  0.4432 -0.2451 -0.9757
 8562SOL    HW137319   2.977   3.162  13.206  1.0554 -0.2060  1.3405
 8562SOL    HW237320   2.890   3.266  13.147 -1.9594  1.4945  0.4621
 8563SOL     OW37321   0.124   0.663   7.238  0.1536 -0.0365  0.2663
 8563SOL    HW137322   0.056   0.693   7.177  0.0321  0.8749  0.8569
 8563SOL    HW237323   0.118   0.567   7.232 -0.4104 -0.0263  0.7050
 8564SOL     OW37324   0.961   3.591   6.781  0.2688 -0.0873 -0.2091
 8564SOL    HW137325   0.894   3.655   6.757 -1.6211 -1.7332  0.7449
 8564SOL    HW237326   1.036   3.630   6.736  0.6504  1.8801  2.1850
 8565SOL     OW37327   0.763   0.873   6.320  0.5249 -0.7492 -0.0169
 8565SOL    HW137328   0.717   0.847   6.400  0.3170  2.2571  0.8253
 8565SOL    HW237329   0.693   0.901   6.262 -1.0251  2.5942  3.4791
 8566SOL     OW37330   0.136   1.534   4.950  0.3719  0.2865 -0.3815
 8566SOL    HW137331   0.085   1.507   5.026  2.0092 -2.8787 -0.4326
 8566SOL    HW237332   0.060   1.577   4.909 -0.6609 -1.1450  0.0043
 8567SOL     OW37333   2.893   1.288  13.292 -0.2073 -0.4020  0.3052
 8567SOL    HW137334   2.983   1.262  13.311 -0.3146  0.1358  1.5529
 8567SOL    HW237335   2.898   1.383  13.301 -2.4285 -0.3719  1.3392
 8568SOL     OW37336   1.013   4.441  14.759  0.2485  0.1925 -0.0833
 8568SOL    HW137337   1.053   4.377  14.817 -0.6683 -0.3830 -0.1053
 8568SOL    HW237338   1.075   4.450  14.686 -0.2457 -0.7207 -0.6129
 8569SOL     OW37339   0.263   3.550   8.545  0.2170  0.6196 -0.1510
 8569SOL    HW137340   0.343   3.498   8.558  0.6086  1.5181  1.0514
 8569SOL    HW237341   0.243   3.533   8.453 -2.1503  0.0241  0.4701
 8570SOL     OW37342   3.857   2.617   5.737  0.3692  0.0164 -0.3056
 8570SOL    HW137343   3.840   2.570   5.818 -2.1487 -0.4428 -1.0810
 8570SOL    HW237344   3.832   2.555   5.669  0.0032 -0.1844  0.0147
 8571SOL     OW37345   1.283   3.680   5.981  0.0200  0.0423 -0.3593
 8571SOL    HW137346   1.200   3.675   5.933 -0.4152  0.5498  0.3607
 8571SOL    HW237347   1.280   3.591   6.018 -0.0598 -0.5174 -1.6890
 8572SOL     OW37348   2.458   1.246   8.974  0.2223  0.5419  0.0354
 8572SOL    HW137349   2.402   1.317   8.942  2.0341  0.7788 -2.5853
 8572SOL    HW237350   2.525   1.293   9.023  1.8191 -1.2675 -0.4440
 8573SOL     OW37351   4.182   1.874   8.116 -0.8853  0.2061  0.4656
 8573SOL    HW137352   4.149   1.925   8.042 -2.0688 -1.6210 -0.2716
 8573SOL    HW237353   4.101   1.831   8.143  0.7761 -2.5702  1.0410
 8574SOL     OW37354   1.227   4.398   9.881 -0.4024  0.0546  0.0252
 8574SOL    HW137355   1.186   4.336   9.942  0.5526 -0.2797  0.3361
 8574SOL    HW237356   1.291   4.443   9.936  1.3347 -2.4379  0.0600
 8575SOL     OW37357   3.644   3.918  10.205  0.2424 -0.5394  0.0994
 8575SOL    HW137358   3.685   3.945  10.123  0.4418 -1.1119  0.0141
 8575SOL    HW237359   3.550   3.916  10.189  0.1729 -0.0462  0.4421
 8576SOL     OW37360   3.013   1.942   6.675 -0.3741  0.7620 -0.3110
 8576SOL    HW137361   2.948   2.010   6.691  0.1983  0.9229  1.3061
 8576SOL    HW237362   2.972   1.897   6.601  0.6063 -2.4422  1.1189
 8577SOL     OW37363   0.264   4.160   8.097  0.3303  0.6231  0.0316
 8577SOL    HW137364   0.199   4.159   8.167  0.7333 -2.3712  0.3695
 8577SOL    HW237365   0.309   4.077   8.113  0.0894  0.3179 -0.8624
 8578SOL     OW37366   4.231   4.323   5.565  0.3232  0.2971  1.0509
 8578SOL    HW137367   4.246   4.255   5.631 -1.4819  1.1473  2.3381
 8578SOL    HW237368   4.222   4.264   5.490  2.3936  0.7666  0.4509
 8579SOL     OW37369   0.426   3.682   8.243  0.0209 -0.3872 -0.4456
 8579SOL    HW137370   0.386   3.595   8.235  0.8418 -0.6118 -2.0075
 8579SOL    HW237371   0.476   3.677   8.324  1.1498 -1.6976 -1.2130
 8580SOL     OW37372   3.493   3.236   9.216  0.1709  0.1214 -0.0224
 8580SOL    HW137373   3.480   3.309   9.276  0.2304  1.0619 -1.1420
 8580SOL    HW237374   3.419   3.178   9.236  1.6704 -1.4594  0.9717
 8581SOL     OW37375   4.019   0.592   1.411 -0.4159 -0.4547 -0.0542
 8581SOL    HW137376   4.054   0.588   1.500 -1.5054  0.2140  0.4066
 8581SOL    HW237377   4.039   0.684   1.394 -1.5928 -0.3165 -0.6560
 8582SOL     OW37378   4.235   3.497   9.401 -0.1721 -0.2222  0.1235
 8582SOL    HW137379   4.243   3.577   9.454 -1.1150 -2.1626  3.1881
 8582SOL    HW237380   4.314   3.453   9.430 -1.2749 -1.4306  1.2969
 8583SOL     OW37381   1.318   4.561  10.092 -0.1521  0.2355  0.2028
 8583SOL    HW137382   1.264   4.514  10.156 -1.4948 -1.6650 -2.2877
 8583SOL    HW237383   1.410   4.549  10.118 -1.0472 -3.0219  1.9133
 8584SOL     OW37384   2.418   2.724   5.859  0.9095 -0.1644 -0.5952
 8584SOL    HW137385   2.334   2.691   5.890 -0.6468  1.3084 -3.2166
 8584SOL    HW237386   2.459   2.744   5.943 -1.0075  1.9409 -0.1661
 8585SOL     OW37387   0.051   0.675   4.712  0.0768 -0.1062 -0.2387
 8585SOL    HW137388   0.139   0.694   4.677  0.6122 -0.0220  1.1783
 8585SOL    HW237389   0.023   0.743   4.773 -1.3169 -0.8813 -0.0229
 8586SOL     OW37390   2.692   3.437   1.883 -0.2809 -0.2644  0.4987
 8586SOL    HW137391   2.655   3.467   1.966 -0.0547  0.9412  0.1625
 8586SOL    HW237392   2.754   3.377   1.923  3.2292  2.4585 -0.8918
 8587SOL     OW37393   0.937   4.707   4.545 -0.2352 -0.1421 -0.1376
 8587SOL    HW137394   0.846   4.729   4.567 -0.3520 -1.5988  0.8769
 8587SOL    HW237395   0.920   4.655   4.466  1.9102 -2.2893  0.8251
 8588SOL     OW37396   4.124   1.179   5.240  0.1770 -0.3054  0.2142
 8588SOL    HW137397   4.174   1.215   5.314  0.1367  1.3264 -0.5465
 8588SOL    HW237398   4.144   1.240   5.168 -1.5138 -0.1930 -0.1659
 8589SOL     OW37399   0.333   4.284   0.498  0.2117 -0.3248  0.2467
 8589SOL    HW137400   0.380   4.232   0.432  1.0092 -0.0678  0.6047
 8589SOL    HW237401   0.249   4.239   0.495 -0.5312  1.0926  0.4221
 8590SOL     OW37402   4.548   0.497  12.115 -0.1813  0.5938  0.0599
 8590SOL    HW137403   4.630   0.545  12.126  0.5378  0.0358 -2.8258
 8590SOL    HW237404   4.480   0.557  12.144 -0.6876 -0.1799  0.4840
 8591SOL     OW37405   0.354   1.022   0.910 -0.4078 -0.4299  0.3647
 8591SOL    HW137406   0.350   0.965   0.833 -0.5148  0.1565 -0.0661
 8591SOL    HW237407   0.444   1.019   0.942 -0.1193  3.2865 -0.0153
 8592SOL     OW37408   3.203   3.428   6.721  0.2905 -0.4528 -0.0436
 8592SOL    HW137409   3.282   3.383   6.749  0.3102 -0.5464 -0.2442
 8592SOL    HW237410   3.198   3.494   6.790 -0.9993 -2.6067  1.9101
 8593SOL     OW37411   4.131   0.884   9.470 -0.3721 -0.5582  0.4937
 8593SOL    HW137412   4.110   0.956   9.530 -1.5990 -1.1985  0.8466
 8593SOL    HW237413   4.180   0.826   9.528 -2.8830 -1.8587  1.3063
 8594SOL     OW37414   2.301   3.969   8.357  0.0714  0.0006  0.0339
 8594SOL    HW137415   2.228   3.908   8.349 -1.9749  2.3570  0.7143
 8594SOL    HW237416   2.330   3.949   8.268 -0.6238 -2.6356  0.3942
 8595SOL     OW37417   3.149   3.237   1.427  0.5184  0.0941  0.1136
 8595SOL    HW137418   3.068   3.286   1.440  0.2150 -0.1589 -0.7700
 8595SOL    HW237419   3.212   3.305   1.449 -0.2542  1.0208 -0.5076
 8596SOL     OW37420   1.403   1.149   8.797 -0.1960 -0.0184 -0.1285
 8596SOL    HW137421   1.393   1.202   8.876 -0.2491  0.4608 -0.4544
 8596SOL    HW237422   1.412   1.064   8.840 -0.9106 -0.2615 -0.4723
 8597SOL     OW37423   4.613   3.026  10.858  0.7224  0.0852 -0.1788
 8597SOL    HW137424   4.664   3.103  10.831  0.8247 -0.6122 -1.9615
 8597SOL    HW237425   4.548   3.073  10.910 -0.3108 -0.1984 -1.2205
 8598SOL     OW37426   2.440   4.113   0.261  0.5707  0.4576  0.4834
 8598SOL    HW137427   2.524   4.140   0.299 -0.1264  0.3484  2.0949
 8598SOL    HW237428   2.426   4.177   0.191  0.5277  0.5167  0.5467
 8599SOL     OW37429   1.406   4.684   4.621  0.1525  0.1776  0.5720
 8599SOL    HW137430   1.354   0.020   4.583  1.2084 -0.1309 -1.4578
 8599SOL    HW237431   1.473   4.684   4.552  0.0196  1.3681  0.4391
 8600SOL     OW37432   3.345   0.571   2.316  0.0904  0.5133 -0.1913
 8600SOL    HW137433   3.395   0.652   2.321 -0.8151  1.1332 -1.0412
 8600SOL    HW237434   3.290   0.592   2.240  0.1338 -0.7480 -0.5669
 8601SOL     OW37435   1.328   1.529   9.999 -0.2117  0.0923 -0.6901
 8601SOL    HW137436   1.410   1.577  10.011  0.1210 -0.9084  1.0372
 8601SOL    HW237437   1.326   1.501   9.907 -1.3988 -3.3225  0.3844
 8602SOL     OW37438   2.334   1.801   9.040  0.0523  0.2315  0.4185
 8602SOL    HW137439   2.384   1.720   9.044  0.2807  0.3360 -0.4807
 8602SOL    HW237440   2.278   1.787   9.117  0.1199 -3.0165 -0.1380
 8603SOL     OW37441   3.091   0.394  17.107  0.2170 -0.4682  0.2000
 8603SOL    HW137442   3.159   0.414  17.171  0.4028 -0.5147  0.0189
 8603SOL    HW237443   3.141   0.327  17.060  3.2977 -0.5366  3.6664
 8604SOL     OW37444   0.527   4.315   3.560 -0.0161 -0.0815  0.3465
 8604SOL    HW137445   0.547   4.404   3.587 -1.4110  0.7861 -1.4572
 8604SOL    HW237446   0.597   4.313   3.495 -0.8543  1.3531 -0.5903
 8605SOL     OW37447   4.450   3.958  17.386 -0.3990 -0.3702  0.0401
 8605SOL    HW137448   4.356   3.971  17.387 -0.1681  1.3990 -1.3651
 8605SOL    HW237449   4.471   3.916  17.470  0.4397 -2.6968 -1.3315
 8606SOL     OW37450   4.438   3.763   4.835  1.1699  0.3371 -0.2706
 8606SOL    HW137451   4.443   3.804   4.749 -0.8914  0.4306 -0.3413
 8606SOL    HW237452   4.379   3.827   4.875 -0.0231 -0.4180 -0.8363
 8607SOL     OW37453   1.050   1.275  13.984  0.2082  0.0235 -0.1243
 8607SOL    HW137454   1.091   1.190  13.969  2.3632  1.0987 -0.2683
 8607SOL    HW237455   1.023   1.267  14.076 -1.0968  1.2378 -0.3965
 8608SOL     OW37456   2.890   0.191   5.215  0.0760  0.3970  0.4888
 8608SOL    HW137457   2.813   0.163   5.166  0.4087 -1.5088  1.0508
 8608SOL    HW237458   2.889   0.287   5.217  1.2437  0.4351 -0.9499
 8609SOL     OW37459   1.108   4.652   9.926 -0.0783  0.1222 -0.4280
 8609SOL    HW137460   1.185   4.614   9.884 -0.0219  0.0036 -0.2173
 8609SOL    HW237461   1.144   4.661  10.014  0.5458  0.7465 -0.7461
 8610SOL     OW37462   3.692   3.726  12.043 -0.2520 -0.1135  0.0396
 8610SOL    HW137463   3.721   3.646  12.087  1.2003  0.6833  0.5386
 8610SOL    HW237464   3.778   3.756  12.014  0.1199 -2.9698 -1.7958
 8611SOL     OW37465   3.839   0.656   5.932 -0.1556 -0.1272  0.4229
 8611SOL    HW137466   3.814   0.747   5.953 -0.6479 -0.4986  1.4632
 8611SOL    HW237467   3.763   0.624   5.884 -1.1075  1.6122  0.7490
 8612SOL     OW37468   0.706   1.596   3.902  0.0566 -0.3513 -0.3872
 8612SOL    HW137469   0.659   1.659   3.957 -0.7316 -0.8726 -0.4567
 8612SOL    HW237470   0.755   1.555   3.973 -0.7954 -1.6469 -0.5339
 8613SOL     OW37471   0.806   0.758   8.063 -0.2866 -0.5558 -0.3876
 8613SOL    HW137472   0.811   0.707   8.144  0.4472 -2.4783 -1.6280
 8613SOL    HW237473   0.861   0.837   8.067 -1.1473  0.2148 -3.4442
 8614SOL     OW37474   2.542   4.127   3.797 -0.0247 -1.0212  0.1643
 8614SOL    HW137475   2.615   4.158   3.743  0.5910 -1.9660  0.4562
 8614SOL    HW237476   2.570   4.037   3.816 -1.1650 -1.6282 -1.0939
 8615SOL     OW37477   1.555   1.453  17.365 -0.3651 -0.3781 -0.5291
 8615SOL    HW137478   1.534   1.536  17.407 -2.5970 -1.1627 -0.0579
 8615SOL    HW237479   1.467   1.422  17.344 -0.3589 -1.5647  1.2152
 8616SOL     OW37480   0.993   2.971  15.636  0.2316  0.5016 -0.2046
 8616SOL    HW137481   0.905   2.937  15.650 -0.6367  1.8111 -2.4455
 8616SOL    HW237482   0.974   3.059  15.603 -1.9513 -0.0054 -0.3032
 8617SOL     OW37483   3.499   4.421   2.920 -0.5995  0.0821 -0.4002
 8617SOL    HW137484   3.582   4.469   2.911 -0.4629 -0.0236  0.2787
 8617SOL    HW237485   3.439   4.478   2.872 -2.3704  0.0982  1.8160
 8618SOL     OW37486   3.341   0.320   3.623  0.5383 -0.2940  0.1547
 8618SOL    HW137487   3.435   0.332   3.623  0.3893  0.8033 -0.5701
 8618SOL    HW237488   3.341   0.268   3.542  2.8001 -0.5727  0.3338
 8619SOL     OW37489   0.291   1.876   7.470  0.4249  0.7750  0.0066
 8619SOL    HW137490   0.362   1.814   7.453  0.3507  0.5764  0.4121
 8619SOL    HW237491   0.245   1.847   7.549  1.4809  0.5126  0.5187
 8620SOL     OW37492   2.526   0.134   8.852 -0.3813  0.4515  0.4977
 8620SOL    HW137493   2.582   0.183   8.791  2.3103 -1.9688  1.0042
 8620SOL    HW237494   2.486   0.205   8.901 -1.8116 -0.5381  0.7573
 8621SOL     OW37495   1.172   1.748   6.878 -0.0037  1.4773 -0.9700
 8621SOL    HW137496   1.158   1.840   6.900  2.5045  1.1249  2.2522
 8621SOL    HW237497   1.268   1.752   6.871 -0.1098  0.1557 -2.9049
 8622SOL     OW37498   1.953   0.566   4.506 -0.1894 -0.5121  0.2716
 8622SOL    HW137499   2.013   0.496   4.533 -0.2876 -0.6795  0.0505
 8622SOL    HW237500   1.945   0.544   4.414 -0.9182 -1.2766  0.5230
 8623SOL     OW37501   4.523   0.640   4.698 -0.4027 -0.3175 -0.1350
 8623SOL    HW137502   4.618   0.637   4.706 -0.1356 -0.5040 -3.2264
 8623SOL    HW237503   4.495   0.559   4.656 -1.4328 -0.2257  0.3581
 8624SOL     OW37504   0.601   0.469   6.228  0.4024 -0.4878  0.1103
 8624SOL    HW137505   0.627   0.509   6.311  1.3515 -0.9263  0.0301
 8624SOL    HW237506   0.543   0.539   6.198 -0.3089 -1.0258  0.2605
 8625SOL     OW37507   3.893   1.676   0.946 -0.1169  0.6110 -0.1904
 8625SOL    HW137508   3.935   1.614   1.005 -0.3171  0.7303  0.0759
 8625SOL    HW237509   3.833   1.714   1.010  0.9052 -0.4632  1.3815
 8626SOL     OW37510   1.067   1.850  12.304  0.3122 -0.1953  0.0087
 8626SOL    HW137511   1.026   1.793  12.240  0.0416  0.5009 -0.4413
 8626SOL    HW237512   1.020   1.829  12.385 -1.1499 -1.7630 -1.2593
 8627SOL     OW37513   1.319   1.425  14.498  0.8510  0.1362  0.6525
 8627SOL    HW137514   1.388   1.377  14.545  0.1397  0.8503  2.3844
 8627SOL    HW237515   1.318   1.510  14.540  0.2668  0.1568  0.5853
 8628SOL     OW37516   1.858   2.400   3.405  0.2883 -0.5986 -0.4841
 8628SOL    HW137517   1.788   2.382   3.468  1.5981 -1.9435  0.5781
 8628SOL    HW237518   1.909   2.319   3.408 -0.6115 -1.1902 -1.3012
 8629SOL     OW37519   1.323   1.776   8.090 -0.4024 -0.5254 -0.1689
 8629SOL    HW137520   1.399   1.743   8.139 -0.1882 -2.0168 -1.4986
 8629SOL    HW237521   1.311   1.866   8.120  1.2450  0.6439 -3.0537
 8630SOL     OW37522   4.344   1.609   6.182 -0.3357 -0.0081  0.1887
 8630SOL    HW137523   4.286   1.534   6.190 -0.5266  0.3878  2.5419
 8630SOL    HW237524   4.294   1.667   6.239  0.0788  2.1812 -1.6332
 8631SOL     OW37525   0.231   2.459   1.445  0.2259  0.1403  0.1492
 8631SOL    HW137526   0.155   2.426   1.494 -0.5635  2.3858  0.4441
 8631SOL    HW237527   0.188   2.496   1.368 -0.0897  0.0578  0.2813
 8632SOL     OW37528   2.362   1.209   0.057 -0.8334  0.2023 -0.2343
 8632SOL    HW137529   2.433   1.264   0.022 -0.2346 -0.4142  0.0135
 8632SOL    HW237530   2.411   1.158   0.121  0.2824  0.8739 -0.5340
 8633SOL     OW37531   4.472   2.532   5.519 -0.1020  0.7823  0.0127
 8633SOL    HW137532   4.389   2.492   5.545  0.4638 -0.1729  0.3375
 8633SOL    HW237533   4.451   2.624   5.533 -2.8440  0.1753 -0.0498
 8634SOL     OW37534   1.489   0.391   1.281 -0.1519 -0.0719  0.3443
 8634SOL    HW137535   1.479   0.375   1.375 -0.9273 -0.1241  0.2542
 8634SOL    HW237536   1.412   0.446   1.267  0.8198  1.1150 -0.2386
 8635SOL     OW37537   3.707   4.203   3.246 -0.4096  0.4060 -0.3981
 8635SOL    HW137538   3.704   4.118   3.289 -1.1025  0.8412  0.3962
 8635SOL    HW237539   3.761   4.179   3.170 -2.3671  0.5754 -1.8492
 8636SOL     OW37540   1.684   2.001   8.982 -0.8764 -0.4090 -0.0887
 8636SOL    HW137541   1.738   2.074   8.950  1.0063 -1.3468  0.9135
 8636SOL    HW237542   1.600   2.036   9.010  0.2449  2.1621  0.0772
 8637SOL     OW37543   4.704   3.149   6.020 -0.7738  0.0267 -0.5946
 8637SOL    HW137544   0.060   3.171   6.038 -1.7936  1.3223  2.9123
 8637SOL    HW237545   4.700   3.056   6.044 -0.0122  0.3054  0.5584
 8638SOL     OW37546   3.724   0.138   1.929 -0.0673 -0.5282  0.5572
 8638SOL    HW137547   3.784   0.098   1.992 -0.7491 -2.3191  0.0684
 8638SOL    HW237548   3.759   0.119   1.842 -1.2546  2.6395 -0.6248
 8639SOL     OW37549   3.882   2.887   8.852  0.5609 -0.0301 -0.2408
 8639SOL    HW137550   3.796   2.897   8.893  0.7420 -2.1093  0.6702
 8639SOL    HW237551   3.863   2.833   8.776  1.6921 -0.2307 -0.3749
 8640SOL     OW37552   4.356   0.595  15.645  0.2063 -0.4172 -0.6690
 8640SOL    HW137553   4.401   0.642  15.715  0.1666 -1.0978 -0.1872
 8640SOL    HW237554   4.430   0.577  15.587  0.2438 -0.5686 -0.5744
 8641SOL     OW37555   3.807   0.620   9.846  0.1437 -0.1889 -0.3324
 8641SOL    HW137556   3.745   0.671   9.898 -1.3021 -1.9696 -0.2980
 8641SOL    HW237557   3.852   0.565   9.911  0.3392 -0.5165 -0.7391
 8642SOL     OW37558   0.840   3.158   3.320 -0.3061  0.1178 -0.5403
 8642SOL    HW137559   0.874   3.227   3.377 -1.4413  0.5193 -0.3447
 8642SOL    HW237560   0.799   3.200   3.244  0.6288  1.9000 -0.0659
 8643SOL     OW37561   0.143   2.387  10.538 -0.3919 -0.6814  0.6697
 8643SOL    HW137562   0.099   2.430  10.465  2.9435  2.7057  0.6818
 8643SOL    HW237563   0.096   2.429  10.610 -1.5974  0.7863 -0.9845
 8644SOL     OW37564   1.013   2.427   5.596  0.1950  0.2767  0.1748
 8644SOL    HW137565   1.011   2.396   5.505 -0.4961 -0.2145  0.3573
 8644SOL    HW237566   0.919   2.438   5.610  0.1333  0.3827 -0.2863
 8645SOL     OW37567   3.774   3.439  10.167 -0.3342  0.2056 -0.5347
 8645SOL    HW137568   3.811   3.400  10.246 -0.6872 -2.5334 -1.7092
 8645SOL    HW237569   3.686   3.465  10.195 -0.5635 -0.0110 -1.0597
 8646SOL     OW37570   2.089   2.179  14.090  0.0599  0.0903 -0.0721
 8646SOL    HW137571   2.096   2.244  14.159  0.0901  2.2000 -2.0366
 8646SOL    HW237572   2.168   2.125  14.095 -1.6718 -2.6620 -2.7577
 8647SOL     OW37573   2.233   0.008   4.002  0.0853  0.2892 -0.2452
 8647SOL    HW137574   2.255   0.021   4.094  0.1835 -1.6512  0.0145
 8647SOL    HW237575   2.283   4.667   3.973  0.9314  0.6713  0.2197
 8648SOL     OW37576   2.021   2.617   2.765 -0.0265 -0.0676  0.0616
 8648SOL    HW137577   1.969   2.618   2.685  0.6300 -0.9016 -0.3711
 8648SOL    HW237578   2.107   2.604   2.727 -0.7650  0.3621 -1.7468
 8649SOL     OW37579   2.255   2.169   2.422 -0.4850  0.4299  0.4877
 8649SOL    HW137580   2.321   2.233   2.446  0.5506 -0.9857  1.4078
 8649SOL    HW237581   2.299   2.096   2.466 -1.5457  0.7225  2.0614
 8650SOL     OW37582   2.886   3.866   0.172  0.1318 -0.2192  0.3284
 8650SOL    HW137583   2.856   3.810   0.100  0.5620 -2.1059  1.5991
 8650SOL    HW237584   2.875   3.956   0.141 -0.4930  0.2207  1.8525
 8651SOL     OW37585   1.178   0.346  10.997  0.2224 -0.4785  0.2360
 8651SOL    HW137586   1.255   0.290  11.007  0.2838 -0.4974 -0.3548
 8651SOL    HW237587   1.151   0.322  10.909 -0.5100 -0.6740  0.5081
 8652SOL     OW37588   3.341   4.286   1.470  0.3964  0.4658 -0.2304
 8652SOL    HW137589   3.321   4.342   1.545 -1.9422 -1.7342  0.8155
 8652SOL    HW237590   3.297   4.337   1.402 -0.1727  3.4660  2.4059
 8653SOL     OW37591   0.997   3.435   6.457 -0.0907  0.4573 -0.0188
 8653SOL    HW137592   0.941   3.412   6.531 -0.6142 -0.6610 -0.7645
 8653SOL    HW237593   0.937   3.458   6.386 -0.4652 -4.4584 -1.2569
 8654SOL     OW37594   3.610   3.251   6.208  0.0970 -0.4146 -0.1794
 8654SOL    HW137595   3.644   3.173   6.252 -0.9729 -1.5354 -1.3480
 8654SOL    HW237596   3.686   3.280   6.157 -0.6517  0.2519 -0.9179
 8655SOL     OW37597   1.237   4.343  17.255  0.2109  0.2238 -0.4414
 8655SOL    HW137598   1.325   4.307  17.241 -0.2710 -1.2662  0.3286
 8655SOL    HW237599   1.220   4.314  17.345  2.9729  0.0819  0.0348
 8656SOL     OW37600   1.419   4.069   6.901 -0.2456  0.0053 -0.0095
 8656SOL    HW137601   1.390   3.979   6.887  0.2020  0.1959 -2.1713
 8656SOL    HW237602   1.372   4.082   6.984  0.8320 -1.4814  0.8400
 8657SOL     OW37603   1.377   1.398   6.196 -0.6525  0.0190 -0.2048
 8657SOL    HW137604   1.460   1.446   6.187  0.2556 -1.2431  1.4046
 8657SOL    HW237605   1.334   1.436   6.120 -0.4523  0.8434  0.0819
 8658SOL     OW37606   3.977   3.874   1.302  0.0619 -0.2111 -0.0395
 8658SOL    HW137607   3.929   3.814   1.358  0.1038 -1.2311 -1.1093
 8658SOL    HW237608   4.060   3.871   1.350  0.8103 -1.1481 -1.4066
 8659SOL     OW37609   3.545   2.523  16.325 -0.3215 -0.0193 -0.1555
 8659SOL    HW137610   3.562   2.497  16.415  1.4341  1.6121 -0.0068
 8659SOL    HW237611   3.493   2.603  16.332  1.3797  0.9778  1.1322
 8660SOL     OW37612   4.684   3.971   5.265 -0.1491  0.0333 -0.3131
 8660SOL    HW137613   0.011   4.002   5.331  0.3514  1.3111 -1.3699
 8660SOL    HW237614   4.704   3.878   5.270 -1.4558 -0.1706  0.8789
 8661SOL     OW37615   2.258   1.486   9.820  0.8829 -0.0969  0.0839
 8661SOL    HW137616   2.286   1.396   9.839 -1.3923 -0.9476 -0.5330
 8661SOL    HW237617   2.176   1.467   9.774  0.6278  2.2610 -0.4496
 8662SOL     OW37618   3.404   1.384   3.907  0.0186  0.4661 -0.2274
 8662SOL    HW137619   3.309   1.375   3.895  0.2001 -2.7177  0.6302
 8662SOL    HW237620   3.411   1.382   4.003  1.0862 -0.9848 -0.3440
 8663SOL     OW37621   2.165   0.666   6.789  0.2336  0.3453  0.4454
 8663SOL    HW137622   2.122   0.605   6.850 -1.0449 -0.5150 -1.3283
 8663SOL    HW237623   2.238   0.698   6.842  0.6789  1.1308 -0.6694
 8664SOL     OW37624   3.057   2.619  10.582 -0.1190 -0.1340 -0.1835
 8664SOL    HW137625   3.055   2.656  10.494 -0.1769 -0.0606 -0.1515
 8664SOL    HW237626   2.984   2.557  10.577  1.3650 -2.0898  1.9997
 8665SOL     OW37627   3.281   3.108   2.715  0.4156 -0.2484 -0.0684
 8665SOL    HW137628   3.209   3.049   2.694 -3.1241  3.7623  0.8434
 8665SOL    HW237629   3.243   3.189   2.682  0.4405 -0.4541 -0.6090
 8666SOL     OW37630   0.502   4.553   3.714 -0.2786  0.0459  0.2538
 8666SOL    HW137631   0.408   4.552   3.731 -0.0455 -0.2126  1.5292
 8666SOL    HW237632   0.498   4.615   3.641  1.3227  0.6762  0.7023
 8667SOL     OW37633   0.512   4.644   2.499  0.0288  0.5183 -0.2162
 8667SOL    HW137634   0.459   4.665   2.421 -1.0280 -1.1566  0.0663
 8667SOL    HW237635   0.506   4.728   2.545  0.2057  0.1068  0.5458
 8668SOL     OW37636   1.793   1.038   8.630 -0.5010 -0.0407 -0.2509
 8668SOL    HW137637   1.732   0.971   8.597 -1.0995 -0.4270  1.5950
 8668SOL    HW237638   1.775   1.117   8.579  1.0955  0.3650 -0.1584
 8669SOL     OW37639   3.229   0.361   6.405 -0.0400 -0.0145  0.2086
 8669SOL    HW137640   3.317   0.400   6.408 -0.0646  0.0510  0.0103
 8669SOL    HW237641   3.184   0.436   6.444  0.2407  1.6028 -2.6090
 8670SOL     OW37642   3.210   1.960   8.144  0.1272 -0.0344 -0.5774
 8670SOL    HW137643   3.298   1.938   8.176  0.1517  0.2067 -0.4766
 8670SOL    HW237644   3.155   1.893   8.185  0.0287  0.7283  0.5519
 8671SOL     OW37645   3.522   2.097   5.054 -0.2028  0.6469 -0.1055
 8671SOL    HW137646   3.457   2.160   5.086 -0.7483  0.6237 -1.1772
 8671SOL    HW237647   3.594   2.151   5.089 -1.5262  1.3695  1.5454
 8672SOL     OW37648   4.734   2.065   9.805  0.3763 -0.3853 -0.1966
 8672SOL    HW137649   4.720   2.150   9.845  2.1886 -1.0377  1.8026
 8672SOL    HW237650   4.679   2.070   9.727  0.7023 -0.5317 -0.4360
 8673SOL     OW37651   0.475   2.351   9.083 -0.0039 -0.3283  0.8268
 8673SOL    HW137652   0.442   2.401   9.157  1.8937  2.8268 -0.4048
 8673SOL    HW237653   0.560   2.324   9.118 -0.1679 -0.1133  1.3794
 8674SOL     OW37654   1.279   1.514   9.120 -0.0581 -0.1685  0.0698
 8674SOL    HW137655   1.359   1.563   9.102 -0.5093  0.4404 -0.2769
 8674SOL    HW237656   1.270   1.535   9.213  2.2184  0.9777  0.0302
 8675SOL     OW37657   0.745   3.054   3.675 -0.0942 -0.2635 -0.9135
 8675SOL    HW137658   0.789   2.988   3.729 -1.8891 -1.1936 -0.5798
 8675SOL    HW237659   0.737   3.015   3.588  1.3751  1.5576 -1.8668
 8676SOL     OW37660   0.464   1.149   3.185  0.6253  0.3729  0.1389
 8676SOL    HW137661   0.422   1.080   3.134  0.4158  1.0343 -0.5768
 8676SOL    HW237662   0.404   1.162   3.259  0.4974 -0.7134  0.2322
 8677SOL     OW37663   1.208   1.921  15.486 -0.1962  0.0429 -0.7256
 8677SOL    HW137664   1.279   1.948  15.428 -0.9855  1.2682 -1.1291
 8677SOL    HW237665   1.228   1.955  15.572 -1.3029  1.4299 -1.0238
 8678SOL     OW37666   4.110   3.981   2.219 -0.7101 -0.0715  0.6747
 8678SOL    HW137667   4.047   4.052   2.227 -2.1502 -1.1962 -0.7997
 8678SOL    HW237668   4.051   3.916   2.257 -1.1221 -0.9054 -1.3760
 8679SOL     OW37669   2.806   3.229   1.981  0.0104 -0.2107 -0.2550
 8679SOL    HW137670   2.759   3.157   2.023 -0.5882  0.1501 -0.3030
 8679SOL    HW237671   2.857   3.267   2.052  1.0110  0.2854 -1.2295
 8680SOL     OW37672   3.128   3.676   6.868  0.0211  0.2069 -0.1519
 8680SOL    HW137673   3.044   3.721   6.855  0.6324  1.4052  0.0734
 8680SOL    HW237674   3.188   3.748   6.886  0.0287  0.5080 -1.3964
 8681SOL     OW37675   3.647   3.642   7.932 -0.3436  0.1805  0.0979
 8681SOL    HW137676   3.650   3.686   8.017  0.8044  1.8522 -0.7954
 8681SOL    HW237677   3.616   3.554   7.955  1.0123 -0.5584 -0.8569
 8682SOL     OW37678   4.653   4.481   3.811  0.0918 -0.1161 -0.0866
 8682SOL    HW137679   4.650   4.515   3.900 -0.7599 -0.2892 -0.0492
 8682SOL    HW237680   4.643   4.389   3.836 -2.6917  0.1345 -0.3121
 8683SOL     OW37681   3.149   1.908  14.299  0.2433 -0.0213  0.1894
 8683SOL    HW137682   3.135   1.919  14.393 -0.6019 -0.5526  0.1318
 8683SOL    HW237683   3.168   1.814  14.304 -1.7648 -0.3061  2.7170
 8684SOL     OW37684   0.532   1.741  10.016 -0.5714  0.0193 -0.7442
 8684SOL    HW137685   0.575   1.819  10.050 -0.6043  0.1740 -1.0571
 8684SOL    HW237686   0.443   1.767   9.989 -0.8617 -0.3734 -0.1515
 8685SOL     OW37687   4.669   1.735   6.742  0.3396  0.2917  0.0865
 8685SOL    HW137688   0.027   1.758   6.747 -0.3293  3.4635 -2.0802
 8685SOL    HW237689   4.637   1.811   6.790 -0.5308 -0.0053 -0.0372
 8686SOL     OW37690   3.689   3.236  14.421  0.0038  0.2044  0.1801
 8686SOL    HW137691   3.769   3.287  14.410 -0.4089  0.6638 -0.6975
 8686SOL    HW237692   3.649   3.239  14.333 -0.5421 -0.3957  0.4048
 8687SOL     OW37693   0.606   0.401   2.499 -0.3884  0.4903  0.1342
 8687SOL    HW137694   0.584   0.424   2.409  0.9719  0.0685 -0.3064
 8687SOL    HW237695   0.574   0.471   2.556 -1.2090  0.9620 -0.9117
 8688SOL     OW37696   2.228   0.465   6.601 -0.5440 -0.5099 -0.1790
 8688SOL    HW137697   2.272   0.522   6.663 -1.3635  0.1728 -0.2212
 8688SOL    HW237698   2.171   0.412   6.657 -1.3996  2.1615  1.4584
 8689SOL     OW37699   0.394   4.345  14.535  0.0279 -0.1044  0.0968
 8689SOL    HW137700   0.314   4.365  14.488 -0.1178 -1.4843 -0.2278
 8689SOL    HW237701   0.386   4.257  14.571  0.7319 -0.3400 -0.3057
 8690SOL     OW37702   1.572   3.448   8.029  0.2433  0.1041  0.1405
 8690SOL    HW137703   1.589   3.434   7.936  0.3175 -0.6894  0.2724
 8690SOL    HW237704   1.526   3.531   8.019  0.0763 -0.4380 -3.6039
 8691SOL     OW37705   4.610   1.662   5.655  0.1208 -0.5877 -0.7291
 8691SOL    HW137706   4.687   1.715   5.635  1.2185 -1.6223  0.6816
 8691SOL    HW237707   4.636   1.622   5.739 -1.1292 -2.0120 -1.0263
 8692SOL     OW37708   0.180   3.127   4.172  0.1596  0.3452  0.0998
 8692SOL    HW137709   0.119   3.124   4.097 -1.6047 -2.2496  1.6533
 8692SOL    HW237710   0.250   3.078   4.130  1.4944  1.8047  0.6191
 8693SOL     OW37711   4.078   4.087   5.865 -0.2440 -0.9026 -0.6045
 8693SOL    HW137712   4.017   4.160   5.877  0.2391 -0.6963  0.5747
 8693SOL    HW237713   4.065   4.030   5.941 -1.3989 -0.7795 -0.7034
 8694SOL     OW37714   2.601   2.081   2.340 -0.1727 -0.2875 -0.3233
 8694SOL    HW137715   2.660   2.084   2.415  1.2143  3.4444 -1.5748
 8694SOL    HW237716   2.549   2.160   2.350 -0.4640 -0.7609  2.0111
 8695SOL     OW37717   0.513   1.294   5.732  0.0417 -0.2825 -0.2011
 8695SOL    HW137718   0.455   1.368   5.752  1.2718  1.6773 -3.7501
 8695SOL    HW237719   0.477   1.219   5.779 -0.6422  0.4974  0.5445
 8696SOL     OW37720   2.688   1.958   9.826 -0.0485 -0.0114 -0.2529
 8696SOL    HW137721   2.780   1.946   9.803 -0.1369 -2.7952  0.8942
 8696SOL    HW237722   2.661   1.866   9.829 -1.3461  0.3458 -0.9062
 8697SOL     OW37723   3.070   1.777   5.452  0.4866 -0.1147  0.1467
 8697SOL    HW137724   3.147   1.735   5.415 -1.1751 -3.3136  0.3338
 8697SOL    HW237725   3.043   1.837   5.382  0.5875  3.0723  2.7999
 8698SOL     OW37726   2.302   3.377  11.229 -0.4031 -0.0939 -0.3109
 8698SOL    HW137727   2.309   3.295  11.278  3.0591  0.1298 -0.4316
 8698SOL    HW237728   2.228   3.423  11.269 -0.3456  0.5353 -0.9235
 8699SOL     OW37729   1.312   2.664  15.539 -0.3964  0.2595  0.2918
 8699SOL    HW137730   1.280   2.749  15.569  0.6540  0.5681  0.5160
 8699SOL    HW237731   1.254   2.611  15.594 -0.8581  0.7394  0.2669
 8700SOL     OW37732   0.033   4.689   7.568  0.4197 -0.8133  0.3733
 8700SOL    HW137733   0.090   4.668   7.642  1.3784  2.6126  0.6034
 8700SOL    HW237734   4.702   4.620   7.562 -0.5023  0.0220  0.8776
 8701SOL     OW37735   1.665   2.281  13.968 -0.9148  0.0818  0.5578
 8701SOL    HW137736   1.581   2.327  13.970  0.0077  1.7969 -0.2225
 8701SOL    HW237737   1.675   2.259  13.875 -0.1847 -0.0201  0.6585
 8702SOL     OW37738   2.589   4.254   7.134  0.3453 -0.0540 -0.2804
 8702SOL    HW137739   2.613   4.174   7.182 -1.9095  0.2247  1.3563
 8702SOL    HW237740   2.522   4.291   7.192 -2.2054 -2.2362 -1.7828
 8703SOL     OW37741   3.435   4.332  10.429  0.5165  0.3953  0.8266
 8703SOL    HW137742   3.347   4.358  10.402  0.3763  0.8586  1.7337
 8703SOL    HW237743   3.426   4.303  10.520  1.1570 -0.8376  0.4911
 8704SOL     OW37744   0.156   1.641   1.489 -0.0067  0.0482  0.3709
 8704SOL    HW137745   0.251   1.647   1.480 -0.0563 -1.9010 -1.3989
 8704SOL    HW237746   0.125   1.630   1.398  0.7438 -0.2254  0.1499
 8705SOL     OW37747   1.030   0.205  10.666  0.1695 -0.5442 -0.3739
 8705SOL    HW137748   1.107   0.262  10.665  0.0661 -0.4402 -2.7538
 8705SOL    HW237749   0.964   0.273  10.649  1.3541  0.8210  0.4779
 8706SOL     OW37750   0.288   3.092  15.123 -0.8546  0.0990 -0.3250
 8706SOL    HW137751   0.271   3.063  15.212 -0.2391 -0.6133 -0.4395
 8706SOL    HW237752   0.203   3.126  15.094 -1.0437  0.3770  0.5531
 8707SOL     OW37753   0.205   1.092   3.783 -0.4741  0.8208 -0.2804
 8707SOL    HW137754   0.217   1.058   3.871 -4.2590 -2.3730 -0.9706
 8707SOL    HW237755   0.219   1.184   3.805 -0.7687  0.3651  1.7616
 8708SOL     OW37756   4.414   1.187   7.680 -0.3396 -0.0746 -0.0383
 8708SOL    HW137757   4.509   1.175   7.681 -0.1197  1.3627 -2.2232
 8708SOL    HW237758   4.390   1.253   7.615 -0.1557 -0.8315 -0.8853
 8709SOL     OW37759   4.247   4.096  14.610  0.2638  0.0646 -0.1522
 8709SOL    HW137760   4.201   4.108  14.694  0.9831 -3.3025  0.7079
 8709SOL    HW237761   4.184   4.130  14.546  0.0324  2.9125  1.5421
 8710SOL     OW37762   2.016   4.666  13.642 -0.2437  0.0227  0.8938
 8710SOL    HW137763   1.978   0.014  13.670 -0.6731  0.4466 -0.9826
 8710SOL    HW237764   2.009   4.677  13.548  0.7663 -0.9098  0.7031
 8711SOL     OW37765   1.009   3.335   5.629  0.8329 -0.4775  0.2033
 8711SOL    HW137766   1.084   3.299   5.676  0.9777 -0.3324  0.0816
 8711SOL    HW237767   0.955   3.365   5.703 -1.2305 -0.0747 -1.4470
 8712SOL     OW37768   3.789   0.061   3.399  0.1476  0.6252  0.4744
 8712SOL    HW137769   3.835   4.715   3.421  0.8557  1.2666  1.3625
 8712SOL    HW237770   3.725   0.019   3.341  1.3879 -1.9608  0.9910
 8713SOL     OW37771   3.243   0.230   7.666  0.2122  0.4215  0.3217
 8713SOL    HW137772   3.160   0.214   7.710  0.0681  2.7774  0.9299
 8713SOL    HW237773   3.216   0.287   7.595 -0.8382 -0.6431 -0.1248
 8714SOL     OW37774   3.154   3.130   8.128  0.0136 -0.2334  0.3330
 8714SOL    HW137775   3.211   3.183   8.072 -0.4781 -2.3325 -2.1235
 8714SOL    HW237776   3.104   3.096   8.054  1.6645 -1.2040 -0.3489
 8715SOL     OW37777   3.697   0.119   9.715  0.4131  0.1856 -0.8010
 8715SOL    HW137778   3.778   0.157   9.749 -0.2360  1.9583 -1.2128
 8715SOL    HW237779   3.678   0.066   9.792 -1.3960  0.6307 -0.9295
 8716SOL     OW37780   3.960   3.488   0.213 -0.2633 -0.2447 -0.0026
 8716SOL    HW137781   3.957   3.519   0.122  0.0390 -0.2976 -0.0288
 8716SOL    HW237782   3.977   3.395   0.197  0.3785 -0.2963  1.0105
 8717SOL     OW37783   1.833   0.459   3.034  0.4233 -0.5844 -0.1803
 8717SOL    HW137784   1.851   0.403   2.959  0.6601  1.1509 -1.4393
 8717SOL    HW237785   1.746   0.493   3.011  0.7122 -0.6429 -1.3833
 8718SOL     OW37786   4.585   3.231  16.926  0.0806  0.4637  0.2960
 8718SOL    HW137787   4.617   3.285  16.853 -0.9968  0.0410 -0.4852
 8718SOL    HW237788   4.530   3.168  16.880 -1.3247  0.7953  1.5251
 8719SOL     OW37789   2.315   3.494   8.064 -0.2603 -0.7899  0.4939
 8719SOL    HW137790   2.234   3.537   8.094 -0.2727 -0.8361  0.5266
 8719SOL    HW237791   2.384   3.545   8.105 -0.7550  0.6707 -0.4881
 8720SOL     OW37792   3.781   1.432   9.159 -0.1018  0.0450  0.0060
 8720SOL    HW137793   3.814   1.521   9.166 -0.7691  0.3261 -0.4882
 8720SOL    HW237794   3.864   1.385   9.147 -0.0874  0.0215  0.2019
 8721SOL     OW37795   4.303   2.636   6.882  0.3364  0.6996  0.3210
 8721SOL    HW137796   4.321   2.581   6.806 -0.5875  0.0062  0.6054
 8721SOL    HW237797   4.360   2.709   6.858 -0.3457  0.8193 -0.9116
 8722SOL     OW37798   2.010   4.704   5.038  0.2039 -0.0719  0.2190
 8722SOL    HW137799   1.992   0.058   5.008 -0.5465 -1.2950 -2.8909
 8722SOL    HW237800   2.062   4.723   5.116  1.1022  1.9803 -0.8610
 8723SOL     OW37801   2.563   4.649   3.607  0.6580  0.2127 -0.0532
 8723SOL    HW137802   2.635   4.709   3.588 -0.4265  1.1712 -1.1419
 8723SOL    HW237803   2.523   4.685   3.686 -1.7804  2.7971 -2.4485
 8724SOL     OW37804   3.614   0.699   6.355  0.0671 -0.5114  0.5493
 8724SOL    HW137805   3.694   0.741   6.388  1.7870 -3.6542  0.3975
 8724SOL    HW237806   3.634   0.606   6.357 -0.5690 -0.6317  1.2934
 8725SOL     OW37807   0.036   1.948   6.359  0.1224  0.0551  0.3144
 8725SOL    HW137808   0.025   1.999   6.439 -0.1884 -0.0906  0.3666
 8725SOL    HW237809   0.058   1.859   6.386  0.2287  0.7268  2.4519
 8726SOL     OW37810   1.093   1.342  14.607  0.1712  0.3160  0.7691
 8726SOL    HW137811   1.162   1.377  14.551  0.0289 -0.2262  0.2578
 8726SOL    HW237812   1.044   1.273  14.563  0.9189  0.3724 -0.1396
 8727SOL     OW37813   4.531   1.312  12.023 -0.2676 -0.4356 -0.1847
 8727SOL    HW137814   4.479   1.238  12.051  0.1452 -1.2157 -1.4568
 8727SOL    HW237815   4.473   1.386  12.041 -1.5051 -1.0684 -1.5857
 8728SOL     OW37816   1.485   0.555   7.052  0.5421  0.4827  0.3496
 8728SOL    HW137817   1.489   0.611   7.129 -0.9979  2.4079 -0.9676
 8728SOL    HW237818   1.390   0.550   7.039  0.7461 -2.9943  0.1236
 8729SOL     OW37819   0.049   2.431   9.215  0.2065  0.2001  0.2345
 8729SOL    HW137820   0.063   2.352   9.266 -0.2525  0.3668  0.6233
 8729SOL    HW237821   0.020   2.484   9.289 -1.2024 -0.5577  0.2228
 8730SOL     OW37822   0.314   3.119   2.716  0.0038  0.5257 -0.0174
 8730SOL    HW137823   0.223   3.089   2.704 -0.3107  1.8576 -1.0006
 8730SOL    HW237824   0.356   3.035   2.699  2.0288  1.5702 -0.1102
 8731SOL     OW37825   2.460   2.314   2.491 -0.2040  0.1720 -0.2353
 8731SOL    HW137826   2.511   2.305   2.572 -0.6463 -1.1518 -0.1023
 8731SOL    HW237827   2.496   2.391   2.447  1.5673 -0.9245 -0.7146
 8732SOL     OW37828   1.454   0.582   8.447  0.0386 -0.4294  0.4478
 8732SOL    HW137829   1.548   0.571   8.433  0.3325  1.8797  0.5709
 8732SOL    HW237830   1.429   0.490   8.447  0.0798 -0.4521  1.9185
 8733SOL     OW37831   1.641   2.670   4.690 -0.3445 -0.2555 -0.0421
 8733SOL    HW137832   1.548   2.691   4.679 -0.2248 -0.1943 -0.8855
 8733SOL    HW237833   1.671   2.643   4.603  0.6184  2.2007 -0.4579
 8734SOL     OW37834   0.497   3.088   3.169 -0.4361 -0.0667 -0.0185
 8734SOL    HW137835   0.441   3.120   3.098 -0.1857 -1.0189 -0.6338
 8734SOL    HW237836   0.484   3.159   3.232 -2.6638  2.0441 -2.8573
 8735SOL     OW37837   1.421   3.009   3.993  0.3075 -0.0167 -0.0138
 8735SOL    HW137838   1.378   3.065   4.057  2.3338  0.4656  0.8965
 8735SOL    HW237839   1.451   2.944   4.057 -1.2545 -1.1105 -0.3662
 8736SOL     OW37840   2.004   0.015  16.001 -0.1617  0.5893 -0.5834
 8736SOL    HW137841   2.056   4.694  15.943  0.3764 -1.2921  1.7326
 8736SOL    HW237842   1.921   4.721  15.963  0.5003 -0.3439 -1.3111
 8737SOL     OW37843   0.133   4.731   4.290 -0.4017  0.0056  0.5733
 8737SOL    HW137844   0.090   0.070   4.331 -0.8147  1.2417 -2.0766
 8737SOL    HW237845   0.211   4.729   4.344  0.2400  0.8430 -0.3186
 8738SOL     OW37846   2.534   1.743   3.647 -0.0513 -0.4536  0.1792
 8738SOL    HW137847   2.536   1.830   3.685  1.0753  0.2731 -1.5106
 8738SOL    HW237848   2.604   1.741   3.581 -0.6681 -1.2222 -0.4479
 8739SOL     OW37849   2.667   1.741  13.349  0.3697 -0.3771 -0.2309
 8739SOL    HW137850   2.690   1.831  13.372  1.4669 -0.7647  0.1996
 8739SOL    HW237851   2.709   1.718  13.266  1.6192  1.0897  0.0108
 8740SOL     OW37852   4.676   1.728   8.507 -0.2212 -0.0362 -0.2429
 8740SOL    HW137853   0.013   1.672   8.480 -1.3670 -1.0719 -1.1371
 8740SOL    HW237854   4.709   1.811   8.473  0.7431 -0.6899 -0.8851
 8741SOL     OW37855   3.102   4.080   8.550  0.2715 -0.0156  0.3126
 8741SOL    HW137856   3.178   4.126   8.586  0.6674  0.4322 -1.0764
 8741SOL    HW237857   3.039   4.146   8.521  0.9851  1.5501  2.3076
 8742SOL     OW37858   4.333   0.748  14.137  0.4565  0.1212 -0.5324
 8742SOL    HW137859   4.262   0.772  14.078  0.2469  1.7659  0.4216
 8742SOL    HW237860   4.395   0.715  14.072  0.1740 -0.1777 -0.6532
 8743SOL     OW37861   4.099   1.338   8.314 -0.0839 -0.1382 -0.2769
 8743SOL    HW137862   4.044   1.309   8.241 -0.0287  0.0403 -0.3906
 8743SOL    HW237863   4.100   1.260   8.368 -1.2210  0.0257 -0.0384
 8744SOL     OW37864   0.376   2.591   8.964  0.1420 -0.2037  0.3276
 8744SOL    HW137865   0.383   2.585   9.059 -0.0516 -1.0978  0.2840
 8744SOL    HW237866   0.355   2.501   8.941  1.9015 -0.2691 -1.0056
 8745SOL     OW37867   3.883   0.220   7.301  0.2232 -0.0394 -0.3172
 8745SOL    HW137868   3.899   0.278   7.227  0.2014  0.9047  0.4333
 8745SOL    HW237869   3.947   0.151   7.283 -1.2025 -1.3996 -0.2603
 8746SOL     OW37870   1.569   1.756  11.853 -0.0845 -0.2135  0.2630
 8746SOL    HW137871   1.649   1.712  11.823  0.0257 -0.4058  0.8371
 8746SOL    HW237872   1.601   1.781  11.940  0.8402 -2.1096  0.4606
 8747SOL     OW37873   3.350   4.655   1.993  0.1959 -0.3879 -0.7151
 8747SOL    HW137874   3.341   0.009   1.959  0.0078  0.2787  1.1299
 8747SOL    HW237875   3.257   4.637   1.998  0.9411 -2.8265  3.6842
 8748SOL     OW37876   1.604   0.661   2.151 -0.2332  0.6441 -0.1329
 8748SOL    HW137877   1.618   0.602   2.077  1.9585 -0.3110  1.0461
 8748SOL    HW237878   1.625   0.748   2.119  1.0421  0.5531  0.4614
 8749SOL     OW37879   2.219   2.848   2.136  0.0354  0.0165 -0.0411
 8749SOL    HW137880   2.155   2.902   2.183 -1.4678  0.8584 -3.0124
 8749SOL    HW237881   2.257   2.916   2.080 -0.6433 -0.3754 -0.9833
 8750SOL     OW37882   1.514   2.117   0.574  0.5067  0.6244  0.5403
 8750SOL    HW137883   1.552   2.146   0.657  0.4244 -1.5674  1.3438
 8750SOL    HW237884   1.431   2.163   0.581 -0.4277 -0.8561 -0.8497
 8751SOL     OW37885   1.689   2.334   4.133 -0.2543 -0.3574  0.2746
 8751SOL    HW137886   1.709   2.348   4.041  1.0098  0.4879  0.6703
 8751SOL    HW237887   1.601   2.372   4.135 -0.8129 -1.6484 -0.7135
 8752SOL     OW37888   0.858   2.997  14.858  0.2917  0.4080 -0.0129
 8752SOL    HW137889   0.788   2.933  14.870 -0.8645  1.8310  0.7461
 8752SOL    HW237890   0.806   3.073  14.882 -2.2103 -0.6121 -2.1466
 8753SOL     OW37891   1.814   0.981   0.175 -0.1280 -0.2352 -0.2645
 8753SOL    HW137892   1.738   0.992   0.118  1.5187  0.2788 -2.3175
 8753SOL    HW237893   1.770   1.011   0.256 -0.5932 -0.2080 -0.5252
 8754SOL     OW37894   3.146   3.266   9.372 -0.0887  0.1067  0.1262
 8754SOL    HW137895   3.148   3.314   9.289  2.4242  0.3742  0.3325
 8754SOL    HW237896   3.104   3.182   9.351 -0.8162  0.1939  1.2324
 8755SOL     OW37897   2.832   4.136  17.718  0.1044  0.3067 -0.4660
 8755SOL    HW137898   2.834   4.209   0.040 -1.8346  0.0387 -0.0757
 8755SOL    HW237899   2.927   4.134  17.710  0.0529 -0.1770 -0.9776
 8756SOL     OW37900   2.537   2.557   1.640 -0.1744 -0.0119  0.5364
 8756SOL    HW137901   2.441   2.553   1.640 -0.2484  1.8613  1.4837
 8756SOL    HW237902   2.544   2.652   1.648 -1.8999  0.1962 -0.4030
 8757SOL     OW37903   0.323   1.788   8.834  0.7112  0.5227  0.0382
 8757SOL    HW137904   0.380   1.792   8.910 -0.2189 -1.6150  0.8468
 8757SOL    HW237905   0.285   1.876   8.834  0.3544  0.3720  1.8654
 8758SOL     OW37906   0.049   1.858   4.092  0.6290 -0.0189 -0.1434
 8758SOL    HW137907   4.709   1.916   4.089  1.1604  0.6603 -0.4742
 8758SOL    HW237908   0.122   1.921   4.088  0.9226 -0.3280  0.3086
 8759SOL     OW37909   4.137   2.030   9.145  0.2966  0.2640 -0.1028
 8759SOL    HW137910   4.122   1.937   9.130  0.7782 -0.1248  1.8583
 8759SOL    HW237911   4.232   2.039   9.148  0.4251 -0.2752 -3.0655
 8760SOL     OW37912   1.050   1.720   3.355  0.2306 -0.1711 -0.0241
 8760SOL    HW137913   1.128   1.723   3.299  0.0010 -2.4786 -0.4699
 8760SOL    HW237914   0.983   1.676   3.303  0.9348  0.9980 -1.9283
 8761SOL     OW37915   4.271   0.871   7.056  0.3990  0.4489  0.3171
 8761SOL    HW137916   4.359   0.834   7.064  0.3460  0.9278  2.9494
 8761SOL    HW237917   4.265   0.898   6.964 -1.9716 -1.2847 -0.0564
 8762SOL     OW37918   3.604   0.071  12.115 -0.2190  0.0070 -0.2652
 8762SOL    HW137919   3.514   0.041  12.105 -1.0600  2.7639 -0.7916
 8762SOL    HW237920   3.659   4.735  12.082 -1.4976 -0.4158 -1.4559
 8763SOL     OW37921   4.519   3.185   7.593 -0.3046 -0.2281  0.6108
 8763SOL    HW137922   4.471   3.109   7.627 -2.5701  0.8843 -0.0897
 8763SOL    HW237923   4.454   3.255   7.592  0.8001  0.7781 -1.1305
 8764SOL     OW37924   3.787   1.585   7.861  0.2520  0.0222 -0.3230
 8764SOL    HW137925   3.811   1.649   7.928 -0.2966  1.2001 -1.2696
 8764SOL    HW237926   3.741   1.520   7.915 -0.1089  2.0674  1.8062
 8765SOL     OW37927   0.239   2.022  17.485 -0.2405 -0.0997  0.8549
 8765SOL    HW137928   0.252   2.094  17.423  0.7390 -1.0123  0.0189
 8765SOL    HW237929   0.313   1.967  17.461 -0.2104 -0.5658  1.9859
 8766SOL     OW37930   2.026   4.647   6.087  0.3226  0.0726 -0.4545
 8766SOL    HW137931   2.112   4.623   6.121  0.0023 -0.2632  0.1070
 8766SOL    HW237932   2.036   4.609   5.999 -0.2250 -0.8261 -0.1279
 8767SOL     OW37933   0.356   0.854  12.434 -0.4222 -1.0194 -0.3266
 8767SOL    HW137934   0.398   0.804  12.365 -0.1316  0.6859 -1.3923
 8767SOL    HW237935   0.397   0.940  12.419 -0.0231 -1.5031 -1.9734
 8768SOL     OW37936   1.744   0.612   2.393 -0.0326 -0.0021 -0.6808
 8768SOL    HW137937   1.765   0.519   2.395  1.7585  0.3567 -2.7074
 8768SOL    HW237938   1.681   0.619   2.321  0.2351  2.6511 -0.6607
 8769SOL     OW37939   4.511   1.135   4.340  0.6765  0.3241  0.3313
 8769SOL    HW137940   4.429   1.086   4.339  0.9202 -0.0716 -0.3475
 8769SOL    HW237941   4.477   1.210   4.389  1.4708  1.7937 -1.4111
 8770SOL     OW37942   3.773   0.848   4.748  0.1567 -0.3194 -0.6048
 8770SOL    HW137943   3.791   0.793   4.672  2.9387 -1.6847  1.0111
 8770SOL    HW237944   3.738   0.778   4.804 -1.4805  0.2088 -0.9882
 8771SOL     OW37945   0.500   1.307   7.483  0.1816  0.3535 -0.0613
 8771SOL    HW137946   0.465   1.358   7.557 -1.1752  0.2043 -0.6165
 8771SOL    HW237947   0.449   1.227   7.495 -1.7008  1.5890  0.1250
 8772SOL     OW37948   0.621   1.283   1.846  0.0449 -0.3153  0.6586
 8772SOL    HW137949   0.660   1.371   1.844  0.6372 -0.6333 -1.8705
 8772SOL    HW237950   0.617   1.273   1.751  0.0718  1.4992  0.4555
 8773SOL     OW37951   2.300   1.665   6.686  0.3331  0.0016 -0.3209
 8773SOL    HW137952   2.281   1.600   6.618 -1.6478  1.3797 -1.0842
 8773SOL    HW237953   2.346   1.617   6.755  0.3056  1.0514  0.4147
 8774SOL     OW37954   1.483   2.710   8.571  0.1148 -0.2083  0.2074
 8774SOL    HW137955   1.477   2.730   8.477 -2.4204 -1.8998  0.0023
 8774SOL    HW237956   1.543   2.637   8.556 -0.9521 -0.7545 -1.4748
 8775SOL     OW37957   1.338   4.236   2.992  0.2149 -0.1453 -0.0418
 8775SOL    HW137958   1.389   4.316   3.002 -2.5213  1.9534 -2.4975
 8775SOL    HW237959   1.249   4.269   3.005  0.2682 -0.0067 -0.0253
 8776SOL     OW37960   2.378   2.905   4.787 -0.2909 -0.4046  0.6568
 8776SOL    HW137961   2.329   2.845   4.731 -1.1448 -1.7855  2.8999
 8776SOL    HW237962   2.309   2.925   4.850  0.4181  0.6700  1.0943
 8777SOL     OW37963   3.971   1.645   7.111 -0.1363 -0.2821  0.0704
 8777SOL    HW137964   3.884   1.620   7.142  0.7134 -2.3726  0.7803
 8777SOL    HW237965   3.941   1.675   7.025  0.6136 -2.4588 -0.9543
 8778SOL     OW37966   4.724   0.895   9.169 -0.2789  0.2603 -0.0619
 8778SOL    HW137967   4.653   0.953   9.141 -0.5760  0.1836  0.5252
 8778SOL    HW237968   0.041   0.955   9.222  0.3224 -0.4310  0.1289
 8779SOL     OW37969   3.977   2.989   9.103 -0.0017  0.3811  0.4501
 8779SOL    HW137970   3.958   2.945   9.020 -2.5624  1.3924  0.4997
 8779SOL    HW237971   3.912   3.059   9.109  0.1141  0.6064 -0.8667
 8780SOL     OW37972   2.208   4.254   4.326 -0.4896  0.0026  0.2297
 8780SOL    HW137973   2.197   4.162   4.348  1.7722 -0.8975 -2.5046
 8780SOL    HW237974   2.126   4.263   4.277 -1.8933 -0.9986  2.4080
 8781SOL     OW37975   1.157   2.598   3.508  0.2007  0.4420  0.0896
 8781SOL    HW137976   1.221   2.665   3.531 -2.7413  2.9804  0.9201
 8781SOL    HW237977   1.102   2.591   3.586 -0.6559  1.4847 -0.4310
 8782SOL     OW37978   3.975   1.976   5.876 -0.1144 -0.2907 -0.6357
 8782SOL    HW137979   3.994   1.959   5.784 -0.9363  1.0419 -1.0519
 8782SOL    HW237980   4.034   1.916   5.921  0.1103  2.2604  2.4886
 8783SOL     OW37981   3.171   4.705   7.907 -0.1583 -0.6457  0.2146
 8783SOL    HW137982   3.155   4.619   7.946 -0.4477 -1.5686 -1.9221
 8783SOL    HW237983   3.189   0.017   7.988 -0.4335  1.0127 -0.6959
 8784SOL     OW37984   1.605   0.033  12.088  0.5588  0.1125  0.2232
 8784SOL    HW137985   1.524   4.724  12.065  1.4898  0.1989 -3.1692
 8784SOL    HW237986   1.663   4.694  12.104  0.8141  0.6812  1.9268
 8785SOL     OW37987   3.255   3.078   6.529  0.1546 -0.1941 -0.0339
 8785SOL    HW137988   3.200   3.114   6.598 -1.7522 -1.0886 -1.1067
 8785SOL    HW237989   3.330   3.138   6.530 -0.2882  0.3617 -0.5417
 8786SOL     OW37990   1.998   1.067   4.990  0.0599 -0.1851  0.1963
 8786SOL    HW137991   2.057   1.056   4.916 -2.8485 -4.3219 -1.4479
 8786SOL    HW237992   1.994   0.973   5.007 -2.2205  0.1294  1.3757
 8787SOL     OW37993   0.754   1.202   6.388  0.2003  0.0589  0.3409
 8787SOL    HW137994   0.761   1.227   6.296  1.9279 -0.1251  0.4100
 8787SOL    HW237995   0.769   1.107   6.388  0.5160  0.1082  0.5375
 8788SOL     OW37996   4.552   2.359  11.406 -0.3202 -0.2644 -0.0044
 8788SOL    HW137997   4.585   2.270  11.402 -0.7196 -0.4509  0.8560
 8788SOL    HW237998   4.461   2.349  11.377 -0.3829 -0.5639  0.2988
 8789SOL     OW37999   3.470   3.611   4.729 -0.6094  0.9572 -0.4563
 8789SOL    HW138000   3.405   3.669   4.689 -0.7574  1.5013  0.5702
 8789SOL    HW238001   3.408   3.543   4.755  0.3758 -0.2976 -1.4236
 8790SOL     OW38002   2.201   2.089  10.230 -0.8003 -0.1265  0.0850
 8790SOL    HW138003   2.149   2.058  10.304  2.7928 -0.2748  2.5447
 8790SOL    HW238004   2.143   2.053  10.163  0.0186 -1.1896 -0.0647
 8791SOL     OW38005   4.233   1.240   9.138  0.3536 -0.0515 -1.0806
 8791SOL    HW138006   4.186   1.227   9.220  0.9401  0.1669 -0.7071
 8791SOL    HW238007   4.304   1.298   9.167  2.1723 -1.9920 -1.6981
 8792SOL     OW38008   0.066   0.872   5.314  0.1658  0.3534 -1.0607
 8792SOL    HW138009   0.007   0.823   5.371  1.6985 -1.3517 -0.9469
 8792SOL    HW238010   0.094   0.815   5.243 -2.0498  0.3893 -1.9773
 8793SOL     OW38011   0.099   3.625   5.467  0.2758 -0.5843  0.3788
 8793SOL    HW138012   0.190   3.645   5.485  0.2501 -1.6395  1.6725
 8793SOL    HW238013   0.101   3.587   5.379  0.4144  0.1518  0.0651
 8794SOL     OW38014   0.205   1.674  13.867  0.2310 -0.7030 -0.1615
 8794SOL    HW138015   0.284   1.626  13.840  0.3793 -0.2528 -0.5340
 8794SOL    HW238016   0.199   1.651  13.960  1.1195 -1.7945 -0.3702
 8795SOL     OW38017   3.281   3.166   8.892 -0.2013 -0.5404 -0.0682
 8795SOL    HW138018   3.349   3.231   8.909 -0.0551 -1.3697  2.6335
 8795SOL    HW238019   3.238   3.190   8.810 -0.0355  1.4446  0.4270
 8796SOL     OW38020   3.814   3.791  11.558  0.3171  0.8207  0.2291
 8796SOL    HW138021   3.803   3.820  11.468 -0.1853 -1.4680 -0.4492
 8796SOL    HW238022   3.848   3.703  11.541  2.8063  2.0145 -0.9135
 8797SOL     OW38023   3.907   0.253   9.820  0.3186  0.5892  0.1646
 8797SOL    HW138024   3.991   0.269   9.778 -0.5464 -0.4711 -1.9971
 8797SOL    HW238025   3.910   0.319   9.888  3.3886 -1.6858  2.2374
 8798SOL     OW38026   0.175   0.565   1.392 -0.2770 -0.1408 -0.5178
 8798SOL    HW138027   0.160   0.562   1.297 -2.0029  1.4307 -0.2838
 8798SOL    HW238028   0.264   0.600   1.387 -1.3645  3.1206  2.6481
 8799SOL     OW38029   3.325   2.044   6.227  0.3356 -0.5107  0.6463
 8799SOL    HW138030   3.264   1.975   6.199 -0.5780  1.2100 -1.5528
 8799SOL    HW238031   3.364   1.998   6.302  0.5115 -0.7282  0.4237
 8800SOL     OW38032   1.127   3.195   3.767  0.3693  0.1795  0.3113
 8800SOL    HW138033   1.164   3.272   3.811  0.2318  0.4858 -0.1099
 8800SOL    HW238034   1.101   3.236   3.684 -0.7039  1.2713  1.1813
 8801SOL     OW38035   3.078   4.691   2.777 -0.4787  0.2731 -0.7742
 8801SOL    HW138036   3.132   4.689   2.698  0.6572 -0.4584  0.0187
 8801SOL    HW238037   3.011   0.020   2.754  0.0451  1.2682  0.4691
 8802SOL     OW38038   1.415   2.269   7.699  0.4218  0.7496 -0.6822
 8802SOL    HW138039   1.388   2.324   7.625  0.8759  1.3813 -0.3736
 8802SOL    HW238040   1.335   2.219   7.718  1.2525  1.3547  4.3681
 8803SOL     OW38041   4.322   0.448  11.140  0.4582 -0.4129  0.2949
 8803SOL    HW138042   4.359   0.503  11.071  0.4392 -0.4222  0.2774
 8803SOL    HW238043   4.311   0.516  11.206  0.5224 -0.1539  0.0398
 8804SOL     OW38044   2.972   2.553   9.640 -0.1721  0.0977  0.1598
 8804SOL    HW138045   2.909   2.571   9.570 -1.7558 -1.0459  1.3005
 8804SOL    HW238046   2.934   2.483   9.692  0.4579 -0.3810 -0.0107
 8805SOL     OW38047   2.567   0.374   7.967  0.3834  0.6777 -0.5251
 8805SOL    HW138048   2.648   0.386   8.015  1.8895  1.3303 -3.2213
 8805SOL    HW238049   2.581   0.287   7.930  2.8436  0.6850  0.4016
 8806SOL     OW38050   3.688   3.006   9.593  0.3606  0.0269 -0.1297
 8806SOL    HW138051   3.625   2.935   9.582 -0.0871  0.4475 -0.3246
 8806SOL    HW238052   3.682   3.026   9.686 -4.4910 -0.0769 -0.4008
 8807SOL     OW38053   3.959   0.913  17.224 -0.6690 -0.5569  0.8377
 8807SOL    HW138054   3.950   0.888  17.316 -0.1969  1.9821  1.5685
 8807SOL    HW238055   4.044   0.876  17.197 -0.1953  1.0325  0.1351
 8808SOL     OW38056   4.068   3.327   9.525 -0.3621  0.1662 -0.8580
 8808SOL    HW138057   4.111   3.344   9.609 -0.9700  0.5256 -0.6174
 8808SOL    HW238058   4.118   3.375   9.459 -0.8713  1.4511 -0.3236
 8809SOL     OW38059   1.634   2.267   9.314  0.0688 -0.8843  0.3539
 8809SOL    HW138060   1.627   2.172   9.307  2.1301 -1.0515  0.4260
 8809SOL    HW238061   1.711   2.276   9.258  0.3989  0.4812  1.0217
 8810SOL     OW38062   3.261   0.939  16.165  0.5122  0.3925 -0.1880
 8810SOL    HW138063   3.172   0.904  16.160  0.7222 -0.5824  2.6089
 8810SOL    HW238064   3.313   0.858  16.163  1.1026  0.7743 -0.3097
 8811SOL     OW38065   3.688   4.303   1.972  0.4175  0.0975 -0.0235
 8811SOL    HW138066   3.604   4.322   2.014  0.3598  0.9996 -0.5398
 8811SOL    HW238067   3.677   4.355   1.892 -0.5462 -0.9523 -0.5702
 8812SOL     OW38068   1.251   1.583   0.267 -0.1353  0.0094  0.2705
 8812SOL    HW138069   1.191   1.623   0.205 -1.0610 -1.3253  0.3208
 8812SOL    HW238070   1.334   1.597   0.220  0.9673 -3.1445  1.2947
 8813SOL     OW38071   1.827   1.323   4.099  0.0974 -0.4166  0.2506
 8813SOL    HW138072   1.848   1.286   4.185 -1.3989 -0.7332  0.4807
 8813SOL    HW238073   1.806   1.239   4.058 -1.4804 -0.1643  0.5555
 8814SOL     OW38074   1.894   2.786   6.288 -0.1297 -0.1705  0.3881
 8814SOL    HW138075   1.866   2.770   6.198 -0.8236 -2.1369  0.9739
 8814SOL    HW238076   1.901   2.882   6.291 -5.0654  0.1937 -0.7306
 8815SOL     OW38077   4.261   2.322  11.407  0.1378  0.1736  0.7135
 8815SOL    HW138078   4.232   2.255  11.468  0.3573  0.0584  0.6919
 8815SOL    HW238079   4.184   2.377  11.396  0.3008 -0.2160 -2.4072
 8816SOL     OW38080   1.863   4.650   2.865 -0.2444  0.1398 -0.7968
 8816SOL    HW138081   1.926   4.675   2.797 -0.2947  3.5146  0.3936
 8816SOL    HW238082   1.789   4.643   2.805 -0.3029  0.2495 -0.7368
 8817SOL     OW38083   4.657   1.107   2.867 -0.1443  0.1203  0.0094
 8817SOL    HW138084   4.687   1.042   2.804 -0.4516  0.6111 -0.6563
 8817SOL    HW238085   0.000   1.151   2.900 -0.7409 -0.7701  2.6035
 8818SOL     OW38086   0.211   3.894   2.259 -0.0869 -0.4902 -0.6355
 8818SOL    HW138087   0.183   3.816   2.210  3.0242  0.0871 -3.2947
 8818SOL    HW238088   0.128   3.941   2.261  0.5499  0.5321  1.6723
 8819SOL     OW38089   2.687   1.090   1.421 -0.2481 -0.4511  0.2186
 8819SOL    HW138090   2.756   1.087   1.355  0.3217 -0.9603  0.8292
 8819SOL    HW238091   2.661   1.181   1.415 -0.9697 -0.5173  2.3437
 8820SOL     OW38092   2.272   1.702   3.595 -0.0171 -0.1647 -0.2453
 8820SOL    HW138093   2.366   1.709   3.608 -0.1052 -0.0288  0.3384
 8820SOL    HW238094   2.228   1.723   3.678  2.2022  0.9158  0.6635
 8821SOL     OW38095   0.685   0.128   9.630 -0.1850  1.0244  0.1107
 8821SOL    HW138096   0.733   0.047   9.614 -1.3973  0.0212  1.4890
 8821SOL    HW238097   0.629   0.124   9.553  2.9664 -0.3691 -2.0971
 8822SOL     OW38098   4.457   4.013   9.088  0.0982  0.7428  0.1232
 8822SOL    HW138099   4.394   4.024   9.160 -0.2353  3.0817 -0.5503
 8822SOL    HW238100   4.532   4.053   9.131  0.9312 -2.3423  1.5441
 8823SOL     OW38101   1.643   0.806  16.874 -0.6819  0.1921  0.3341
 8823SOL    HW138102   1.559   0.770  16.905 -0.7684  0.1065 -0.0067
 8823SOL    HW238103   1.682   0.734  16.824  1.3924  0.3813  1.6624
 8824SOL     OW38104   1.306   4.036  11.077  0.4703 -0.0949 -0.0691
 8824SOL    HW138105   1.263   3.981  11.143 -1.5166  0.7671 -0.6500
 8824SOL    HW238106   1.261   4.120  11.078  1.3856  0.3944 -0.7360
 8825SOL     OW38107   0.069   0.950   2.646 -0.2854 -0.4880  0.4068
 8825SOL    HW138108   0.050   0.863   2.680  1.4957 -1.4508 -1.0902
 8825SOL    HW238109   0.138   0.921   2.586 -0.6820  2.0837 -1.3337
 8826SOL     OW38110   0.629   1.993   2.707  0.6325  0.0175 -0.3941
 8826SOL    HW138111   0.617   1.916   2.763 -1.4503  0.1052 -0.7130
 8826SOL    HW238112   0.597   1.952   2.627  0.1934 -1.6281  0.6345
 8827SOL     OW38113   3.817   3.744  12.473  0.3068 -0.3103  0.0335
 8827SOL    HW138114   3.750   3.794  12.426 -0.3737  0.3771  1.7582
 8827SOL    HW238115   3.799   3.780  12.560 -0.7283 -0.1321 -0.2522
 8828SOL     OW38116   4.518   0.529   7.914 -0.5244 -0.4386  0.3191
 8828SOL    HW138117   4.544   0.621   7.904  0.5275 -0.7161  0.4751
 8828SOL    HW238118   4.570   0.506   7.991 -0.6114  1.0003  0.8221
 8829SOL     OW38119   0.682   2.605   6.419  0.0315  0.1563  0.4139
 8829SOL    HW138120   0.646   2.655   6.493 -1.6234  2.4386 -1.9318
 8829SOL    HW238121   0.775   2.627   6.420  0.0422  0.1856 -1.2024
 8830SOL     OW38122   3.480   2.234   6.801 -0.3995 -0.3643 -0.1091
 8830SOL    HW138123   3.483   2.318   6.847  2.6261 -0.4564 -0.1204
 8830SOL    HW238124   3.416   2.248   6.732  0.3114  0.2736 -0.6425
 8831SOL     OW38125   1.822   0.019  12.543 -0.0210  0.1141  0.4278
 8831SOL    HW138126   1.814   4.719  12.631 -0.8683 -0.7573  0.0008
 8831SOL    HW238127   1.796   4.681  12.488  0.2406 -0.5544  1.2019
 8832SOL     OW38128   4.006   4.002   6.971 -0.7574  0.7141  0.2282
 8832SOL    HW138129   4.077   3.952   6.930 -1.8297  1.8527 -3.0426
 8832SOL    HW238130   4.025   4.091   6.940  1.7429 -0.0211 -0.3596
 8833SOL     OW38131   3.894   3.502   1.922  0.0547 -0.2251  0.0554
 8833SOL    HW138132   3.844   3.518   1.841 -2.3358  0.3094  1.6219
 8833SOL    HW238133   3.961   3.568   1.906 -1.7750  1.8162  0.7673
 8834SOL     OW38134   1.894   1.873   0.247 -0.3235 -0.4375  0.2511
 8834SOL    HW138135   1.853   1.846   0.329  3.3422 -2.0291  1.5564
 8834SOL    HW238136   1.935   1.948   0.290 -0.6109  0.2277 -0.6060
 8835SOL     OW38137   0.222   2.948   6.767  0.3406 -0.5256 -0.2592
 8835SOL    HW138138   0.241   2.900   6.847 -1.2278  0.3352  0.6378
 8835SOL    HW238139   0.217   3.039   6.798 -1.4741 -0.1875 -1.4808
 8836SOL     OW38140   2.235   4.006  15.893 -0.2800 -0.1201 -0.5639
 8836SOL    HW138141   2.202   4.091  15.863  1.3656  1.9037  3.4898
 8836SOL    HW238142   2.236   3.953  15.813 -0.7804  1.3501 -1.5550
 8837SOL     OW38143   3.964   1.113   3.935  0.4023 -0.5457  0.2589
 8837SOL    HW138144   3.908   1.039   3.909  0.9924 -0.7743 -0.3718
 8837SOL    HW238145   3.967   1.099   4.030  1.3910 -0.2716  0.2676
 8838SOL     OW38146   2.707   2.729   1.947  0.0249  0.4027 -0.0114
 8838SOL    HW138147   2.621   2.685   1.948 -0.0000  0.4416 -0.5801
 8838SOL    HW238148   2.676   2.819   1.934  3.0737  0.8986 -3.6889
 8839SOL     OW38149   0.022   2.833  17.088  0.1651  0.5650 -0.4550
 8839SOL    HW138150   4.685   2.866  17.035 -0.7893  0.3442  0.7262
 8839SOL    HW238151   0.045   2.910  17.141  1.9728  0.7465 -1.4793
 8840SOL     OW38152   4.408   2.441   7.916 -0.1251 -0.2352  0.3267
 8840SOL    HW138153   4.446   2.431   7.829  1.8006  1.8832  0.9250
 8840SOL    HW238154   4.417   2.351   7.948 -1.5522 -0.2177  0.7662
 8841SOL     OW38155   2.981   4.103   6.896 -0.2934 -0.6331  0.1310
 8841SOL    HW138156   2.896   4.146   6.901  0.4624  1.1407 -2.3987
 8841SOL    HW238157   3.010   4.132   6.982 -0.2127 -2.1751  0.6331
 8842SOL     OW38158   1.838   4.678   2.133  0.0268 -0.0363 -0.0986
 8842SOL    HW138159   1.783   4.601   2.139  1.4564 -1.0550 -0.0025
 8842SOL    HW238160   1.878   4.674   2.045  3.2779 -2.2269  1.4640
 8843SOL     OW38161   3.222   3.402   3.225 -0.1222 -0.3222 -0.3595
 8843SOL    HW138162   3.314   3.406   3.201  0.1737 -0.2200  0.7988
 8843SOL    HW238163   3.182   3.375   3.142 -0.7573  1.8199 -0.7431
 8844SOL     OW38164   4.169   0.789  16.949  0.0816  0.1229 -0.1654
 8844SOL    HW138165   4.136   0.704  16.920 -1.8539  0.6850  0.3830
 8844SOL    HW238166   4.090   0.842  16.960 -0.0936 -0.4711  1.5065
 8845SOL     OW38167   1.803   3.582   8.102  0.7411  0.7793 -0.3554
 8845SOL    HW138168   1.780   3.667   8.139  0.2468 -0.1975  1.6192
 8845SOL    HW238169   1.717   3.547   8.078  0.0771  2.8397 -0.9692
 8846SOL     OW38170   2.775   0.987   3.654  1.1643 -0.1009 -0.2717
 8846SOL    HW138171   2.744   1.024   3.571 -2.3235  0.8937  1.4615
 8846SOL    HW238172   2.849   0.936   3.622  1.1766  0.1199 -0.6047
 8847SOL     OW38173   3.548   3.955   9.229  0.7420 -0.2053  0.1126
 8847SOL    HW138174   3.543   3.963   9.134  0.6941 -0.4193  0.0973
 8847SOL    HW238175   3.632   3.909   9.228  0.3982 -0.8172 -1.6088
 8848SOL     OW38176   2.238   2.523   6.877  0.2779 -0.0928  0.3868
 8848SOL    HW138177   2.263   2.592   6.816 -3.2850  0.6093 -0.2584
 8848SOL    HW238178   2.272   2.563   6.957  0.0521  1.9714 -0.5517
 8849SOL     OW38179   1.788   3.573   5.723 -0.4388  0.0086  0.1765
 8849SOL    HW138180   1.703   3.552   5.762 -1.6868  1.1658 -1.8760
 8849SOL    HW238181   1.806   3.656   5.767  2.9377  0.4881 -2.1398
 8850SOL     OW38182   2.224   3.513  16.784  0.3105 -0.1035 -0.1043
 8850SOL    HW138183   2.218   3.419  16.765  2.7627 -0.2625 -0.1183
 8850SOL    HW238184   2.316   3.534  16.769  0.7532 -4.2327 -3.1065
 8851SOL     OW38185   3.051   1.713   1.634  0.3128 -0.4556  0.0969
 8851SOL    HW138186   3.033   1.800   1.669  1.4971  0.4991 -1.6854
 8851SOL    HW238187   3.147   1.723   1.634  0.1446  1.1444 -1.0398
 8852SOL     OW38188   3.797   0.958  16.236  0.3786 -0.1036  0.2624
 8852SOL    HW138189   3.768   0.998  16.154 -0.8483 -0.1989  0.6459
 8852SOL    HW238190   3.810   1.040  16.284 -0.2409 -0.4289  0.9848
 8853SOL     OW38191   3.299   0.404   8.062  0.2525 -0.0698  0.4954
 8853SOL    HW138192   3.276   0.400   8.155  0.5819  0.6430  0.6118
 8853SOL    HW238193   3.351   0.324   8.053 -1.3680 -0.7228 -2.7981
 8854SOL     OW38194   3.576   0.062  12.594 -0.1545  0.4546 -0.1712
 8854SOL    HW138195   3.537   0.121  12.530 -1.5380  1.5031  1.6510
 8854SOL    HW238196   3.669   0.087  12.596 -0.1460  0.4874 -0.8714
 8855SOL     OW38197   4.082   2.015   7.900  0.8940  0.0936 -0.0096
 8855SOL    HW138198   3.995   2.053   7.912  0.3570 -0.7107 -1.3400
 8855SOL    HW238199   4.066   1.980   7.812  0.0481 -0.2519  0.2863
 8856SOL     OW38200   4.463   2.000   6.113 -0.1010 -0.4379  0.0493
 8856SOL    HW138201   4.430   1.978   6.026 -1.7798 -1.0773  0.8428
 8856SOL    HW238202   4.437   2.092   6.117  2.3277  0.1816  1.4404
 8857SOL     OW38203   1.323   0.416  14.444 -0.1795  0.1804  0.1290
 8857SOL    HW138204   1.347   0.503  14.411 -3.6509  1.1693  0.2403
 8857SOL    HW238205   1.230   0.441  14.446  0.6155  3.1112  0.6757
 8858SOL     OW38206   4.468   0.359   4.634 -0.7643  0.0327  0.5010
 8858SOL    HW138207   4.550   0.327   4.673  0.3923  0.9257 -1.1790
 8858SOL    HW238208   4.411   0.284   4.644 -0.8296  0.2686  1.9128
 8859SOL     OW38209   3.205   0.294   9.523  0.8362 -0.1829 -0.2805
 8859SOL    HW138210   3.240   0.207   9.543 -0.1393 -0.9544 -1.8666
 8859SOL    HW238211   3.113   0.275   9.501  0.6195 -1.9857  2.0678
 8860SOL     OW38212   0.993   3.215   4.006 -0.1423 -0.5003 -0.7147
 8860SOL    HW138213   1.008   3.187   3.916 -0.1817  1.0112 -1.1881
 8860SOL    HW238214   1.035   3.142   4.052 -3.9016 -1.7634  0.7153
 8861SOL     OW38215   1.273   0.848   5.791  0.1024  0.3369  0.0663
 8861SOL    HW138216   1.220   0.770   5.811  1.4062 -0.3526  0.8527
 8861SOL    HW238217   1.318   0.859   5.875 -0.6291 -0.0428  0.5075
 8862SOL     OW38218   2.908   2.090   6.219 -0.0570  0.2621  0.0000
 8862SOL    HW138219   2.841   2.025   6.243  1.4052 -1.1210  0.3531
 8862SOL    HW238220   2.981   2.043   6.178  0.2937  1.2451 -0.4852
 8863SOL     OW38221   0.679   0.001   4.864  0.8127 -0.1019 -0.8958
 8863SOL    HW138222   0.739   4.682   4.915 -1.2042 -3.5892 -2.2275
 8863SOL    HW238223   0.611   0.018   4.928  1.6336  2.2766 -0.6610
 8864SOL     OW38224   2.424   0.708   8.569  0.1725  0.0895 -0.4261
 8864SOL    HW138225   2.385   0.631   8.529 -2.1981  0.1816  1.6789
 8864SOL    HW238226   2.415   0.685   8.662 -1.7200  1.3332 -0.3263
 8865SOL     OW38227   0.718   0.133   3.974  0.2233  0.0681  0.8325
 8865SOL    HW138228   0.762   0.141   3.890 -1.7178 -0.3893 -0.2307
 8865SOL    HW238229   0.676   0.050   3.954  1.6928 -0.8539  1.5730
 8866SOL     OW38230   4.097   4.255   1.405 -0.9067 -0.7126 -0.0987
 8866SOL    HW138231   4.148   4.175   1.419 -0.4402 -0.3489  0.2840
 8866SOL    HW238232   4.108   4.297   1.490  0.9862 -1.2189 -0.1003
 8867SOL     OW38233   1.595   0.620  12.590 -0.6889  0.4514 -0.2459
 8867SOL    HW138234   1.621   0.546  12.536  0.8289 -0.5463  1.8729
 8867SOL    HW238235   1.677   0.660  12.616 -0.3086 -0.2738 -0.3370
 8868SOL     OW38236   0.419   1.241   8.408  0.3210  0.2427  0.2022
 8868SOL    HW138237   0.498   1.197   8.376 -1.0416 -1.7693 -0.4300
 8868SOL    HW238238   0.361   1.218   8.336  1.4698  0.0465 -0.6543
 8869SOL     OW38239   3.449   4.364   7.074 -0.1277 -0.4203  0.3053
 8869SOL    HW138240   3.373   4.332   7.123  0.1868 -3.7618 -1.3685
 8869SOL    HW238241   3.449   4.457   7.094 -0.4982 -0.0147 -1.5998
 8870SOL     OW38242   3.398   0.794   6.240 -0.1119 -0.1882  0.4697
 8870SOL    HW138243   3.468   0.766   6.298  2.1077  0.6055 -1.8456
 8870SOL    HW238244   3.398   0.724   6.175  3.2286 -0.2881  0.5845
 8871SOL     OW38245   2.993   1.316   6.214 -0.3556 -0.4579 -0.2081
 8871SOL    HW138246   2.903   1.313   6.184 -0.2762 -2.3366 -0.2366
 8871SOL    HW238247   3.017   1.409   6.203  0.2104 -0.3022  2.4140
 8872SOL     OW38248   3.084   1.873  16.184  0.3505 -0.6053  0.2777
 8872SOL    HW138249   3.104   1.798  16.128 -0.2100 -1.1888  0.8642
 8872SOL    HW238250   3.148   1.935  16.149 -1.6611  1.2861 -0.0625
 8873SOL     OW38251   0.754   4.356   8.259  0.3741  0.5156 -0.1234
 8873SOL    HW138252   0.666   4.329   8.285  1.2045 -3.4830 -1.4027
 8873SOL    HW238253   0.780   4.384   8.347  1.7140 -0.8822 -0.0571
 8874SOL     OW38254   0.313   0.817   9.402 -0.5579  0.3435  0.5871
 8874SOL    HW138255   0.291   0.832   9.494 -0.6090 -0.4968  0.7092
 8874SOL    HW238256   0.403   0.784   9.413 -0.3321  0.5906 -0.5568
 8875SOL     OW38257   0.058   1.135   4.391 -0.3844 -0.2581  0.6446
 8875SOL    HW138258   0.036   1.070   4.457 -1.5237 -1.5198 -0.9791
 8875SOL    HW238259   4.708   1.137   4.347 -0.1277 -2.2906  0.0519
 8876SOL     OW38260   2.583   0.391  13.127  0.7168  0.1179 -0.1460
 8876SOL    HW138261   2.605   0.323  13.063 -0.8478 -0.6093  0.0917
 8876SOL    HW238262   2.641   0.458  13.091 -1.8717  2.0034 -0.7773
 8877SOL     OW38263   3.943   2.377   0.405 -0.2504 -0.0786  0.2214
 8877SOL    HW138264   4.024   2.401   0.449 -0.5524  1.1040  0.1569
 8877SOL    HW238265   3.976   2.328   0.330  1.6304 -0.9720  1.6469
 8878SOL     OW38266   1.750   4.416   7.620  0.1423 -0.0490 -0.8575
 8878SOL    HW138267   1.684   4.454   7.679  0.2471  0.6714 -1.2097
 8878SOL    HW238268   1.705   4.441   7.540 -0.7689  0.2855 -0.2453
 8879SOL     OW38269   1.432   3.567   6.203 -0.0030  0.4181 -0.1962
 8879SOL    HW138270   1.478   3.616   6.271  2.4198 -0.6748 -1.0139
 8879SOL    HW238271   1.341   3.572   6.232 -0.0858  0.6496 -0.4996
 8880SOL     OW38272   3.089   3.187   7.450 -0.3418  0.2062  0.2297
 8880SOL    HW138273   3.033   3.248   7.402  0.3067  1.4691  1.1041
 8880SOL    HW238274   3.127   3.126   7.387  0.4359 -0.6758  1.5388
 8881SOL     OW38275   2.358   3.470   2.689 -0.3199  0.0181 -0.0711
 8881SOL    HW138276   2.446   3.499   2.713 -0.8046 -1.0403  3.0846
 8881SOL    HW238277   2.346   3.505   2.601 -0.7982 -1.0663 -0.4450
 8882SOL     OW38278   1.882   0.747   9.896 -0.4035  0.4070 -0.5567
 8882SOL    HW138279   1.934   0.784   9.825  1.2171 -0.2028  0.3082
 8882SOL    HW238280   1.814   0.699   9.849 -0.8498  0.1614  0.3325
 8883SOL     OW38281   3.948   0.225   5.378  0.1159 -0.1151 -0.1446
 8883SOL    HW138282   3.927   0.201   5.468  0.3872  0.2320  0.0090
 8883SOL    HW238283   3.866   0.227   5.329  1.0674  2.5375 -1.6018
 8884SOL     OW38284   2.394   0.609  11.908  0.1286 -0.4980 -0.4861
 8884SOL    HW138285   2.305   0.601  11.941  0.2094  1.3386  0.2192
 8884SOL    HW238286   2.380   0.604  11.813 -4.3235 -1.1082  0.2078
 8885SOL     OW38287   0.298   1.381  15.746  0.7508  0.2396 -0.1393
 8885SOL    HW138288   0.254   1.413  15.825 -0.8075 -1.0438 -0.4790
 8885SOL    HW238289   0.221   1.396  15.691 -1.1051 -0.1627  2.3205
 8886SOL     OW38290   2.710   4.410   2.999 -0.2268  0.1668  0.7134
 8886SOL    HW138291   2.702   4.336   2.940  1.4350  0.6260 -0.0876
 8886SOL    HW238292   2.753   4.382   3.080 -2.1147 -1.0326  1.3197
 8887SOL     OW38293   2.283   1.063   4.509  0.2280 -0.1882  0.3125
 8887SOL    HW138294   2.369   1.021   4.496  0.5043  0.2594  0.6965
 8887SOL    HW238295   2.314   1.145   4.548 -0.4806  0.6546 -0.8907
 8888SOL     OW38296   4.343   1.967   7.138  0.5754 -0.0048 -0.2466
 8888SOL    HW138297   4.263   1.914   7.133  0.7665 -0.3937  0.8777
 8888SOL    HW238298   4.366   1.975   7.231 -0.6534 -0.7210  0.1264
 8889SOL     OW38299   1.392   1.349  10.520 -0.1268  0.0711 -0.2465
 8889SOL    HW138300   1.310   1.342  10.473 -0.3000  3.2778 -0.4220
 8889SOL    HW238301   1.363   1.379  10.606  1.4045 -0.7812  0.5800
 8890SOL     OW38302   2.330   2.238   9.047  0.9094 -0.3302  0.2239
 8890SOL    HW138303   2.274   2.195   9.112  1.8573 -1.5239  0.2367
 8890SOL    HW238304   2.410   2.187   9.048  2.3728  1.9633 -0.1265
 8891SOL     OW38305   1.912   2.912  16.856  0.4946 -0.8809  0.2886
 8891SOL    HW138306   1.850   2.842  16.836 -0.3187 -0.3147  0.7678
 8891SOL    HW238307   1.899   2.914  16.951 -2.3718 -2.9649 -0.0440
 8892SOL     OW38308   3.328   0.010   9.631  0.5925 -0.2515 -0.9317
 8892SOL    HW138309   3.367   4.674   9.681 -1.5005  0.0223  1.1348
 8892SOL    HW238310   3.405   0.047   9.589 -0.0242  1.2918 -0.7013
 8893SOL     OW38311   0.163   4.527   2.157  0.4056  0.3910  0.2491
 8893SOL    HW138312   0.208   4.594   2.104 -1.8492  0.9222 -1.0215
 8893SOL    HW238313   0.205   4.537   2.242  1.2149 -1.0506  0.0078
 8894SOL     OW38314   0.171   1.214   0.919  0.5264  0.1734 -0.3946
 8894SOL    HW138315   0.208   1.260   0.844  0.7709 -0.6284 -0.7743
 8894SOL    HW238316   0.237   1.146   0.933 -1.5555 -1.5519  0.9951
 8895SOL     OW38317   0.732   0.914   9.779 -0.0036  0.6551 -0.5239
 8895SOL    HW138318   0.666   0.982   9.794 -2.1013 -1.0739 -1.9338
 8895SOL    HW238319   0.696   0.849   9.838 -1.7673  2.6938  0.6385
 8896SOL     OW38320   2.434   0.781   7.630  0.0670  0.5961 -0.7651
 8896SOL    HW138321   2.351   0.738   7.607  0.6724 -1.5780  1.1063
 8896SOL    HW238322   2.436   0.766   7.724  0.9074 -0.0637 -0.8965
 8897SOL     OW38323   3.455   3.705   8.966 -0.6053  0.5278  0.4641
 8897SOL    HW138324   3.456   3.798   8.989  3.2100  0.2573  1.2709
 8897SOL    HW238325   3.547   3.679   8.964 -0.9760 -0.6950 -0.6262
 8898SOL     OW38326   0.206   2.036   2.234  0.2898  0.3395  0.0921
 8898SOL    HW138327   0.273   1.970   2.217  0.0632  0.0541  0.3088
 8898SOL    HW238328   0.260   2.113   2.251  0.1462 -0.3491  3.6909
 8899SOL     OW38329   0.279   2.005   2.522  0.6958  0.0551  0.2790
 8899SOL    HW138330   0.226   2.012   2.442 -0.4621 -1.4215  0.9228
 8899SOL    HW238331   0.230   2.068   2.574 -0.4418 -0.7668  0.2167
 8900SOL     OW38332   0.453   0.917   6.939  0.0593  0.9165  0.5360
 8900SOL    HW138333   0.447   0.847   7.004  1.7047  0.3748  0.0885
 8900SOL    HW238334   0.544   0.913   6.912 -0.2384  0.3349 -0.4037
 8901SOL     OW38335   2.026   2.183  16.845 -0.0414  0.0387  0.0921
 8901SOL    HW138336   1.942   2.225  16.823  0.5778  1.8931  1.2649
 8901SOL    HW238337   2.019   2.092  16.815  1.1238 -0.7348  2.2350
 8902SOL     OW38338   3.728   4.086   7.376 -0.0048  0.1217  0.3345
 8902SOL    HW138339   3.713   4.168   7.423 -2.8133  0.7613 -1.6324
 8902SOL    HW238340   3.655   4.082   7.313  1.7074 -2.1534 -1.4694
 8903SOL     OW38341   3.806   1.217   9.491  0.0527  0.3795 -0.5303
 8903SOL    HW138342   3.735   1.187   9.547  0.4508  1.5908  0.6063
 8903SOL    HW238343   3.822   1.142   9.433 -0.4334 -0.0565 -0.0925
 8904SOL     OW38344   4.082   0.142   6.458 -0.2410 -0.4363  0.2046
 8904SOL    HW138345   4.091   0.060   6.410  2.0037  0.8379 -1.5622
 8904SOL    HW238346   4.015   0.191   6.411 -1.3175 -0.8238  1.3383
 8905SOL     OW38347   2.500   4.262   4.871 -0.3236 -0.4729  0.1939
 8905SOL    HW138348   2.450   4.343   4.886  1.3696  0.2416  1.9188
 8905SOL    HW238349   2.474   4.244   4.781  2.0099  0.9479 -0.7414
 8906SOL     OW38350   2.021   3.140  12.327 -0.1899  0.2533  0.5067
 8906SOL    HW138351   2.054   3.226  12.299  0.2159  0.1230  0.5769
 8906SOL    HW238352   1.966   3.123  12.251 -1.0990 -0.7842  1.3977
 8907SOL     OW38353   0.685   3.045  16.575 -0.4334  0.5369  0.2622
 8907SOL    HW138354   0.647   2.963  16.543  0.2714 -0.3112  1.6312
 8907SOL    HW238355   0.774   3.014  16.587 -1.0365 -1.3978 -0.3278
 8908SOL     OW38356   4.190   1.873   4.496  0.6928  0.4751 -0.3592
 8908SOL    HW138357   4.151   1.921   4.422  0.3152 -1.4798 -1.4190
 8908SOL    HW238358   4.160   1.783   4.481  0.2425  0.9252 -2.2650
 8909SOL     OW38359   0.672   2.512   1.613 -0.1764 -0.1383  0.1745
 8909SOL    HW138360   0.674   2.554   1.700 -1.5972  1.2731 -0.4598
 8909SOL    HW238361   0.612   2.442   1.638  0.8157 -1.0996 -0.2053
 8910SOL     OW38362   2.723   0.958  12.020  0.7509  0.3600  0.0356
 8910SOL    HW138363   2.781   0.898  12.067 -1.2546 -0.2581  1.7175
 8910SOL    HW238364   2.759   0.940  11.933 -1.2969  0.6647 -0.8651
 8911SOL     OW38365   1.456   3.524   0.751  0.2934 -0.4997  0.4476
 8911SOL    HW138366   1.524   3.589   0.769  1.7257 -1.7089 -0.5755
 8911SOL    HW238367   1.447   3.536   0.657  2.0735 -0.9311  0.2174
 8912SOL     OW38368   2.489   3.768  12.106  0.4099 -0.8302 -0.1043
 8912SOL    HW138369   2.408   3.798  12.066  1.0794 -0.3408 -1.1069
 8912SOL    HW238370   2.505   3.698  12.043 -2.3369  0.9214 -2.7881
 8913SOL     OW38371   3.512   1.093   0.496  0.5487  0.2425  0.7228
 8913SOL    HW138372   3.468   1.126   0.574  0.6616 -1.1015  1.3526
 8913SOL    HW238373   3.567   1.031   0.543  0.5239 -0.8525 -0.6924
 8914SOL     OW38374   3.969   0.006   7.509  0.3116  0.2287  0.4861
 8914SOL    HW138375   3.945   0.095   7.481 -0.0248 -0.0157  0.0039
 8914SOL    HW238376   4.048   4.720   7.458 -0.3217  0.2096 -0.4781
 8915SOL     OW38377   0.357   3.008   5.654 -0.0714 -0.1300 -0.8981
 8915SOL    HW138378   0.368   3.007   5.749 -0.7861 -0.0759 -0.8196
 8915SOL    HW238379   0.440   3.052   5.633 -0.1279  0.2420 -0.3464
 8916SOL     OW38380   2.273   0.617  13.484 -0.3025  0.6004  0.1873
 8916SOL    HW138381   2.360   0.575  13.487  0.3467  2.0042  0.8806
 8916SOL    HW238382   2.220   0.545  13.449  0.4140 -0.3599  1.0537
 8917SOL     OW38383   0.076   0.925   7.473  0.0771 -0.3064  0.0617
 8917SOL    HW138384   0.105   0.836   7.455 -0.9194  0.0959 -3.4600
 8917SOL    HW238385   4.717   0.909   7.476  0.2984 -1.5472  0.2841
 8918SOL     OW38386   3.847   3.100   7.771 -0.3022 -0.3328 -0.4659
 8918SOL    HW138387   3.903   3.091   7.849  0.7083  0.9928 -1.0431
 8918SOL    HW238388   3.882   3.032   7.713  0.8746 -1.0964  1.1405
 8919SOL     OW38389   1.395   1.225   7.020 -0.3648 -0.1870  0.7247
 8919SOL    HW138390   1.312   1.235   7.067 -0.4677  0.5283  0.4001
 8919SOL    HW238391   1.368   1.237   6.929  2.8905  0.2330 -0.1880
 8920SOL     OW38392   2.335   4.192   5.612  0.0905 -0.2332  0.4445
 8920SOL    HW138393   2.350   4.204   5.706 -2.4445 -0.5159  0.8821
 8920SOL    HW238394   2.399   4.122   5.601 -0.3146 -0.6869  0.9631
 8921SOL     OW38395   4.497   3.391   1.260  0.4627  0.0957 -0.3596
 8921SOL    HW138396   4.492   3.306   1.304 -0.1059  0.6463  0.6666
 8921SOL    HW238397   4.456   3.370   1.176  0.3993  2.5958 -0.9637
 8922SOL     OW38398   3.413   0.665  16.132  0.2240  0.6695  0.2434
 8922SOL    HW138399   3.378   0.603  16.196  0.4960 -1.8549 -2.0407
 8922SOL    HW238400   3.495   0.691  16.173 -0.4129 -0.1798  2.0472
 8923SOL     OW38401   0.750   0.552   6.457  0.4063  0.5096  0.2989
 8923SOL    HW138402   0.747   0.555   6.552 -0.3142  0.4206  0.2815
 8923SOL    HW238403   0.727   0.643   6.438  2.8196  0.8741 -0.9449
 8924SOL     OW38404   1.667   0.714  17.650 -0.4278  0.2816 -0.7519
 8924SOL    HW138405   1.669   0.799  17.695  0.6896  0.6241 -1.4556
 8924SOL    HW238406   1.578   0.725  17.617  0.1890  4.6578 -1.0338
 8925SOL     OW38407   0.725   1.034   4.033  0.2059  0.1766 -0.0032
 8925SOL    HW138408   0.803   1.050   3.981  1.4803 -0.3766  1.7563
 8925SOL    HW238409   0.695   1.124   4.046  1.3374  0.7488 -1.4012
 8926SOL     OW38410   2.463   4.212  15.745 -0.0629 -0.7635  0.2154
 8926SOL    HW138411   2.516   4.278  15.790  0.0444 -0.7810  0.1135
 8926SOL    HW238412   2.391   4.261  15.706 -0.8440 -1.2767  0.9809
 8927SOL     OW38413   0.104   2.909   5.353  0.5132  0.1927  0.2019
 8927SOL    HW138414   0.079   2.840   5.415 -1.0457  0.0436 -0.6062
 8927SOL    HW238415   0.026   2.964   5.346 -1.9167 -3.2568  0.1971
 8928SOL     OW38416   0.555   1.128   4.852  0.6404 -0.3889  0.4338
 8928SOL    HW138417   0.600   1.138   4.768 -1.5454  0.6984 -0.6094
 8928SOL    HW238418   0.621   1.130   4.921  2.1440 -0.2600 -1.0096
 8929SOL     OW38419   2.805   2.637  17.488 -0.4079  0.3066 -0.7046
 8929SOL    HW138420   2.811   2.659  17.580  1.5613 -1.4901 -0.4031
 8929SOL    HW238421   2.716   2.671  17.474 -0.2143  0.1299 -2.4083
 8930SOL     OW38422   4.421   4.619   8.286 -0.3752  0.1629 -0.3609
 8930SOL    HW138423   4.358   4.680   8.324  0.6429 -0.4815  2.3582
 8930SOL    HW238424   4.399   4.642   8.195 -0.3670 -0.9489 -0.6482
 8931SOL     OW38425   1.192   0.343   4.008  0.4340 -0.3666  1.0249
 8931SOL    HW138426   1.250   0.277   4.047  0.1375 -0.3718  1.4589
 8931SOL    HW238427   1.138   0.287   3.953  1.6541  1.3356 -1.9096
 8932SOL     OW38428   1.586   1.685   3.771  0.0965  0.0493 -0.3338
 8932SOL    HW138429   1.613   1.610   3.825 -0.6233  0.7354  0.9738
 8932SOL    HW238430   1.670   1.715   3.736  0.8230 -0.9900  0.5244
 8933SOL     OW38431   4.230   1.764   5.392  0.0572 -0.0575 -0.2080
 8933SOL    HW138432   4.274   1.849   5.395  0.4701 -0.3837  2.7914
 8933SOL    HW238433   4.298   1.698   5.382  0.8680  0.7951 -0.3631
 8934SOL     OW38434   2.430   0.371   8.968  0.5622  0.5024 -0.3510
 8934SOL    HW138435   2.462   0.419   9.044 -0.6382 -1.5570  1.4705
 8934SOL    HW238436   2.394   0.444   8.917  0.8192  1.3599  0.6916
 8935SOL     OW38437   1.352   3.686  12.153  0.0007 -0.2554 -0.5273
 8935SOL    HW138438   1.282   3.639  12.108  0.1247 -0.0805 -0.9062
 8935SOL    HW238439   1.325   3.774  12.127  1.9075  0.5233  0.1252
 8936SOL     OW38440   4.568   3.471  11.702 -0.1217  0.5125 -0.0386
 8936SOL    HW138441   4.529   3.538  11.757  1.3553  0.7137  0.7490
 8936SOL    HW238442   4.596   3.402  11.762 -1.6241 -1.0339 -1.1308
 8937SOL     OW38443   0.002   2.057  11.588  0.5218 -0.6052  0.1898
 8937SOL    HW138444   0.026   1.965  11.600  1.8568 -0.1774  0.8385
 8937SOL    HW238445   0.088   2.098  11.594  0.7487 -0.8346 -1.4778
 8938SOL     OW38446   0.734   3.730   0.784 -0.6804 -0.1773  0.1242
 8938SOL    HW138447   0.776   3.797   0.730  0.4847 -0.8914  0.1570
 8938SOL    HW238448   0.730   3.662   0.718 -0.6635 -1.7744  1.7730
 8939SOL     OW38449   0.398   4.092  14.633  0.4025 -0.5255  0.6666
 8939SOL    HW138450   0.382   4.001  14.609 -1.5717  0.6370 -2.4045
 8939SOL    HW238451   0.413   4.080  14.727 -1.8048 -1.3369  0.9201
 8940SOL     OW38452   0.926   0.622   7.470 -0.1852 -0.3863  0.1553
 8940SOL    HW138453   0.911   0.647   7.379 -1.0732 -0.6138  0.2387
 8940SOL    HW238454   0.981   0.545   7.456 -0.1968  0.1887 -3.0458
 8941SOL     OW38455   0.347   2.626   4.430 -0.5526 -0.5455 -0.2583
 8941SOL    HW138456   0.266   2.647   4.476  0.6122 -0.4622  1.7345
 8941SOL    HW238457   0.361   2.697   4.367 -0.0472 -0.2657  0.1674
 8942SOL     OW38458   4.493   1.542   7.746  0.3409  0.0745  0.6992
 8942SOL    HW138459   4.543   1.531   7.665  0.5665 -3.3377  1.2834
 8942SOL    HW238460   4.414   1.495   7.719  0.3171  1.0644 -0.9365
 8943SOL     OW38461   4.162   4.309   2.351  0.5139  0.0864 -0.2811
 8943SOL    HW138462   4.202   4.224   2.338  2.4336  1.1611 -1.4411
 8943SOL    HW238463   4.228   4.378   2.347  0.3464  0.3927  2.3212
 8944SOL     OW38464   2.281   4.478   3.252  0.6764 -0.1098  0.1091
 8944SOL    HW138465   2.293   4.545   3.185 -2.4070  2.6031  2.2618
 8944SOL    HW238466   2.353   4.422   3.222  1.6657  0.7287  0.8972
 8945SOL     OW38467   0.817   2.292   1.956  0.0645 -0.3204  0.1178
 8945SOL    HW138468   0.819   2.263   2.048 -1.4067 -1.1040 -0.1013
 8945SOL    HW238469   0.850   2.382   1.964 -0.6865 -0.0481  0.1797
 8946SOL     OW38470   3.919   2.565   0.197  0.1066  0.0398 -0.0473
 8946SOL    HW138471   3.892   2.474   0.186 -1.7100  0.6535 -0.7595
 8946SOL    HW238472   3.942   2.561   0.290 -0.4631 -1.1487  0.0424
 8947SOL     OW38473   1.970   4.376  14.407  0.6750 -0.2168  0.3433
 8947SOL    HW138474   2.015   4.404  14.327  1.7211 -1.5392  0.4668
 8947SOL    HW238475   2.028   4.309  14.442  1.0955 -0.3722 -0.6450
 8948SOL     OW38476   0.234   0.107   8.827 -0.3711 -0.6779 -0.1015
 8948SOL    HW138477   0.176   0.170   8.870 -0.1745  0.5358 -1.6039
 8948SOL    HW238478   0.269   0.153   8.751  0.7454 -2.6069 -0.7658
 8949SOL     OW38479   3.857   2.205  15.815 -0.1010  0.2248 -0.0024
 8949SOL    HW138480   3.894   2.156  15.888 -0.6021  0.6692  0.5476
 8949SOL    HW238481   3.832   2.280  15.869  0.5789  0.8655 -0.5842
 8950SOL     OW38482   0.534   1.034   1.668  0.0734  0.2112  0.0912
 8950SOL    HW138483   0.556   1.100   1.601  1.7350  1.2736  1.6687
 8950SOL    HW238484   0.589   1.065   1.741 -0.6003  1.8356 -0.0931
 8951SOL     OW38485   4.475   0.708  15.856 -0.1524  0.1356  0.0920
 8951SOL    HW138486   4.489   0.796  15.890  0.4312  0.5671 -1.2507
 8951SOL    HW238487   4.527   0.643  15.903  0.7827 -0.5525 -1.8565
 8952SOL     OW38488   4.125   3.110   6.606 -0.2904  0.8447  0.6110
 8952SOL    HW138489   4.168   3.092   6.522  1.5804  2.1686  1.2928
 8952SOL    HW238490   4.177   3.189   6.618  1.7947 -0.3312 -0.5943
 8953SOL     OW38491   1.432   0.607   7.741 -0.4542 -0.5506 -0.2163
 8953SOL    HW138492   1.490   0.681   7.759 -1.2244  0.2701 -1.0910
 8953SOL    HW238493   1.373   0.613   7.816  1.6862 -1.3524  1.5056
 8954SOL     OW38494   0.987   2.529   2.481  0.1683  0.2735 -0.1826
 8954SOL    HW138495   0.936   2.545   2.560  0.8340 -1.1641  0.5595
 8954SOL    HW238496   1.077   2.556   2.502  1.2969 -1.8608 -2.1833
 8955SOL     OW38497   3.920   3.984  17.259  0.1281  0.0776  0.0159
 8955SOL    HW138498   3.856   4.051  17.284 -1.5565 -2.0663  1.4564
 8955SOL    HW238499   3.968   4.028  17.188  0.8292 -2.1600 -0.8906
 8956SOL     OW38500   2.025   0.725   8.106  0.3811 -0.1071  0.0526
 8956SOL    HW138501   2.099   0.753   8.052 -0.7298 -0.3146 -1.6045
 8956SOL    HW238502   2.069   0.699   8.187  0.7126 -1.0045 -0.4133
 8957SOL     OW38503   2.091   2.920   6.043 -0.1683 -0.1523  0.2778
 8957SOL    HW138504   2.061   2.831   6.027 -0.4599 -0.3064  1.7002
 8957SOL    HW238505   2.017   2.960   5.997 -0.7099  0.0559  1.3301
 8958SOL     OW38506   1.095   3.304   2.273 -0.3005 -0.1619  0.7945
 8958SOL    HW138507   1.048   3.255   2.341 -0.7146 -1.7091 -0.6197
 8958SOL    HW238508   1.031   3.363   2.234  0.4480  0.6796  0.8031
 8959SOL     OW38509   0.300   1.803   8.540 -0.5100 -0.4253 -0.4578
 8959SOL    HW138510   0.316   1.800   8.634 -0.5880  0.0348 -0.4291
 8959SOL    HW238511   0.281   1.895   8.521 -1.0291 -1.0522 -3.0168
 8960SOL     OW38512   2.981   0.044   3.672 -0.0456 -0.3977 -0.0976
 8960SOL    HW138513   2.965   0.105   3.599 -0.2755 -1.5772 -1.0285
 8960SOL    HW238514   2.918   0.079   3.735 -1.5256 -2.2040 -0.5686
 8961SOL     OW38515   0.520   2.002   4.478 -0.4592  0.4589 -0.2693
 8961SOL    HW138516   0.609   2.034   4.491 -0.1283 -1.1410  1.4054
 8961SOL    HW238517   0.497   1.976   4.567 -2.0056 -0.0261 -0.7988
 8962SOL     OW38518   4.493   2.661   8.445  0.5787 -0.1953  0.2153
 8962SOL    HW138519   4.483   2.752   8.419  0.8731 -0.3199 -0.3305
 8962SOL    HW238520   4.446   2.617   8.374 -1.0498  1.4188  0.2905
 8963SOL     OW38521   3.379   2.602   4.618 -0.0961  0.1183 -0.1393
 8963SOL    HW138522   3.354   2.548   4.543  0.1210 -0.9284  0.5314
 8963SOL    HW238523   3.461   2.559   4.643  0.3925  1.4443  0.5344
 8964SOL     OW38524   3.273   4.348   0.059 -0.0088  0.1078 -0.3260
 8964SOL    HW138525   3.363   4.377   0.068 -0.4426  1.6983 -1.1341
 8964SOL    HW238526   3.237   4.362   0.146  1.4782  2.1264 -0.0467
 8965SOL     OW38527   1.758   3.034   8.204 -0.0709  0.0974  0.3703
 8965SOL    HW138528   1.733   3.038   8.296  1.1073 -2.6851  0.7973
 8965SOL    HW238529   1.704   3.100   8.159  0.3352 -0.2088 -0.5582
 8966SOL     OW38530   3.942   4.515   6.598 -0.0399  0.7878  0.0501
 8966SOL    HW138531   3.881   4.445   6.622 -0.9666  1.1323 -1.2452
 8966SOL    HW238532   4.025   4.469   6.606 -2.0299 -2.6958  0.4824
 8967SOL     OW38533   0.659   4.015  17.371  0.0570 -0.4776  0.0154
 8967SOL    HW138534   0.592   4.004  17.438 -0.3199  1.8760 -0.0020
 8967SOL    HW238535   0.650   3.935  17.318  0.5115  0.6577 -1.7939
 8968SOL     OW38536   0.813   2.921   4.231 -0.5329 -0.1339 -0.3423
 8968SOL    HW138537   0.897   2.938   4.188  0.0121  0.4858  0.9721
 8968SOL    HW238538   0.771   3.006   4.236  0.5396  0.3804 -0.1716
 8969SOL     OW38539   2.331   4.608   8.872 -0.2849  0.3440  0.4722
 8969SOL    HW138540   2.269   4.662   8.921 -1.6967  0.9216 -1.9495
 8969SOL    HW238541   2.344   4.666   8.797 -0.4231  1.8595  1.6173
 8970SOL     OW38542   4.704   0.765   9.470 -0.1106 -0.6150  0.6735
 8970SOL    HW138543   4.660   0.850   9.464  2.2919  0.7629  2.9400
 8970SOL    HW238544   0.059   0.787   9.450 -0.5010 -0.2269 -0.6505
 8971SOL     OW38545   3.615   1.691   6.088  0.1501  0.2435 -0.1353
 8971SOL    HW138546   3.646   1.772   6.128  1.4514 -1.1349  1.6755
 8971SOL    HW238547   3.584   1.633   6.158 -0.1919  0.4293 -0.1287
 8972SOL     OW38548   1.207   3.586   6.406  0.1851  0.0641 -0.1649
 8972SOL    HW138549   1.257   3.562   6.484 -0.6692 -1.4940 -0.0992
 8972SOL    HW238550   1.140   3.519   6.415  1.2434 -0.9321  0.2402
 8973SOL     OW38551   1.315   2.750   2.053  0.2181  0.1039  0.1593
 8973SOL    HW138552   1.332   2.730   2.145 -0.6885 -3.0229 -0.3801
 8973SOL    HW238553   1.226   2.786   2.061  0.0402  0.3796 -2.9321
 8974SOL     OW38554   3.299   2.360   7.601 -0.4217  0.0618  0.5248
 8974SOL    HW138555   3.360   2.399   7.538 -0.7989  0.5287  0.4473
 8974SOL    HW238556   3.229   2.419   7.573  0.4188  1.2076  0.8361
 8975SOL     OW38557   2.229   2.108  13.595  0.6244 -0.5726  0.3086
 8975SOL    HW138558   2.201   2.074  13.680 -1.3437  2.0414  0.6798
 8975SOL    HW238559   2.155   2.161  13.566  1.6621  2.4295  3.1840
 8976SOL     OW38560   0.424   3.484   3.134  0.1499 -0.4524  0.3511
 8976SOL    HW138561   0.408   3.418   3.201  0.8257  0.6457  1.5922
 8976SOL    HW238562   0.400   3.441   3.052 -1.5725 -0.2163  0.7257
 8977SOL     OW38563   3.852   1.609   2.828 -0.2703 -0.4826  0.8503
 8977SOL    HW138564   3.844   1.522   2.789  2.4379 -0.7856  0.9736
 8977SOL    HW238565   3.822   1.587   2.916  0.5423  2.5897  1.8797
 8978SOL     OW38566   4.583   2.096  12.356  0.1284  0.0419 -0.2573
 8978SOL    HW138567   4.526   2.164  12.321  0.3413  0.1904 -0.3139
 8978SOL    HW238568   4.600   2.035  12.284  0.6428 -0.1714  0.0433
 8979SOL     OW38569   4.030   1.876   5.590  0.3514 -0.0974  0.4447
 8979SOL    HW138570   4.078   1.795   5.577  0.7928  0.2890 -0.3125
 8979SOL    HW238571   3.982   1.875   5.507 -0.8563 -2.6395  1.1716
 8980SOL     OW38572   1.929   3.250   5.356  0.6671 -1.0148 -0.3743
 8980SOL    HW138573   1.881   3.168   5.366  1.9265 -1.8261 -0.9493
 8980SOL    HW238574   1.993   3.220   5.291  1.1493 -1.9516  0.5163
 8981SOL     OW38575   4.173   1.040  12.354 -0.2094 -0.3062 -0.0164
 8981SOL    HW138576   4.176   1.013  12.446 -2.5547 -2.7345 -0.6626
 8981SOL    HW238577   4.246   0.986  12.325  0.5856 -0.0183  1.4223
 8982SOL     OW38578   3.729   2.942   6.584 -0.0376  0.2961  0.0726
 8982SOL    HW138579   3.660   2.898   6.633  1.2190 -0.2679  1.3705
 8982SOL    HW238580   3.770   2.866   6.541 -2.6350 -1.5998  0.9600
 8983SOL     OW38581   2.536   0.115   7.870 -0.0370 -0.2509 -1.1118
 8983SOL    HW138582   2.570   0.040   7.919 -0.0831  1.6286  1.8227
 8983SOL    HW238583   2.442   0.109   7.882  0.1186  3.0885  1.9987
 8984SOL     OW38584   2.564   2.297   8.584 -0.0451 -0.0731  0.0839
 8984SOL    HW138585   2.599   2.343   8.660  2.6552  1.1377 -1.9262
 8984SOL    HW238586   2.619   2.219   8.584 -0.7344 -0.5458 -2.6234
 8985SOL     OW38587   4.138   3.508   4.636  0.1562  0.6977 -0.3128
 8985SOL    HW138588   4.201   3.454   4.589  0.8197 -0.0746  1.4798
 8985SOL    HW238589   4.086   3.537   4.561  2.7751 -1.0501 -2.7860
 8986SOL     OW38590   1.263   2.142   5.605  0.2535  0.0958 -0.4992
 8986SOL    HW138591   1.213   2.132   5.524  2.4186 -1.6244 -1.6014
 8986SOL    HW238592   1.354   2.136   5.578  0.6311  4.1481 -0.1157
 8987SOL     OW38593   1.886   0.777   6.504 -0.2181 -0.4824  0.6925
 8987SOL    HW138594   1.980   0.797   6.502 -0.0776 -1.2199 -0.2359
 8987SOL    HW238595   1.887   0.706   6.440  1.2293  0.5245 -0.4154
 8988SOL     OW38596   1.115   1.264   0.803  0.3984 -0.5730  0.4284
 8988SOL    HW138597   1.114   1.358   0.816  2.8124 -0.2125 -1.9183
 8988SOL    HW238598   1.199   1.258   0.756  1.0471  0.2699  1.4866
 8989SOL     OW38599   2.306   3.655  10.884  0.1696  0.3287  0.1327
 8989SOL    HW138600   2.387   3.605  10.874 -0.9236 -0.8721 -2.4887
 8989SOL    HW238601   2.307   3.690  10.974  1.0400 -2.2143  1.1054
 8990SOL     OW38602   0.664   0.086  11.870 -0.5595 -0.1655  0.3341
 8990SOL    HW138603   0.667   0.158  11.933 -1.7909  1.3574 -1.3519
 8990SOL    HW238604   0.589   0.102  11.813 -0.6174 -1.0852  0.1658
 8991SOL     OW38605   4.371   3.169   7.044 -0.0706  0.1952  0.3000
 8991SOL    HW138606   4.389   3.078   7.021 -1.0888  0.0167  0.2080
 8991SOL    HW238607   4.459   3.196   7.070  0.5802 -0.1004 -1.6188
 8992SOL     OW38608   0.326   2.894  14.934  0.1046 -0.7243  0.0217
 8992SOL    HW138609   0.251   2.888  14.875  1.4809 -1.3132 -1.6564
 8992SOL    HW238610   0.291   2.968  14.985  0.5588  0.6657 -1.6900
 8993SOL     OW38611   0.115   3.175  11.680  0.0421  0.6107 -0.3703
 8993SOL    HW138612   0.125   3.080  11.691 -0.2816  0.2008 -3.5254
 8993SOL    HW238613   0.140   3.208  11.766  0.3805 -0.7784  0.0702
 8994SOL     OW38614   3.090   2.860   2.371 -0.2864  0.1101 -0.5098
 8994SOL    HW138615   3.108   2.881   2.462 -0.6458  0.0409 -0.4224
 8994SOL    HW238616   3.038   2.781   2.354 -1.3367  0.0217  3.2746
 8995SOL     OW38617   2.003   0.192   8.836 -0.3350  0.2888  0.0105
 8995SOL    HW138618   1.981   0.213   8.745 -0.2520 -2.1522 -0.5689
 8995SOL    HW238619   2.013   0.283   8.864 -1.1208 -0.0595  1.4189
 8996SOL     OW38620   3.957   2.122   1.525  0.0182 -0.7345 -0.3507
 8996SOL    HW138621   4.027   2.164   1.474 -0.2702 -2.4671 -2.1910
 8996SOL    HW238622   3.912   2.197   1.562 -1.2743 -1.0368 -1.2951
 8997SOL     OW38623   1.940   1.481  16.958 -0.1020 -0.3516 -0.3519
 8997SOL    HW138624   1.875   1.429  16.911  1.4856 -1.3713 -1.4016
 8997SOL    HW238625   1.893   1.549  17.007  1.6282  0.8438 -0.3533
 8998SOL     OW38626   2.353   2.702   3.783 -0.6613 -0.0707  0.7815
 8998SOL    HW138627   2.420   2.653   3.831  0.5140 -0.7628 -1.5767
 8998SOL    HW238628   2.283   2.637   3.774 -2.2225  1.8089 -0.6382
 8999SOL     OW38629   0.541   3.653   1.986  0.8367 -0.4541 -0.3274
 8999SOL    HW138630   0.571   3.716   1.920  0.7563 -1.7661 -1.6210
 8999SOL    HW238631   0.561   3.569   1.945 -1.0238 -0.1101 -1.9031
 9000SOL     OW38632   3.563   2.264   8.040 -0.3432 -0.5681 -0.0009
 9000SOL    HW138633   3.500   2.261   7.968  0.1907  2.7228 -0.5705
 9000SOL    HW238634   3.506   2.239   8.113  1.2459 -1.4663  0.9513
 9001SOL     OW38635   1.858   1.166  13.324  0.8018  0.3713  0.3357
 9001SOL    HW138636   1.816   1.113  13.391  0.1474  0.9575  0.3797
 9001SOL    HW238637   1.929   1.206  13.375  0.0098 -0.0949  1.7977
 9002SOL     OW38638   4.151   0.760   0.662 -0.4489 -0.4056 -0.5871
 9002SOL    HW138639   4.164   0.726   0.751  0.0028  2.0589  0.2999
 9002SOL    HW238640   4.152   0.854   0.681  0.5556 -0.3256 -1.0561
 9003SOL     OW38641   3.871   3.567  17.703 -0.2917 -0.0064 -0.3127
 9003SOL    HW138642   3.865   3.625  17.627  0.4743 -1.7578 -1.7114
 9003SOL    HW238643   3.781   3.540  17.716 -0.0987 -1.4246 -1.8823
 9004SOL     OW38644   4.208   1.894   4.050 -0.4654 -0.3171 -0.4231
 9004SOL    HW138645   4.229   1.807   4.084 -1.8442 -0.6864 -0.5057
 9004SOL    HW238646   4.219   1.879   3.956 -0.4457  1.9790 -0.8012
 9005SOL     OW38647   2.470   0.721  17.592 -0.2636 -0.3346  0.3999
 9005SOL    HW138648   2.423   0.795  17.632  0.0646 -0.5771  1.2488
 9005SOL    HW238649   2.416   0.693  17.519 -0.8505 -2.7808  1.7809
 9006SOL     OW38650   1.549   1.878   5.300 -0.1684  0.2619  0.5199
 9006SOL    HW138651   1.597   1.902   5.379 -0.9259  3.0145  0.1515
 9006SOL    HW238652   1.461   1.879   5.338 -0.4209  2.5567 -0.1187
 9007SOL     OW38653   1.969   2.741   3.611 -0.3192  0.1528  0.2947
 9007SOL    HW138654   1.923   2.730   3.528 -0.2346  0.9619  0.1425
 9007SOL    HW238655   2.048   2.774   3.570 -0.9640 -0.1711 -1.1911
 9008SOL     OW38656   3.295   4.366   6.452 -0.4336  0.2903  0.7882
 9008SOL    HW138657   3.329   4.287   6.409 -0.8282  1.0168 -0.8391
 9008SOL    HW238658   3.348   4.432   6.408  1.5505 -0.7278  1.6395
 9009SOL     OW38659   2.470   2.306  15.258 -0.6264 -0.4074  0.5660
 9009SOL    HW138660   2.399   2.342  15.205 -0.2686  0.2281  0.5204
 9009SOL    HW238661   2.532   2.274  15.193 -1.1931  2.1130 -1.2147
 9010SOL     OW38662   1.300   4.334   1.540 -0.1200  0.5486  0.1974
 9010SOL    HW138663   1.217   4.284   1.536  1.2610 -1.7106 -0.4722
 9010SOL    HW238664   1.309   4.348   1.634 -0.6923 -1.4084  0.5518
 9011SOL     OW38665   4.149   4.551  11.696 -0.2896  0.0661 -0.1624
 9011SOL    HW138666   4.190   4.486  11.753  0.6419 -0.6780 -1.6887
 9011SOL    HW238667   4.055   4.537  11.706 -0.1800  0.5104  1.5839
 9012SOL     OW38668   4.025   0.988   4.566 -0.0803  0.0445  0.6334
 9012SOL    HW138669   4.048   0.999   4.658 -1.6425 -0.5210  1.0915
 9012SOL    HW238670   4.016   1.077   4.533 -0.3009 -0.7853 -1.5794
 9013SOL     OW38671   1.833   4.168  11.320  0.9681 -0.2445 -0.4027
 9013SOL    HW138672   1.846   4.074  11.327 -0.4759 -0.4302 -0.1677
 9013SOL    HW238673   1.918   4.209  11.332  1.2342 -1.1558  0.8520
 9014SOL     OW38674   3.093   4.148   0.011  0.1653 -0.7615  0.6568
 9014SOL    HW138675   3.144   4.225   0.036 -0.4142 -0.1862  0.0893
 9014SOL    HW238676   3.152   4.074   0.001 -2.6228 -2.9024 -0.2325
 9015SOL     OW38677   0.760   2.544   8.228  0.0638  0.5221  0.3254
 9015SOL    HW138678   0.740   2.636   8.243  0.7815  0.9172 -1.0874
 9015SOL    HW238679   0.783   2.513   8.315 -1.5678 -0.3873  0.4263
 9016SOL     OW38680   2.825   4.561  10.031  0.4967 -0.0779 -0.3211
 9016SOL    HW138681   2.900   4.600   9.986  0.1957  0.6529 -0.1988
 9016SOL    HW238682   2.858   4.527  10.114 -0.9215 -1.2524 -0.2244
 9017SOL     OW38683   0.446   4.415   2.304  0.4826  0.6152 -0.8161
 9017SOL    HW138684   0.486   4.352   2.365  0.0806 -0.0743 -1.2687
 9017SOL    HW238685   0.429   4.363   2.226  2.3118 -0.8182 -0.2636
 9018SOL     OW38686   2.831   0.071   7.624  0.7247  0.3702  0.1179
 9018SOL    HW138687   2.894   0.111   7.684  0.0627  1.3207  0.1876
 9018SOL    HW238688   2.799   4.731   7.674  0.1296  0.4017 -0.2205
 9019SOL     OW38689   4.183   2.733  11.833  0.0225 -0.0013  0.3232
 9019SOL    HW138690   4.207   2.782  11.755 -1.4691 -0.4684 -0.4256
 9019SOL    HW238691   4.224   2.648  11.816 -0.2329 -0.5223  2.2534
 9020SOL     OW38692   3.246   2.214  15.374  0.4398 -0.0478 -0.1637
 9020SOL    HW138693   3.290   2.300  15.375  0.5283 -0.0922 -0.2531
 9020SOL    HW238694   3.300   2.161  15.315 -0.4475 -1.0054 -0.0991
 9021SOL     OW38695   3.691   3.884   3.684  0.0310  0.2175 -0.5050
 9021SOL    HW138696   3.659   3.873   3.774  1.0056  0.9925 -0.0668
 9021SOL    HW238697   3.786   3.882   3.692 -0.0692  0.5390  0.7951
 9022SOL     OW38698   4.190   4.048  17.376 -0.1062 -0.2669 -0.3568
 9022SOL    HW138699   4.117   3.992  17.401  1.3380 -1.1997  1.7426
 9022SOL    HW238700   4.147   4.133  17.387  0.4770  0.0321 -0.3511
 9023SOL     OW38701   4.724   0.844  11.171 -0.4840  0.5049 -0.4324
 9023SOL    HW138702   4.676   0.769  11.205 -0.8295  0.8894 -0.0687
 9023SOL    HW238703   4.660   0.914  11.160  2.1913  2.4102 -3.9599
 9024SOL     OW38704   1.492   2.533   5.343 -0.3230  0.2312  0.1727
 9024SOL    HW138705   1.422   2.468   5.340 -1.0251  0.9101  1.8282
 9024SOL    HW238706   1.442   2.614   5.348  2.0450  1.6699  0.5596
 9025SOL     OW38707   0.237   2.292  17.401 -0.0726 -0.5261 -0.0970
 9025SOL    HW138708   0.285   2.322  17.324  1.2027  1.0109  1.2996
 9025SOL    HW238709   0.189   2.374  17.408 -1.0237 -0.9374 -1.8933
 9026SOL     OW38710   0.763   2.174   8.062 -0.0807  0.0634 -0.4180
 9026SOL    HW138711   0.827   2.116   8.019  0.7522  0.5921  0.1165
 9026SOL    HW238712   0.747   2.122   8.140 -0.3682 -0.3628 -0.7572
 9027SOL     OW38713   2.852   0.799   4.649  0.2287 -0.6778  0.0006
 9027SOL    HW138714   2.825   0.734   4.585 -3.4113  0.1201  0.7266
 9027SOL    HW238715   2.855   0.876   4.592 -3.8521 -1.0932 -0.7356
 9028SOL     OW38716   1.536   1.016   2.116  0.0371  0.0371  0.0090
 9028SOL    HW138717   1.497   0.989   2.199  1.2011 -1.0963  0.1924
 9028SOL    HW238718   1.629   1.005   2.133  0.3956  2.3087 -0.5597
 9029SOL     OW38719   0.791   2.298  15.257 -0.7673  0.4490  0.5928
 9029SOL    HW138720   0.859   2.285  15.322  0.1730 -2.4927 -0.9446
 9029SOL    HW238721   0.777   2.211  15.220  0.2594 -0.3444  2.0973
 9030SOL     OW38722   0.046   0.219   8.355 -0.3057 -0.6778  0.0502
 9030SOL    HW138723   0.085   0.299   8.393  6.0846 -3.0558 -1.4607
 9030SOL    HW238724   4.703   0.195   8.404  0.1084  0.0877  1.1083
 9031SOL     OW38725   4.131   1.809   6.283  0.2224 -0.2408  0.4296
 9031SOL    HW138726   4.054   1.756   6.304 -0.1145 -0.7905 -2.2571
 9031SOL    HW238727   4.164   1.826   6.371  2.7334  1.1861 -0.8037
 9032SOL     OW38728   1.357   1.671  17.257 -0.1275 -0.1933 -0.0486
 9032SOL    HW138729   1.309   1.588  17.264  0.0498 -0.0733  2.4734
 9032SOL    HW238730   1.377   1.689  17.349 -1.9043  1.4147  0.0223
 9033SOL     OW38731   0.685   4.150   7.369 -0.1594 -0.1929 -0.4759
 9033SOL    HW138732   0.635   4.178   7.445  0.0694  2.2365 -1.2187
 9033SOL    HW238733   0.632   4.185   7.298  0.6798  2.4647  0.2243
 9034SOL     OW38734   1.982   1.655   5.247  0.5132  0.2283  0.9049
 9034SOL    HW138735   1.952   1.657   5.338  1.8170 -0.7065  1.3535
 9034SOL    HW238736   1.905   1.613   5.208  1.6177  0.4332 -1.4769
 9035SOL     OW38737   1.607   1.568   2.215  0.0943 -0.2847 -0.4907
 9035SOL    HW138738   1.632   1.519   2.137  0.5971 -0.6387 -0.1032
 9035SOL    HW238739   1.580   1.646   2.166  0.0553 -0.5118 -0.8330
 9036SOL     OW38740   0.415   1.804  11.107  0.4189 -0.3899 -0.1747
 9036SOL    HW138741   0.444   1.892  11.084  0.2752 -0.3150 -0.0753
 9036SOL    HW238742   0.493   1.773  11.153 -1.0403 -1.7152  1.4414
 9037SOL     OW38743   2.145   2.416  14.632 -0.2241  0.0038 -0.3288
 9037SOL    HW138744   2.230   2.459  14.632 -1.9165  3.3077 -0.6611
 9037SOL    HW238745   2.084   2.481  14.666  1.7657  0.3525  2.5215
 9038SOL     OW38746   2.336   3.527   7.786 -0.0466 -0.0643  0.1570
 9038SOL    HW138747   2.273   3.596   7.766  0.5484 -0.0941 -1.8265
 9038SOL    HW238748   2.305   3.519   7.876 -1.2190 -1.6654 -0.3921
 9039SOL     OW38749   2.658   0.629  11.942  0.0598  0.0930 -0.0344
 9039SOL    HW138750   2.565   0.610  11.930 -0.4831  1.7603  1.6575
 9039SOL    HW238751   2.693   0.626  11.852  0.1035  1.2598 -0.0555
 9040SOL     OW38752   0.678   3.532   6.432  0.2337  0.3223  0.5751
 9040SOL    HW138753   0.697   3.474   6.506  0.8962 -0.9238 -0.5689
 9040SOL    HW238754   0.585   3.512   6.416  0.2854  0.1782  0.4545
 9041SOL     OW38755   2.493   3.532   0.880  0.5080 -0.0273 -0.0113
 9041SOL    HW138756   2.492   3.575   0.965 -1.7382 -3.9113  1.8993
 9041SOL    HW238757   2.577   3.565   0.847  0.0132  0.8394 -0.3899
 9042SOL     OW38758   0.363   1.028   5.845 -0.3821 -0.0680 -0.0558
 9042SOL    HW138759   0.293   0.997   5.902 -0.3378 -0.4298 -0.1988
 9042SOL    HW238760   0.389   0.960   5.784 -0.3346 -1.5842  1.6553
 9043SOL     OW38761   2.619   1.956   2.730 -0.3153 -0.0233  0.7884
 9043SOL    HW138762   2.691   1.893   2.729  1.8712  2.5068  0.8790
 9043SOL    HW238763   2.644   1.993   2.814  1.8597  2.2520 -0.8737
 9044SOL     OW38764   0.158   0.577   8.881  0.6895  0.0150 -0.3309
 9044SOL    HW138765   0.087   0.603   8.822  0.4150 -1.4422 -0.6578
 9044SOL    HW238766   0.209   0.658   8.874  1.4638 -0.0983  4.2666
 9045SOL     OW38767   3.253   3.112   2.099 -0.2974  0.2150  0.3343
 9045SOL    HW138768   3.169   3.098   2.143  0.2066  0.5506  1.3948
 9045SOL    HW238769   3.232   3.088   2.009  0.2455  0.8566  0.0323
 9046SOL     OW38770   1.706   0.782   3.761 -0.1317 -0.6879  0.3571
 9046SOL    HW138771   1.612   0.792   3.777  0.2492  0.7361  1.6918
 9046SOL    HW238772   1.718   0.688   3.771  3.5480 -0.3288 -0.7312
 9047SOL     OW38773   2.296   1.770   1.354  0.5274  0.8481 -0.5052
 9047SOL    HW138774   2.212   1.790   1.312  1.8803  0.5872 -3.3696
 9047SOL    HW238775   2.307   1.848   1.407 -0.4852  0.5776  0.1055
 9048SOL     OW38776   0.557   2.911  12.356 -0.5497 -0.7860  0.4395
 9048SOL    HW138777   0.623   2.930  12.290 -1.9019 -0.7607 -0.8996
 9048SOL    HW238778   0.506   2.991  12.365  0.5376 -0.0509 -0.0015
 9049SOL     OW38779   3.978   3.942  12.997  0.5331  0.6944 -0.2356
 9049SOL    HW138780   3.890   3.966  12.970  1.4190  0.4287 -3.3840
 9049SOL    HW238781   3.968   3.851  13.023  1.0061  0.6073 -0.3572
 9050SOL     OW38782   4.006   3.567  12.353 -0.7958  0.3216 -0.4730
 9050SOL    HW138783   4.027   3.598  12.265  1.4766 -1.4952 -0.5625
 9050SOL    HW238784   3.941   3.631  12.382 -0.1571  0.5262  0.5220
 9051SOL     OW38785   2.296   2.941   3.675  0.0648 -0.3242  0.0137
 9051SOL    HW138786   2.322   2.853   3.701  0.5175 -0.7140 -1.7592
 9051SOL    HW238787   2.210   2.952   3.715  0.7130  1.4618  0.9249
 9052SOL     OW38788   1.734   0.443   5.744 -0.0861 -0.5139 -0.1263
 9052SOL    HW138789   1.774   0.416   5.661  0.9527 -0.2011  0.2710
 9052SOL    HW238790   1.742   0.539   5.735 -2.4279 -0.2944  0.1700
 9053SOL     OW38791   4.718   2.184  11.013 -0.8683  0.1358 -0.0310
 9053SOL    HW138792   0.050   2.162  11.077 -1.7060 -0.3562  0.6726
 9053SOL    HW238793   0.011   2.162  10.924 -3.3650  0.0558 -0.7969
 9054SOL     OW38794   2.036   0.908  11.732 -0.2593 -0.6017 -0.1153
 9054SOL    HW138795   2.093   0.965  11.783  0.2459  1.6954 -3.2192
 9054SOL    HW238796   1.972   0.973  11.700  0.3401 -0.0736 -0.2459
 9055SOL     OW38797   1.815   4.179   7.494 -0.2659 -0.0794 -0.3676
 9055SOL    HW138798   1.812   4.116   7.565  0.1138 -0.5347 -0.7558
 9055SOL    HW238799   1.778   4.258   7.534 -1.0058  0.1402 -1.5097
 9056SOL     OW38800   4.027   2.199  17.085 -0.2328  0.2185  0.2142
 9056SOL    HW138801   4.024   2.260  17.012 -2.4758 -0.0571  0.0765
 9056SOL    HW238802   4.045   2.258  17.159 -1.3409 -1.2289  1.6527
 9057SOL     OW38803   3.451   3.348   8.976  0.2983 -1.0055 -0.4225
 9057SOL    HW138804   3.387   3.419   8.972  2.5078  1.1373  2.2063
 9057SOL    HW238805   3.447   3.328   9.070  2.4839  2.5005  0.4270
 9058SOL     OW38806   2.821   3.319   2.969  0.3931  0.4790  0.0135
 9058SOL    HW138807   2.799   3.382   3.038 -0.7100 -1.5365  1.4902
 9058SOL    HW238808   2.868   3.256   3.023 -0.0843  0.9492  0.9752
 9059SOL     OW38809   1.187   4.127   1.726 -0.5385 -0.5337 -0.6046
 9059SOL    HW138810   1.279   4.099   1.725 -0.2499  0.4343 -1.4617
 9059SOL    HW238811   1.153   4.123   1.637  0.2671 -0.5570 -0.9137
 9060SOL     OW38812   2.172   1.295   2.897  0.0976 -0.3341  0.4503
 9060SOL    HW138813   2.135   1.268   2.981  0.7608  0.4585  1.0031
 9060SOL    HW238814   2.104   1.352   2.863 -0.4365 -1.4071 -0.2602
 9061SOL     OW38815   0.438   2.335   6.343  0.1079 -0.6731 -0.0064
 9061SOL    HW138816   0.507   2.286   6.386  0.5043 -0.6279 -0.5881
 9061SOL    HW238817   0.469   2.426   6.342 -0.2487 -0.5532 -1.0305
 9062SOL     OW38818   4.268   3.013   1.199  0.0841  0.2501  0.3517
 9062SOL    HW138819   4.188   3.060   1.174  0.1063 -0.5346 -1.2152
 9062SOL    HW238820   4.271   3.027   1.293 -2.0464  3.1267  0.0006
 9063SOL     OW38821   1.767   3.588   1.464  0.7511 -0.6991  0.2393
 9063SOL    HW138822   1.723   3.565   1.382 -0.8526  0.4826  0.7769
 9063SOL    HW238823   1.851   3.552   1.434  0.2965 -1.1434 -0.5140
 9064SOL     OW38824   0.216   1.623   5.323  0.1946  0.7455  0.1937
 9064SOL    HW138825   0.185   1.540   5.357  0.3779  0.9564  0.8892
 9064SOL    HW238826   0.287   1.602   5.262 -0.5664  0.0252 -0.4230
 9065SOL     OW38827   0.757   4.534   8.033 -0.1525  0.1217  0.2076
 9065SOL    HW138828   0.756   4.473   8.107  0.4133 -0.5007 -0.3002
 9065SOL    HW238829   0.728   4.474   7.965 -0.0066  1.7572 -1.3041
 9066SOL     OW38830   4.236   1.810   6.544  0.3095 -0.1574  0.4080
 9066SOL    HW138831   4.240   1.736   6.604  0.7977 -0.5288 -0.0795
 9066SOL    HW238832   4.243   1.871   6.618 -0.6856 -0.8770  1.0882
 9067SOL     OW38833   1.102   1.069   3.219  0.5687 -0.5163  0.1128
 9067SOL    HW138834   1.079   1.005   3.152 -0.5859  1.4418 -1.3437
 9067SOL    HW238835   1.113   1.034   3.308  0.3312 -0.6662  0.0856
 9068SOL     OW38836   2.966   1.427   9.177 -0.2740  0.8018  0.0486
 9068SOL    HW138837   3.044   1.411   9.124 -0.7163  1.3266 -0.7635
 9068SOL    HW238838   2.970   1.522   9.185 -2.2527  0.8735  0.3040
 9069SOL     OW38839   0.085   0.372   7.287  0.8078 -0.1574 -0.1387
 9069SOL    HW138840   0.148   0.407   7.349 -0.4944  0.2571  0.9678
 9069SOL    HW238841   0.141   0.308   7.244  1.0329  1.2600 -1.9298
 9070SOL     OW38842   2.977   0.116   5.506 -1.2117  0.1703  0.5463
 9070SOL    HW138843   3.011   0.074   5.586 -0.9550 -0.9951 -0.1708
 9070SOL    HW238844   3.046   0.096   5.442 -0.6370  2.9480  0.3120
 9071SOL     OW38845   0.028   1.765   4.346  0.9764  0.9580 -0.0522
 9071SOL    HW138846   0.078   1.796   4.270 -0.3506 -0.2682 -1.4195
 9071SOL    HW238847   0.052   1.673   4.333  1.3046  0.9786  0.4052
 9072SOL     OW38848   4.283   1.956  12.260 -0.2498 -0.2545 -0.1110
 9072SOL    HW138849   4.354   1.953  12.196 -1.8516 -1.0720 -1.8578
 9072SOL    HW238850   4.210   1.934  12.203 -1.0029  0.1009  0.7055
 9073SOL     OW38851   0.553   2.859   2.213 -0.0760 -0.5716 -0.2777
 9073SOL    HW138852   0.493   2.933   2.200  1.1586  0.3690 -0.6077
 9073SOL    HW238853   0.601   2.893   2.288 -1.1999  1.3205 -0.4259
 9074SOL     OW38854   3.880   0.195  16.418  0.1645 -0.1747 -0.0195
 9074SOL    HW138855   3.938   0.124  16.392  0.0284 -0.6984  1.0931
 9074SOL    HW238856   3.943   0.253  16.461  1.7031 -1.7050 -0.2523
 9075SOL     OW38857   0.654   1.651  11.855  0.1847  0.5317 -0.0773
 9075SOL    HW138858   0.589   1.688  11.915 -1.1008  0.1751 -1.2754
 9075SOL    HW238859   0.687   1.574  11.902 -0.1554  0.5960  0.2648
 9076SOL     OW38860   3.350   1.646   6.422  0.4583  0.4407  0.4849
 9076SOL    HW138861   3.307   1.613   6.501  0.6216 -1.3744 -0.1873
 9076SOL    HW238862   3.356   1.741   6.437  3.1950  0.1453  1.2179
 9077SOL     OW38863   1.591   1.319  13.807 -0.0331 -0.6852 -0.2821
 9077SOL    HW138864   1.543   1.402  13.801 -2.9587 -2.2230  1.8149
 9077SOL    HW238865   1.645   1.319  13.727  1.6860  1.3695  0.8629
 9078SOL     OW38866   2.065   3.326   4.422 -0.7209 -0.2644  0.4911
 9078SOL    HW138867   2.113   3.300   4.343 -0.5964  0.2730  0.3842
 9078SOL    HW238868   2.127   3.381   4.470  1.4331  0.1731 -2.7701
 9079SOL     OW38869   2.232   1.040  11.909 -0.0672  0.5379  0.2351
 9079SOL    HW138870   2.216   1.096  11.984 -0.3797  1.2828 -0.3943
 9079SOL    HW238871   2.301   0.978  11.935 -2.7382 -3.0450 -1.1543
 9080SOL     OW38872   0.612   1.191  15.174  0.0985 -0.0303  0.1225
 9080SOL    HW138873   0.529   1.146  15.158  0.2156 -0.3385  0.3971
 9080SOL    HW238874   0.674   1.124  15.146  0.1926 -0.4416  1.3283
 9081SOL     OW38875   2.109   0.415   8.158  0.0686 -0.1497  0.4439
 9081SOL    HW138876   2.164   0.463   8.096  2.8304 -2.0287  1.4118
 9081SOL    HW238877   2.174   0.349   8.183  1.2460  1.4263  1.6321
 9082SOL     OW38878   0.972   1.314   8.702  1.1277 -0.2249  0.0787
 9082SOL    HW138879   0.922   1.296   8.781  1.0589  2.3206  0.6357
 9082SOL    HW238880   0.978   1.226   8.666 -0.6323 -0.7964  1.2130
 9083SOL     OW38881   0.135   2.089   0.141 -0.0644 -0.3222  0.0579
 9083SOL    HW138882   0.173   2.160   0.089  0.9711  0.7425  2.2221
 9083SOL    HW238883   0.040   2.094   0.132 -0.1725 -0.5201  0.9962
 9084SOL     OW38884   2.287   0.892  11.559  0.2051  0.4936  0.2337
 9084SOL    HW138885   2.369   0.924  11.596  0.3019 -0.8555  1.1631
 9084SOL    HW238886   2.227   0.944  11.613  1.2573  0.3513  1.5555
 9085SOL     OW38887   2.248   0.176  11.031 -0.4575  0.3463  0.0055
 9085SOL    HW138888   2.236   0.196  11.124  1.7156  1.5909  0.0214
 9085SOL    HW238889   2.298   0.253  11.004 -1.2346  0.5075 -0.9796
 9086SOL     OW38890   1.620   1.789   6.712 -0.5674  0.5643 -0.4127
 9086SOL    HW138891   1.694   1.768   6.771 -1.2597 -1.0890 -0.1170
 9086SOL    HW238892   1.625   1.707   6.662 -0.0797 -0.5888  1.5037
 9087SOL     OW38893   1.852   2.165   5.937 -0.0345  0.0052  0.0465
 9087SOL    HW138894   1.830   2.180   5.845 -0.3808  0.2406  0.1661
 9087SOL    HW238895   1.813   2.081   5.958 -1.2445  0.0317 -2.1085
 9088SOL     OW38896   1.418   4.697   6.585  0.7122 -0.3439 -0.1544
 9088SOL    HW138897   1.447   4.716   6.674  1.5920  2.4548 -1.0389
 9088SOL    HW238898   1.326   4.675   6.596  0.3367  0.9947 -0.6997
 9089SOL     OW38899   0.392   3.045   4.064  0.0602  0.2594 -1.0220
 9089SOL    HW138900   0.461   2.987   4.094  0.7798  1.5923 -0.0844
 9089SOL    HW238901   0.412   3.053   3.971  0.9163 -0.4713 -0.8907
 9090SOL     OW38902   0.508   4.028   8.606  0.5855  0.3564 -0.2022
 9090SOL    HW138903   0.507   4.106   8.661 -4.1110  0.3340 -0.2419
 9090SOL    HW238904   0.463   3.959   8.656  0.8359  0.0349 -0.4182
 9091SOL     OW38905   0.515   3.523  12.658  1.0281  0.3281 -0.3870
 9091SOL    HW138906   0.596   3.482  12.629 -1.0027 -0.7786 -4.5345
 9091SOL    HW238907   0.545   3.555  12.743  0.6605  0.3458 -0.2648
 9092SOL     OW38908   3.216   2.013   7.450  0.2441 -0.5003  0.3225
 9092SOL    HW138909   3.213   2.093   7.397  0.0110  0.4360  1.7737
 9092SOL    HW238910   3.310   2.002   7.461  0.3541 -0.2472 -0.3216
 9093SOL     OW38911   0.786   1.278  10.854 -0.1381  0.0454 -0.3310
 9093SOL    HW138912   0.732   1.262  10.932  0.3793 -0.1672 -0.0213
 9093SOL    HW238913   0.719   1.307  10.793  1.1766 -1.6725 -2.5693
 9094SOL     OW38914   2.592   1.016  15.914  0.7285 -0.3425 -0.2992
 9094SOL    HW138915   2.604   1.107  15.888  1.1471 -0.3678 -0.2104
 9094SOL    HW238916   2.678   0.994  15.950  0.2796 -0.3718  0.7598
 9095SOL     OW38917   4.497   3.679   6.841  0.6621 -0.6135 -0.1413
 9095SOL    HW138918   4.464   3.653   6.755 -1.1712  0.6473  0.1887
 9095SOL    HW238919   4.445   3.611   6.885  0.4852  1.2259  2.4445
 9096SOL     OW38920   4.459   4.695   4.139 -0.1339  0.8915  0.3728
 9096SOL    HW138921   4.515   0.034   4.117 -2.1857  2.6809  1.1896
 9096SOL    HW238922   4.515   4.618   4.124 -0.7945  0.3391  0.7311
 9097SOL     OW38923   2.611   4.570   8.806 -0.4903  0.1719  0.5067
 9097SOL    HW138924   2.576   4.645   8.855  0.6484 -0.2909  2.0045
 9097SOL    HW238925   2.551   4.505   8.843 -1.8470  0.6207 -0.8925
 9098SOL     OW38926   1.862   2.679  14.966 -0.1240  0.0656  0.3454
 9098SOL    HW138927   1.767   2.690  14.963 -0.4703 -2.5186  1.1334
 9098SOL    HW238928   1.860   2.583  14.968 -0.2523  0.0658  0.2470
 9099SOL     OW38929   0.299   0.375  11.594  0.3028  0.2819  0.2051
 9099SOL    HW138930   0.209   0.402  11.577  1.2199  2.7722 -0.7330
 9099SOL    HW238931   0.352   0.451  11.569  1.0200  0.2701  1.6946
 9100SOL     OW38932   3.071   1.295   4.475 -0.2363  0.0714 -0.0924
 9100SOL    HW138933   3.051   1.214   4.428 -1.0655 -0.5174  1.2743
 9100SOL    HW238934   3.094   1.359   4.407 -1.4833  1.4545  0.7735
 9101SOL     OW38935   2.691   2.507   1.034 -0.1769  0.2789  0.4912
 9101SOL    HW138936   2.758   2.466   1.088  2.0968  0.9872 -1.8227
 9101SOL    HW238937   2.680   2.587   1.086  3.2302  0.9698  0.1104
 9102SOL     OW38938   3.333   1.533   5.535 -0.0665  0.2852  0.4214
 9102SOL    HW138939   3.345   1.595   5.463 -1.4531  1.3890  1.1422
 9102SOL    HW238940   3.238   1.543   5.542 -0.0611 -0.2949  1.2269
 9103SOL     OW38941   4.662   2.895  13.900 -0.0009  0.4201  0.3277
 9103SOL    HW138942   4.689   2.804  13.885 -1.9828 -0.1401  0.2531
 9103SOL    HW238943   4.715   2.943  13.836  0.3445  0.7282  0.8419
 9104SOL     OW38944   4.445   3.280   3.054 -0.2139 -0.0054  0.0791
 9104SOL    HW138945   4.444   3.313   3.143  0.2994  1.5404 -0.4840
 9104SOL    HW238946   4.401   3.196   3.066  3.5463 -2.1115 -0.5683
 9105SOL     OW38947   0.525   1.370   1.060  0.2790 -0.1028 -0.5673
 9105SOL    HW138948   0.549   1.459   1.035 -0.6504 -0.0011 -1.0966
 9105SOL    HW238949   0.431   1.365   1.042  0.0425 -0.9236  0.9423
 9106SOL     OW38950   2.240   0.626   4.117  0.3194  0.5907 -0.3448
 9106SOL    HW138951   2.247   0.666   4.030  4.1970  1.0283  0.1911
 9106SOL    HW238952   2.232   0.701   4.177  0.6182 -0.0206  0.4523
 9107SOL     OW38953   2.541   3.664   8.218 -0.0824  0.7811 -0.1162
 9107SOL    HW138954   2.604   3.731   8.247 -0.7064  1.7471 -0.9893
 9107SOL    HW238955   2.500   3.649   8.304  1.8794 -2.1316  0.3045
 9108SOL     OW38956   1.037   0.093   3.870 -0.1854 -0.2210 -0.2136
 9108SOL    HW138957   0.994   0.113   3.787  0.5277 -0.0823 -0.5469
 9108SOL    HW238958   1.016   0.001   3.887 -1.4683  0.1442  0.1994
 9109SOL     OW38959   4.591   3.721   1.576 -0.2646 -0.5237 -0.2913
 9109SOL    HW138960   4.529   3.652   1.556 -0.1359 -1.0979  1.2834
 9109SOL    HW238961   4.610   3.768   1.495 -0.3859  0.6781  0.3786
 9110SOL     OW38962   0.545   0.384   9.560 -0.2343  0.2834  0.1579
 9110SOL    HW138963   0.615   0.448   9.573 -1.0969  1.7145 -2.4102
 9110SOL    HW238964   0.580   0.304   9.600 -0.6278 -0.3250 -0.7161
 9111SOL     OW38965   3.470   0.929   9.039  0.0096 -0.0613  0.0641
 9111SOL    HW138966   3.488   0.987   8.965  1.2678  1.0495  1.2505
 9111SOL    HW238967   3.382   0.960   9.058  0.1335  0.2991  0.0475
 9112SOL     OW38968   3.463   0.090   4.651 -0.0015  0.8146 -0.0364
 9112SOL    HW138969   3.537   0.031   4.663 -0.2009  0.1655 -2.0047
 9112SOL    HW238970   3.482   0.169   4.702 -2.5992  1.6091 -0.3059
 9113SOL     OW38971   1.984   1.914  10.728 -0.3443 -0.6511  0.3894
 9113SOL    HW138972   1.945   1.997  10.754  0.6088 -0.0586 -0.0458
 9113SOL    HW238973   1.913   1.850  10.724 -0.0542 -0.9103 -0.5652
 9114SOL     OW38974   3.146   2.017   8.512 -0.2207 -0.1467 -0.0643
 9114SOL    HW138975   3.162   2.062   8.429  1.0646 -2.4977 -1.0954
 9114SOL    HW238976   3.094   1.941   8.484  1.2736 -1.1318 -0.1710
 9115SOL     OW38977   1.191   4.323   4.103  0.0678 -0.1838 -0.1702
 9115SOL    HW138978   1.240   4.281   4.174 -0.3035 -1.4274 -0.6391
 9115SOL    HW238979   1.100   4.306   4.129  0.3748  0.0548  1.0402
 9116SOL     OW38980   2.712   4.709   6.978  0.0093 -0.4983 -0.0920
 9116SOL    HW138981   2.744   4.668   6.898  1.1650 -0.9909  0.6294
 9116SOL    HW238982   2.648   0.036   6.945 -0.9065 -1.2427  0.2548
 9117SOL     OW38983   0.436   4.050   2.257  0.2463  0.2153 -0.3327
 9117SOL    HW138984   0.378   3.974   2.248  1.1531 -0.4834 -0.2381
 9117SOL    HW238985   0.407   4.093   2.176 -0.0464  0.4272 -0.1165
 9118SOL     OW38986   4.230   0.685   8.654 -1.4724  0.2920 -0.1325
 9118SOL    HW138987   4.303   0.722   8.704 -0.6298 -0.2653 -0.9542
 9118SOL    HW238988   4.205   0.622   8.722  2.5238  0.3020  1.3189
 9119SOL     OW38989   2.350   2.357   8.207  0.1687 -0.2290 -0.1314
 9119SOL    HW138990   2.290   2.422   8.243  1.3216  0.8210 -0.0730
 9119SOL    HW238991   2.301   2.287   8.165 -0.9785  1.5675 -1.7923
 9120SOL     OW38992   3.758   0.777   8.172  0.1673 -0.1402  0.1214
 9120SOL    HW138993   3.853   0.762   8.167 -0.0389 -1.0862 -1.2015
 9120SOL    HW238994   3.740   0.767   8.078 -1.5018  2.2751  0.1829
 9121SOL     OW38995   3.762   1.306  12.531  0.5058 -0.1803  0.2500
 9121SOL    HW138996   3.770   1.268  12.619 -2.9129  0.5260  0.8590
 9121SOL    HW238997   3.834   1.272  12.478  0.8795  0.3351  0.4183
 9122SOL     OW38998   1.914   0.155   7.244 -0.6584 -0.0613 -0.4764
 9122SOL    HW138999   1.977   0.087   7.269 -0.0312  0.9832  0.8167
 9122SOL    HW239000   1.877   0.191   7.325 -0.5998 -0.2876 -0.3474
 9123SOL     OW39001   2.087   3.544   3.653  0.3016  0.0233  0.2164
 9123SOL    HW139002   2.016   3.534   3.717 -0.1702  0.9278 -0.1728
 9123SOL    HW239003   2.079   3.460   3.608  0.0296  0.9535 -1.4553
 9124SOL     OW39004   1.401   1.202   1.980 -0.1782  0.1112  0.1068
 9124SOL    HW139005   1.437   1.231   1.896 -2.2794 -3.2705 -1.9715
 9124SOL    HW239006   1.456   1.129   2.009 -0.4814  0.7763  2.3886
 9125SOL     OW39007   2.067   3.726   9.378  0.4131 -0.4593  0.0049
 9125SOL    HW139008   2.076   3.794   9.311  0.6647  1.3681  1.8835
 9125SOL    HW239009   1.975   3.700   9.379 -0.3924  2.3360 -0.1358
 9126SOL     OW39010   3.824   0.030   2.704  0.1253  0.2943 -0.0495
 9126SOL    HW139011   3.906   0.020   2.752  0.8852 -0.4308 -1.5063
 9126SOL    HW239012   3.809   4.684   2.656 -2.1194 -0.3972  1.8312
 9127SOL     OW39013   1.346   3.475   0.261  0.6458  0.7243 -0.3351
 9127SOL    HW139014   1.268   3.444   0.307 -0.7716  3.0216 -1.1996
 9127SOL    HW239015   1.386   3.395   0.228  1.2768  0.5815  0.7631
 9128SOL     OW39016   4.095   0.124   5.843  0.1744 -0.1501  0.7419
 9128SOL    HW139017   4.161   0.057   5.863 -0.3418 -1.4044 -1.8924
 9128SOL    HW239018   4.149   0.203   5.853  0.0155 -0.1244  1.4435
 9129SOL     OW39019   0.526   0.238   1.589 -0.0309  0.5973 -0.1187
 9129SOL    HW139020   0.475   0.229   1.669  0.2488  2.2748  0.2383
 9129SOL    HW239021   0.537   0.333   1.583  0.4420  0.6122  1.0975
 9130SOL     OW39022   2.995   4.261   0.727  0.5689 -0.1285 -0.3200
 9130SOL    HW139023   2.957   4.343   0.697  0.3160 -0.1812 -0.1438
 9130SOL    HW239024   2.931   4.200   0.690  1.3723 -1.3875  0.3501
 9131SOL     OW39025   3.836   1.839   5.401  0.1838  0.4401 -0.0567
 9131SOL    HW139026   3.810   1.748   5.412  1.1062  0.2489  0.4604
 9131SOL    HW239027   3.811   1.852   5.309  0.2418  4.1891  0.4471
 9132SOL     OW39028   2.952   1.497  14.968 -0.0759 -0.2300 -0.0652
 9132SOL    HW139029   2.898   1.464  14.897  0.7556 -2.3381  0.2975
 9132SOL    HW239030   3.026   1.437  14.975 -0.3217 -0.6258 -0.8938
 9133SOL     OW39031   3.688   4.656   9.196 -0.6662 -0.5487 -0.6039
 9133SOL    HW139032   3.756   4.636   9.261 -1.4743 -0.9651  0.1044
 9133SOL    HW239033   3.708   0.014   9.185  0.2124 -0.8287 -1.4011
 9134SOL     OW39034   3.904   4.440   5.345  0.0343  0.0582  0.3525
 9134SOL    HW139035   3.902   4.363   5.401  0.8180 -1.0190 -1.0643
 9134SOL    HW239036   3.858   4.503   5.400  1.0016  0.0971  1.1159
 9135SOL     OW39037   3.768   4.496   6.894 -0.1731 -0.3769 -0.0275
 9135SOL    HW139038   3.726   4.410   6.895 -0.5634 -0.2009 -0.9086
 9135SOL    HW239039   3.691   4.546   6.925  2.1031  2.6799  0.7258
 9136SOL     OW39040   4.519   1.962   4.060 -0.0697 -0.1553  0.1248
 9136SOL    HW139041   4.517   2.015   3.980  0.5382 -0.3242 -0.0039
 9136SOL    HW239042   4.429   1.930   4.053  0.7511 -2.2578 -0.7679
 9137SOL     OW39043   4.367   0.807   3.735  0.4372  0.0838  0.6713
 9137SOL    HW139044   4.429   0.776   3.801  0.8611  0.7195  0.5667
 9137SOL    HW239045   4.310   0.868   3.782  1.5688  2.2709 -0.8389
 9138SOL     OW39046   1.935   4.425   6.354 -0.2444 -0.4090 -0.4467
 9138SOL    HW139047   1.903   4.490   6.416 -1.6671 -1.6549  0.1274
 9138SOL    HW239048   1.885   4.347   6.379 -3.2768  1.0169 -2.0588
 9139SOL     OW39049   3.363   3.466   5.846  0.1680  0.6001 -0.2800
 9139SOL    HW139050   3.328   3.532   5.786 -0.1657  0.6903  0.0091
 9139SOL    HW239051   3.309   3.480   5.924 -1.2927  0.8437 -1.3491
 9140SOL     OW39052   1.449   1.952   3.000 -0.1521  0.5964 -0.4695
 9140SOL    HW139053   1.521   1.890   3.015  1.0712  2.0522 -0.3740
 9140SOL    HW239054   1.446   1.977   2.908 -0.8699 -2.9043 -1.4176
 9141SOL     OW39055   1.292   2.101   6.368 -0.9371  0.2820 -0.1225
 9141SOL    HW139056   1.335   2.121   6.451  3.5879 -0.8685 -2.1857
 9141SOL    HW239057   1.310   2.184   6.322 -0.0247  0.2658  0.2226
 9142SOL     OW39058   3.228   4.551   9.099 -0.3201  0.2172  0.2275
 9142SOL    HW139059   3.315   4.571   9.135 -0.2695  0.8511 -0.2478
 9142SOL    HW239060   3.231   4.583   9.009 -0.7204 -0.9770 -0.2105
 9143SOL     OW39061   0.237   4.156   8.895  0.1894 -0.0389  0.2681
 9143SOL    HW139062   0.323   4.118   8.912  0.4403  1.1289  1.6357
 9143SOL    HW239063   0.201   4.188   8.977 -0.7058 -0.9803  0.2432
 9144SOL     OW39064   0.314   2.432   2.259  0.0196 -0.3291 -0.1305
 9144SOL    HW139065   0.301   2.455   2.351 -2.7632 -1.0467 -0.3685
 9144SOL    HW239066   0.237   2.376   2.256  1.3443 -2.1717 -0.1484
 9145SOL     OW39067   2.326   2.831   7.311  0.2668 -0.1756 -0.0123
 9145SOL    HW139068   2.373   2.823   7.394 -1.1001 -2.9558  0.4755
 9145SOL    HW239069   2.292   2.921   7.311  1.1296  0.1655  3.3218
 9146SOL     OW39070   3.889   0.229   2.994  0.2787  0.6813  0.0799
 9146SOL    HW139071   3.911   0.272   2.911  0.8804 -0.8095 -0.5280
 9146SOL    HW239072   3.967   0.186   3.030 -0.9303 -0.0240  1.8949
 9147SOL     OW39073   4.416   3.109   6.076 -0.0927  0.6495 -0.4729
 9147SOL    HW139074   4.475   3.037   6.098 -2.3669 -0.8141  0.8199
 9147SOL    HW239075   4.334   3.061   6.077  0.3001 -0.0309 -0.9162
 9148SOL     OW39076   3.981   0.692   2.299 -1.0700  0.3102 -0.3249
 9148SOL    HW139077   3.956   0.601   2.282  0.6280  0.0183 -1.2386
 9148SOL    HW239078   3.916   0.741   2.248 -0.2013  1.7510 -0.0654
 9149SOL     OW39079   2.437   4.097   8.691  0.2630  0.2197 -0.2923
 9149SOL    HW139080   2.409   4.189   8.684  1.4201  0.7412  1.7833
 9149SOL    HW239081   2.523   4.120   8.728  0.8422  0.4715 -1.7737
 9150SOL     OW39082   1.024   4.034   6.783  0.2477 -0.3440 -0.0555
 9150SOL    HW139083   1.091   4.048   6.850 -0.5918  0.0356  0.7004
 9150SOL    HW239084   1.035   4.114   6.732 -0.2969  1.3405  2.4766
 9151SOL     OW39085   2.907   4.372   3.210 -0.4166 -0.1429 -0.3684
 9151SOL    HW139086   2.977   4.371   3.146 -1.0829 -0.3654 -1.0946
 9151SOL    HW239087   2.962   4.419   3.272 -0.0368 -0.3677 -0.5331
 9152SOL     OW39088   2.331   2.272   0.479  0.2661  0.3031  0.3974
 9152SOL    HW139089   2.301   2.198   0.427  1.1496  0.9003 -0.9805
 9152SOL    HW239090   2.316   2.340   0.413 -0.0186 -1.2504 -1.1407
 9153SOL     OW39091   1.613   3.023   1.863 -0.3185 -0.5327  0.3170
 9153SOL    HW139092   1.694   3.038   1.815 -0.2566 -0.1389  0.5423
 9153SOL    HW239093   1.622   2.930   1.884  0.1291 -0.2424  1.4312
 9154SOL     OW39094   2.924   1.208   3.745  0.2391  0.1397 -0.4750
 9154SOL    HW139095   2.886   1.126   3.712  0.2541 -0.1186  0.1351
 9154SOL    HW239096   2.858   1.272   3.720  0.0022 -0.5679 -1.6323
 9155SOL     OW39097   1.871   0.105   1.628 -0.4300 -0.1135  0.0638
 9155SOL    HW139098   1.895   0.093   1.536 -0.1049  1.6513 -0.0705
 9155SOL    HW239099   1.781   0.137   1.624 -0.0999  0.9091  0.9726
 9156SOL     OW39100   0.478   4.190   2.787  0.1238 -0.1064 -0.4056
 9156SOL    HW139101   0.475   4.258   2.854  1.3057 -0.7358  0.2955
 9156SOL    HW239102   0.527   4.242   2.723  1.8515  1.3489  2.0693
 9157SOL     OW39103   2.664   0.199   6.835  0.0247  0.2269 -0.1506
 9157SOL    HW139104   2.670   0.198   6.739  1.9331  0.7174 -0.0367
 9157SOL    HW239105   2.745   0.242   6.862 -0.0753  0.4376 -0.1804
 9158SOL     OW39106   2.372   0.267  13.419 -0.9152  0.0442  0.3086
 9158SOL    HW139107   2.437   0.321  13.375 -0.3168 -0.9165  0.0190
 9158SOL    HW239108   2.301   0.330  13.427 -2.2416 -1.6606  1.9259
 9159SOL     OW39109   1.961   2.491   7.226  0.5335 -0.4336 -0.2600
 9159SOL    HW139110   1.914   2.419   7.268  0.7036  0.2158  1.0380
 9159SOL    HW239111   1.904   2.503   7.151 -0.3791 -0.0996  0.4891
 9160SOL     OW39112   0.949   2.314   3.368  0.2834 -0.0952  0.0286
 9160SOL    HW139113   0.956   2.274   3.281  1.3269  0.5485 -0.1771
 9160SOL    HW239114   0.882   2.259   3.409  0.5655  0.0184  0.6376
 9161SOL     OW39115   1.058   2.259   4.867  0.2683 -0.1020  0.7735
 9161SOL    HW139116   1.099   2.173   4.868  0.7951  0.1451  0.5230
 9161SOL    HW239117   1.010   2.257   4.784 -0.6249  1.3428  1.2668
 9162SOL     OW39118   0.234   1.407   6.352 -0.0440  0.4088 -0.1429
 9162SOL    HW139119   0.307   1.460   6.319 -0.9099 -0.1455 -2.9320
 9162SOL    HW239120   0.169   1.476   6.365 -0.2897 -0.6291  4.0638
 9163SOL     OW39121   0.076   3.789  11.556  0.2448 -0.1273  0.1095
 9163SOL    HW139122   0.073   3.705  11.511  1.6298 -0.3739  0.4976
 9163SOL    HW239123   4.717   3.807  11.563  0.3035 -1.2470  3.7356
 9164SOL     OW39124   3.359   1.206   4.554  0.7890  0.5809 -0.0949
 9164SOL    HW139125   3.268   1.230   4.571  0.3290 -0.1224 -1.6392
 9164SOL    HW239126   3.348   1.193   4.460  0.9735  0.2114 -0.0647
 9165SOL     OW39127   1.781   1.634   2.409 -0.2704  0.0315 -0.3474
 9165SOL    HW139128   1.718   1.610   2.341 -2.0016 -1.1272  1.6429
 9165SOL    HW239129   1.856   1.581   2.384 -0.3236  0.2689 -0.9915
 9166SOL     OW39130   1.420   0.504  10.406 -0.0439 -0.6994  0.0904
 9166SOL    HW139131   1.435   0.525  10.498 -0.7869 -1.5977  0.4084
 9166SOL    HW239132   1.439   0.591  10.369  1.4524 -1.1136 -0.1226
 9167SOL     OW39133   0.644   1.122   2.668 -0.1356  0.6865 -0.0245
 9167SOL    HW139134   0.599   1.166   2.596  2.5511 -0.2103 -2.2805
 9167SOL    HW239135   0.688   1.191   2.717  0.8680 -1.5048  2.1916
 9168SOL     OW39136   0.452   1.998   3.138 -0.5226  0.0440  0.4054
 9168SOL    HW139137   0.540   2.031   3.117 -0.0298  0.5956  3.3293
 9168SOL    HW239138   0.408   2.083   3.139  0.9926  0.8340 -0.3270
 9169SOL     OW39139   1.901   2.943  10.082 -0.2695 -0.6845 -0.2774
 9169SOL    HW139140   1.896   3.038  10.084 -0.6558 -0.7097  0.2311
 9169SOL    HW239141   1.910   2.927   9.988 -0.8774  3.5253 -1.0148
 9170SOL     OW39142   0.020   1.939   6.961  0.1898 -0.1674  0.2469
 9170SOL    HW139143   0.015   1.850   6.995 -0.4768 -0.1457  0.2186
 9170SOL    HW239144   0.024   1.977   7.049  3.1837 -0.4127  0.2025
 9171SOL     OW39145   1.652   4.077   5.623  0.3539  0.0712  0.1282
 9171SOL    HW139146   1.665   4.095   5.530  0.5227 -0.2006  0.0987
 9171SOL    HW239147   1.740   4.058   5.657 -0.3532 -0.1549  1.8418
 9172SOL     OW39148   1.929   0.880  15.625 -0.0797 -0.7511  0.1721
 9172SOL    HW139149   1.892   0.795  15.600 -0.1510 -0.8166  0.5044
 9172SOL    HW239150   1.962   0.922  15.546  0.3242 -1.2066  0.0993
 9173SOL     OW39151   4.197   4.250   9.696  0.2709 -0.4033 -0.1987
 9173SOL    HW139152   4.171   4.206   9.777  0.6987 -0.1086  0.0970
 9173SOL    HW239153   4.160   4.177   9.647 -2.2083 -0.3252  1.5409
 9174SOL     OW39154   3.058   4.150  15.008  0.4388  0.3101  0.3573
 9174SOL    HW139155   3.135   4.094  15.002  0.7364  0.3563  3.5761
 9174SOL    HW239156   3.066   4.179  15.100  2.5523 -0.2269  0.3340
 9175SOL     OW39157   3.455   0.969   4.679  0.2442  0.0998  0.6230
 9175SOL    HW139158   3.540   0.992   4.715  0.5699  0.2485 -0.2327
 9175SOL    HW239159   3.414   1.048   4.642 -2.1281 -1.2464  0.3633
 9176SOL     OW39160   2.581   3.544   7.681 -0.1635 -0.0586 -0.3549
 9176SOL    HW139161   2.634   3.564   7.758 -1.3964 -1.8511  0.9450
 9176SOL    HW239162   2.493   3.520   7.710  0.2561 -1.5861 -0.3613
 9177SOL     OW39163   1.216   1.075   9.193  0.5334 -0.7688  0.0059
 9177SOL    HW139164   1.184   1.007   9.135 -2.1549  0.2742  0.2834
 9177SOL    HW239165   1.143   1.135   9.210  0.4748 -0.5668 -0.9412
 9178SOL     OW39166   2.285   3.895  15.631 -0.4986 -0.2890  0.2882
 9178SOL    HW139167   2.263   3.883  15.539  1.3745 -2.3355  0.1079
 9178SOL    HW239168   2.371   3.938  15.631  0.0989 -1.4849 -6.0656
 9179SOL     OW39169   3.966   0.113   9.044  0.1743 -0.0149 -0.0558
 9179SOL    HW139170   3.884   0.134   9.090  0.7948  1.3389  0.4520
 9179SOL    HW239171   3.975   0.199   9.003  1.9951 -2.2398 -4.3178
 9180SOL     OW39172   4.098   4.698   3.297  1.3712  0.1316  0.1167
 9180SOL    HW139173   4.021   4.649   3.329  2.3317 -1.4426  0.0276
 9180SOL    HW239174   4.160   4.641   3.342 -0.9203 -0.8921  2.0210
 9181SOL     OW39175   2.339   0.142   3.533  0.2022 -0.2829 -0.1172
 9181SOL    HW139176   2.412   0.183   3.578  1.4593 -3.1310  0.4393
 9181SOL    HW239177   2.310   0.224   3.493  0.6247 -0.1642 -0.1698
 9182SOL     OW39178   0.552   2.665  14.605 -0.2271 -0.4239 -0.3229
 9182SOL    HW139179   0.556   2.719  14.685 -3.6346 -2.1608  1.0377
 9182SOL    HW239180   0.599   2.718  14.541 -0.1917 -0.1497 -0.0719
 9183SOL     OW39181   4.575   0.386   7.617 -0.1825  0.1225 -0.1370
 9183SOL    HW139182   4.483   0.394   7.595 -0.2079 -1.2358 -0.5407
 9183SOL    HW239183   4.560   0.320   7.685  0.1003 -0.6205 -0.8064
 9184SOL     OW39184   3.232   1.506  12.554  0.2447  0.1900 -0.3464
 9184SOL    HW139185   3.140   1.522  12.531  0.6878  0.2271 -2.0602
 9184SOL    HW239186   3.270   1.466  12.476  1.2364 -0.0105  0.2495
 9185SOL     OW39187   0.723   1.025   8.788  0.4625  0.3720 -0.1825
 9185SOL    HW139188   0.643   1.073   8.763  0.4288  0.3728 -0.0711
 9185SOL    HW239189   0.762   1.090   8.846  0.9740 -1.8005  1.8736
 9186SOL     OW39190   4.290   4.619   9.423  0.0670 -0.1589 -0.0157
 9186SOL    HW139191   4.225   4.610   9.493  0.1989  1.7999  0.3523
 9186SOL    HW239192   4.331   4.704   9.438 -0.4032 -0.0752  0.8262
 9187SOL     OW39193   2.509   0.244   4.720  0.2134  0.3788 -0.3444
 9187SOL    HW139194   2.582   0.201   4.765  1.6405  0.5159 -2.5098
 9187SOL    HW239195   2.485   0.167   4.667  3.4158 -0.1652 -0.9934
 9188SOL     OW39196   4.090   4.584   0.477 -0.2783 -0.2092 -0.2643
 9188SOL    HW139197   4.166   4.639   0.462 -0.0696 -0.5267 -0.3722
 9188SOL    HW239198   4.028   4.630   0.534  0.1487  0.2904 -0.2076
 9189SOL     OW39199   4.174   3.833   9.144  0.3750  0.3331  1.0007
 9189SOL    HW139200   4.199   3.868   9.229 -0.2491  3.8004 -0.2558
 9189SOL    HW239201   4.152   3.910   9.092  0.7794  0.8289  1.5670
 9190SOL     OW39202   2.102   4.618   1.036 -0.1130  0.0198 -0.0535
 9190SOL    HW139203   2.101   4.581   1.124 -1.9911  0.4931  0.1319
 9190SOL    HW239204   2.075   4.710   1.040 -0.7296 -0.1865  0.5009
 9191SOL     OW39205   1.643   1.564   8.416 -0.6470  0.2901  0.0006
 9191SOL    HW139206   1.612   1.504   8.483  0.2709 -0.2976 -0.1059
 9191SOL    HW239207   1.699   1.502   8.369 -0.7662  0.7547 -0.7638
 9192SOL     OW39208   3.438   1.356   6.644 -0.2195 -0.0042 -0.2255
 9192SOL    HW139209   3.406   1.354   6.554 -1.1589  0.1532  0.1072
 9192SOL    HW239210   3.480   1.270   6.630 -0.7609 -0.0810 -1.4353
 9193SOL     OW39211   4.086   0.260   1.190  0.2674 -0.3152  0.3267
 9193SOL    HW139212   4.134   0.199   1.247 -0.4490  1.1608  2.4920
 9193SOL    HW239213   4.114   0.229   1.103 -0.9292 -3.5043  1.0905
 9194SOL     OW39214   2.562   3.608  13.513 -0.4124 -0.3434  0.4971
 9194SOL    HW139215   2.620   3.653  13.574 -1.2798  0.2078  0.9181
 9194SOL    HW239216   2.584   3.516  13.523  0.1209 -0.2009  0.6079
 9195SOL     OW39217   2.324   1.756   6.019 -0.2696  0.2994 -0.1639
 9195SOL    HW139218   2.294   1.677   6.063 -1.4683  0.1678 -1.1874
 9195SOL    HW239219   2.243   1.801   5.994 -0.6526 -0.2907  0.0044
 9196SOL     OW39220   3.764   3.114  12.448 -0.0888 -0.3210 -0.3200
 9196SOL    HW139221   3.761   3.181  12.515  0.8233 -1.5199  0.9277
 9196SOL    HW239222   3.759   3.033  12.499 -0.9062  0.2514  0.4907
 9197SOL     OW39223   3.123   4.035  16.334 -0.2345  0.3693 -0.3403
 9197SOL    HW139224   3.072   3.993  16.264  1.2535 -0.0017 -1.2160
 9197SOL    HW239225   3.213   4.010  16.314 -0.3859 -1.9911  2.0591
 9198SOL     OW39226   2.379   3.550  17.524 -0.2472  0.0996 -0.6829
 9198SOL    HW139227   2.363   3.554  17.430  0.3295 -1.0731 -0.8210
 9198SOL    HW239228   2.358   3.641  17.547  2.7460  0.4205  0.7655
 9199SOL     OW39229   1.922   1.368   0.247  0.6709  0.4450 -0.1248
 9199SOL    HW139230   1.986   1.364   0.176  0.5060  2.5200 -0.4098
 9199SOL    HW239231   1.950   1.287   0.290  1.5833  1.8472  1.9579
 9200SOL     OW39232   4.624   4.064   8.031 -0.0156 -0.1835  0.5926
 9200SOL    HW139233   4.660   4.153   8.028 -0.8558  0.1291 -0.0462
 9200SOL    HW239234   4.673   4.016   7.963  0.9050 -0.8930  1.7566
 9201SOL     OW39235   1.932   4.441   8.503 -0.2971 -0.2869 -0.7428
 9201SOL    HW139236   1.896   4.470   8.420  0.4004  1.0654 -0.5723
 9201SOL    HW239237   1.920   4.347   8.492  0.0119 -0.1500 -2.1875
 9202SOL     OW39238   1.532   2.521  12.317  0.2780 -0.3411 -0.1171
 9202SOL    HW139239   1.577   2.486  12.394  0.5285 -0.2051 -0.2037
 9202SOL    HW239240   1.490   2.601  12.348  1.1653  0.9600 -2.2409
 9203SOL     OW39241   0.756   3.775   8.629 -0.4026  0.2056 -0.1662
 9203SOL    HW139242   0.734   3.840   8.562  3.0133  3.0590  1.4663
 9203SOL    HW239243   0.808   3.824   8.693 -0.3415  1.6553 -1.3435
 9204SOL     OW39244   2.839   2.592  12.957  0.1139  0.4207 -0.2304
 9204SOL    HW139245   2.843   2.670  12.900  1.8727 -0.1854 -0.9510
 9204SOL    HW239246   2.763   2.548  12.920 -0.1235  0.0388  0.7176
 9205SOL     OW39247   3.717   3.607   2.607 -0.5725 -0.1623  0.2274
 9205SOL    HW139248   3.720   3.702   2.597 -0.6027 -0.0540  1.1842
 9205SOL    HW239249   3.768   3.574   2.533 -0.8405  0.7110 -0.3477
 9206SOL     OW39250   2.750   0.142   6.205  0.0974 -0.2391  0.6377
 9206SOL    HW139251   2.691   0.091   6.261 -1.3968  1.5864  0.7199
 9206SOL    HW239252   2.835   0.106   6.231  0.5219  0.6907  0.5399
 9207SOL     OW39253   1.670   4.116   5.369 -0.7836  0.3829 -0.5727
 9207SOL    HW139254   1.686   4.046   5.306  0.3317 -0.8504  1.0807
 9207SOL    HW239255   1.668   4.195   5.315  2.4118  0.3137 -0.8067
 9208SOL     OW39256   0.637   2.795  14.302  0.5635  0.0862  0.0710
 9208SOL    HW139257   0.583   2.866  14.270  0.6771  0.6185  1.0406
 9208SOL    HW239258   0.723   2.837  14.292  1.0717 -1.1247 -0.6493
 9209SOL     OW39259   0.706   4.344   1.874  0.0490  0.0711 -0.0097
 9209SOL    HW139260   0.703   4.400   1.797  0.5599  0.6359  0.3736
 9209SOL    HW239261   0.792   4.304   1.858 -0.2332 -1.1769  1.5826
 9210SOL     OW39262   3.714   2.798   8.303  0.0452  0.4299  0.3013
 9210SOL    HW139263   3.688   2.889   8.290 -1.0361  0.4135  2.4407
 9210SOL    HW239264   3.661   2.756   8.234 -1.4045 -1.9671  2.8913
 9211SOL     OW39265   1.201   2.675  11.789 -0.3063  0.1801  0.2798
 9211SOL    HW139266   1.253   2.598  11.765  0.0302  0.4321  0.1999
 9211SOL    HW239267   1.264   2.744  11.771 -1.6926  1.9332  2.1226
 9212SOL     OW39268   2.875   1.293   2.588  0.0243 -0.1759 -0.6646
 9212SOL    HW139269   2.967   1.311   2.571  0.2134  0.0923  0.6674
 9212SOL    HW239270   2.845   1.312   2.498 -1.3490 -2.4926 -0.6825
 9213SOL     OW39271   2.209   3.742   6.174 -0.3238 -0.0693 -0.4455
 9213SOL    HW139272   2.232   3.710   6.087  0.5036 -0.4973 -0.0587
 9213SOL    HW239273   2.155   3.666   6.197  2.5318 -1.9001  0.1382
 9214SOL     OW39274   3.078   4.722   4.875  0.3822 -0.4946 -0.2936
 9214SOL    HW139275   3.120   0.069   4.900  0.2760 -0.5061 -0.0789
 9214SOL    HW239276   3.151   4.663   4.894  0.9190 -0.0876 -1.0806
 9215SOL     OW39277   0.397   3.864  10.634  0.0985 -0.2268  0.4481
 9215SOL    HW139278   0.445   3.783  10.650  1.2790  0.5547  0.8965
 9215SOL    HW239279   0.312   3.854  10.676  1.0039  0.9805  2.5927
 9216SOL     OW39280   3.232   0.349   8.612 -0.1470 -0.1480  0.5388
 9216SOL    HW139281   3.316   0.312   8.640 -0.4019 -0.8603  0.3477
 9216SOL    HW239282   3.253   0.433   8.569 -0.2189  0.0128  0.8170
 9217SOL     OW39283   1.379   3.910   5.688 -1.1403  0.7271 -0.6120
 9217SOL    HW139284   1.397   3.816   5.686 -2.7082  0.4453 -1.5672
 9217SOL    HW239285   1.283   3.914   5.694 -0.9796 -0.7309  3.1195
 9218SOL     OW39286   3.287   1.657   3.119  0.2922  0.0588 -0.0272
 9218SOL    HW139287   3.283   1.562   3.131 -0.0309  0.0850  0.0652
 9218SOL    HW239288   3.363   1.667   3.061 -0.1677 -0.3806 -0.7140
 9219SOL     OW39289   2.408   4.321  17.607 -0.1763  0.1801 -0.7456
 9219SOL    HW139290   2.392   4.283  17.520 -0.1660 -0.3890 -0.4942
 9219SOL    HW239291   2.436   4.410  17.586 -0.9820  0.5428 -0.2646
 9220SOL     OW39292   3.330   0.668   3.456  0.1892  0.2415 -0.6280
 9220SOL    HW139293   3.313   0.723   3.380 -2.8659 -2.0501 -1.6192
 9220SOL    HW239294   3.425   0.657   3.464 -0.1226  0.0889  2.8908
 9221SOL     OW39295   2.851   0.700  12.107 -0.2019 -0.3719  0.1680
 9221SOL    HW139296   2.918   0.632  12.107  0.1928  0.0117  1.4160
 9221SOL    HW239297   2.782   0.669  12.049  0.4265  2.0026 -1.8344
 9222SOL     OW39298   0.877   1.309   4.503  0.0314  0.4784 -0.2511
 9222SOL    HW139299   0.831   1.385   4.538 -4.1129 -1.7604 -0.6889
 9222SOL    HW239300   0.824   1.240   4.544  1.0877  0.9691  1.8995
 9223SOL     OW39301   3.208   3.786   7.804  0.5189 -0.1229 -0.2858
 9223SOL    HW139302   3.162   3.831   7.733  0.0119 -0.9216 -0.4620
 9223SOL    HW239303   3.301   3.770   7.787  0.4636  0.5365 -1.2201
 9224SOL     OW39304   1.943   2.927   3.172  0.4250  0.4949 -0.3806
 9224SOL    HW139305   1.952   2.852   3.113 -0.1553 -0.2182  0.4268
 9224SOL    HW239306   1.907   2.881   3.248 -0.9051  1.4986 -0.4050
 9225SOL     OW39307   4.688   3.876  10.503 -0.2563  0.0171  0.2582
 9225SOL    HW139308   4.622   3.939  10.531 -0.3773 -0.3642  0.8374
 9225SOL    HW239309   4.688   3.824  10.583  0.1614 -0.1275  0.1602
 9226SOL     OW39310   4.241   0.809   1.939 -0.1075 -0.5001  0.2156
 9226SOL    HW139311   4.203   0.741   1.995 -3.2359 -0.7449 -2.1972
 9226SOL    HW239312   4.163   0.825   1.886  0.1318  0.1377  0.0596
 9227SOL     OW39313   4.674   2.033   7.455  0.4220 -0.5558 -0.8850
 9227SOL    HW139314   4.679   1.949   7.409 -0.9358  0.4481 -2.8937
 9227SOL    HW239315   4.579   2.042   7.448  0.4146  0.2785  0.4629
 9228SOL     OW39316   2.011   4.655   5.528  0.6456 -0.3184 -0.1851
 9228SOL    HW139317   1.986   4.729   5.583  2.4413 -0.1618  0.3990
 9228SOL    HW239318   2.045   4.595   5.594 -1.5373 -1.9137 -0.5019
 9229SOL     OW39319   2.283   2.695   5.353 -0.2608  0.0011 -0.2033
 9229SOL    HW139320   2.345   2.768   5.357  1.0332 -1.1029 -0.3474
 9229SOL    HW239321   2.309   2.645   5.430 -2.0240 -1.5280 -0.6064
 9230SOL     OW39322   4.643   2.385  17.569  0.1399 -0.3513 -0.2252
 9230SOL    HW139323   4.661   2.432  17.487  1.3014 -1.8181 -0.8007
 9230SOL    HW239324   4.547   2.382  17.566  0.0053  3.1958  0.8628
 9231SOL     OW39325   3.065   1.499   5.600 -0.0886  0.3252  0.2986
 9231SOL    HW139326   3.027   1.584   5.581 -1.4159 -0.3345  0.0079
 9231SOL    HW239327   2.991   1.452   5.638  0.1511  0.7451  1.2812
 9232SOL     OW39328   0.265   2.036   4.402  1.0696 -0.5747 -0.2346
 9232SOL    HW139329   0.343   1.989   4.430  1.6798 -0.1423 -1.1848
 9232SOL    HW239330   0.292   2.123   4.432  0.1539  0.5302 -2.5200
 9233SOL     OW39331   0.893   3.820   7.959 -0.1153  0.0509 -0.4299
 9233SOL    HW139332   0.979   3.799   7.922 -0.0522  0.0928 -0.3048
 9233SOL    HW239333   0.915   3.798   8.050  1.3183  1.8425 -0.3371
 9234SOL     OW39334   2.897   3.985   6.225  0.1070  0.3111  0.1072
 9234SOL    HW139335   2.980   3.936   6.224  1.2185  2.2444 -1.5101
 9234SOL    HW239336   2.849   3.918   6.176 -1.1371  1.4054 -0.1551
 9235SOL     OW39337   2.268   0.053   6.632 -0.1387  0.1006 -0.3856
 9235SOL    HW139338   2.308   0.132   6.668 -2.6266  1.7566 -1.2998
 9235SOL    HW239339   2.313   4.715   6.674  0.5124  0.8282  0.1822
 9236SOL     OW39340   1.840   1.499   9.161 -0.4285 -0.1279 -0.1716
 9236SOL    HW139341   1.920   1.532   9.119  0.9306 -0.6047  2.0465
 9236SOL    HW239342   1.838   1.406   9.140 -1.0818  0.4838 -2.8978
 9237SOL     OW39343   0.980   0.372   7.054  0.5746 -0.1370 -0.8217
 9237SOL    HW139344   0.940   0.382   6.968 -0.7446 -3.8169 -0.6196
 9237SOL    HW239345   0.919   0.424   7.107 -0.3474 -0.6575 -1.3715
 9238SOL     OW39346   3.795   3.732   8.384 -0.2277 -0.4086  0.2479
 9238SOL    HW139347   3.862   3.773   8.439 -0.4175 -0.4832  0.5312
 9238SOL    HW239348   3.844   3.660   8.343 -1.3729 -0.9364 -0.2048
 9239SOL     OW39349   4.216   4.186  13.891  0.0864  0.5230 -0.5691
 9239SOL    HW139350   4.203   4.272  13.931 -0.6741  0.5007 -0.7685
 9239SOL    HW239351   4.254   4.214  13.808 -0.1572 -0.5479 -1.0434
 9240SOL     OW39352   4.142   3.039  16.911 -0.4655 -0.7033  0.4841
 9240SOL    HW139353   4.163   2.987  16.989  1.1203 -0.6026  0.1269
 9240SOL    HW239354   4.077   3.097  16.953 -1.4824 -1.9707  0.6790
 9241SOL     OW39355   2.581   2.712   9.376 -0.3185  0.3247  0.6679
 9241SOL    HW139356   2.557   2.720   9.283  4.1098  1.0771 -0.4517
 9241SOL    HW239357   2.597   2.799   9.413  0.3787  0.9370 -1.0637
 9242SOL     OW39358   1.050   1.049   8.858 -0.2916  0.3010  0.6435
 9242SOL    HW139359   1.053   0.954   8.857 -0.0352  0.2967  2.5291
 9242SOL    HW239360   0.970   1.060   8.910 -0.0708 -1.8927  1.4345
 9243SOL     OW39361   2.017   3.287  11.514 -0.3200  0.5204 -0.1585
 9243SOL    HW139362   2.032   3.209  11.568 -0.8936 -0.4580 -1.3928
 9243SOL    HW239363   2.007   3.352  11.583  0.3645  1.1208 -0.6307
 9244SOL     OW39364   1.813   2.939   2.262 -0.3851  0.2171 -0.4612
 9244SOL    HW139365   1.766   2.866   2.223 -2.0431  1.5907 -0.9962
 9244SOL    HW239366   1.751   3.012   2.260 -0.0117  0.5868  0.9366
 9245SOL     OW39367   3.330   1.281   6.402 -0.4027 -0.0170  0.0844
 9245SOL    HW139368   3.310   1.187   6.393  1.3403 -0.5189  1.4574
 9245SOL    HW239369   3.358   1.305   6.314  0.6432 -1.2743  0.0799
 9246SOL     OW39370   4.222   2.355   8.726 -0.8405 -0.1296 -0.1156
 9246SOL    HW139371   4.252   2.282   8.780 -0.7826 -0.8850 -1.1719
 9246SOL    HW239372   4.157   2.307   8.674 -0.7030  0.0435 -0.4505
 9247SOL     OW39373   1.493   4.632  14.284  0.1050  0.2395 -0.0142
 9247SOL    HW139374   1.580   4.590  14.287  0.3848  0.7470 -0.9854
 9247SOL    HW239375   1.434   4.562  14.312 -0.4042  0.5844 -0.2327
 9248SOL     OW39376   4.689   3.787   8.219 -0.2785  0.0957  0.5813
 9248SOL    HW139377   0.001   3.739   8.152  1.8693 -0.6580  2.6751
 9248SOL    HW239378   0.017   3.834   8.273  0.2403 -2.0405  1.8271
 9249SOL     OW39379   4.258   4.029   7.373  0.2434 -0.7009 -0.0031
 9249SOL    HW139380   4.262   4.115   7.414  0.2869 -1.0119  0.6500
 9249SOL    HW239381   4.187   4.048   7.313  3.5136  1.4861 -3.1728
 9250SOL     OW39382   4.174   3.633  13.017 -0.3105 -0.3861 -0.2810
 9250SOL    HW139383   4.216   3.696  13.076  0.6985 -0.9218 -0.4174
 9250SOL    HW239384   4.082   3.654  13.030 -0.5262 -1.7940  0.4803
 9251SOL     OW39385   1.395   2.875   2.283 -0.2979 -0.0569  0.3530
 9251SOL    HW139386   1.401   2.950   2.224  0.7441  0.6737  1.3598
 9251SOL    HW239387   1.307   2.891   2.316  0.4105  1.3477  1.5781
 9252SOL     OW39388   4.253   1.149   7.882  0.1939  0.0488 -0.3256
 9252SOL    HW139389   4.262   1.224   7.941  0.3945 -0.8722  0.8076
 9252SOL    HW239390   4.320   1.165   7.815  0.2017 -0.7675 -0.5143
 9253SOL     OW39391   0.536   1.540   3.365  0.4149 -0.1095  0.3940
 9253SOL    HW139392   0.468   1.573   3.306  1.1552 -0.9486 -0.9327
 9253SOL    HW239393   0.502   1.458   3.401 -2.6478  1.9300  2.1302
 9254SOL     OW39394   3.086   0.540  15.166 -0.3223 -0.4418 -0.2829
 9254SOL    HW139395   3.040   0.524  15.083 -2.8561  0.1329  0.9958
 9254SOL    HW239396   3.081   0.449  15.197 -0.2209 -1.4734 -3.2832
 9255SOL     OW39397   3.006   1.977   0.360  0.4470 -0.2213 -0.7894
 9255SOL    HW139398   2.966   2.041   0.300 -0.7352  1.4378  1.7737
 9255SOL    HW239399   2.938   1.910   0.372  1.0219 -1.2109 -3.0463
 9256SOL     OW39400   0.203   4.221   5.155 -0.3573  0.2213 -0.5509
 9256SOL    HW139401   0.115   4.236   5.190 -0.2713 -2.6635  0.8376
 9256SOL    HW239402   0.229   4.305   5.117 -0.6078  1.7944  2.7082
 9257SOL     OW39403   0.548   0.448   0.640  0.1920 -0.0224  0.0156
 9257SOL    HW139404   0.539   0.430   0.547  1.5493 -0.9639  0.0639
 9257SOL    HW239405   0.478   0.392   0.675 -0.0059  0.4655  0.4102
 9258SOL     OW39406   2.587   1.362   4.333  0.9603 -0.3170  0.3223
 9258SOL    HW139407   2.670   1.354   4.381  1.7888 -2.2555 -1.4415
 9258SOL    HW239408   2.542   1.407   4.405 -1.9078 -1.4811 -0.7633
 9259SOL     OW39409   4.224   2.436   9.168 -0.3658  0.6165  0.2559
 9259SOL    HW139410   4.290   2.448   9.099 -0.9162 -2.8589 -0.9193
 9259SOL    HW239411   4.192   2.525   9.179 -1.9802  0.0914 -0.2415
 9260SOL     OW39412   0.780   3.391   5.817 -0.3779 -0.5525 -0.0159
 9260SOL    HW139413   0.745   3.394   5.727 -1.2693 -0.7809  0.3208
 9260SOL    HW239414   0.783   3.480   5.851 -0.7822 -1.1528  1.5578
 9261SOL     OW39415   0.037   2.466   8.923 -0.5835  0.3143  0.1996
 9261SOL    HW139416   4.704   2.406   8.893  0.5464 -1.1473  0.5062
 9261SOL    HW239417   0.046   2.434   9.013  1.7268 -1.6779 -0.7186
 9262SOL     OW39418   4.266   2.869  17.116  0.1878 -0.3949  0.2223
 9262SOL    HW139419   4.297   2.852  17.205  0.0904 -2.7604 -0.2093
 9262SOL    HW239420   4.222   2.788  17.090 -0.6951 -0.1413  0.9293
 9263SOL     OW39421   1.670   3.349   3.923 -0.6023  0.3914  0.1796
 9263SOL    HW139422   1.621   3.313   3.849  0.2136 -2.2417  0.9214
 9263SOL    HW239423   1.702   3.268   3.964 -1.7258 -0.1088  0.0906
 9264SOL     OW39424   2.269   0.829   4.277  0.1468 -0.6609  0.2879
 9264SOL    HW139425   2.218   0.909   4.260 -0.6276 -1.5569 -1.5451
 9264SOL    HW239426   2.361   0.857   4.280 -0.4014  1.4272 -3.4524
 9265SOL     OW39427   3.030   2.026  16.667 -0.4676  0.0318  0.7107
 9265SOL    HW139428   3.078   2.075  16.601  0.7205 -2.3107 -0.1645
 9265SOL    HW239429   3.055   2.067  16.750  1.5894  0.3586 -0.0788
 9266SOL     OW39430   1.461   1.417   3.068 -0.0512  0.4129  0.4860
 9266SOL    HW139431   1.555   1.406   3.051  0.1460  2.2630  0.4128
 9266SOL    HW239432   1.434   1.335   3.109 -1.0104  0.0591 -0.8374
 9267SOL     OW39433   2.800   2.141   6.732 -0.4106 -0.4561  0.5588
 9267SOL    HW139434   2.743   2.068   6.755 -1.1897 -0.2437 -0.7324
 9267SOL    HW239435   2.754   2.217   6.767  0.4482 -0.1970  1.1415
 9268SOL     OW39436   3.566   2.812  13.078 -0.1666 -0.3459 -0.2876
 9268SOL    HW139437   3.654   2.788  13.108 -0.3099 -1.2136 -0.5588
 9268SOL    HW239438   3.590   2.894  13.035 -1.0197 -0.4839 -1.0280
 9269SOL     OW39439   0.948   2.208   6.933 -0.5544  0.2562  0.2237
 9269SOL    HW139440   0.889   2.240   7.001 -0.6364  4.5084 -1.8934
 9269SOL    HW239441   0.899   2.197   6.851 -0.6295 -1.9607  0.5584
 9270SOL     OW39442   2.626   3.814   3.804 -0.1714 -0.6875  0.0609
 9270SOL    HW139443   2.659   3.832   3.717 -2.6299  1.2006 -0.4836
 9270SOL    HW239444   2.604   3.721   3.799  0.7034 -0.7987 -1.5913
 9271SOL     OW39445   0.980   2.921  16.256  0.3124  0.1497  0.6252
 9271SOL    HW139446   0.911   2.946  16.194 -1.1572 -3.2255  0.8879
 9271SOL    HW239447   0.944   2.843  16.299  0.6641 -0.8426 -0.8752
 9272SOL     OW39448   3.750   0.702  12.386  0.4119  0.0712  0.3386
 9272SOL    HW139449   3.808   0.778  12.394  0.5904 -0.0138 -0.1404
 9272SOL    HW239450   3.663   0.737  12.404  0.1220 -0.9428  0.9249
 9273SOL     OW39451   2.494   3.805   5.465  0.1529  0.1132  0.0513
 9273SOL    HW139452   2.466   3.729   5.517  0.1888 -0.8249 -1.3099
 9273SOL    HW239453   2.520   3.865   5.535  0.2125  1.5035 -1.1611
 9274SOL     OW39454   4.251   2.268   3.990 -0.3214 -0.0554  0.6074
 9274SOL    HW139455   4.292   2.208   3.927  0.4518  1.4644 -0.3645
 9274SOL    HW239456   4.178   2.295   3.935 -0.2302 -2.9165 -0.8916
 9275SOL     OW39457   1.675   1.424  16.652  0.0146 -0.2283  0.5524
 9275SOL    HW139458   1.684   1.409  16.746  0.4381 -0.6105  0.4478
 9275SOL    HW239459   1.660   1.333  16.628  1.1190  0.1719 -1.6923
 9276SOL     OW39460   1.445   1.208   1.374  0.0074 -0.3209 -0.0603
 9276SOL    HW139461   1.411   1.233   1.460  0.6279 -0.4033  0.2029
 9276SOL    HW239462   1.363   1.169   1.343 -1.2103  2.5252 -0.4224
 9277SOL     OW39463   0.046   4.497  16.952  0.5221 -0.3619 -0.1931
 9277SOL    HW139464   4.690   4.512  16.928  0.0774  1.0179  2.3752
 9277SOL    HW239465   0.094   4.499  16.869 -1.4059 -0.6587 -1.2967
 9278SOL     OW39466   4.642   4.389   8.119  0.1426  0.4279 -0.1734
 9278SOL    HW139467   4.573   4.374   8.184 -1.9195 -0.2857 -2.5281
 9278SOL    HW239468   4.610   4.362   8.033 -0.8310  0.3842  0.2007
 9279SOL     OW39469   1.420   4.595   5.592  0.2820 -0.2660 -0.3226
 9279SOL    HW139470   1.370   4.514   5.592 -2.2097  1.2739  2.4167
 9279SOL    HW239471   1.471   4.565   5.517  0.5615 -2.1281  0.6305
 9280SOL     OW39472   2.717   0.976   1.777 -0.4335 -0.0885  0.1651
 9280SOL    HW139473   2.798   0.938   1.744 -1.1707 -1.9843  0.5626
 9280SOL    HW239474   2.654   0.935   1.719 -1.7078 -3.3452  3.8172
 9281SOL     OW39475   0.665   3.012   5.295 -0.5830  0.2506 -0.0588
 9281SOL    HW139476   0.613   2.968   5.228 -0.5449 -2.4703  1.6688
 9281SOL    HW239477   0.679   2.930   5.343 -1.6326 -0.1477 -0.4464
 9282SOL     OW39478   3.953   0.159   8.082  0.1851  0.0007  0.0249
 9282SOL    HW139479   3.907   0.177   8.164 -0.0859 -1.5064  0.2035
 9282SOL    HW239480   3.940   0.241   8.034  0.7615 -0.7631 -1.4615
 9283SOL     OW39481   0.771   1.518   7.791 -0.4463  0.1173  0.0789
 9283SOL    HW139482   0.837   1.561   7.737 -0.3628 -0.8355 -0.5850
 9283SOL    HW239483   0.731   1.595   7.832  0.4159 -1.0782  3.1405
 9284SOL     OW39484   0.805   4.586   5.326 -0.0434  0.0501  0.4677
 9284SOL    HW139485   0.713   4.579   5.301  0.2664  0.0853 -0.6993
 9284SOL    HW239486   0.790   4.671   5.366 -0.3753  0.5101 -0.6166
 9285SOL     OW39487   4.450   2.904   8.339 -0.2111  0.1419 -0.1009
 9285SOL    HW139488   4.355   2.916   8.349 -0.0580  1.6401 -0.5459
 9285SOL    HW239489   4.462   2.942   8.252  0.7918 -0.2473 -0.1296
 9286SOL     OW39490   1.403   2.283   9.772 -0.2641 -0.6210  0.1921
 9286SOL    HW139491   1.398   2.332   9.854  4.3175 -1.6787  1.1440
 9286SOL    HW239492   1.425   2.195   9.804  2.2511 -0.4694 -1.0807
 9287SOL     OW39493   2.351   4.641   4.265  0.1390 -0.4419  0.4253
 9287SOL    HW139494   2.446   4.636   4.258  0.0302 -0.1121 -1.3071
 9287SOL    HW239495   2.325   4.561   4.310 -0.7092  0.6470  1.8845
 9288SOL     OW39496   0.634   3.364   8.562 -0.1101  0.1618  0.0864
 9288SOL    HW139497   0.589   3.297   8.511  0.3628  0.6157 -0.9321
 9288SOL    HW239498   0.588   3.390   8.642  1.0111 -1.7934  1.3618
 9289SOL     OW39499   3.155   1.243   8.923  0.0795  0.6802 -0.5407
 9289SOL    HW139500   3.160   1.330   8.964 -0.2625  0.5092 -0.1367
 9289SOL    HW239501   3.229   1.249   8.862  0.4195 -1.9424 -0.3758
 9290SOL     OW39502   4.081   3.204   4.911  0.5804 -0.3802  0.2757
 9290SOL    HW139503   4.053   3.275   4.852  2.1573 -0.0265 -0.0342
 9290SOL    HW239504   4.106   3.261   4.984  0.6930  3.5015 -2.7631
 9291SOL     OW39505   0.351   2.832   1.732  0.3967 -0.0595 -0.1683
 9291SOL    HW139506   0.373   2.739   1.745  0.2080 -0.2541 -1.2115
 9291SOL    HW239507   0.421   2.862   1.675 -0.2854 -0.1179 -1.0461
 9292SOL     OW39508   0.436   1.163   9.999  0.5728  0.3223  0.2624
 9292SOL    HW139509   0.404   1.252  10.016 -0.7670  0.0372 -0.7685
 9292SOL    HW239510   0.509   1.169  10.061  0.2669  1.2391  0.5444
 9293SOL     OW39511   3.797   2.833   3.997 -0.0818 -0.0309 -0.1012
 9293SOL    HW139512   3.807   2.908   3.937 -2.2650  0.2331 -0.1549
 9293SOL    HW239513   3.808   2.864   4.087  0.8324 -3.8434  1.0853
 9294SOL     OW39514   3.993   2.840   5.709 -0.4328  0.3038 -0.3452
 9294SOL    HW139515   3.956   2.900   5.774  0.4630 -0.9388  1.3066
 9294SOL    HW239516   3.953   2.759   5.739 -1.3473 -0.1789 -2.9401
 9295SOL     OW39517   0.307   3.617   7.285  0.2611  0.0571 -0.6193
 9295SOL    HW139518   0.270   3.706   7.288 -1.8514 -0.8726  1.0147
 9295SOL    HW239519   0.378   3.629   7.348 -0.4999  1.4142 -0.0017
 9296SOL     OW39520   0.555   3.817   0.509 -0.2976 -0.1057  0.0639
 9296SOL    HW139521   0.539   3.884   0.576  3.1686  1.6196 -0.8842
 9296SOL    HW239522   0.503   3.749   0.553  0.1643  0.3224  1.2678
 9297SOL     OW39523   0.498   1.613   2.440  0.0686 -0.0970 -0.9449
 9297SOL    HW139524   0.436   1.543   2.460  1.9732 -1.5814 -0.2462
 9297SOL    HW239525   0.491   1.611   2.345  0.6882 -0.2759 -0.9915
 9298SOL     OW39526   0.050   3.405  14.119 -0.1005 -0.2099  0.1111
 9298SOL    HW139527   0.011   3.490  14.142  0.5139  0.5324 -1.5846
 9298SOL    HW239528   0.104   3.423  14.042 -1.1361 -0.8163 -0.7415
 9299SOL     OW39529   0.764   2.153  12.920  0.2997 -0.1687  0.5972
 9299SOL    HW139530   0.763   2.074  12.867 -1.3892  1.5424 -1.9593
 9299SOL    HW239531   0.761   2.216  12.847  1.0179  0.7340  1.3392
 9300SOL     OW39532   2.812   1.473   8.049  0.1439 -0.4448  0.1945
 9300SOL    HW139533   2.812   1.390   8.097 -0.4767 -0.0493  0.8913
 9300SOL    HW239534   2.744   1.521   8.097 -1.7116 -2.6934 -0.2192
 9301SOL     OW39535   2.159   2.199   8.083 -0.1308 -0.1618 -0.2507
 9301SOL    HW139536   2.080   2.145   8.081 -0.3225  0.0835  0.6072
 9301SOL    HW239537   2.120   2.278   8.044  3.9811  0.9046 -2.2835
 9302SOL     OW39538   0.326   0.152   7.832 -0.3323 -0.2221  0.2393
 9302SOL    HW139539   0.371   0.200   7.763  0.3675 -0.4208  0.5623
 9302SOL    HW239540   0.379   0.172   7.909  0.6013  0.5615 -0.6087
 9303SOL     OW39541   1.681   0.726   5.743 -0.6032  0.5212 -0.1656
 9303SOL    HW139542   1.715   0.750   5.829 -1.5585  0.7646  0.1510
 9303SOL    HW239543   1.586   0.725   5.759 -0.7894  1.8099 -1.1643
 9304SOL     OW39544   2.411   0.260   6.894 -0.2423 -0.3220  0.1821
 9304SOL    HW139545   2.491   0.210   6.872 -0.5461 -0.6942 -0.0803
 9304SOL    HW239546   2.437   0.345   6.859 -1.7731  1.1002  2.5345
 9305SOL     OW39547   4.211   1.835   6.005 -0.0121 -0.1516 -0.4786
 9305SOL    HW139548   4.256   1.832   6.089 -1.0516 -0.0148  0.0728
 9305SOL    HW239549   4.151   1.764   6.025  0.0387  0.1564  0.7675
 9306SOL     OW39550   3.938   3.831   3.794  0.1029 -0.2229  0.3588
 9306SOL    HW139551   3.946   3.754   3.738 -0.1378 -0.6787  0.9531
 9306SOL    HW239552   4.017   3.882   3.775 -0.5247  0.3042 -0.8054
 9307SOL     OW39553   4.261   1.428  13.486  0.0112 -0.6798 -0.2423
 9307SOL    HW139554   4.208   1.375  13.546 -1.7295  1.9603  0.5243
 9307SOL    HW239555   4.265   1.510  13.536  0.6409 -0.0474 -1.3402
 9308SOL     OW39556   1.352   0.315  15.937 -0.5767  0.5371  0.1453
 9308SOL    HW139557   1.410   0.274  16.002 -0.2166 -1.4825 -1.4598
 9308SOL    HW239558   1.387   0.404  15.941 -1.2768  0.7968  0.5824
 9309SOL     OW39559   1.941   2.874   1.098  0.2189 -0.2052 -0.6109
 9309SOL    HW139560   2.023   2.888   1.051 -1.0151  1.8381 -2.1481
 9309SOL    HW239561   1.918   2.786   1.070  1.4250 -0.9386  0.6945
 9310SOL     OW39562   4.699   1.411   5.205  0.4781  0.4158  0.4949
 9310SOL    HW139563   4.707   1.463   5.285 -1.1133  1.2618  0.0856
 9310SOL    HW239564   0.001   1.329   5.238 -0.5307  0.0299  0.6641
 9311SOL     OW39565   4.505   3.975   8.406 -0.1298 -0.2620  0.5193
 9311SOL    HW139566   4.585   3.930   8.380 -0.4314 -1.1373  1.1028
 9311SOL    HW239567   4.458   3.977   8.323  0.6154  0.2773  0.1152
 9312SOL     OW39568   1.047   1.044   8.060 -0.3986 -0.3837 -0.1127
 9312SOL    HW139569   1.053   0.974   8.124 -2.0302  1.0433  1.6240
 9312SOL    HW239570   1.116   1.105   8.084 -0.9418  0.6730 -1.1762
 9313SOL     OW39571   0.657   4.190   4.559  0.2696 -0.3801 -0.2683
 9313SOL    HW139572   0.624   4.168   4.472  1.2084 -0.7951 -0.5238
 9313SOL    HW239573   0.598   4.259   4.589  0.0761 -0.5482 -0.2615
 9314SOL     OW39574   2.257   3.599  13.548  0.0956  0.2381 -0.0337
 9314SOL    HW139575   2.239   3.598  13.642  0.4561 -1.4727  0.0082
 9314SOL    HW239576   2.325   3.532  13.541 -1.0006 -1.1501  2.6554
 9315SOL     OW39577   3.510   3.597   6.156 -0.6737 -0.2119  0.2066
 9315SOL    HW139578   3.421   3.595   6.122 -0.2054 -0.3369 -1.0159
 9315SOL    HW239579   3.510   3.532   6.226 -3.2514  0.2649  0.6431
 9316SOL     OW39580   1.057   3.197   5.937  0.6256  0.0795 -0.1664
 9316SOL    HW139581   0.975   3.148   5.948  1.2034 -0.6614  0.8687
 9316SOL    HW239582   1.112   3.131   5.896 -0.8873 -0.5973 -1.0961
 9317SOL     OW39583   3.211   2.240   6.675  0.0923  0.3195 -0.4094
 9317SOL    HW139584   3.248   2.241   6.587 -1.7770 -1.4502 -1.2352
 9317SOL    HW239585   3.136   2.299   6.668 -0.9119 -0.9517 -0.5276
 9318SOL     OW39586   0.821   2.799   6.056 -0.4867  0.0323  0.4692
 9318SOL    HW139587   0.899   2.746   6.070  1.5040  3.6078  3.0598
 9318SOL    HW239588   0.765   2.744   6.000 -1.4382  1.7655 -0.3030
 9319SOL     OW39589   4.601   1.067  14.616 -0.4837 -0.4940  0.6011
 9319SOL    HW139590   4.519   1.097  14.653  0.0344  1.4579  0.1750
 9319SOL    HW239591   4.586   1.055  14.522 -1.1342  2.0165  0.3947
 9320SOL     OW39592   4.483   2.913  13.167 -0.1750  0.2051 -0.5458
 9320SOL    HW139593   4.442   2.982  13.115 -0.0423 -0.1182 -1.0770
 9320SOL    HW239594   4.408   2.855  13.171 -2.6380  3.3534 -1.5153
 9321SOL     OW39595   2.618   1.908   6.714 -0.2953  0.1316 -0.0326
 9321SOL    HW139596   2.535   1.891   6.670 -0.3955  2.2559 -0.6923
 9321SOL    HW239597   2.606   1.854   6.792  0.6747  0.9752  0.7188
 9322SOL     OW39598   4.603   0.232   1.282  0.1826 -0.1988 -0.6679
 9322SOL    HW139599   4.544   0.230   1.357  1.8752  2.5342  0.7500
 9322SOL    HW239600   4.689   0.225   1.321  0.2545 -2.2776 -1.2366
 9323SOL     OW39601   3.708   1.896  16.378 -0.2121 -0.3340  0.6206
 9323SOL    HW139602   3.783   1.844  16.347  0.3259 -0.2199  1.7146
 9323SOL    HW239603   3.748   1.982  16.362 -0.1484 -0.7038 -1.2095
 9324SOL     OW39604   2.628   1.189   3.488 -0.1761 -0.2253 -0.1648
 9324SOL    HW139605   2.692   1.221   3.425  1.7557 -1.9204  0.8972
 9324SOL    HW239606   2.638   1.256   3.555 -1.5291  0.4230 -0.6287
 9325SOL     OW39607   4.476   3.986   6.929  0.4468 -0.3865  0.1165
 9325SOL    HW139608   4.466   3.998   7.024 -2.6173 -0.1575 -0.2528
 9325SOL    HW239609   4.465   3.892   6.917 -0.2981 -0.2693 -0.0931
 9326SOL     OW39610   0.362   0.514   5.328  0.0617  0.3753  0.2148
 9326SOL    HW139611   0.299   0.535   5.398 -0.6059 -2.7912  0.5552
 9326SOL    HW239612   0.310   0.477   5.257  0.4166  1.6978 -0.7257
 9327SOL     OW39613   2.420   1.297   3.847  0.0092 -0.4395 -0.7841
 9327SOL    HW139614   2.375   1.269   3.767  1.2753  0.3304 -1.7724
 9327SOL    HW239615   2.378   1.382   3.862 -3.2171 -2.1297 -0.2931
 9328SOL     OW39616   4.310   2.302   8.411 -0.8047 -0.1739 -0.3643
 9328SOL    HW139617   4.297   2.338   8.499  0.1839 -2.4604  0.7152
 9328SOL    HW239618   4.240   2.358   8.376 -0.5992 -0.7198 -1.6482
 9329SOL     OW39619   2.732   0.821  16.669 -0.3003 -0.4423 -0.1511
 9329SOL    HW139620   2.766   0.798  16.756 -2.1809 -0.8208  0.4737
 9329SOL    HW239621   2.640   0.795  16.664  0.5062 -2.7656 -2.6192
 9330SOL     OW39622   3.192   1.263  15.570  0.1060 -0.1817  0.2703
 9330SOL    HW139623   3.288   1.264  15.577  0.0133 -0.3810  1.4656
 9330SOL    HW239624   3.183   1.342  15.516 -0.8125  0.1635  0.9319
 9331SOL     OW39625   2.180   1.319  15.237 -0.1604 -0.1295 -0.5448
 9331SOL    HW139626   2.089   1.289  15.242  0.6263 -2.1912  1.6855
 9331SOL    HW239627   2.182   1.336  15.143  0.3559  0.3256 -0.4514
 9332SOL     OW39628   0.280   1.224   5.085  0.9485  0.1901 -0.0383
 9332SOL    HW139629   0.206   1.193   5.138 -0.5297  1.2174 -1.5411
 9332SOL    HW239630   0.356   1.208   5.142  1.4081  0.9495 -0.4520
 9333SOL     OW39631   0.285   2.959   4.381  0.0265 -0.3099  0.5354
 9333SOL    HW139632   0.265   3.043   4.339 -2.4713 -1.2347 -0.1243
 9333SOL    HW239633   0.366   2.945   4.332  0.8905  0.2205  1.8265
 9334SOL     OW39634   1.001   0.329   2.253  0.3278  0.2266 -0.0588
 9334SOL    HW139635   0.974   0.415   2.221  0.9423 -0.1111 -1.4940
 9334SOL    HW239636   1.073   0.351   2.312  1.4755  0.2008 -1.4565
 9335SOL     OW39637   3.277   1.727  11.445 -0.0869 -0.0199 -0.0050
 9335SOL    HW139638   3.294   1.711  11.352 -0.9347  0.7207 -0.2840
 9335SOL    HW239639   3.283   1.821  11.462  0.6308  0.3167 -2.1684
 9336SOL     OW39640   0.663   1.902   0.341  0.7983 -0.0077 -0.2579
 9336SOL    HW139641   0.599   1.973   0.342  0.6261 -0.1644 -0.0892
 9336SOL    HW239642   0.603   1.827   0.343  0.2863  0.4163  0.3131
 9337SOL     OW39643   2.353   0.502   3.120  0.4498 -0.6963 -0.5951
 9337SOL    HW139644   2.345   0.414   3.157  1.1864 -1.1763 -1.5551
 9337SOL    HW239645   2.263   0.514   3.092  0.2988  0.5686  0.4272
 9338SOL     OW39646   0.245   4.282   4.227  0.5536 -0.5691 -0.1460
 9338SOL    HW139647   0.177   4.321   4.282  1.1690  1.6104 -0.9278
 9338SOL    HW239648   0.269   4.364   4.184 -3.1070 -0.3368 -1.7136
 9339SOL     OW39649   4.408   0.882  12.303 -0.2790 -0.2828  0.3556
 9339SOL    HW139650   4.386   0.790  12.283 -0.1873 -0.3484  0.5626
 9339SOL    HW239651   4.501   0.882  12.327  0.5043  0.0608 -2.5664
 9340SOL     OW39652   4.344   0.362   9.129 -0.5403 -0.4345 -0.0483
 9340SOL    HW139653   4.368   0.409   9.208  1.2440 -1.5873  0.0935
 9340SOL    HW239654   4.257   0.340   9.161 -0.2030  0.7296  1.6911
 9341SOL     OW39655   2.579   1.564   1.013  0.1639  0.0883 -0.5924
 9341SOL    HW139656   2.543   1.557   1.101  0.5089  1.5001 -0.3433
 9341SOL    HW239657   2.674   1.562   1.025  0.0722 -0.6845 -0.0263
 9342SOL     OW39658   0.435   1.017  13.229 -0.9503  0.0584  0.2339
 9342SOL    HW139659   0.475   1.005  13.315  0.2551  0.6297 -0.2400
 9342SOL    HW239660   0.462   0.938  13.182  1.4755  0.6758  0.5998
 9343SOL     OW39661   1.231   4.609  17.239 -0.4482  0.7838 -0.0853
 9343SOL    HW139662   1.229   4.514  17.224 -0.6047  0.2801  3.1188
 9343SOL    HW239663   1.296   4.627  17.171 -3.5897  0.7612 -3.1002
 9344SOL     OW39664   4.687   0.879   4.881 -0.2575 -0.0940  0.3000
 9344SOL    HW139665   4.597   0.877   4.914 -0.3427  0.4838  0.0964
 9344SOL    HW239666   4.700   0.972   4.868  0.7693 -0.7224 -3.0965
 9345SOL     OW39667   0.146   0.597   8.218 -0.3174  0.1538 -0.4736
 9345SOL    HW139668   0.178   0.522   8.168 -0.6162 -0.1383 -0.2342
 9345SOL    HW239669   0.171   0.565   8.305  1.5425  2.3405 -0.2130
 9346SOL     OW39670   4.411   2.303   4.865 -0.2177 -0.3348 -0.2572
 9346SOL    HW139671   4.474   2.280   4.797  1.3647  0.9181  0.7880
 9346SOL    HW239672   4.334   2.321   4.813 -1.0979  0.9486  1.4842
 9347SOL     OW39673   1.882   1.079   5.766  0.3716 -0.0525  0.1365
 9347SOL    HW139674   1.923   1.011   5.818 -0.0669 -2.0617 -2.1618
 9347SOL    HW239675   1.958   1.089   5.708  0.8546  0.8070  0.9315
 9348SOL     OW39676   3.082   2.480   2.561  0.0480 -0.1265  0.2561
 9348SOL    HW139677   3.145   2.434   2.617 -0.9516  0.2586  1.6984
 9348SOL    HW239678   3.011   2.421   2.536  0.9710 -0.7969 -0.8140
 9349SOL     OW39679   0.419   0.287   9.900 -0.2132 -0.1413  0.2053
 9349SOL    HW139680   0.379   0.333   9.827  0.9114  0.8012  0.1806
 9349SOL    HW239681   0.512   0.306   9.884 -0.5308  1.2496  0.0562
 9350SOL     OW39682   4.331   1.409   5.592  0.1905  0.1498 -0.2808
 9350SOL    HW139683   4.408   1.358   5.616  0.2956  0.1356 -0.6507
 9350SOL    HW239684   4.265   1.341   5.579 -0.5174  0.5943  0.9483
 9351SOL     OW39685   3.310   2.535  10.699  0.2021  0.3776  0.4084
 9351SOL    HW139686   3.221   2.561  10.676  0.4065  1.7147  1.1252
 9351SOL    HW239687   3.348   2.544  10.612 -1.4387  3.2503  0.0050
 9352SOL     OW39688   4.007   3.876   4.584 -0.5023  0.0800  0.0128
 9352SOL    HW139689   3.953   3.846   4.658  0.5244  0.2914  0.8549
 9352SOL    HW239690   4.040   3.958   4.621 -0.5103 -1.6231  3.8953
 9353SOL     OW39691   0.049   0.386   2.658  1.0644  0.2380 -0.8394
 9353SOL    HW139692   0.132   0.370   2.703 -0.6118 -0.6787  1.9682
 9353SOL    HW239693   4.731   0.314   2.693  0.4547  1.2498  0.3081
 9354SOL     OW39694   0.652   3.537   7.381 -0.0188 -0.1278  0.1704
 9354SOL    HW139695   0.560   3.535   7.407 -0.6218 -2.8303 -2.0986
 9354SOL    HW239696   0.668   3.631   7.375  0.3984 -0.1366  1.1275
 9355SOL     OW39697   3.572   3.869   6.237 -0.2868  0.1581 -0.2956
 9355SOL    HW139698   3.552   3.782   6.204  0.6169 -0.6232  1.1858
 9355SOL    HW239699   3.646   3.883   6.179 -0.3842  1.8948  0.0068
 9356SOL     OW39700   1.795   3.662   9.399 -0.1310 -0.2800 -0.0550
 9356SOL    HW139701   1.701   3.683   9.402  0.1201  1.1536 -1.8862
 9356SOL    HW239702   1.789   3.627   9.310 -3.1036 -0.9395  0.4121
 9357SOL     OW39703   3.516   0.457   5.206 -0.1367 -0.5660 -0.2547
 9357SOL    HW139704   3.420   0.459   5.213 -0.3404 -0.2432 -3.3815
 9357SOL    HW239705   3.537   0.549   5.216 -1.6981 -0.2105 -0.2455
 9358SOL     OW39706   3.266   2.862   7.497 -0.2394 -0.0795 -0.0551
 9358SOL    HW139707   3.311   2.814   7.428 -0.7674  0.9979 -1.1543
 9358SOL    HW239708   3.179   2.892   7.469  0.5129  0.2076 -2.0590
 9359SOL     OW39709   3.287   3.687   8.454  0.1412  0.3780 -0.2401
 9359SOL    HW139710   3.305   3.595   8.437  0.5988 -0.1598  3.0195
 9359SOL    HW239711   3.333   3.721   8.531 -1.2613 -0.8188  1.1271
 9360SOL     OW39712   0.001   0.172   8.083 -0.2052  0.3440  0.8753
 9360SOL    HW139713   4.722   0.079   8.101  1.5905  0.3071  2.1445
 9360SOL    HW239714   4.735   0.195   8.176 -1.5032  2.2788  0.3896
 9361SOL     OW39715   4.223   4.724  15.170  0.4394 -0.1108 -0.0499
 9361SOL    HW139716   4.307   4.683  15.148  1.1938  1.5262 -0.2609
 9361SOL    HW239717   4.256   0.078  15.176 -5.2931  2.1182 -1.6605
 9362SOL     OW39718   2.127   0.663  13.171 -0.1527 -0.0525 -0.5749
 9362SOL    HW139719   2.118   0.636  13.079 -0.8791  0.3618 -0.6301
 9362SOL    HW239720   2.197   0.603  13.196 -1.1220 -1.8596 -2.0998
 9363SOL     OW39721   3.446   0.190  10.622 -0.8171 -1.0970 -0.3032
 9363SOL    HW139722   3.485   0.257  10.678 -3.1287  0.7972 -0.9633
 9363SOL    HW239723   3.521   0.182  10.562  0.8281 -1.5235  1.7888
 9364SOL     OW39724   3.391   2.329   5.507 -0.5483  0.6618  0.6990
 9364SOL    HW139725   3.411   2.422   5.509  0.6939  0.4754 -2.1696
 9364SOL    HW239726   3.310   2.340   5.458 -0.9453 -3.5795  0.4268
 9365SOL     OW39727   1.708   3.032   4.596 -0.6485 -0.1937  0.2254
 9365SOL    HW139728   1.616   3.051   4.612 -0.6622 -0.1637  0.1143
 9365SOL    HW239729   1.741   2.985   4.671  1.0752  1.4649  0.5194
 9366SOL     OW39730   3.373   2.837   8.882 -0.0292 -0.1142  0.4616
 9366SOL    HW139731   3.413   2.923   8.896 -0.1829 -0.1039  0.8447
 9366SOL    HW239732   3.281   2.846   8.908  0.5033  2.4274  1.4731
 9367SOL     OW39733   2.011   0.395   3.663  0.3868 -0.0925 -0.0987
 9367SOL    HW139734   2.019   0.322   3.724 -0.5522 -0.4384 -0.3740
 9367SOL    HW239735   1.948   0.456   3.701 -2.4809 -2.5454 -0.9206
 9368SOL     OW39736   3.909   4.576   9.374 -0.0761  0.5870 -0.3300
 9368SOL    HW139737   3.850   4.520   9.423 -0.1536  0.8177 -0.1632
 9368SOL    HW239738   3.932   4.635   9.445 -0.3619 -1.5593  1.5272
 9369SOL     OW39739   1.073   0.872   7.120  0.1960 -0.3036  0.1749
 9369SOL    HW139740   1.057   0.831   7.035 -0.2075 -1.4582  0.8055
 9369SOL    HW239741   0.986   0.910   7.133 -0.3909 -1.3060 -0.7814
 9370SOL     OW39742   0.976   4.721  14.774 -0.6324 -0.1616  0.7509
 9370SOL    HW139743   1.057   4.730  14.723  0.0706 -1.6758  1.5868
 9370SOL    HW239744   0.950   4.633  14.747 -0.6960  0.1426 -0.1982
 9371SOL     OW39745   4.109   1.343  15.820 -0.4030  0.1629  0.5262
 9371SOL    HW139746   4.168   1.279  15.859 -0.3685 -1.7963 -2.7323
 9371SOL    HW239747   4.105   1.412  15.887 -0.0147 -0.0505  0.7634
 9372SOL     OW39748   3.726   3.338   2.894 -0.0500  0.2175 -0.5016
 9372SOL    HW139749   3.773   3.304   2.970  1.3212 -0.6889 -1.7268
 9372SOL    HW239750   3.798   3.386   2.852 -1.0768  2.2012  0.0379
 9373SOL     OW39751   2.089   3.112  13.417 -0.4751 -0.2181 -0.0116
 9373SOL    HW139752   2.143   3.103  13.495 -0.1671  1.4591 -0.0314
 9373SOL    HW239753   2.042   3.192  13.443  0.3617  1.4503 -3.6282
 9374SOL     OW39754   3.017   2.987   8.580  0.1050 -0.0727 -0.0279
 9374SOL    HW139755   3.047   3.060   8.525  1.1476 -1.5240 -1.3574
 9374SOL    HW239756   2.930   3.008   8.614  0.0588 -2.1541  1.1300
 9375SOL     OW39757   1.691   2.966   4.340  0.0806  0.2734 -0.0117
 9375SOL    HW139758   1.696   2.993   4.432 -2.2205  0.5095  0.0264
 9375SOL    HW239759   1.785   2.964   4.321 -0.1198 -1.8235 -0.7579
 9376SOL     OW39760   3.327   3.857   2.258  0.0862 -0.3332 -0.2188
 9376SOL    HW139761   3.232   3.864   2.264  0.0077 -2.5020  1.0942
 9376SOL    HW239762   3.330   3.761   2.257  1.3877 -0.2782 -1.7822
 9377SOL     OW39763   4.455   1.089   4.667  0.2012 -0.5104 -0.1387
 9377SOL    HW139764   4.416   1.070   4.752  1.4914  2.2224  1.0804
 9377SOL    HW239765   4.375   1.101   4.615 -0.0535 -1.1799  0.1019
 9378SOL     OW39766   0.295   0.486   6.601  0.3521  0.1119  0.4562
 9378SOL    HW139767   0.207   0.455   6.579  1.4048 -2.4764 -0.1393
 9378SOL    HW239768   0.286   0.579   6.582  2.7709  0.0237 -1.0551
 9379SOL     OW39769   2.521   2.945   8.446  0.1599 -0.9051 -0.0891
 9379SOL    HW139770   2.524   2.973   8.354 -0.7838 -1.3902 -0.2620
 9379SOL    HW239771   2.615   2.946   8.466 -0.0678 -0.5887  0.9292
 9380SOL     OW39772   4.238   0.665   9.205  0.3968  0.3329  0.2964
 9380SOL    HW139773   4.280   0.588   9.244 -0.7594 -0.4455 -0.0219
 9380SOL    HW239774   4.307   0.727   9.231 -1.0032  1.6791  0.7567
 9381SOL     OW39775   4.530   2.138   9.377  0.3697  0.3074  0.0368
 9381SOL    HW139776   4.526   2.139   9.282  1.8590  2.9254  0.0218
 9381SOL    HW239777   4.485   2.219   9.400 -0.3533  0.3350 -1.4731
 9382SOL     OW39778   2.092   1.896   5.509  0.3710  0.1344 -0.1866
 9382SOL    HW139779   2.032   1.826   5.536 -0.9059  0.7391 -1.5008
 9382SOL    HW239780   2.025   1.961   5.489  0.1980 -0.1841 -0.6406
 9383SOL     OW39781   3.802   4.198  10.218  0.4878  0.0953  0.3306
 9383SOL    HW139782   3.726   4.252  10.198 -0.4753 -1.9416 -1.4228
 9383SOL    HW239783   3.807   4.147  10.138 -4.2723 -1.1104  0.8105
 9384SOL     OW39784   4.715   1.138   4.840  0.1382  0.2309 -0.2627
 9384SOL    HW139785   0.020   1.190   4.770 -0.0261  2.4075  1.2695
 9384SOL    HW239786   4.652   1.202   4.871  0.7548  0.7058  0.0183
 9385SOL     OW39787   0.178   0.388   8.053 -0.1811  0.1427  0.5474
 9385SOL    HW139788   0.091   0.349   8.043  1.1866 -2.0671 -2.9096
 9385SOL    HW239789   0.204   0.400   7.962 -1.5258 -1.9846 -0.1343
 9386SOL     OW39790   3.669   3.914   1.755  0.0091  0.0844  0.1910
 9386SOL    HW139791   3.656   3.918   1.850 -0.2231 -2.0272  0.2490
 9386SOL    HW239792   3.626   3.829   1.744 -0.2259  0.2905 -0.4801
 9387SOL     OW39793   1.149   0.379   9.594  0.2273 -0.3689 -0.2248
 9387SOL    HW139794   1.217   0.342   9.650  0.7833  0.7558 -0.1462
 9387SOL    HW239795   1.136   0.321   9.519  0.7745  1.9330 -2.1418
 9388SOL     OW39796   3.400   0.804  14.362  0.3448 -0.0366  0.1188
 9388SOL    HW139797   3.325   0.774  14.414 -0.7510  4.1212  0.9302
 9388SOL    HW239798   3.365   0.861  14.294  0.0316 -0.2161  0.1282
 9389SOL     OW39799   0.476   0.359  11.068 -0.0094  0.5374 -0.3355
 9389SOL    HW139800   0.433   0.431  11.113 -1.6153 -1.1184  0.8072
 9389SOL    HW239801   0.551   0.343  11.126  0.2029 -1.3558 -1.1161
 9390SOL     OW39802   0.794   0.622  10.786  0.0526  0.3861  0.0633
 9390SOL    HW139803   0.703   0.598  10.799  0.8543 -1.5818  2.0127
 9390SOL    HW239804   0.828   0.554  10.728 -0.1898 -0.2032  0.6175
 9391SOL     OW39805   3.007   3.848   5.133  0.4051  0.1011 -0.2331
 9391SOL    HW139806   3.061   3.791   5.187 -0.7535 -0.4699  0.3445
 9391SOL    HW239807   2.918   3.841   5.170  0.0356 -0.6819 -1.2737
 9392SOL     OW39808   3.791   4.678   4.403 -0.2226  0.4064  0.0036
 9392SOL    HW139809   3.755   0.031   4.410  0.1637  0.6499 -1.0201
 9392SOL    HW239810   3.759   4.653   4.316  1.1555 -1.7894  0.1230
 9393SOL     OW39811   2.760   2.392   4.850  0.5968  0.2894  0.1788
 9393SOL    HW139812   2.725   2.480   4.839  3.5400  1.3756 -0.5845
 9393SOL    HW239813   2.719   2.361   4.931 -1.5201  1.4015 -0.4693
 9394SOL     OW39814   2.180   0.823   3.131  0.1284  0.4358  0.0258
 9394SOL    HW139815   2.099   0.838   3.082  0.6226 -0.1648 -0.9543
 9394SOL    HW239816   2.167   0.729   3.131  1.0654  0.3112  0.5917
 9395SOL     OW39817   4.269   1.318   2.226 -0.2636 -0.8407  0.1607
 9395SOL    HW139818   4.180   1.292   2.203 -0.6330 -0.3673  1.0221
 9395SOL    HW239819   4.247   1.361   2.309  1.0700  2.1299 -1.0133
 9396SOL     OW39820   0.729   0.393   8.811  0.4124  0.0091  0.0334
 9396SOL    HW139821   0.707   0.458   8.878  1.0274 -1.7067  1.9195
 9396SOL    HW239822   0.797   0.339   8.852  0.6024  0.2247  0.0005
 9397SOL     OW39823   2.866   0.255   2.435  0.4009 -0.1082  0.1055
 9397SOL    HW139824   2.869   0.166   2.399 -0.5063 -1.0851  2.3946
 9397SOL    HW239825   2.785   0.281   2.393  0.4408 -0.3530 -0.1245
 9398SOL     OW39826   3.831   3.852   6.128 -0.0514 -0.3515  0.0839
 9398SOL    HW139827   3.874   3.767   6.117  0.4500 -0.0776 -0.0710
 9398SOL    HW239828   3.844   3.888   6.040 -0.1028  3.0669  1.4857
 9399SOL     OW39829   3.276   2.342   2.720 -0.3642  0.1077  0.3693
 9399SOL    HW139830   3.325   2.355   2.802  1.3256  0.9247 -0.7673
 9399SOL    HW239831   3.265   2.247   2.719  1.4647 -0.0770 -2.5330
 9400SOL     OW39832   3.630   0.159   0.366 -0.1714  0.2339  0.3387
 9400SOL    HW139833   3.543   0.151   0.328  1.1412 -0.4342 -2.5779
 9400SOL    HW239834   3.669   0.224   0.307 -0.9465  0.3848 -0.0007
 9401SOL     OW39835   3.249   4.181   4.747 -0.7076  0.1347  0.6851
 9401SOL    HW139836   3.170   4.191   4.800  0.3060 -0.4510  2.2912
 9401SOL    HW239837   3.252   4.273   4.720  0.9582 -0.4942 -1.2370
 9402SOL     OW39838   0.170   2.333   4.892  0.1377  0.0800 -0.1188
 9402SOL    HW139839   0.199   2.242   4.889 -3.2471 -1.0930  1.7533
 9402SOL    HW239840   0.107   2.325   4.964  1.4720 -1.4337  0.8562
 9403SOL     OW39841   3.764   1.601   0.505  0.0388  0.0952  0.5283
 9403SOL    HW139842   3.796   1.568   0.588 -0.7287  0.6608  1.0530
 9403SOL    HW239843   3.722   1.524   0.467  2.0531 -1.6404  1.8256
 9404SOL     OW39844   0.325   1.497   5.754 -0.0166  0.4693  0.3146
 9404SOL    HW139845   0.308   1.559   5.683  1.2222  0.3724 -0.0824
 9404SOL    HW239846   0.239   1.455   5.748  1.3902 -2.5563  0.9738
 9405SOL     OW39847   2.795   1.604   4.338  0.2165  0.0114  0.3608
 9405SOL    HW139848   2.729   1.563   4.394  1.2367 -1.4546  0.4654
 9405SOL    HW239849   2.811   1.684   4.389  0.6411  0.4266 -0.4336
 9406SOL     OW39850   2.478   0.834   5.326  0.6115  0.0707  0.3173
 9406SOL    HW139851   2.554   0.888   5.348  1.0447 -0.4344  0.0552
 9406SOL    HW239852   2.494   0.810   5.234 -1.4484 -0.7616  0.1621
 9407SOL     OW39853   3.239   2.531  10.957 -0.0143 -0.5574  0.5222
 9407SOL    HW139854   3.276   2.555  10.872  0.2879  0.9184  1.0610
 9407SOL    HW239855   3.308   2.477  10.995 -0.7389 -2.0888 -0.3537
 9408SOL     OW39856   3.825   1.676   8.688 -0.2293  0.4115  0.2821
 9408SOL    HW139857   3.838   1.730   8.766 -0.6376  0.9866 -0.0578
 9408SOL    HW239858   3.909   1.634   8.667 -0.4000  0.3250 -0.2054
 9409SOL     OW39859   2.115   4.455   1.364 -0.0357  0.5117 -0.6446
 9409SOL    HW139860   2.090   4.547   1.358  0.3389  0.6108 -0.6933
 9409SOL    HW239861   2.126   4.451   1.459 -1.4878  2.4972 -0.3858
 9410SOL     OW39862   1.180   1.873  10.859  0.0565  0.2496 -0.1230
 9410SOL    HW139863   1.197   1.838  10.771  0.7046 -2.2655  0.9829
 9410SOL    HW239864   1.111   1.939  10.858 -0.6971 -0.5636 -3.2269
 9411SOL     OW39865   0.559   2.029  11.429 -0.4349 -0.0179 -0.0043
 9411SOL    HW139866   0.654   2.022  11.416 -0.7778 -2.1354 -1.2430
 9411SOL    HW239867   0.536   1.942  11.461  0.0961  0.3201  1.3045
 9412SOL     OW39868   3.399   1.723   8.205 -0.5738 -0.2473  0.2480
 9412SOL    HW139869   3.349   1.700   8.284 -0.8175  0.1828  0.2229
 9412SOL    HW239870   3.383   1.655   8.140 -1.4505 -0.0186  0.2280
 9413SOL     OW39871   4.271   0.359  14.943  0.0841 -0.2569  0.3083
 9413SOL    HW139872   4.292   0.449  14.967 -0.0399  0.5813 -2.8209
 9413SOL    HW239873   4.211   0.363  14.869  1.1485  1.9072 -0.4089
 9414SOL     OW39874   0.062   4.159  10.573 -0.1737 -0.0470 -0.1872
 9414SOL    HW139875   4.715   4.112  10.560 -2.4586  3.3821  2.0834
 9414SOL    HW239876   0.069   4.153  10.668  1.3779  2.5940 -0.1325
 9415SOL     OW39877   0.662   3.601   3.291 -0.3299  0.2352 -0.0349
 9415SOL    HW139878   0.633   3.677   3.340 -0.1217  0.5300 -0.3725
 9415SOL    HW239879   0.578   3.557   3.275  0.2391 -1.6402  2.0482
 9416SOL     OW39880   3.327   2.781   2.225  0.2397 -0.0951  0.3010
 9416SOL    HW139881   3.232   2.776   2.222  0.2112  1.4829 -1.5281
 9416SOL    HW239882   3.350   2.707   2.281 -0.5526 -0.7177 -0.2103
 9417SOL     OW39883   3.851   4.556  12.720  0.0833 -0.0566 -0.2570
 9417SOL    HW139884   3.837   4.650  12.707 -0.4189  0.0147  0.8379
 9417SOL    HW239885   3.846   4.525  12.629 -0.4232  1.6797 -0.8157
 9418SOL     OW39886   2.091   2.101   7.461 -0.2444  0.2315  0.4056
 9418SOL    HW139887   2.108   2.151   7.540  0.4296 -1.4059  1.3024
 9418SOL    HW239888   2.133   2.165   7.404 -0.3923  2.2209  2.5737
 9419SOL     OW39889   1.896   4.370  15.965 -0.7410  0.0174  0.1645
 9419SOL    HW139890   1.841   4.292  15.968  0.0618 -0.5669 -0.4322
 9419SOL    HW239891   1.836   4.440  15.938 -1.6089 -1.1676 -0.9720
 9420SOL     OW39892   1.898   3.590  13.180 -0.0529  0.3978  0.6599
 9420SOL    HW139893   1.908   3.654  13.108  1.6510  0.7930  1.2287
 9420SOL    HW239894   1.992   3.568  13.178 -0.3242 -0.5749 -1.2464
 9421SOL     OW39895   4.522   0.595  12.779 -0.1767  0.4297  0.2979
 9421SOL    HW139896   4.610   0.603  12.743 -0.0949 -0.1032  0.3807
 9421SOL    HW239897   4.516   0.502  12.803 -3.3494  0.4278 -0.4828
 9422SOL     OW39898   3.754   3.572   6.851  0.0445  0.0592  0.6782
 9422SOL    HW139899   3.677   3.614   6.888  0.8055  1.5517  0.5303
 9422SOL    HW239900   3.816   3.602   6.917 -1.8356  0.1662  2.3725
 9423SOL     OW39901   1.381   3.491   1.073 -0.3066  0.3635 -0.2979
 9423SOL    HW139902   1.322   3.425   1.109  0.2248  0.2964  0.4534
 9423SOL    HW239903   1.321   3.565   1.062 -1.8080 -0.8588 -0.3416
 9424SOL     OW39904   0.775   3.340  10.858 -0.4723 -0.3029 -0.0602
 9424SOL    HW139905   0.729   3.359  10.776 -1.2869  1.6476  0.8543
 9424SOL    HW239906   0.849   3.283  10.840  0.0493  0.4090 -0.1705
 9425SOL     OW39907   0.071   3.017  13.708 -0.1945 -0.2877  0.3700
 9425SOL    HW139908   0.095   2.999  13.617  1.2998  1.9632  0.3082
 9425SOL    HW239909   4.735   3.077  13.688 -0.1290 -1.1421 -2.4214
 9426SOL     OW39910   4.310   3.363   6.029  0.3933  0.2598 -0.4911
 9426SOL    HW139911   4.288   3.334   5.941  0.5247  1.8435 -1.0453
 9426SOL    HW239912   4.356   3.289   6.068 -0.1570 -1.0001 -2.2332
 9427SOL     OW39913   0.840   2.081   2.154 -0.5141  0.1048  0.2466
 9427SOL    HW139914   0.863   2.117   2.240  1.2400  4.8167 -2.1935
 9427SOL    HW239915   0.894   2.003   2.145 -0.7847 -0.1993  1.1918
 9428SOL     OW39916   4.656   4.397   2.408  0.5151  0.1306  0.2026
 9428SOL    HW139917   4.625   4.481   2.444 -0.9527 -0.0258 -0.6753
 9428SOL    HW239918   4.632   4.344   2.484 -0.5053 -0.6965 -0.6926
 9429SOL     OW39919   2.388   4.191  10.391  0.3622  0.2001  0.6615
 9429SOL    HW139920   2.306   4.170  10.437 -0.6150 -1.7537 -1.9657
 9429SOL    HW239921   2.357   4.169  10.303 -0.8993 -0.4590  1.2722
 9430SOL     OW39922   3.939   0.015   8.739  0.0244 -0.5884  0.2671
 9430SOL    HW139923   3.977   4.680   8.792  1.2346  1.6505  2.3379
 9430SOL    HW239924   4.008   0.081   8.745 -1.7228  1.2216  0.5503
 9431SOL     OW39925   2.335   3.665   3.989 -0.1995  0.1045  0.4526
 9431SOL    HW139926   2.346   3.663   3.894 -0.7788 -0.4365  0.4025
 9431SOL    HW239927   2.425   3.670   4.021  0.0382 -0.8040 -0.0757
 9432SOL     OW39928   1.466   0.081   2.428 -0.1801  0.3372 -0.1797
 9432SOL    HW139929   1.493   0.039   2.346 -1.5980  0.2202 -0.5832
 9432SOL    HW239930   1.372   0.084   2.415 -0.5328 -2.9139  1.3344
 9433SOL     OW39931   4.419   1.718   9.499  0.3201 -0.2047  0.3335
 9433SOL    HW139932   4.365   1.702   9.576 -1.0342  1.5565 -0.2577
 9433SOL    HW239933   4.475   1.788   9.531  1.2673 -1.6466  1.8568
 9434SOL     OW39934   0.932   1.944   1.235  0.4612 -0.3458 -0.2184
 9434SOL    HW139935   0.850   1.983   1.267  0.7636 -2.0076  2.5154
 9434SOL    HW239936   0.949   1.986   1.150  0.4683 -1.8831 -0.9751
 9435SOL     OW39937   1.022   3.087   5.113  0.4574  0.3040  0.0003
 9435SOL    HW139938   1.073   3.167   5.098  0.8909 -0.3649 -2.0832
 9435SOL    HW239939   1.012   3.042   5.029  2.1130  0.5723 -0.3376
 9436SOL     OW39940   3.705   4.601  13.804  0.0355 -0.4073  0.0785
 9436SOL    HW139941   3.648   4.572  13.733 -0.7633 -0.8115  0.8981
 9436SOL    HW239942   3.653   4.676  13.830 -0.0343 -0.8543  1.2482
 9437SOL     OW39943   1.234   0.169  10.197  0.3124  0.5204 -0.1489
 9437SOL    HW139944   1.260   0.230  10.266 -0.0891  0.0381  0.4311
 9437SOL    HW239945   1.218   0.096  10.257  2.7055 -0.6600 -0.9612
 9438SOL     OW39946   1.217   1.817   4.540  0.4615 -0.2586  0.7933
 9438SOL    HW139947   1.239   1.728   4.512 -0.2576 -0.6404  1.4165
 9438SOL    HW239948   1.261   1.826   4.625  0.6774 -1.8551  0.8561
 9439SOL     OW39949   2.036   3.514   3.061  0.4042  0.5794  0.2273
 9439SOL    HW139950   2.083   3.597   3.047  2.1288 -0.1828  1.5079
 9439SOL    HW239951   1.950   3.556   3.067  0.8434  1.4786  0.3117
 9440SOL     OW39952   3.347   2.251  10.761 -0.4060 -0.0720 -0.0836
 9440SOL    HW139953   3.404   2.264  10.837 -0.8916  1.5327  0.0067
 9440SOL    HW239954   3.339   2.330  10.708  0.9409 -0.7082 -1.2237
 9441SOL     OW39955   3.344   1.664   2.466  0.6721  0.7821 -0.0248
 9441SOL    HW139956   3.252   1.677   2.440  0.5046  0.0003  0.1782
 9441SOL    HW239957   3.365   1.757   2.478 -3.2929  1.1924  3.6421
 9442SOL     OW39958   2.448   3.425   6.722 -1.2767  0.2453  0.1161
 9442SOL    HW139959   2.519   3.364   6.703 -0.7932  0.8049  0.1309
 9442SOL    HW239960   2.501   3.485   6.775  0.8320 -1.2684 -0.2870
 9443SOL     OW39961   0.174   1.581  10.787  0.4553  0.0259  0.9091
 9443SOL    HW139962   0.167   1.663  10.737  0.7356 -0.9120 -0.6840
 9443SOL    HW239963   0.256   1.588  10.835  1.2731 -1.8872 -0.2072
 9444SOL     OW39964   4.257   0.488   3.142 -0.3219  0.3144  0.2800
 9444SOL    HW139965   4.163   0.506   3.139 -0.4026 -0.0788  0.4093
 9444SOL    HW239966   4.283   0.561   3.087  1.2993 -0.3575  0.1515
 9445SOL     OW39967   2.185   3.238  16.870  0.3963  0.2221  0.6812
 9445SOL    HW139968   2.143   3.286  16.941 -0.0074  1.0429 -0.1039
 9445SOL    HW239969   2.116   3.181  16.838  1.2000  0.3190 -1.2690
 9446SOL     OW39970   0.296   0.767   4.724  0.5402  0.0195 -0.7822
 9446SOL    HW139971   0.377   0.716   4.729 -0.5743 -1.6607  0.0482
 9446SOL    HW239972   0.297   0.825   4.801  1.4524  1.3560 -1.7941
 9447SOL     OW39973   1.248   3.026   9.229  0.3401 -0.3061  0.1364
 9447SOL    HW139974   1.233   2.991   9.317 -1.6915 -0.6172 -0.3375
 9447SOL    HW239975   1.227   2.951   9.174  0.4630 -1.2013  1.3095
 9448SOL     OW39976   0.690   3.266   1.635 -0.7693 -0.2609 -0.0046
 9448SOL    HW139977   0.685   3.227   1.548 -0.4383 -1.1334  0.3648
 9448SOL    HW239978   0.641   3.348   1.635  0.7792  0.6551  2.0234
 9449SOL     OW39979   4.717   3.962   9.550 -0.2039  0.1569 -0.0590
 9449SOL    HW139980   0.043   3.957   9.623  0.9002 -0.1922 -1.0067
 9449SOL    HW239981   4.727   4.055   9.527  1.3452 -0.2868 -1.1427
 9450SOL     OW39982   0.770   1.437  15.939  0.4522 -0.5241  0.2563
 9450SOL    HW139983   0.764   1.441  15.844  0.3028  0.1069  0.2919
 9450SOL    HW239984   0.766   1.343  15.956  1.1567 -0.6496 -0.3107
 9451SOL     OW39985   3.046   1.252   4.790 -0.2491 -0.4261 -0.5962
 9451SOL    HW139986   3.097   1.176   4.817 -1.5389 -1.9306 -2.3762
 9451SOL    HW239987   3.012   1.226   4.705  1.8880  0.0982 -1.6098
 9452SOL     OW39988   0.044   0.916  12.582 -0.0710  0.1073  0.4466
 9452SOL    HW139989   4.707   0.958  12.628 -1.9833 -1.9473 -0.7106
 9452SOL    HW239990   0.115   0.969  12.617 -2.5340  1.9677  2.6568
 9453SOL     OW39991   4.248   3.802   4.492 -0.1283 -0.5420  0.4559
 9453SOL    HW139992   4.157   3.821   4.513 -0.7337 -2.4050 -0.4882
 9453SOL    HW239993   4.259   3.708   4.505 -1.7136 -0.9446 -1.0919
 9454SOL     OW39994   4.177   3.511   7.872  0.3527  0.2831 -0.1909
 9454SOL    HW139995   4.096   3.560   7.876  1.5231  2.1556  0.5223
 9454SOL    HW239996   4.228   3.592   7.868 -0.8978  0.9556 -2.2382
 9455SOL     OW39997   3.232   3.771   4.622 -0.1833  0.4448  0.0572
 9455SOL    HW139998   3.175   3.782   4.698 -0.8178 -2.4962  0.0034
 9455SOL    HW239999   3.297   3.840   4.633  0.7323 -0.6163  1.2630
 9456SOL     OW40000   0.794   3.533  10.067  0.3264  0.7084  0.5228
 9456SOL    HW140001   0.730   3.587  10.114  1.6297  2.1168  0.6652
 9456SOL    HW240002   0.774   3.445  10.099 -2.5167  1.8836  1.9963
 9457SOL     OW40003   0.889   3.143  12.126  0.0723  0.4568  0.2160
 9457SOL    HW140004   0.794   3.132  12.120 -0.0623  0.9065  1.5350
 9457SOL    HW240005   0.894   3.236  12.147 -0.8288  0.6870 -0.5955
 9458SOL     OW40006   0.853   1.059   7.165 -0.2008  0.3062  0.3958
 9458SOL    HW140007   0.773   1.077   7.116 -0.0565 -0.7570 -0.2249
 9458SOL    HW240008   0.825   0.981   7.214  0.1795  0.8969  1.5649
 9459SOL     OW40009   3.116   1.544   3.600  0.3692 -0.3819 -0.5139
 9459SOL    HW140010   3.136   1.604   3.672 -1.3638 -0.4560  0.0216
 9459SOL    HW240011   3.179   1.567   3.531  0.9704  1.1489  0.5494
 9460SOL     OW40012   3.310   4.204   9.680  0.3864  0.0594  0.6974
 9460SOL    HW140013   3.287   4.111   9.676 -1.3959  0.5160  0.1950
 9460SOL    HW240014   3.249   4.230   9.611  2.8044 -1.3718 -1.9533
 9461SOL     OW40015   4.478   1.140   7.098  0.5117  0.2892 -0.0298
 9461SOL    HW140016   4.549   1.099   7.147 -1.5248 -1.2066  1.6760
 9461SOL    HW240017   4.394   1.108   7.131  0.0437 -1.1978 -2.6419
 9462SOL     OW40018   2.275   1.972   3.162  0.5240  0.1890 -0.4964
 9462SOL    HW140019   2.287   1.934   3.250 -3.0049 -0.3936 -0.2963
 9462SOL    HW240020   2.327   1.920   3.100  1.7431  2.2583 -1.1893
 9463SOL     OW40021   1.767   3.937  13.531  0.0112 -0.4148 -0.0028
 9463SOL    HW140022   1.725   3.859  13.566  0.2537 -0.0607  1.0744
 9463SOL    HW240023   1.695   3.958  13.471 -1.5401  0.4503  2.1662
 9464SOL     OW40024   1.328   1.709   8.800  0.6066 -0.2262 -0.5477
 9464SOL    HW140025   1.266   1.777   8.773  0.0343 -0.1222  1.0554
 9464SOL    HW240026   1.267   1.638   8.818  3.1495 -2.5543 -1.0343
 9465SOL     OW40027   1.389   3.521   1.960  0.7100  0.0590 -0.1466
 9465SOL    HW140028   1.323   3.550   2.023 -1.0055  0.2215 -2.0113
 9465SOL    HW240029   1.338   3.451   1.919  1.1275  0.7040 -1.7555
 9466SOL     OW40030   3.876   1.473   9.610 -0.0759  0.1404  0.4750
 9466SOL    HW140031   3.845   1.396   9.561  2.9189 -0.1937 -0.9177
 9466SOL    HW240032   3.944   1.514   9.557 -2.0772  2.9298  0.0454
 9467SOL     OW40033   0.822   2.132   5.861  0.1117 -0.2198  0.7722
 9467SOL    HW140034   0.908   2.132   5.820 -0.8395 -1.0759 -1.2247
 9467SOL    HW240035   0.822   2.053   5.915  2.3518 -1.2438 -0.7455
 9468SOL     OW40036   3.841   3.126  16.752  0.0187 -0.0098  0.3307
 9468SOL    HW140037   3.824   3.104  16.844  3.1838  1.7885  1.3441
 9468SOL    HW240038   3.769   3.081  16.709  1.8318 -1.4997 -1.1433
 9469SOL     OW40039   3.854   3.722   1.497 -0.0173  0.3609 -0.1076
 9469SOL    HW140040   3.774   3.702   1.544 -1.1329  0.8176 -1.8139
 9469SOL    HW240041   3.919   3.701   1.564 -0.2253 -0.5581 -0.1987
 9470SOL     OW40042   0.786   3.432  12.467 -0.2010  0.2952  0.7090
 9470SOL    HW140043   0.752   3.345  12.487 -0.3384  0.6256  1.9203
 9470SOL    HW240044   0.813   3.469  12.551  0.2090  0.2921  0.5773
 9471SOL     OW40045   0.102   1.064   4.066 -0.0224 -0.2789  0.6010
 9471SOL    HW140046   0.167   1.114   4.115  1.2670 -2.1700  0.8202
 9471SOL    HW240047   0.030   1.125   4.051 -0.1658 -0.2772  1.3254
 9472SOL     OW40048   0.730   1.576   8.233 -0.1274 -0.3410  0.2491
 9472SOL    HW140049   0.704   1.620   8.314  0.1832  0.8358 -0.2939
 9472SOL    HW240050   0.805   1.529   8.270  0.1690  0.3291  0.4805
 9473SOL     OW40051   1.828   0.907   8.905 -0.1091  0.7077 -0.2632
 9473SOL    HW140052   1.846   0.900   8.812  1.1054  1.1288 -0.0601
 9473SOL    HW240053   1.746   0.862   8.925 -0.7156  1.9505  0.1117
 9474SOL     OW40054   2.523   2.861   5.642  0.2357 -0.3479 -0.3299
 9474SOL    HW140055   2.607   2.901   5.664  0.0644 -1.1830  1.8393
 9474SOL    HW240056   2.500   2.806   5.717  0.1163 -0.6870 -0.6157
 9475SOL     OW40057   4.299   1.349   9.684  0.1587  0.6368  0.1747
 9475SOL    HW140058   4.315   1.345   9.778 -0.9030 -2.6002  0.2285
 9475SOL    HW240059   4.304   1.444   9.677  0.0181  0.7351  1.4552
 9476SOL     OW40060   2.724   3.732  10.305  0.4894  0.0235  0.6295
 9476SOL    HW140061   2.653   3.795  10.315 -0.3417 -0.6860 -0.8599
 9476SOL    HW240062   2.725   3.700  10.395  1.3447  2.6726  1.5545
 9477SOL     OW40063   1.088   3.880   1.976 -0.5245 -0.1034  0.3163
 9477SOL    HW140064   0.994   3.866   1.988 -0.8351  0.4121 -1.4248
 9477SOL    HW240065   1.103   3.856   1.885 -0.5857 -0.2786  0.3537
 9478SOL     OW40066   0.203   2.822   8.374  0.4551 -0.4242  0.2732
 9478SOL    HW140067   0.247   2.793   8.295  1.3615  0.4959  0.4319
 9478SOL    HW240068   0.148   2.747   8.394  1.0917 -0.8956  0.2488
 9479SOL     OW40069   0.574   3.542  16.779 -0.1515  0.6188  0.1287
 9479SOL    HW140070   0.601   3.505  16.695 -0.9653 -0.5140  0.3706
 9479SOL    HW240071   0.599   3.486  16.852  1.1844  0.9274 -0.1076
 9480SOL     OW40072   0.342   0.583  11.142  0.3533  0.6438  0.8497
 9480SOL    HW140073   0.298   0.597  11.226  1.2218  1.1790  1.2195
 9480SOL    HW240074   0.352   0.670  11.102 -3.0762 -0.2397 -1.9510
 9481SOL     OW40075   3.421   3.216  16.225  0.2834  0.1273 -0.0111
 9481SOL    HW140076   3.332   3.248  16.240  0.7155  0.7972  1.1561
 9481SOL    HW240077   3.459   3.289  16.176 -0.1428  0.5386  0.2661
 9482SOL     OW40078   2.095   3.713  17.476  0.4714  0.5881  0.0164
 9482SOL    HW140079   2.030   3.776  17.508 -1.6660 -0.7305 -1.7175
 9482SOL    HW240080   2.177   3.751  17.507  0.6274  2.9185 -3.2943
 9483SOL     OW40081   0.433   1.646  12.790 -0.1673 -0.0999 -0.2516
 9483SOL    HW140082   0.386   1.712  12.841  1.6277 -0.2127  1.5464
 9483SOL    HW240083   0.502   1.616  12.850  0.1790  1.3373  0.0803
 9484SOL     OW40084   0.066   3.336   8.250  0.2308 -0.2664 -0.4694
 9484SOL    HW140085   0.069   3.267   8.316  2.2660  1.6817  1.4655
 9484SOL    HW240086   0.037   3.282   8.176  1.8209 -0.4695 -0.9305
 9485SOL     OW40087   3.811   0.399   7.522  0.2345  0.6051 -0.3415
 9485SOL    HW140088   3.805   0.354   7.607 -4.2462  0.3137 -0.8277
 9485SOL    HW240089   3.843   0.331   7.463 -2.4134 -1.1798  0.2865
 9486SOL     OW40090   3.900   2.577   1.898  0.5237 -0.8225 -0.9686
 9486SOL    HW140091   3.958   2.653   1.889 -1.1353  0.4704 -0.7825
 9486SOL    HW240092   3.868   2.583   1.809  3.6309 -1.1535 -2.1056
 9487SOL     OW40093   2.879   2.340   8.651 -0.0661  0.4957  0.3981
 9487SOL    HW140094   2.968   2.317   8.678 -0.1962  0.0936  0.4883
 9487SOL    HW240095   2.883   2.343   8.556 -2.6478 -0.0437  0.2835
 9488SOL     OW40096   2.775   2.946   3.556 -0.8367  0.1958 -0.4070
 9488SOL    HW140097   2.752   2.859   3.522 -1.4708 -0.2287  1.1049
 9488SOL    HW240098   2.691   2.976   3.591 -0.5132  0.8232 -0.1786
 9489SOL     OW40099   1.962   2.281   1.648  0.3001  0.2693 -0.3141
 9489SOL    HW140100   1.988   2.275   1.556 -1.8789  4.1285 -1.1878
 9489SOL    HW240101   1.951   2.191   1.678 -0.6502 -0.0780 -1.7466
 9490SOL     OW40102   4.003   4.368  14.581 -0.7495 -0.3920  0.3367
 9490SOL    HW140103   4.089   4.371  14.623 -0.3421 -0.9170 -0.4691
 9490SOL    HW240104   4.040   4.363  14.493 -0.3180 -2.9336  0.6780
 9491SOL     OW40105   1.240   0.647   7.534 -0.1427  0.0919  0.3911
 9491SOL    HW140106   1.326   0.656   7.574  0.0095  1.2617 -0.2083
 9491SOL    HW240107   1.182   0.668   7.606 -0.9269  1.0774 -0.5296
 9492SOL     OW40108   2.020   0.621   5.901  0.0784  0.4678 -0.4149
 9492SOL    HW140109   1.969   0.698   5.923  1.9321  1.5081  0.2314
 9492SOL    HW240110   1.977   0.544   5.939  0.7062  0.1507 -0.3473
 9493SOL     OW40111   0.367   1.286   7.958 -0.3204  0.4855  0.0013
 9493SOL    HW140112   0.435   1.221   7.974  1.7547  2.7173  0.2656
 9493SOL    HW240113   0.392   1.356   8.020  0.3337 -0.8060  1.1985
 9494SOL     OW40114   0.593   2.540   6.170  0.2526  0.3253 -0.7017
 9494SOL    HW140115   0.649   2.543   6.248 -1.5875  1.1707  0.5855
 9494SOL    HW240116   0.626   2.459   6.131  2.5053  1.0840 -0.4027
 9495SOL     OW40117   4.718   2.696   5.512 -0.2418  0.1980 -0.0338
 9495SOL    HW140118   0.012   2.611   5.545 -0.8019  0.2085  0.4924
 9495SOL    HW240119   4.645   2.675   5.454 -0.0023 -1.6101  0.2988
 9496SOL     OW40120   3.201   2.432   9.915 -0.2303 -0.2085 -0.4506
 9496SOL    HW140121   3.206   2.527   9.911  2.2738 -0.3070  0.3541
 9496SOL    HW240122   3.130   2.423   9.979  1.2861 -2.1212  0.9563
 9497SOL     OW40123   3.635   3.963  13.535 -0.0597 -0.0244  0.3158
 9497SOL    HW140124   3.553   4.007  13.512  0.3184  0.3798 -0.2701
 9497SOL    HW240125   3.706   4.001  13.484 -0.4047  1.3168  0.8484
 9498SOL     OW40126   3.975   0.344   7.082 -1.0108  0.0488 -0.0772
 9498SOL    HW140127   3.991   0.438   7.071 -0.5190  0.1916  1.8988
 9498SOL    HW240128   4.054   0.311   7.040  0.1753  1.8483  0.7493
 9499SOL     OW40129   4.377   1.542   5.377 -0.2375  0.5507  0.6937
 9499SOL    HW140130   4.404   1.460   5.336 -1.3353  0.7500 -0.4423
 9499SOL    HW240131   4.326   1.510   5.451 -1.2984  1.8471  0.5483
 9500SOL     OW40132   4.419   2.074  15.741  0.0369 -0.0327 -0.0411
 9500SOL    HW140133   4.434   2.160  15.702 -0.3119  0.5895  1.2202
 9500SOL    HW240134   4.335   2.079  15.787  1.0875 -2.9623  2.2058
 9501SOL     OW40135   3.647   2.596   4.013  0.0361  0.3171 -0.3736
 9501SOL    HW140136   3.701   2.562   4.085 -2.2441 -2.0477  0.1969
 9501SOL    HW240137   3.697   2.674   3.987 -0.3865  0.6916 -0.0688
 9502SOL     OW40138   2.906   1.784  12.318 -0.3167  0.7061 -0.3568
 9502SOL    HW140139   2.937   1.869  12.285 -0.1020  1.2506  1.2126
 9502SOL    HW240140   2.817   1.783  12.282 -0.4211  0.2072 -0.0748
 9503SOL     OW40141   1.069   2.982   0.551  0.0679  0.1116  0.1369
 9503SOL    HW140142   1.065   3.058   0.608 -0.5620 -0.7874  1.2733
 9503SOL    HW240143   1.147   3.003   0.498  1.4662 -0.9372  1.7982
 9504SOL     OW40144   4.590   2.286   4.680  0.1696 -0.3643 -0.9376
 9504SOL    HW140145   4.678   2.250   4.669 -0.2037 -1.6635  0.4065
 9504SOL    HW240146   4.556   2.244   4.601  0.0407 -3.3419  0.7082
 9505SOL     OW40147   4.657   4.687   4.962 -0.0639  0.0825 -0.6109
 9505SOL    HW140148   4.714   4.646   5.027  0.0754  0.0147 -0.7758
 9505SOL    HW240149   4.630   4.607   4.918  0.4175 -0.9639  0.9743
 9506SOL     OW40150   1.093   4.560   5.884 -0.1500  0.1486  0.2450
 9506SOL    HW140151   1.018   4.593   5.933 -0.0972  0.8861 -0.1678
 9506SOL    HW240152   1.171   4.595   5.925  2.8485 -2.1774 -3.4304
 9507SOL     OW40153   3.961   3.678   7.542  0.1245 -1.0448 -0.1328
 9507SOL    HW140154   3.927   3.766   7.555 -2.6487 -1.9880 -0.9268
 9507SOL    HW240155   3.935   3.635   7.624  0.7869  0.2402  0.7526
 9508SOL     OW40156   0.751   2.873   2.014 -0.2128 -0.9555  0.0486
 9508SOL    HW140157   0.671   2.863   2.067  0.3108  0.6025  1.1480
 9508SOL    HW240158   0.727   2.961   1.983  0.2641 -2.0942 -3.5540
 9509SOL     OW40159   4.238   0.134   6.695  0.1195 -0.1422 -0.1656
 9509SOL    HW140160   4.201   0.122   6.607  2.7944 -0.6333 -1.2230
 9509SOL    HW240161   4.329   0.105   6.698 -0.3224 -1.3019  1.6718
 9510SOL     OW40162   0.829   2.220   8.661  0.3776 -0.6134 -0.1209
 9510SOL    HW140163   0.798   2.311   8.650 -0.1768 -0.3572  3.7331
 9510SOL    HW240164   0.868   2.205   8.575  0.5566  1.6663 -0.4415
 9511SOL     OW40165   4.036   0.755   3.698  0.3297 -0.0915  0.6125
 9511SOL    HW140166   4.098   0.701   3.649 -2.1911  0.6831 -3.4233
 9511SOL    HW240167   4.039   0.727   3.789  3.0402  1.4292  0.9937
 9512SOL     OW40168   1.185   0.930   4.803 -0.3746  0.1555  0.7853
 9512SOL    HW140169   1.199   0.837   4.823 -2.3271 -0.4480 -0.7135
 9512SOL    HW240170   1.253   0.951   4.738 -0.2128  1.3335  1.3389
 9513SOL     OW40171   1.352   0.628   3.592 -0.1151  0.0170 -0.2714
 9513SOL    HW140172   1.415   0.684   3.547 -0.2419  0.7271  0.4255
 9513SOL    HW240173   1.375   0.632   3.685 -0.4642  3.6818 -0.3249
 9514SOL     OW40174   0.823   1.104   0.809  0.5336  0.0407 -0.3240
 9514SOL    HW140175   0.781   1.055   0.738 -2.1454  3.1877 -0.8925
 9514SOL    HW240176   0.861   1.031   0.859 -0.2253 -0.8641 -1.0588
 9515SOL     OW40177   4.689   1.945   1.256  0.5212  0.2571 -0.1596
 9515SOL    HW140178   4.633   1.996   1.197  0.7388 -0.4267 -0.9595
 9515SOL    HW240179   4.683   1.855   1.224 -4.1322 -0.2728  2.2309
 9516SOL     OW40180   1.961   3.499   7.477 -0.0239  0.4477 -0.4677
 9516SOL    HW140181   2.043   3.452   7.495 -0.4954  0.0638  0.6433
 9516SOL    HW240182   1.937   3.453   7.397 -0.1351 -0.8174  0.3081
 9517SOL     OW40183   2.038   3.944  15.048  0.3416  0.1735  0.0268
 9517SOL    HW140184   1.993   3.966  14.966  0.5236  0.8296  0.1026
 9517SOL    HW240185   2.129   3.929  15.022 -0.1724 -1.2744 -0.9412
 9518SOL     OW40186   3.190   2.479   8.487 -0.1337 -0.2935 -0.1031
 9518SOL    HW140187   3.204   2.539   8.561 -1.7776 -1.0195  0.8088
 9518SOL    HW240188   3.151   2.407   8.537  1.0754 -0.1632  1.0247
 9519SOL     OW40189   0.860   3.040   8.383 -0.1096  0.2278 -0.0725
 9519SOL    HW140190   0.938   2.984   8.389 -1.2520 -1.0991  2.0875
 9519SOL    HW240191   0.876   3.106   8.450 -0.3915  0.9279 -0.6893
 9520SOL     OW40192   1.155   1.095  15.434  0.0910  0.1000 -0.4254
 9520SOL    HW140193   1.211   1.059  15.365 -0.5927  0.0994 -0.9703
 9520SOL    HW240194   1.206   1.171  15.461  1.9906 -1.6248  0.8570
 9521SOL     OW40195   0.829   2.637   7.784  0.2618 -0.3190  0.7087
 9521SOL    HW140196   0.896   2.649   7.852  0.1984 -1.4692  0.9793
 9521SOL    HW240197   0.808   2.548   7.812 -2.7407  0.6011  1.4683
 9522SOL     OW40198   1.574   4.170   7.238 -0.2934 -0.1822  0.4949
 9522SOL    HW140199   1.593   4.077   7.230 -1.5908 -0.5412  1.4398
 9522SOL    HW240200   1.506   4.180   7.171 -1.6583  0.1995  1.9096
 9523SOL     OW40201   3.486   3.681  11.764 -0.0213  0.5107 -0.1827
 9523SOL    HW140202   3.532   3.758  11.797  2.7644 -1.4167  0.3667
 9523SOL    HW240203   3.525   3.675  11.677 -0.6534  1.1230 -0.5090
 9524SOL     OW40204   0.902   4.089   4.551 -0.1414 -0.2625  0.4688
 9524SOL    HW140205   0.886   4.005   4.509  0.8677 -0.9587  1.4823
 9524SOL    HW240206   0.813   4.104   4.584 -1.2700  0.5639 -2.9536
 9525SOL     OW40207   3.535   0.344   5.477 -0.4241  0.2114 -0.4097
 9525SOL    HW140208   3.481   0.415   5.511 -1.9890 -0.6975 -1.0403
 9525SOL    HW240209   3.559   0.390   5.397 -2.2366 -0.4518 -1.3217
 9526SOL     OW40210   4.713   0.532   5.604  0.5105 -0.3780  0.5315
 9526SOL    HW140211   4.676   0.472   5.540  1.3396  0.0655 -0.3639
 9526SOL    HW240212   0.006   0.464   5.666 -1.0706  0.2720  1.9710
 9527SOL     OW40213   1.065   0.051  11.859  0.0804 -0.3150  0.7258
 9527SOL    HW140214   0.985   0.023  11.816  1.6372 -3.0251 -0.3977
 9527SOL    HW240215   1.039   0.040  11.950 -2.3766 -1.0297 -0.0723
 9528SOL     OW40216   1.272   4.167   4.825  0.0118  0.0088 -0.3759
 9528SOL    HW140217   1.284   4.086   4.874  0.2706  1.3493  1.7539
 9528SOL    HW240218   1.196   4.143   4.771  1.0345  0.7148 -2.1381
 9529SOL     OW40219   4.401   2.417  16.298  0.1157  0.1376  0.1182
 9529SOL    HW140220   4.450   2.363  16.236 -0.5884  0.6499 -0.8803
 9529SOL    HW240221   4.469   2.482  16.310 -2.0289  2.1053  1.6901
 9530SOL     OW40222   0.227   4.606   3.421  0.1186  0.1025 -0.1521
 9530SOL    HW140223   0.149   4.610   3.365  0.6741  2.1600 -0.7563
 9530SOL    HW240224   0.194   4.587   3.509  1.0657 -0.4056  0.0933
 9531SOL     OW40225   1.969   4.211   6.677 -0.6733 -0.2902  0.0672
 9531SOL    HW140226   2.046   4.167   6.641 -2.1870 -0.9760 -2.3436
 9531SOL    HW240227   1.951   4.159   6.755 -0.3435  0.2063  0.4751
 9532SOL     OW40228   2.759   2.145  10.354 -0.1597 -0.6649 -0.7999
 9532SOL    HW140229   2.804   2.127  10.271  2.0520 -0.0652  0.2555
 9532SOL    HW240230   2.835   2.163  10.410 -0.9021 -1.9936  0.6248
 9533SOL     OW40231   3.360   4.576   3.158 -0.4642  0.5439 -0.1445
 9533SOL    HW140232   3.390   4.534   3.238 -0.3678 -1.4566 -1.2437
 9533SOL    HW240233   3.400   4.525   3.087 -1.8239  0.3807 -0.7903
 9534SOL     OW40234   4.250   0.710  14.553  0.3834  0.2683 -0.7590
 9534SOL    HW140235   4.302   0.748  14.482 -0.9449  1.7873 -0.9083
 9534SOL    HW240236   4.160   0.737  14.538 -0.8060 -2.4697  1.5322
 9535SOL     OW40237   4.500   0.350   3.860 -0.2551  0.3587  0.2664
 9535SOL    HW140238   4.512   0.354   3.765 -1.6961  2.0741  0.1585
 9535SOL    HW240239   4.415   0.394   3.865 -0.9744 -0.8197 -1.8168
 9536SOL     OW40240   2.044   1.988  10.024  0.2927  0.2780 -0.0639
 9536SOL    HW140241   2.065   2.039   9.946  1.2498 -2.3391 -1.5473
 9536SOL    HW240242   2.097   1.910  10.004 -1.5721 -0.6758 -1.2973
 9537SOL     OW40243   0.645   0.010   4.587  0.0589 -0.0666 -0.1109
 9537SOL    HW140244   0.636   0.105   4.579 -1.2062 -0.2046 -0.3519
 9537SOL    HW240245   0.650   4.731   4.681 -2.1210 -2.0152 -0.3037
 9538SOL     OW40246   3.689   2.492   9.370  0.5353  0.0229  0.2364
 9538SOL    HW140247   3.701   2.570   9.315 -2.0603 -0.5633 -1.1521
 9538SOL    HW240248   3.667   2.432   9.299  1.1986 -1.2004  1.0738
 9539SOL     OW40249   0.160   3.725  12.325  0.0052  0.8492 -0.6135
 9539SOL    HW140250   0.108   3.704  12.403  1.9867  2.2452  1.1071
 9539SOL    HW240251   0.195   3.808  12.358 -1.3089  0.6028  1.4684
 9540SOL     OW40252   2.180   1.313   7.538  0.2644 -0.4675  0.7795
 9540SOL    HW140253   2.190   1.256   7.461  2.9286  1.6265 -0.4520
 9540SOL    HW240254   2.096   1.291   7.578 -0.3823  0.0035 -0.3135
 9541SOL     OW40255   1.665   3.308   4.754  0.3961  0.3796  0.0638
 9541SOL    HW140256   1.756   3.314   4.725  0.2442 -1.4257 -0.7556
 9541SOL    HW240257   1.680   3.270   4.840 -1.7564 -2.6689 -0.9067
 9542SOL     OW40258   2.124   1.499  15.449  0.7304 -0.1416  0.2872
 9542SOL    HW140259   2.102   1.422  15.397  0.0248 -0.5789  1.2176
 9542SOL    HW240260   2.148   1.559  15.379  1.2164 -1.2306 -0.4748
 9543SOL     OW40261   2.257   0.134   4.463  0.2500 -0.0120  0.3605
 9543SOL    HW140262   2.203   0.055   4.469 -0.1924  0.1879 -0.8390
 9543SOL    HW240263   2.305   0.121   4.381  1.4682 -0.3666  1.1402
 9544SOL     OW40264   4.420   4.597  11.735 -0.0545  0.0404 -0.3942
 9544SOL    HW140265   4.464   4.532  11.679 -0.7138  0.5482 -1.5075
 9544SOL    HW240266   4.342   4.618  11.683  0.1479  0.8864 -0.3598
 9545SOL     OW40267   0.268   0.442   4.864  0.0041  0.1451  0.3075
 9545SOL    HW140268   0.222   0.443   4.779 -1.8715  0.9983  1.3234
 9545SOL    HW240269   0.343   0.389   4.840  0.5185  0.0241  2.2247
 9546SOL     OW40270   1.459   2.693   7.882 -0.3538 -0.6673  0.6752
 9546SOL    HW140271   1.420   2.721   7.965 -2.1402  2.0780 -1.0951
 9546SOL    HW240272   1.508   2.618   7.918 -1.0581  0.0141  3.0537
 9547SOL     OW40273   1.291   1.910   5.380 -0.1775  0.4867 -0.5224
 9547SOL    HW140274   1.226   1.979   5.384 -1.3498 -0.7826  2.4780
 9547SOL    HW240275   1.243   1.835   5.344  0.3798 -0.0598 -0.1489
 9548SOL     OW40276   1.006   2.860   5.644  0.2313  0.2216 -0.0348
 9548SOL    HW140277   0.978   2.927   5.583 -2.5143 -0.2361  0.7313
 9548SOL    HW240278   0.983   2.777   5.603 -1.8683  1.3160 -1.0579
 9549SOL     OW40279   3.980   0.660   3.381 -0.6574  0.0800 -0.0935
 9549SOL    HW140280   4.048   0.694   3.438  0.7124 -2.1796 -0.4059
 9549SOL    HW240281   4.021   0.590   3.331  0.0110  0.0354  0.5125
 9550SOL     OW40282   2.088   3.490   6.212  0.1312 -0.5205 -0.2589
 9550SOL    HW140283   2.005   3.455   6.245 -1.0904  1.9574 -0.7176
 9550SOL    HW240284   2.151   3.418   6.220 -0.1566 -1.1876 -3.9511
 9551SOL     OW40285   2.340   1.846   6.332 -0.6585 -0.6390  0.0082
 9551SOL    HW140286   2.411   1.784   6.313 -0.5075 -1.7323  4.0916
 9551SOL    HW240287   2.259   1.800   6.311 -0.5244 -0.0793 -1.7439
 9552SOL     OW40288   1.881   0.028  17.436  0.0832 -0.1990  0.1958
 9552SOL    HW140289   1.952   0.070  17.485  0.3030 -0.9018  0.4680
 9552SOL    HW240290   1.852   4.701  17.502 -2.2354  0.2267 -0.3982
 9553SOL     OW40291   0.984   1.750   7.427  0.4389  0.4125  0.2674
 9553SOL    HW140292   1.008   1.684   7.362 -0.3324  1.1056 -0.6993
 9553SOL    HW240293   0.983   1.698   7.508  0.0237 -1.4009 -0.9173
 9554SOL     OW40294   3.503   0.567   4.564 -0.0575  0.1383  0.4362
 9554SOL    HW140295   3.566   0.600   4.500  0.8136 -1.7472  0.3312
 9554SOL    HW240296   3.512   0.475   4.541  1.3931  0.8044 -1.6565
 9555SOL     OW40297   1.092   1.572   1.808 -0.4840 -0.5060 -0.1719
 9555SOL    HW140298   1.173   1.601   1.850 -0.1843 -1.0543 -0.3771
 9555SOL    HW240299   1.035   1.645   1.832 -0.5584 -1.4186  2.4246
 9556SOL     OW40300   1.261   4.692   8.995  0.5318 -0.1089  0.6750
 9556SOL    HW140301   1.282   0.050   8.989 -3.0463  0.4254 -2.9301
 9556SOL    HW240302   1.172   4.714   9.022 -0.0027 -0.3415 -0.9265
 9557SOL     OW40303   0.335   4.419   8.639  0.1214  0.1195  0.5870
 9557SOL    HW140304   0.426   4.395   8.653  0.2965  0.1843 -0.4405
 9557SOL    HW240305   0.302   4.333   8.613 -0.2953  1.3724 -3.1444
 9558SOL     OW40306   3.270   0.711   7.767  0.0069 -0.4130 -0.3614
 9558SOL    HW140307   3.257   0.786   7.825 -1.1463  1.1318 -2.6314
 9558SOL    HW240308   3.356   0.678   7.792  1.7963  3.5575 -1.1936
 9559SOL     OW40309   3.815   4.594   0.905 -0.4321 -0.2781  0.4519
 9559SOL    HW140310   3.806   4.506   0.942  2.7869 -0.8552 -0.1241
 9559SOL    HW240311   3.781   4.646   0.978 -1.2123 -0.2034  0.0321
 9560SOL     OW40312   3.461   4.193   3.085 -0.2350  0.0040  0.4589
 9560SOL    HW140313   3.551   4.194   3.117  0.4275 -0.5686 -1.3938
 9560SOL    HW240314   3.462   4.282   3.049  1.4467  0.3024  1.2681
 9561SOL     OW40315   3.456   0.897   9.648 -0.1408 -0.4002  0.0982
 9561SOL    HW140316   3.479   0.874   9.558  0.0751  0.2056 -0.0031
 9561SOL    HW240317   3.461   0.992   9.636  0.8570 -0.2609  1.7562
 9562SOL     OW40318   0.427   3.344   3.392 -0.5015  0.2893 -0.8123
 9562SOL    HW140319   0.471   3.392   3.462 -0.8431  0.9517 -1.0611
 9562SOL    HW240320   0.364   3.304   3.451 -1.8880  2.4590 -0.8407
 9563SOL     OW40321   0.799   2.219  14.217  0.0814 -0.1880 -1.1306
 9563SOL    HW140322   0.746   2.299  14.223 -0.3748 -0.6080  0.4134
 9563SOL    HW240323   0.742   2.157  14.263  0.0913 -0.2856 -1.2495
 9564SOL     OW40324   3.661   0.256  16.600 -1.0041  0.2861 -0.5512
 9564SOL    HW140325   3.653   0.341  16.556 -0.7416  0.9894  0.7704
 9564SOL    HW240326   3.745   0.222  16.568  0.5156  1.8844  1.7463
 9565SOL     OW40327   1.010   0.181  11.165  0.0220 -0.2418 -0.0494
 9565SOL    HW140328   0.957   0.211  11.091 -0.1672  3.0414  1.4443
 9565SOL    HW240329   1.093   0.224  11.143  0.2608 -0.4933  0.3564
 9566SOL     OW40330   1.588   3.801   2.648  0.6410  0.0548  0.3447
 9566SOL    HW140331   1.606   3.864   2.717 -0.0574 -0.7509  1.2670
 9566SOL    HW240332   1.493   3.797   2.641  0.5825  2.4169 -0.0478
 9567SOL     OW40333   4.606   2.633   3.294  0.7170 -0.0175  0.2128
 9567SOL    HW140334   4.518   2.659   3.267  0.8022 -1.8567 -1.8289
 9567SOL    HW240335   4.610   2.566   3.227 -0.7085 -0.2625  0.3723
 9568SOL     OW40336   0.842   4.522   3.572 -0.0782 -0.0291  0.4659
 9568SOL    HW140337   0.879   4.453   3.627  1.5151  0.6377  0.2326
 9568SOL    HW240338   0.796   4.470   3.506 -0.7859 -0.6791  1.4581
 9569SOL     OW40339   4.329   2.582   7.128  0.0535  0.3959 -0.4820
 9569SOL    HW140340   4.258   2.625   7.176  0.1097 -1.1316  0.9620
 9569SOL    HW240341   4.319   2.621   7.041 -0.4800 -0.1013 -0.6453
 9570SOL     OW40342   2.356   2.193  11.802  1.0061  0.3420 -0.3804
 9570SOL    HW140343   2.342   2.224  11.713 -0.1846 -0.9390 -0.6473
 9570SOL    HW240344   2.366   2.098  11.793 -0.4827  0.2467 -1.0326
 9571SOL     OW40345   2.111   0.697  11.987 -0.2051  0.0545  0.0111
 9571SOL    HW140346   2.034   0.643  11.966  0.2985 -1.3299  1.7419
 9571SOL    HW240347   2.075   0.784  12.002 -2.9808 -0.7570 -1.9420
   4.73533   4.73533  17.74011
