Membrane in water
40347
    1TMC1    C1    1   0.920   3.878  11.153 -0.7094 -0.6623 -0.5874
    1TMC1    C2    2   0.790   3.916  11.145 -0.0608 -0.2262 -0.4149
    1TMC1    C3    3   0.732   3.887  11.025 -0.6535  0.4725  0.7844
    1TMC1    C4    4   0.991   3.830  11.050 -0.1882 -0.2273 -0.4242
    1TMC1    C5    5   0.937   3.827  10.929  0.5968 -0.0915 -0.6670
    1TMC1    C6    6   0.804   3.850  10.916  0.4291  0.2584 -0.2815
    1TMC1     C    7   0.973   3.875  11.285  0.2193 -0.4611 -0.0652
    1TMC1     O    8   0.885   3.872  11.369  0.2977  0.3506  0.4470
    1TMC1     H    9   0.721   3.938  11.227  1.3345 -0.1138  0.7389
    1TMC1    H1   10   1.086   3.779  11.065  1.0929  2.3081  0.1273
    1TMC1    H2   11   0.758   3.823  10.821 -0.5550  1.1389 -0.0469
    1TMC1    C7   12   1.000   3.766  10.812 -0.3355  0.8798 -0.2208
    1TMC1    C8   13   0.594   3.919  11.009 -1.6092  0.5902 -0.0567
    1TMC1    O1   14   0.943   3.717  10.721  0.3363  0.3029 -0.0986
    1TMC1    O2   15   0.528   3.854  10.931  0.0902 -0.2549  0.2844
    1TMC1    O3   16   1.133   3.746  10.833  0.1830 -0.2353  0.2560
    1TMC1    H3   17   1.149   3.803  10.911 -1.2540 -0.6497  0.8531
    1TMC1    O5   18   0.607   4.052  10.999  0.1755 -0.1137 -0.1596
    1TMC1    H5   19   0.681   4.082  11.055 -1.2471  0.1777  1.5521
    2MPD2     C   20   1.356   3.868  11.628  0.7650 -0.4339  0.2573
    2MPD2    C1   21   1.219   3.878  11.641 -0.1489 -0.3011 -0.0749
    2MPD2    C2   22   1.142   3.878  11.527 -0.3723 -0.1236  0.6475
    2MPD2    C3   23   1.187   3.875  11.399  0.1337 -0.5363 -0.3723
    2MPD2    C4   24   1.326   3.869  11.390 -0.1614 -0.5135 -0.2942
    2MPD2    C5   25   1.405   3.859  11.505 -0.0998 -0.0759 -0.1864
    2MPD2     H   26   1.039   3.901  11.552 -0.0865  2.0221 -0.1105
    2MPD2    H1   27   1.377   3.868  11.294  0.7484  1.8833  0.1664
    2MPD2    H2   28   1.415   3.857  11.718  0.8670 -0.6464  0.1647
    2MPD2    H3   29   1.511   3.871  11.485 -0.7825  2.4525 -2.2374
    2MPD2     N   30   1.114   3.876  11.283 -0.1206  0.8723 -0.4535
    2MPD2    H5   31   1.167   3.888  11.197 -1.5530 -0.4825 -1.5293
    2MPD2    N1   32   1.148   3.888  11.762 -0.1989  0.1811  0.1688
    2MPD2    H7   33   1.048   3.905  11.767 -0.1631  0.0479  1.3243
    3TMC1    C1   34   0.069   0.927  10.343 -0.5072  0.0950  0.7989
    3TMC1    C2   35   0.150   0.921  10.238 -0.4619  0.2443 -0.3883
    3TMC1    C3   36   0.188   1.041  10.188  0.1240 -0.7993  0.0493
    3TMC1    C4   37   0.015   1.046  10.391  0.1971  0.2384 -0.4373
    3TMC1    C5   38   0.054   1.165  10.333 -0.1754  0.4914 -0.6272
    3TMC1    C6   39   0.148   1.163  10.231  0.5086  0.2441  0.2671
    3TMC1     C   40   0.021   0.800  10.393 -1.0592 -0.3701  0.2960
    3TMC1     O   41   0.034   0.699  10.326 -0.1763 -0.1962  0.0933
    3TMC1     H   42   0.184   0.825  10.204  1.0573 -0.0166  1.8678
    3TMC1    H1   43   4.669   1.043  10.460  1.4424  1.0924  1.1215
    3TMC1    H2   44   0.177   1.256  10.183 -1.7395 -0.3439 -2.2375
    3TMC1    C7   45   0.012   1.288  10.396 -0.3411  0.4675  0.9891
    3TMC1    C8   46   0.234   1.039  10.057  0.1974 -0.2745  0.7064
    3TMC1    O1   47   0.026   1.393  10.340  0.4360 -0.0561 -0.2792
    3TMC1    O2   48   0.303   0.951  10.011  0.2062 -0.0576  0.0020
    3TMC1    O3   49   0.007   1.275  10.530 -0.6454  0.3996  0.1464
    3TMC1    H3   50   0.007   1.184  10.567  0.2533  0.3803  0.1058
    3TMC1    O5   51   0.156   1.124   9.986  0.3247 -0.4979 -0.0542
    3TMC1    H5   52   0.068   1.137  10.029 -0.2515 -3.8930 -0.2199
    4MPD2     C   53   4.457   0.522  10.704 -0.8038 -0.4960  0.0020
    4MPD2    C1   54   4.497   0.638  10.778 -0.1567  0.6530  0.5416
    4MPD2    C2   55   4.569   0.737  10.711 -0.7102  0.3104  0.2722
    4MPD2    C3   56   4.613   0.722  10.580  0.0498  0.4423  0.2353
    4MPD2    C4   57   4.572   0.611  10.513 -0.4444 -0.1799 -0.6788
    4MPD2    C5   58   4.497   0.514  10.573 -0.0126 -0.5876  0.7734
    4MPD2     H   59   4.601   0.830  10.756 -0.8577 -0.5306  2.0826
    4MPD2    H1   60   4.588   0.597  10.407 -0.9466  0.2886 -0.8102
    4MPD2    H2   61   4.401   0.439  10.746 -1.4481 -0.2364 -0.3547
    4MPD2    H3   62   4.464   0.434  10.508  0.2885  0.6288 -0.8788
    4MPD2     N   63   4.701   0.818  10.518  0.1819 -0.1871  0.6161
    4MPD2    H5   64   4.711   0.902  10.574  1.1537 -0.7255  1.2563
    4MPD2    N1   65   4.464   0.659  10.913 -0.1620 -0.0427 -0.0761
    4MPD2    H7   66   4.496   0.745  10.956 -0.8728  0.1529  0.0484
    5TCq1    O1   67   1.164   2.402  11.628  0.2655 -0.6681 -0.3128
    5TCq1    C1   68   1.053   2.442  11.701 -0.0757  0.3563  0.0846
    5TCq1    O2   69   1.048   2.470  11.820 -0.3851  0.4361  0.0386
    5TCq1    C2   70   0.944   2.368  11.641 -0.0585  0.0963  0.0454
    5TCq1    C3   71   0.857   2.299  11.721  0.5146 -0.2763  0.3289
    5TCq1    C4   72   0.770   2.212  11.666  0.3783  0.3081 -0.3809
    5TCq1    C5   73   0.764   2.201  11.533  0.1061 -0.1376  0.3228
    5TCq1    C6   74   0.844   2.282  11.453  0.1774 -0.8441  0.0320
    5TCq1    C7   75   0.937   2.357  11.510 -0.6154  0.2789  0.5071
    5TCq1    C8   76   0.870   2.228  11.322  0.1842 -0.1174  0.0112
    5TCq1    O4   77   0.977   2.255  11.270  0.1844 -0.0195  0.3801
    5TCq1    C9   78   0.663   2.160  11.746 -0.0012 -0.5167 -0.0948
    5TCq1    O5   79   0.550   2.146  11.690  0.4390  0.1396 -0.1440
    5TCq1    O6   80   0.674   2.176  11.868 -0.0020  0.6752 -0.8004
    5TCq1    H1   81   1.135   2.358  11.546 -3.4723  0.9397  0.1630
    5TCq1    H2   82   0.855   2.319  11.828  2.7051 -2.2616  0.7440
    5TCq1    H3   83   0.706   2.121  11.490 -0.5397  0.5570 -0.1131
    5TCq1    H4   84   1.012   2.407  11.449  2.2344 -1.4488  2.5566
    6MPD2     C   85   0.633   2.055  11.099  0.3594  0.1815 -0.3578
    6MPD2    C1   86   0.752   2.103  11.144  0.4633 -0.3663 -0.3379
    6MPD2    C2   87   0.861   2.098  11.053  0.6434 -0.6196 -0.0328
    6MPD2    C3   88   0.852   2.048  10.923 -0.2119 -0.1881  0.8545
    6MPD2    C4   89   0.730   1.998  10.883 -0.1906  0.0153 -0.2801
    6MPD2    C5   90   0.620   2.008  10.969  0.1051  0.2672 -0.5822
    6MPD2     H   91   0.958   2.140  11.081 -0.5463  1.0168  1.6324
    6MPD2    H1   92   0.709   1.954  10.786 -2.2784  0.1909  0.0944
    6MPD2    H2   93   0.552   2.066  11.171  1.3469 -0.4711  0.8562
    6MPD2    H3   94   0.525   1.962  10.945  0.3303  0.3686 -1.6450
    6MPD2     N   95   0.966   2.030  10.837  0.3145  0.4776 -0.1854
    6MPD2    H5   96   1.060   2.037  10.875  0.6577 -1.8791 -0.5853
    6MPD2    N1   97   0.755   2.174  11.265  0.3971  0.2511  0.0561
    6MPD2    H7   98   0.666   2.190  11.312  0.0394 -0.4301 -0.3754
    7TCq1    O1   99   3.127   1.951  13.092 -0.3997 -0.2257 -0.5361
    7TCq1    C1  100   3.234   1.874  13.127 -0.7039  0.0061 -0.1893
    7TCq1    O2  101   3.321   1.907  13.206  0.0633 -0.1139  0.7078
    7TCq1    C2  102   3.193   1.739  13.103  0.0821  0.2213 -0.2893
    7TCq1    C3  103   3.126   1.701  12.987  0.7186 -0.4625  0.8950
    7TCq1    C4  104   3.122   1.566  12.968  0.5685  0.4027 -0.1798
    7TCq1    C5  105   3.198   1.479  13.040 -0.4864 -0.1927 -0.3674
    7TCq1    C6  106   3.263   1.514  13.147 -0.0149  1.0798 -0.1773
    7TCq1    C7  107   3.252   1.645  13.187  0.2252  0.0928  0.3569
    7TCq1    C8  108   3.291   1.408  13.236 -0.2973 -0.2070 -0.1707
    7TCq1    O4  109   3.309   1.298  13.189 -0.0902 -0.1125  0.2352
    7TCq1    C9  110   3.054   1.513  12.850 -0.6682 -0.3617 -0.1969
    7TCq1    O5  111   3.038   1.385  12.841  0.1132  0.2201  0.2378
    7TCq1    O6  112   2.993   1.597  12.778 -0.8937  0.3324 -0.3439
    7TCq1    H1  113   3.055   1.913  13.038 -3.0297  2.5851  1.0514
    7TCq1    H2  114   3.076   1.769  12.919 -0.4513 -0.3634  1.8517
    7TCq1    H3  115   3.212   1.378  13.001 -0.7343 -0.3045 -0.1641
    7TCq1    H4  116   3.319   1.676  13.266 -0.8492  1.9552  0.5402
    8MPD2     C  117   3.413   1.223  13.704  0.1746  0.0507  0.1850
    8MPD2    C1  118   3.446   1.178  13.578  0.2206  0.0203  0.3239
    8MPD2    C2  119   3.384   1.235  13.469 -0.8801 -0.6390 -0.0425
    8MPD2    C3  120   3.314   1.355  13.482  0.3282 -0.1301 -0.1325
    8MPD2    C4  121   3.296   1.407  13.610 -0.7595  0.2491  0.9843
    8MPD2    C5  122   3.339   1.332  13.712 -0.6875 -0.4295 -0.1152
    8MPD2     H  123   3.423   1.199  13.375  2.5264 -0.3319  1.2565
    8MPD2    H1  124   3.240   1.498  13.630 -0.6417  0.2038  1.5258
    8MPD2    H2  125   3.459   1.191  13.797  0.0289 -0.6914  0.0015
    8MPD2    H3  126   3.316   1.363  13.813  2.1808 -0.4855  0.5564
    8MPD2     N  127   3.289   1.445  13.372 -0.9570  1.0180 -0.2597
    8MPD2    H5  128   3.252   1.537  13.394 -0.6848  0.9219  0.6085
    8MPD2    N1  129   3.533   1.056  13.570 -0.0117 -0.6878 -0.0517
    8MPD2    H7  130   3.572   1.012  13.653  0.3764 -2.8072 -1.3504
    9TMC1    C1  131   1.203   0.740  11.069 -0.6413 -0.1803  0.3669
    9TMC1    C2  132   1.266   0.720  10.955  0.2323 -0.2083 -0.4544
    9TMC1    C3  133   1.404   0.736  10.956  0.1765 -0.2233  0.4263
    9TMC1    C4  134   1.264   0.802  11.180  0.4833 -0.2125  0.5997
    9TMC1    C5  135   1.398   0.813  11.179  0.1749 -0.4100 -0.3592
    9TMC1    C6  136   1.469   0.765  11.065  0.1705  0.7661 -0.0458
    9TMC1     C  137   1.060   0.736  11.076 -0.3211  0.5774  0.3013
    9TMC1     O  138   0.998   0.754  10.971 -0.2025  0.4157 -0.6694
    9TMC1     H  139   1.208   0.671  10.877 -0.7225 -0.2597  0.2877
    9TMC1    H1  140   1.223   0.811  11.280  0.4891 -2.8991  0.8665
    9TMC1    H2  141   1.570   0.804  11.065  0.4756 -0.0137  0.9906
    9TMC1    C7  142   1.467   0.837  11.309  0.4359 -0.1815 -0.2486
    9TMC1    C8  143   1.476   0.703  10.834 -0.2004 -0.2371 -0.4273
    9TMC1    O1  144   1.434   0.899  11.403 -0.1956  0.1518  0.0905
    9TMC1    O2  145   1.424   0.687  10.727  0.4139 -0.1230 -0.2863
    9TMC1    O3  146   1.589   0.791  11.304 -0.1645  0.2092  0.0165
    9TMC1    H3  147   1.607   0.731  11.229  1.0913 -0.8973  1.2046
    9TMC1    O5  148   1.561   0.612  10.879  0.0777  1.0915  0.0648
    9TMC1    H5  149   1.540   0.569  10.965 -1.0958  0.8763 -0.3355
   10MPD2     C  150   0.796   0.592  11.093  0.1265 -0.1199  0.2018
   10MPD2    C1  151   0.893   0.586  11.191 -0.0519  0.1914 -0.3189
   10MPD2    C2  152   0.865   0.514  11.307  1.3992 -0.0563 -0.4992
   10MPD2    C3  153   0.743   0.456  11.331 -0.1553  0.1055  0.1429
   10MPD2    C4  154   0.647   0.466  11.232  0.1902  0.0712 -0.5040
   10MPD2    C5  155   0.676   0.531  11.117 -0.1299  0.0028 -0.1514
   10MPD2     H  156   0.935   0.519  11.390  0.6773  2.9350 -0.0575
   10MPD2    H1  157   0.555   0.408  11.240  0.7482 -0.5469  1.5529
   10MPD2    H2  158   0.818   0.637  10.997  0.2818  0.2465  0.4077
   10MPD2    H3  159   0.605   0.527  11.035  1.0216  0.4575 -1.1593
   10MPD2     N  160   0.696   0.373  11.441  0.1267  0.3687  0.0939
   10MPD2    H5  161   0.608   0.324  11.429  0.1366  0.2013  0.7053
   10MPD2    N1  162   1.020   0.653  11.184  0.2503  0.1635  0.2700
   10MPD2    H7  163   1.088   0.638  11.258  1.0013 -0.2771 -0.5154
   11TCq1    O1  164   1.689   0.593  13.607  0.2704  0.2692  0.0194
   11TCq1    C1  165   1.821   0.571  13.579 -0.3018  0.5549 -0.1162
   11TCq1    O2  166   1.902   0.637  13.519  0.0112 -0.3620 -0.1823
   11TCq1    C2  167   1.872   0.471  13.674 -0.6223 -0.2258  0.0350
   11TCq1    C3  168   2.000   0.427  13.647  0.2220 -0.1290  0.8306
   11TCq1    C4  169   2.062   0.357  13.741  0.3596  0.1312 -0.0454
   11TCq1    C5  170   1.998   0.305  13.845 -0.5051  0.1613 -0.5077
   11TCq1    C6  171   1.867   0.349  13.865 -1.1417  0.2095 -0.2376
   11TCq1    C7  172   1.797   0.434  13.785 -0.6890  0.5535  0.2181
   11TCq1    C8  173   1.812   0.315  13.992 -0.5756  0.3691  0.1857
   11TCq1    O4  174   1.890   0.324  14.091 -0.3369 -0.3916 -0.5391
   11TCq1    C9  175   2.197   0.311  13.716 -0.0152 -0.8207 -0.2820
   11TCq1    O5  176   2.240   0.222  13.799 -0.5804  0.2580 -0.2552
   11TCq1    O6  177   2.247   0.343  13.606 -0.4421 -0.3338  0.2360
   11TCq1    H1  178   1.649   0.505  13.626  0.3469  0.1802 -0.2363
   11TCq1    H2  179   2.045   0.457  13.553 -1.3233 -0.4605 -0.0214
   11TCq1    H3  180   2.053   0.251  13.921 -1.6155  1.2335  1.0796
   11TCq1    H4  181   1.708   0.475  13.831 -0.5339  2.4468 -1.2047
   12MPD2     C  182   1.649   0.205  14.214 -0.2282  0.1294  0.5725
   12MPD2    C1  183   1.606   0.208  14.082  0.2357 -0.6022 -0.9844
   12MPD2    C2  184   1.482   0.142  14.047  0.4922 -0.4975  0.7163
   12MPD2    C3  185   1.400   0.082  14.150  0.6263  0.3416 -0.1922
   12MPD2    C4  186   1.441   0.099  14.283  0.6249 -0.1670 -0.7996
   12MPD2    C5  187   1.561   0.156  14.305  1.0101  0.1544  0.0085
   12MPD2     H  188   1.466   0.130  13.940  1.7792 -1.2765  0.6161
   12MPD2    H1  189   1.379   0.079  14.370 -0.3553  0.9099 -1.2495
   12MPD2    H2  190   1.733   0.256  14.258 -0.0796 -0.0308  0.4743
   12MPD2    H3  191   1.580   0.162  14.411 -0.8760 -0.1753  0.3672
   12MPD2     N  192   1.281   0.011  14.128 -0.5816 -0.7329 -0.4371
   12MPD2    H5  193   1.258   4.675  14.194  1.1455  0.2879  1.2858
   12MPD2    N1  194   1.690   0.248  13.971 -0.5110  0.2657  0.3990
   12MPD2    H7  195   1.649   0.254  13.879  1.8039  1.4372 -0.5569
   13TCq1    O1  196   1.370   4.220  11.394  0.2570 -1.1190  0.3297
   13TCq1    C1  197   1.246   4.246  11.364 -0.8693  0.0059 -0.4305
   13TCq1    O2  198   1.182   4.326  11.435 -0.4508  0.1284 -0.2588
   13TCq1    C2  199   1.223   4.258  11.221 -0.0141  0.3605 -0.0245
   13TCq1    C3  200   1.262   4.156  11.142 -0.1910 -0.4756 -0.0467
   13TCq1    C4  201   1.218   4.163  11.013  0.3043  0.2380  0.4018
   13TCq1    C5  202   1.149   4.270  10.964 -0.5952  0.3037 -0.0987
   13TCq1    C6  203   1.126   4.371  11.052  0.9583 -0.0395  1.0475
   13TCq1    C7  204   1.144   4.362  11.183  0.0262 -0.2456  0.3565
   13TCq1    C8  205   1.041   4.475  11.005  0.3064 -0.2928 -0.3169
   13TCq1    O4  206   0.975   4.526  11.092 -0.5098 -0.4447 -0.4759
   13TCq1    C9  207   1.237   4.046  10.926 -0.1448 -0.7372 -0.2906
   13TCq1    O5  208   1.198   4.048  10.807  0.7304  0.7072  0.2116
   13TCq1    O6  209   1.260   3.938  10.990  0.2562 -0.2168 -0.0927
   13TCq1    H1  210   1.416   4.174  11.321 -0.5728 -1.0081 -0.2657
   13TCq1    H2  211   1.313   4.067  11.178 -1.0802 -0.2135  1.8867
   13TCq1    H3  212   1.116   4.272  10.860 -3.4432 -1.6667  0.7840
   13TCq1    H4  213   1.115   4.437  11.255 -1.1545  0.0666 -0.4437
   14MPD2     C  214   1.115   4.710  10.737  0.7472 -0.3719 -0.0650
   14MPD2    C1  215   1.036   4.644  10.828  0.6943  0.6582  0.1266
   14MPD2    C2  216   0.900   4.678  10.848  0.0629 -0.1790  0.0571
   14MPD2    C3  217   0.844   0.038  10.766 -0.6320 -0.7181  0.7312
   14MPD2    C4  218   0.927   0.097  10.667  0.3055  0.1257  0.7543
   14MPD2    C5  219   1.062   0.075  10.667  0.7071 -0.3232  0.0542
   14MPD2     H  220   0.828   4.629  10.912 -0.4493 -1.3562 -1.4047
   14MPD2    H1  221   0.872   0.167  10.605  0.7954 -0.0877  0.0852
   14MPD2    H2  222   1.216   4.679  10.715  1.6624  2.7491 -0.2052
   14MPD2    H3  223   1.131   0.117  10.595  0.1616  1.0904  0.3394
   14MPD2     N  224   0.707   0.067  10.782  0.1048  1.2044  0.6220
   14MPD2    H5  225   0.661   0.008  10.850  1.5911 -1.5532 -0.7637
   14MPD2    N1  226   1.083   4.526  10.884 -0.8176 -0.0136  0.0478
   14MPD2    H7  227   1.174   4.485  10.865 -0.1394  1.9171 -0.9403
   15TCq1    O1  228   3.129   4.597   1.824 -0.6728  0.2105 -0.0432
   15TCq1    C1  229   3.128   4.469   1.779 -0.6453 -0.2802  0.4657
   15TCq1    O2  230   3.202   4.379   1.814 -0.2785  0.0106 -0.4459
   15TCq1    C2  231   3.035   4.457   1.663 -0.0719 -0.2399  0.1507
   15TCq1    C3  232   2.926   4.550   1.654  0.0280 -0.2526 -0.5593
   15TCq1    C4  233   2.830   4.524   1.557  0.1182  0.6296  0.2788
   15TCq1    C5  234   2.845   4.425   1.465 -0.2256 -0.3794  0.0569
   15TCq1    C6  235   2.951   4.338   1.481  0.0683 -0.3847 -0.1636
   15TCq1    C7  236   3.044   4.352   1.581  0.0996 -0.0308 -0.2883
   15TCq1    C8  237   2.975   4.220   1.393 -0.3447  0.0268  0.2385
   15TCq1    O4  238   3.094   4.185   1.383  0.3967 -0.2323 -1.1605
   15TCq1    C9  239   2.716   4.605   1.540 -0.5747 -0.2997 -0.2526
   15TCq1    O5  240   2.639   4.599   1.443  0.2456 -0.4498  0.4416
   15TCq1    O6  241   2.719   4.698   1.628 -0.4663  0.2536  0.0896
   15TCq1    H1  242   3.081   4.664   1.770 -1.9238 -0.8854 -0.3036
   15TCq1    H2  243   2.913   4.620   1.735  0.3394 -0.1183 -0.6263
   15TCq1    H3  244   2.785   4.421   1.374 -0.5789 -1.5466  0.3322
   15TCq1    H4  245   3.134   4.291   1.578  0.2285  0.1351  0.1186
   16MPD2     C  246   2.734   4.041   1.182  0.6655 -0.6133  0.0373
   16MPD2    C1  247   2.860   4.067   1.230 -0.3455 -0.2914 -0.2506
   16MPD2    C2  248   2.975   3.999   1.186 -0.2454 -0.1416 -0.5163
   16MPD2    C3  249   2.964   3.893   1.101 -0.4048 -0.7108  0.3088
   16MPD2    C4  250   2.836   3.864   1.061  0.6070  0.5272  0.0156
   16MPD2    C5  251   2.718   3.932   1.099 -0.0934  0.1097  0.8588
   16MPD2     H  252   3.072   4.033   1.218 -0.9582  0.7440  0.7106
   16MPD2    H1  253   2.815   3.770   1.010 -3.1025 -0.0125  2.5521
   16MPD2    H2  254   2.652   4.088   1.235 -0.3131 -1.8131 -0.4300
   16MPD2    H3  255   2.619   3.900   1.071  0.2249 -0.7877  0.7594
   16MPD2     N  256   3.081   3.823   1.063  0.1044 -0.0738 -0.4551
   16MPD2    H5  257   3.168   3.859   1.099 -1.8334  3.9706  0.2581
   16MPD2    N1  258   2.861   4.173   1.332  0.0352  0.2683  0.2433
   16MPD2    H7  259   2.775   4.222   1.355 -0.5662 -1.0618  0.8816
   17TMC1    C1  260   0.500   4.268  10.046 -0.1607 -0.1427 -0.1987
   17TMC1    C2  261   0.378   4.286   9.997  0.4657  0.6540  0.6236
   17TMC1    C3  262   0.335   4.201   9.903 -0.3482  0.5998  0.1814
   17TMC1    C4  263   0.589   4.180   9.995 -0.0357  0.1172 -0.1653
   17TMC1    C5  264   0.547   4.097   9.896  0.4627  0.6356  0.3951
   17TMC1    C6  265   0.416   4.106   9.855  0.3258  0.7197  0.4346
   17TMC1     C  266   0.540   4.343  10.167 -0.9933 -0.5490 -0.4646
   17TMC1     O  267   0.455   4.388  10.247  0.2218  0.4107  0.0491
   17TMC1     H  268   0.307   4.355  10.040  1.9365  2.3125  0.4068
   17TMC1    H1  269   0.682   4.153  10.044 -0.2047  1.1798  0.7243
   17TMC1    H2  270   0.376   4.035   9.784 -0.2829  1.2620  0.2302
   17TMC1    C7  271   0.608   3.969   9.882 -0.2936 -0.9343 -0.1650
   17TMC1    C8  272   0.198   4.182   9.885 -0.0776  0.8838  0.1274
   17TMC1    O1  273   0.540   3.866   9.885 -0.4117 -0.6661 -0.0486
   17TMC1    O2  274   0.132   4.261   9.821  0.3022  0.2605  0.4306
   17TMC1    O3  275   0.739   3.988   9.889  0.3802 -0.5553 -0.7342
   17TMC1    H3  276   0.758   4.083   9.877 -1.2321  0.0910  1.9972
   17TMC1    O5  277   0.167   4.156  10.010 -0.1283 -0.9000 -0.1843
   17TMC1    H5  278   0.229   4.108  10.068 -1.2361  0.5639  2.1795
   18MPD2     C  279   0.696   4.462  10.393  0.4692 -0.0809 -0.4074
   18MPD2    C1  280   0.760   4.389  10.293 -0.5977  0.4187  0.3553
   18MPD2    C2  281   0.883   4.343  10.312  0.0942 -0.7429  0.7848
   18MPD2    C3  282   0.956   4.372  10.425 -0.0840 -0.0740 -0.1379
   18MPD2    C4  283   0.895   4.446  10.521  0.1976 -0.4194  0.1472
   18MPD2    C5  284   0.765   4.485  10.501 -0.2608 -0.5251  0.0792
   18MPD2     H  285   0.917   4.286  10.227  1.3406 -1.4348  1.7405
   18MPD2    H1  286   0.950   4.476  10.609  2.5263 -0.3751 -1.3410
   18MPD2    H2  287   0.590   4.487  10.389 -0.3478 -3.1958  1.7541
   18MPD2    H3  288   0.724   4.553  10.575 -3.9198 -0.6018 -1.8732
   18MPD2     N  289   1.086   4.322  10.457 -0.0337 -0.4416  0.5209
   18MPD2    H5  290   1.127   4.346  10.546 -2.0447  1.7883  0.8492
   18MPD2    N1  291   0.683   4.351  10.173 -0.1093  0.3458  0.5718
   18MPD2    H7  292   0.731   4.322  10.088 -0.2167 -2.8358  1.6136
   19TMC2    C1  293   2.710   4.678  13.703 -0.4594 -0.0527  0.1636
   19TMC2    C2  294   2.687   0.035  13.608 -0.4702 -0.3360 -0.1660
   19TMC2    C3  295   2.562   0.094  13.613 -0.5213  0.3651  0.2393
   19TMC2    C4  296   2.613   4.629  13.780 -0.9827  0.3147 -0.1283
   19TMC2    C5  297   2.481   4.677  13.763 -0.3090 -0.8099  0.2765
   19TMC2    C6  298   2.453   0.047  13.687 -0.7893 -0.5336 -0.1808
   19TMC2     C  299   2.832   4.601  13.693  0.0167  0.3287  0.3708
   19TMC2     O  300   2.908   4.621  13.594 -0.7457 -0.2828 -0.2887
   19TMC2     H  301   2.757   0.069  13.533 -3.9501  2.3285 -2.2292
   19TMC2    H1  302   2.630   4.543  13.844 -0.7253  2.3547  2.5829
   19TMC2    H2  303   2.360   0.093  13.655  0.2891  0.7133 -1.5732
   19TMC2    C7  304   2.369   4.601  13.817 -0.1938 -0.1667  0.1358
   19TMC2    C8  305   2.559   0.239  13.584 -0.3587 -0.0472 -0.4800
   19TMC2    O1  306   2.392   4.482  13.837 -0.3970 -0.7901  0.0222
   19TMC2    O2  307   2.659   0.287  13.539  0.2493 -0.0169 -0.0598
   19TMC2    O5  308   2.499   0.273  13.699 -0.4300 -0.3922 -0.5847
   19TMC2    H5  309   2.409   0.237  13.713  0.2871 -1.4571  1.3267
   20MPD2     C  310   3.089   4.445  13.742 -0.3157 -0.3656  0.0234
   20MPD2    C1  311   3.003   4.481  13.841 -1.1454  0.0228 -0.1289
   20MPD2    C2  312   3.029   4.456  13.972  0.1975  0.0893 -0.1052
   20MPD2    C3  313   3.153   4.399  14.007  0.1363  0.3147  0.7395
   20MPD2    C4  314   3.245   4.374  13.910  0.1609  0.1678 -0.4942
   20MPD2    C5  315   3.213   4.398  13.784 -0.6162  0.7274  0.4015
   20MPD2     H  316   2.957   4.493  14.044  2.5367  1.3239  1.6055
   20MPD2    H1  317   3.337   4.328  13.944  1.0129 -0.0804 -3.1373
   20MPD2    H2  318   3.068   4.449  13.636  2.4222 -1.8715 -0.5688
   20MPD2    H3  319   3.288   4.365  13.713 -0.3241  1.3313  0.4336
   20MPD2     N  320   3.190   4.390  14.140 -0.0649  0.3862  0.1149
   20MPD2    H5  321   3.284   4.356  14.160 -0.3602 -0.2653  0.3823
   20MPD2    N1  322   2.878   4.553  13.815 -0.1636  0.2410 -0.5308
   20MPD2    H7  323   2.815   4.579  13.890  1.6979 -0.3718  1.2636
   21TMC2    C1  324   4.662   0.198  14.292  0.0520 -1.0037 -0.7563
   21TMC2    C2  325   4.708   0.075  14.305  0.7076 -0.0858  0.2482
   21TMC2    C3  326   0.017   0.038  14.429  0.8384  0.0341 -0.4910
   21TMC2    C4  327   4.651   0.285  14.396  0.7502 -0.1253 -0.1998
   21TMC2    C5  328   4.701   0.240  14.521  0.4068 -0.7806  0.0596
   21TMC2    C6  329   0.015   0.120  14.540  0.9388  0.2708 -0.2712
   21TMC2     C  330   4.642   0.246  14.149 -0.4467  1.0682 -0.3328
   21TMC2     O  331   4.625   0.162  14.060  0.4544  0.4908  0.4277
   21TMC2     H  332   4.706   0.010  14.217  1.9104 -0.4317  0.4846
   21TMC2    H1  333   4.591   0.375  14.383 -0.4320 -1.0971 -1.5197
   21TMC2    H2  334   0.039   0.081  14.638  1.6591  0.0632 -0.5303
   21TMC2    C7  335   4.711   0.328  14.634  0.2568  0.0102 -0.1342
   21TMC2    C8  336   0.068   4.643  14.454  0.8098  0.0095  0.3208
   21TMC2    O1  337   4.720   0.278  14.743  0.2197 -0.0242  0.3435
   21TMC2    O2  338   0.144   4.628  14.550 -0.0853 -0.3552 -0.6418
   21TMC2    O5  339   0.013   4.551  14.372  0.3699  0.7063 -0.6224
   21TMC2    H5  340   4.681   4.576  14.307  0.8457  0.2821 -1.2948
   22MPD2     C  341   0.240   0.601  14.255  0.1343  0.1971  0.3892
   22MPD2    C1  342   0.247   0.467  14.262  0.2725  0.0467 -0.5596
   22MPD2    C2  343   0.135   0.397  14.223 -0.0362 -0.2696 -0.7171
   22MPD2    C3  344   0.018   0.461  14.180  0.1121  0.1465  0.1992
   22MPD2    C4  345   0.017   0.592  14.160 -0.4686  0.1666  0.2855
   22MPD2    C5  346   0.127   0.660  14.202  0.0170  0.2486  0.2141
   22MPD2     H  347   0.152   0.290  14.225  1.3123 -0.0219  1.0167
   22MPD2    H1  348   4.674   0.646  14.112  1.1695  1.8319 -0.6195
   22MPD2    H2  349   0.327   0.657  14.286  0.8692 -0.8845  0.2824
   22MPD2    H3  350   0.126   0.768  14.198 -0.0273  0.2925  1.3769
   22MPD2     N  351   4.644   0.383  14.129  0.2274 -0.4096  0.7653
   22MPD2    H5  352   4.597   0.436  14.056  1.9932 -2.6149 -1.9590
   22MPD2    N1  353   0.361   0.397  14.298 -0.3593  0.4593  0.4645
   22MPD2    H7  354   0.355   0.296  14.293  2.0572  0.3480  0.0962
   23TMC2    C1  355   1.476   1.275  14.281 -0.1670 -0.4905  0.4657
   23TMC2    C2  356   1.455   1.142  14.259  0.6387  0.8476  0.2802
   23TMC2    C3  357   1.417   1.104  14.127  0.5505 -0.1126 -0.0044
   23TMC2    C4  358   1.472   1.371  14.178 -0.4906  0.7801  0.1716
   23TMC2    C5  359   1.458   1.328  14.048 -0.8592  0.1913 -0.3755
   23TMC2    C6  360   1.430   1.199  14.023 -0.0833 -0.1930 -0.2630
   23TMC2     C  361   1.523   1.316  14.414  0.2800  0.4172 -0.2604
   23TMC2     O  362   1.509   1.229  14.498 -0.8040  0.3912 -0.1105
   23TMC2     H  363   1.455   1.070  14.341 -4.1688  0.7631  0.1694
   23TMC2    H1  364   1.500   1.474  14.197  1.3301  0.4779 -0.9799
   23TMC2    H2  365   1.398   1.182  13.921 -0.3785 -1.1157 -0.0193
   23TMC2    C7  366   1.424   1.423  13.941 -0.0230  0.6839 -0.2477
   23TMC2    C8  367   1.437   0.960  14.100  0.6328  0.8168  0.0617
   23TMC2    O1  368   1.489   1.406  13.835  0.5273  0.2351  0.4264
   23TMC2    O2  369   1.383   0.877  14.175 -0.1874 -0.3458 -0.3225
   23TMC2    O5  370   1.543   0.939  14.014  0.6570  0.4145  0.2902
   23TMC2    H5  371   1.587   1.019  13.979 -1.8286  1.3668 -0.7241
   24MPD2     C  372   1.723   1.678  14.718  0.5497  0.3216 -0.6321
   24MPD2    C1  373   1.715   1.537  14.739  0.4511 -0.3982  0.1528
   24MPD2    C2  374   1.671   1.451  14.636 -0.4811 -0.4180 -0.1387
   24MPD2    C3  375   1.632   1.512  14.523  0.0340 -0.0111 -0.2846
   24MPD2    C4  376   1.642   1.648  14.500  0.3144 -0.0379  0.5077
   24MPD2    C5  377   1.681   1.731  14.605 -0.0514  0.0970  0.4865
   24MPD2     H  378   1.658   1.344  14.646  1.2287 -0.4392  1.9434
   24MPD2    H1  379   1.617   1.702  14.409  0.3889 -0.1508  0.4180
   24MPD2    H2  380   1.774   1.746  14.785  2.1297  0.6024 -2.1241
   24MPD2    H3  381   1.689   1.837  14.583 -3.0201 -0.1191 -1.6817
   24MPD2     N  382   1.575   1.444  14.415 -0.3557  0.1618 -0.1535
   24MPD2    H5  383   1.594   1.488  14.325  0.0570  1.6413  0.6726
   24MPD2    N1  384   1.758   1.467  14.858  0.0725  0.0129  0.3857
   24MPD2    H7  385   1.755   1.366  14.852  1.0156  0.0994 -1.7344
   25TMC2    C1  386   0.881   3.552  11.600 -0.7361  0.7149  0.6447
   25TMC2    C2  387   0.999   3.548  11.665 -1.1208 -0.3491  0.0005
   25TMC2    C3  388   1.004   3.540  11.805  0.0153  0.4895 -0.2811
   25TMC2    C4  389   0.765   3.542  11.675 -0.1645 -0.3559 -0.0835
   25TMC2    C5  390   0.776   3.542  11.810  0.4844 -0.3911  0.3673
   25TMC2    C6  391   0.895   3.547  11.875 -0.2686  0.8405 -0.0814
   25TMC2     C  392   0.884   3.535  11.456 -0.3693  0.5943  0.0544
   25TMC2     O  393   0.993   3.528  11.395 -0.6403  0.1766 -0.0928
   25TMC2     H  394   1.089   3.543  11.604 -1.9088  1.1630 -1.2843
   25TMC2    H1  395   0.671   3.575  11.632  1.2584  1.7387 -1.6021
   25TMC2    H2  396   0.886   3.543  11.983 -3.3056 -0.6052 -0.4137
   25TMC2    C7  397   0.668   3.489  11.886 -0.0170 -0.2331  0.0161
   25TMC2    C8  398   1.125   3.537  11.879 -0.7331 -1.5100  0.4364
   25TMC2    O1  399   0.664   3.515  12.004  0.1692 -0.4235 -0.0416
   25TMC2    O2  400   1.128   3.555  11.997  0.3925 -0.0470 -0.2131
   25TMC2    O5  401   1.233   3.516  11.802  0.2329  0.8030 -0.4296
   25TMC2    H5  402   1.212   3.458  11.726 -0.2352  2.3309 -1.4730
   26MPD2     C  403   0.665   3.510  10.988  0.7947  0.8525 -0.4159
   26MPD2    C1  404   0.571   3.477  11.087  0.1259  0.7786 -0.2444
   26MPD2    C2  405   0.609   3.482  11.217 -0.0079 -0.0360  1.2086
   26MPD2    C3  406   0.740   3.515  11.254 -0.8086 -0.2693  0.3330
   26MPD2    C4  407   0.827   3.541  11.156  0.5531  0.0443 -0.2230
   26MPD2    C5  408   0.793   3.539  11.021 -0.0603  0.5193  0.3323
   26MPD2     H  409   0.545   3.461  11.301 -2.4205  0.1294 -0.5811
   26MPD2    H1  410   0.933   3.554  11.177  1.1913 -0.9753 -2.7713
   26MPD2    H2  411   0.638   3.506  10.883 -0.8813  3.1872 -0.0674
   26MPD2    H3  412   0.870   3.531  10.945 -1.6035  2.9086 -1.4758
   26MPD2     N  413   0.759   3.532  11.392  0.2587 -0.2514  0.7786
   26MPD2    H5  414   0.675   3.528  11.448 -3.4530  3.4274 -4.5397
   26MPD2    N1  415   0.456   3.428  11.033 -0.6116  0.3422 -1.1706
   26MPD2    H7  416   0.454   3.439  10.932 -0.6501 -2.6920 -1.4990
   27TMC2    C1  417   3.872   0.357  11.904 -0.7866 -0.2510 -0.3184
   27TMC2    C2  418   3.932   0.280  11.802  0.5697  0.1472  0.5350
   27TMC2    C3  419   4.019   0.185  11.839  0.5625 -0.2168 -0.4302
   27TMC2    C4  420   3.886   0.333  12.036 -0.5360  0.1825  0.1231
   27TMC2    C5  421   3.973   0.230  12.062 -0.3454  0.6374  0.2356
   27TMC2    C6  422   4.047   0.162  11.966 -0.4768 -0.1431  0.4410
   27TMC2     C  423   3.787   0.464  11.855 -0.6073  0.5685  0.4580
   27TMC2     O  424   3.782   0.476  11.733  0.2375  0.2098 -0.1857
   27TMC2     H  425   3.925   0.313  11.699  3.2835 -1.2862 -0.0989
   27TMC2    H1  426   3.821   0.373  12.113 -0.8987  0.6996 -0.4529
   27TMC2    H2  427   4.106   0.073  11.985 -1.2900 -0.4303  1.6164
   27TMC2    C7  428   4.033   0.207  12.194 -0.1290  0.0486 -0.1316
   27TMC2    C8  429   4.063   0.094  11.737 -0.2410  0.3859 -0.3570
   27TMC2    O1  430   4.135   0.136  12.212 -0.6851  0.0886 -0.2761
   27TMC2    O2  431   4.180   0.052  11.728  0.0559 -0.1415 -0.0121
   27TMC2    O5  432   3.962   0.087  11.638  0.0745 -0.5261 -0.3535
   27TMC2    H5  433   3.874   0.124  11.657 -0.6339 -1.6948 -1.3383
   28MPD2     C  434   3.502   0.894  11.913  0.6033  0.1975 -0.6645
   28MPD2    C1  435   3.555   0.860  12.032 -0.2267  0.9232 -0.3570
   28MPD2    C2  436   3.644   0.751  12.039  0.0591  0.4343 -0.4935
   28MPD2    C3  437   3.665   0.665  11.931 -0.3073  1.1143  0.7046
   28MPD2    C4  438   3.606   0.697  11.816 -0.1661 -0.1454 -0.5649
   28MPD2    C5  439   3.530   0.816  11.801  0.8274 -0.3910 -0.7857
   28MPD2     H  440   3.669   0.727  12.141  0.1132 -1.5186 -0.9680
   28MPD2    H1  441   3.619   0.631  11.732 -0.1528 -2.2671  1.0984
   28MPD2    H2  442   3.425   0.967  11.894 -2.8822 -3.7528 -1.9084
   28MPD2    H3  443   3.496   0.838  11.701 -0.5461  0.4005 -0.1450
   28MPD2     N  444   3.740   0.549  11.953  0.0109  0.1959 -1.1284
   28MPD2    H5  445   3.764   0.522  12.048  2.1279  1.7509 -1.2318
   28MPD2    N1  446   3.513   0.933  12.148 -0.2177 -0.9557 -0.8224
   28MPD2    H7  447   3.442   1.006  12.144 -0.8662 -1.5092  0.6719
   29TMC2    C1  448   3.611   3.402  14.387 -0.1991  0.1527  0.2762
   29TMC2    C2  449   3.603   3.412  14.520 -0.3752 -0.6038  0.8758
   29TMC2    C3  450   3.601   3.533  14.581  0.1112 -0.0792 -0.2839
   29TMC2    C4  451   3.606   3.512  14.304 -0.4917  0.5576  0.6617
   29TMC2    C5  452   3.585   3.634  14.366  0.0003 -0.2417  0.0691
   29TMC2    C6  453   3.590   3.642  14.502 -0.0878  0.6127  1.3072
   29TMC2     C  454   3.611   3.276  14.325  0.3677  1.0987  0.3327
   29TMC2     O  455   3.636   3.175  14.391  0.5571 -0.3412  0.3074
   29TMC2     H  456   3.605   3.325  14.586  2.9451 -0.8879  0.4103
   29TMC2    H1  457   3.623   3.498  14.197  3.1450 -0.6261  1.3873
   29TMC2    H2  458   3.562   3.733  14.554  1.0783  0.9573  1.3253
   29TMC2    C7  459   3.613   3.752  14.287  0.7430 -0.5825 -1.1031
   29TMC2    C8  460   3.600   3.544  14.718  0.5495 -0.1207  0.4999
   29TMC2    O1  461   3.586   3.744  14.169  0.0349 -0.4947 -0.0861
   29TMC2    O2  462   3.559   3.449  14.785  0.0502  0.7644  0.0959
   29TMC2    O5  463   3.668   3.652  14.759 -0.8373 -0.0632 -0.2229
   29TMC2    H5  464   3.702   3.705  14.684 -2.0078  0.7355 -0.1861
   30MPD2     C  465   3.434   2.960  13.955  0.7757  0.1466 -0.7667
   30MPD2    C1  466   3.515   2.935  14.061  0.3554  0.4583  0.6039
   30MPD2    C2  467   3.547   3.036  14.148  1.0765  0.0914 -0.1921
   30MPD2    C3  468   3.511   3.170  14.121  0.7005  0.6051  0.1454
   30MPD2    C4  469   3.433   3.190  14.011 -0.6967  0.2317  1.0184
   30MPD2    C5  470   3.397   3.083  13.920 -0.0219 -0.2820 -0.3295
   30MPD2     H  471   3.620   3.005  14.222  1.2311 -0.9049 -0.7551
   30MPD2    H1  472   3.401   3.288  13.979  1.3580  0.4658 -0.2700
   30MPD2    H2  473   3.411   2.889  13.877 -0.3169  1.1817 -1.3876
   30MPD2    H3  474   3.345   3.097  13.826 -0.0951  0.0774 -0.2352
   30MPD2     N  475   3.552   3.283  14.202  0.0638  0.4220  1.1324
   30MPD2    H5  476   3.512   3.374  14.182  1.0220  0.1687 -1.9180
   30MPD2    N1  477   3.571   2.803  14.093 -0.1118 -0.2691 -0.0118
   30MPD2    H7  478   3.632   2.790  14.173  2.6247 -0.1295 -2.0934
   31TMC2    C1  479   1.393   2.229  14.978  0.1637  0.3497 -0.4794
   31TMC2    C2  480   1.365   2.131  14.887 -0.4232  0.6220  0.0083
   31TMC2    C3  481   1.343   2.006  14.942  0.0317 -0.2459 -0.1208
   31TMC2    C4  482   1.414   2.206  15.113 -1.0229  0.2603  0.0620
   31TMC2    C5  483   1.402   2.070  15.155 -0.2551 -0.4056 -0.1183
   31TMC2    C6  484   1.361   1.972  15.074 -0.3964  0.1120  1.3572
   31TMC2     C  485   1.419   2.361  14.924 -0.1529 -0.6532 -0.3600
   31TMC2     O  486   1.377   2.382  14.809 -0.8344  0.4286  0.5831
   31TMC2     H  487   1.345   2.160  14.785  0.4900  1.2951  0.0110
   31TMC2    H1  488   1.429   2.282  15.189  1.0694 -0.7847  0.7090
   31TMC2    H2  489   1.355   1.870  15.109  0.4499 -0.9040 -1.4036
   31TMC2    C7  490   1.453   2.027  15.286  1.0486  0.4963 -0.7800
   31TMC2    C8  491   1.345   1.889  14.851 -0.3479  0.2053 -0.0760
   31TMC2    O1  492   1.489   1.913  15.286  0.5780 -0.2790  1.2170
   31TMC2    O2  493   1.299   1.779  14.878 -0.3278 -0.4338 -0.2398
   31TMC2    O5  494   1.377   1.938  14.730 -0.1634 -0.3036 -0.3358
   31TMC2    H5  495   1.408   2.031  14.731  0.4389 -0.5093  0.0397
   32MPD2     C  496   1.785   2.700  14.824  0.4397 -0.2703  0.2142
   32MPD2    C1  497   1.700   2.627  14.743  0.2228  0.1249 -0.0202
   32MPD2    C2  498   1.630   2.527  14.800 -0.0949 -0.1275  0.2891
   32MPD2    C3  499   1.615   2.514  14.933  0.1400  0.9249  0.4871
   32MPD2    C4  500   1.698   2.592  15.019  0.0377  0.3676  0.2725
   32MPD2    C5  501   1.779   2.678  14.957 -0.4042 -1.1051  0.0547
   32MPD2     H  502   1.565   2.461  14.743  0.0835 -1.0303  1.1268
   32MPD2    H1  503   1.690   2.571  15.125 -2.5023 -0.7204 -0.1391
   32MPD2    H2  504   1.846   2.781  14.784 -0.3263 -0.0404 -0.5018
   32MPD2    H3  505   1.845   2.740  15.017 -0.7593  0.1567 -0.8540
   32MPD2     N  506   1.524   2.422  14.993 -0.2025  0.0716 -0.2232
   32MPD2    H5  507   1.537   2.402  15.092  0.9429  0.0670 -0.3771
   32MPD2    N1  508   1.719   2.651  14.604 -0.5965 -0.2253 -0.1855
   32MPD2    H7  509   1.786   2.724  14.582 -0.0128 -1.1830 -1.6152
   33TMC2    C1  510   1.130   0.134  11.132 -0.9020  0.2069 -0.0641
   33TMC2    C2  511   1.002   0.116  11.183  0.5688  0.1518  0.2389
   33TMC2    C3  512   0.896   0.183  11.121 -0.2094  0.0877  0.2476
   33TMC2    C4  513   1.159   0.226  11.040  0.2930 -0.1167 -0.3963
   33TMC2    C5  514   1.057   0.294  10.977  0.5429  0.1715  0.2012
   33TMC2    C6  515   0.924   0.275  11.017  0.0988  0.4149  1.1011
   33TMC2     C  516   1.232   0.031  11.157  0.3015  0.1943  0.9526
   33TMC2     O  517   1.243   0.004  11.273 -0.1815  0.3223 -0.0222
   33TMC2     H  518   0.994   0.028  11.245 -2.2063  0.5344  0.4082
   33TMC2    H1  519   1.262   0.254  11.024  0.1223  0.0389 -1.2210
   33TMC2    H2  520   0.851   0.326  10.956 -0.2666 -2.3632 -0.7865
   33TMC2    C7  521   1.093   0.384  10.868  0.4084 -0.3221 -0.6979
   33TMC2    C8  522   0.761   0.152  11.169  0.7680  0.3706  0.0990
   33TMC2    O1  523   1.211   0.387  10.836  0.4215 -0.4186 -0.0882
   33TMC2    O2  524   0.655   0.175  11.102 -0.2762 -0.3244  0.3407
   33TMC2    O5  525   0.754   0.071  11.272 -0.1758 -0.2361 -0.8290
   33TMC2    H5  526   0.838   0.069  11.323 -1.2198 -1.9343  0.8232
   34MPD2     C  527   1.569   4.418  11.020  0.6252  0.3186  0.2685
   34MPD2    C1  528   1.502   4.469  10.910  0.4498  0.2736  0.4913
   34MPD2    C2  529   1.422   4.575  10.923  0.0561  0.1389  0.4138
   34MPD2    C3  530   1.391   4.632  11.042 -0.0129  0.1284 -0.1004
   34MPD2    C4  531   1.460   4.593  11.153 -0.4169 -0.5103  0.2458
   34MPD2    C5  532   1.548   4.489  11.138 -0.1979 -0.4363  0.5268
   34MPD2     H  533   1.364   4.608  10.837  1.8508  0.5804 -0.6203
   34MPD2    H1  534   1.441   4.630  11.253 -0.8966  0.3114 -0.1544
   34MPD2    H2  535   1.631   4.330  11.012  0.4878  0.1711  0.8768
   34MPD2    H3  536   1.590   4.444  11.228 -1.3842  0.0321  1.3198
   34MPD2     N  537   1.280   4.721  11.038  0.8159  0.2041  0.4725
   34MPD2    H5  538   1.239   0.015  10.951  1.0017 -0.1007  0.2743
   34MPD2    N1  539   1.501   4.391  10.794 -0.4192 -0.4737 -0.8216
   34MPD2    H7  540   1.567   4.315  10.785 -0.6186 -0.7219 -0.1582
   35TMC2    C1  541   2.021   1.076  11.489  0.2736  0.6797 -0.9298
   35TMC2    C2  542   1.945   1.137  11.391  0.3699 -0.7468 -0.3338
   35TMC2    C3  543   1.813   1.110  11.380 -0.2306 -0.1498 -0.6137
   35TMC2    C4  544   1.971   0.978  11.568  0.0344  0.3715 -0.0102
   35TMC2    C5  545   1.835   0.957  11.560  0.1901  0.2961 -0.5366
   35TMC2    C6  546   1.756   1.019  11.464  0.2552  0.6780 -0.5921
   35TMC2     C  547   2.165   1.099  11.482 -0.8792 -0.0169 -0.9989
   35TMC2     O  548   2.193   1.174  11.390  0.5140 -0.0856  0.1383
   35TMC2     H  549   1.988   1.214  11.328  0.1436 -0.2919  0.0759
   35TMC2    H1  550   2.029   0.924  11.641  0.4879  0.4741 -0.2889
   35TMC2    H2  551   1.648   1.008  11.465  0.2290  1.0026  0.4916
   35TMC2    C7  552   1.801   0.831  11.626  0.2599  0.0504  0.1655
   35TMC2    C8  553   1.735   1.198  11.301 -0.1513 -0.5167  0.4026
   35TMC2    O1  554   1.882   0.774  11.701 -0.0782  0.3045 -0.3810
   35TMC2    O2  555   1.617   1.203  11.318 -0.2577  0.1914  0.2101
   35TMC2    O5  556   1.802   1.200  11.184 -0.1935  0.1489  0.8116
   35TMC2    H5  557   1.881   1.142  11.185 -0.0102  0.2702 -5.1975
   36MPD2     C  558   2.656   1.120  11.641  0.1248  0.6239  0.0168
   36MPD2    C1  559   2.579   1.069  11.744 -0.1278 -1.0587  0.3204
   36MPD2    C2  560   2.443   1.050  11.717  0.2540 -0.0307 -0.3536
   36MPD2    C3  561   2.383   1.087  11.600  0.2582 -0.2127 -0.3793
   36MPD2    C4  562   2.465   1.117  11.492  0.0385  0.2583  0.4431
   36MPD2    C5  563   2.594   1.156  11.520 -0.0565  0.4548 -0.0260
   36MPD2     H  564   2.374   0.998  11.782  0.8698  0.8669  1.0334
   36MPD2    H1  565   2.422   1.141  11.395 -0.0496 -0.4667  0.3032
   36MPD2    H2  566   2.760   1.151  11.651 -0.0820  2.0215 -2.0811
   36MPD2    H3  567   2.651   1.199  11.439 -0.3875 -0.6100 -0.8183
   36MPD2     N  568   2.242   1.071  11.589 -0.2181  0.4486 -0.3881
   36MPD2    H5  569   2.190   1.027  11.665  0.9775  0.8974  0.6996
   36MPD2    N1  570   2.643   1.041  11.868  0.4144  0.3078 -0.2942
   36MPD2    H7  571   2.743   1.052  11.884  0.7532 -0.8605 -1.6430
   37TMC2    C1  572   0.327   1.058  11.476  0.2118  0.4110 -0.6235
   37TMC2    C2  573   0.226   0.989  11.408  0.6663  0.4280  0.6228
   37TMC2    C3  574   0.228   0.980  11.270 -0.2694  0.1959  0.1037
   37TMC2    C4  575   0.431   1.121  11.407  0.7793 -0.0791 -0.0400
   37TMC2    C5  576   0.435   1.107  11.267  0.4186  0.4933 -0.3274
   37TMC2    C6  577   0.333   1.039  11.200 -0.3085 -0.1636  0.4211
   37TMC2     C  578   0.337   1.051  11.621 -0.0741  0.1006  0.4032
   37TMC2     O  579   0.244   1.029  11.692  0.8323  0.3003  0.2034
   37TMC2     H  580   0.140   0.955  11.463  0.6738  0.5946  0.7386
   37TMC2    H1  581   0.512   1.178  11.451  1.4067 -0.7121 -0.3749
   37TMC2    H2  582   0.337   1.022  11.093 -0.0297 -3.2903  0.9319
   37TMC2    C7  583   0.554   1.168  11.196 -0.4455 -0.1058 -0.0655
   37TMC2    C8  584   0.163   0.862  11.213  0.4752 -0.1338  0.1142
   37TMC2    O1  585   0.658   1.174  11.261 -0.1991  0.1673  0.4118
   37TMC2    O2  586   0.134   0.842  11.100  0.3687 -0.6721  0.4143
   37TMC2    O5  587   0.202   0.758  11.294 -0.1246  0.1652  0.2309
   37TMC2    H5  588   0.240   0.794  11.376 -0.3208 -1.3556  0.9964
   38MPD2     C  589   0.644   1.059  12.027 -0.0686  0.4877 -0.0678
   38MPD2    C1  590   0.727   1.043  11.921  0.3090  0.2268 -0.0453
   38MPD2    C2  591   0.663   1.039  11.794 -0.3713 -0.4895 -0.7146
   38MPD2    C3  592   0.523   1.041  11.783  0.3628  0.0009 -0.2658
   38MPD2    C4  593   0.446   1.053  11.888 -0.0939 -0.3801  0.2971
   38MPD2    C5  594   0.510   1.065  12.010 -0.1161  0.1467 -0.4082
   38MPD2     H  595   0.722   1.027  11.704  0.0252 -0.7406 -0.4196
   38MPD2    H1  596   0.337   1.058  11.887 -0.0345  0.8821  0.9573
   38MPD2    H2  597   0.689   1.055  12.125  1.8951  2.0569 -0.9018
   38MPD2    H3  598   0.450   1.056  12.100 -3.2822 -0.6105 -2.6173
   38MPD2     N  599   0.468   1.035  11.653 -0.0283 -0.1750 -0.2508
   38MPD2    H5  600   0.534   1.022  11.577  1.4272 -2.5966  1.4346
   38MPD2    N1  601   0.867   1.029  11.924  0.1069  0.1544 -0.0965
   38MPD2    H7  602   0.901   1.013  11.830  1.0967  1.9491 -0.0491
   39TMC2    C1  603   3.047   4.034   1.727  0.1022  1.0675 -0.0667
   39TMC2    C2  604   2.938   4.113   1.768 -0.5703  0.3928 -0.6516
   39TMC2    C3  605   2.936   4.175   1.894 -0.2543 -0.4920 -0.6027
   39TMC2    C4  606   3.157   4.018   1.819  0.0750 -0.0355 -0.4247
   39TMC2    C5  607   3.153   4.084   1.937 -0.2430 -0.1529 -0.5722
   39TMC2    C6  608   3.045   4.156   1.983  0.9615 -0.6729 -0.2814
   39TMC2     C  609   3.024   3.932   1.630  0.6030 -0.3958 -0.3055
   39TMC2     O  610   2.907   3.929   1.589  0.2686 -0.0729 -0.1165
   39TMC2     H  611   2.848   4.117   1.707  0.2607  0.0602 -1.8828
   39TMC2    H1  612   3.245   3.959   1.797  0.6543  0.8666 -0.5331
   39TMC2    H2  613   3.051   4.218   2.071  1.0737 -0.6842 -0.2815
   39TMC2    C7  614   3.266   4.099   2.029  0.4657  0.5199  0.5548
   39TMC2    C8  615   2.848   4.284   1.922  0.2279  0.9764  0.7692
   39TMC2    O1  616   3.251   4.124   2.147 -0.1826 -0.1265  0.8761
   39TMC2    O2  617   2.882   4.387   1.973  0.0320  0.8455  0.6397
   39TMC2    O5  618   2.718   4.244   1.902 -1.3375  0.2657 -0.0963
   39TMC2    H5  619   2.709   4.157   1.858  2.0942 -0.2196  0.1052
   40MPD2     C  620   3.253   3.701   1.449  0.2186 -0.6199  0.5201
   40MPD2    C1  621   3.133   3.751   1.487 -0.6193  0.3140 -0.2978
   40MPD2    C2  622   3.020   3.703   1.418  0.2690  1.5332  0.2430
   40MPD2    C3  623   3.022   3.605   1.310 -0.7608 -0.4506 -0.2115
   40MPD2    C4  624   3.147   3.558   1.274 -0.5710 -0.1891  0.2853
   40MPD2    C5  625   3.260   3.599   1.345  0.6059  0.4608 -0.5589
   40MPD2     H  626   2.928   3.754   1.447 -0.5324  0.5442 -0.5465
   40MPD2    H1  627   3.153   3.470   1.211  4.3193 -1.3351  2.4074
   40MPD2    H2  628   3.342   3.746   1.489 -0.9379 -0.1607  2.5638
   40MPD2    H3  629   3.356   3.559   1.313 -0.9930 -0.7553 -3.8474
   40MPD2     N  630   2.912   3.539   1.258 -0.1099  0.5144 -0.0243
   40MPD2    H5  631   2.933   3.462   1.195 -0.9857 -0.3332  0.7424
   40MPD2    N1  632   3.131   3.860   1.575 -0.3287  0.4043 -0.1594
   40MPD2    H7  633   3.221   3.895   1.605  0.9389 -2.7111 -0.2716
   41TMC2    C1  634   1.846   1.284  13.793 -0.0588 -0.3741  0.5693
   41TMC2    C2  635   1.753   1.313  13.700 -0.2756  0.3335 -0.0959
   41TMC2    C3  636   1.785   1.398  13.601 -0.8011  0.4939  0.3561
   41TMC2    C4  637   1.975   1.334  13.785 -0.2104 -1.7916 -0.1648
   41TMC2    C5  638   2.010   1.396  13.673  0.3524  0.4828 -0.1207
   41TMC2    C6  639   1.915   1.440  13.581 -0.5327 -0.5871 -0.1603
   41TMC2     C  640   1.807   1.210  13.915  0.6947  0.2179  0.3862
   41TMC2     O  641   1.707   1.148  13.922 -0.4092 -0.4903  0.0381
   41TMC2     H  642   1.656   1.265  13.701 -0.3410  0.4268 -1.2766
   41TMC2    H1  643   2.046   1.328  13.866 -0.7249 -1.9681  0.2769
   41TMC2    H2  644   1.937   1.508  13.499  0.1480 -0.3484  0.2274
   41TMC2    C7  645   2.155   1.436  13.659 -0.0448  0.5990  0.4926
   41TMC2    C8  646   1.693   1.434  13.495  0.2132  0.0843  0.5653
   41TMC2    O1  647   2.219   1.449  13.762  0.2880 -0.1185  0.4342
   41TMC2    O2  648   1.726   1.456  13.379  0.2833  0.0794 -0.1753
   41TMC2    O5  649   1.580   1.480  13.564 -0.0710 -0.2614 -0.6352
   41TMC2    H5  650   1.576   1.452  13.658 -0.7953 -0.5070 -0.7427
   42MPD2     C  651   1.790   1.100  14.203 -0.1946 -0.1444 -0.0747
   42MPD2    C1  652   1.860   1.211  14.160 -0.3517 -0.2122  0.4414
   42MPD2    C2  653   1.912   1.299  14.257  0.1229 -0.2127  0.5512
   42MPD2    C3  654   1.897   1.275  14.392 -1.1634  0.0013  0.1890
   42MPD2    C4  655   1.825   1.164  14.423  0.2898  0.9193  0.1804
   42MPD2    C5  656   1.772   1.075  14.337 -0.1751 -0.0830 -0.5285
   42MPD2     H  657   1.964   1.388  14.224 -2.3622  0.3741 -1.7446
   42MPD2    H1  658   1.805   1.141  14.527  0.9345  2.2147  0.5898
   42MPD2    H2  659   1.760   1.019  14.137 -0.5647 -0.4592  0.4778
   42MPD2    H3  660   1.714   0.991  14.373 -2.0601  1.4424 -0.0143
   42MPD2     N  661   1.947   1.359  14.497  0.7695 -0.3272  0.3007
   42MPD2    H5  662   1.931   1.337  14.595  0.7603 -1.5895  0.0136
   42MPD2    N1  663   1.879   1.250  14.023  0.0372 -0.5805 -0.6625
   42MPD2    H7  664   1.949   1.323  14.014 -0.6633 -0.1517 -2.8543
   43TMC2    C1  665   3.637   4.269   0.512  0.1612  0.2943  0.3166
   43TMC2    C2  666   3.603   4.398   0.498  0.3883 -0.7849  0.1934
   43TMC2    C3  667   3.563   4.459   0.618  0.0352 -0.1626  0.5632
   43TMC2    C4  668   3.651   4.202   0.630 -0.7616 -0.1826  0.5509
   43TMC2    C5  669   3.614   4.264   0.741 -0.3531  0.2535 -0.1802
   43TMC2    C6  670   3.569   4.398   0.742  0.1200  0.3389  0.3464
   43TMC2     C  671   3.687   4.201   0.394 -0.2728 -0.2723 -0.3935
   43TMC2     O  672   3.776   4.121   0.414  0.0158 -0.1974 -0.1999
   43TMC2     H  673   3.636   4.456   0.413 -0.9622 -0.9757 -0.4564
   43TMC2    H1  674   3.682   4.098   0.639 -1.3901 -0.6670 -2.9518
   43TMC2    H2  675   3.526   4.447   0.829 -2.4847 -0.6446 -0.3697
   43TMC2    C7  676   3.630   4.189   0.865  0.1601 -0.5924 -0.1380
   43TMC2    C8  677   3.521   4.597   0.611 -0.1836 -0.1579  0.4357
   43TMC2    O1  678   3.641   4.069   0.851 -0.3112 -0.1890  0.2591
   43TMC2    O2  679   3.484   4.648   0.509  0.1343  0.4349 -0.5540
   43TMC2    O5  680   3.530   4.656   0.729  0.0166  0.5139 -0.0705
   43TMC2    H5  681   3.578   4.598   0.792 -0.5394  1.0512  0.8476
   44MPD2     C  682   3.707   4.176  17.638 -0.2883  0.2040  0.1707
   44MPD2    C1  683   3.761   4.086  17.728 -0.2550 -0.5009 -1.0984
   44MPD2    C2  684   3.730   4.109   0.112 -0.0899 -0.2083  0.7506
   44MPD2    C3  685   3.650   4.212   0.149  0.3075 -0.6185  0.6082
   44MPD2    C4  686   3.588   4.288   0.058 -0.2650  0.0902 -0.4582
   44MPD2    C5  687   3.618   4.271  17.675 -0.2185  0.2008  0.3871
   44MPD2     H  688   3.767   4.041   0.187 -0.5792  0.1366  1.3027
   44MPD2    H1  689   3.516   4.366   0.080 -0.1121 -0.0276  0.4613
   44MPD2    H2  690   3.722   4.167  17.531 -1.7030  0.2349 -0.0173
   44MPD2    H3  691   3.576   4.337  17.600  0.5493 -0.3934 -0.5770
   44MPD2     N  692   3.624   4.250   0.279  0.3206 -0.5568  0.0304
   44MPD2    H5  693   3.569   4.334   0.293  2.4845  0.4991  2.0951
   44MPD2    N1  694   3.850   3.986  17.696  0.0488  0.1099  0.0602
   44MPD2    H7  695   3.873   3.925   0.024 -1.3477  3.4885  3.1388
   45TMC2    C1  696   4.505   1.438   9.670 -0.8358  0.1448  0.6649
   45TMC2    C2  697   4.629   1.377   9.682  0.1505  0.3366  0.3066
   45TMC2    C3  698   4.727   1.461   9.715 -0.0251 -0.3158 -0.3993
   45TMC2    C4  699   4.477   1.566   9.705  0.4691 -0.1989  0.3702
   45TMC2    C5  700   4.583   1.641   9.742  0.0522  0.2051 -0.0565
   45TMC2    C6  701   4.704   1.591   9.733  0.0146  0.4826 -0.3798
   45TMC2     C  702   4.403   1.349   9.612 -0.4954 -0.4570  0.1532
   45TMC2     O  703   4.440   1.232   9.606 -0.1469  0.4708  0.2768
   45TMC2     H  704   4.647   1.275   9.652 -1.0326 -0.0862  1.0227
   45TMC2    H1  705   4.376   1.600   9.726  0.9877  2.2206 -1.1015
   45TMC2    H2  706   0.055   1.652   9.749 -0.2424  0.7520  0.0028
   45TMC2    C7  707   4.574   1.782   9.780 -0.7274 -0.7293 -0.3591
   45TMC2    C8  708   0.122   1.406   9.702  0.6855  0.4315  0.3256
   45TMC2    O1  709   4.670   1.830   9.841 -0.1390  0.2524 -0.0185
   45TMC2    O2  710   0.154   1.289   9.722 -0.4017 -0.6368 -0.9136
   45TMC2    O5  711   0.189   1.488   9.623  0.6024  0.8371  0.6788
   45TMC2    H5  712   0.133   1.567   9.604  0.4169  0.4865 -0.2054
   46MPD2     C  713   4.166   1.202   9.498  0.2244  0.0510  0.0149
   46MPD2    C1  714   4.168   1.341   9.532  0.2872 -0.8680  0.1393
   46MPD2    C2  715   4.053   1.416   9.496  0.0648  0.2624 -0.2177
   46MPD2    C3  716   3.936   1.352   9.443  0.6967  0.2793 -0.0378
   46MPD2    C4  717   3.943   1.220   9.411  0.4209 -0.0319  0.2718
   46MPD2    C5  718   4.049   1.144   9.442 -0.3436 -0.0592  0.3892
   46MPD2     H  719   4.041   1.521   9.523  0.4209  0.5241 -1.0878
   46MPD2    H1  720   3.857   1.167   9.371  0.5121  1.1448 -1.5199
   46MPD2    H2  721   4.256   1.143   9.509 -0.1671 -0.6053 -0.3711
   46MPD2    H3  722   4.047   1.039   9.414 -4.0265 -0.0078  0.4888
   46MPD2     N  723   3.823   1.428   9.416  0.4843  0.2654  0.3080
   46MPD2    H5  724   3.834   1.529   9.418 -0.4955  0.3725  0.5691
   46MPD2    N1  725   4.282   1.413   9.582 -0.3273 -0.1554 -0.3454
   46MPD2    H7  726   4.276   1.514   9.583  1.9631 -0.0252 -1.2104
   47TMC2    C1  727   2.091   2.182   9.278  0.2937 -0.1780 -1.0134
   47TMC2    C2  728   2.104   2.309   9.231  0.1886 -0.9354  0.3167
   47TMC2    C3  729   2.023   2.402   9.283 -0.2528  0.3756 -0.8495
   47TMC2    C4  730   2.001   2.151   9.383 -0.6236  0.1341  0.1705
   47TMC2    C5  731   1.931   2.255   9.436 -0.0441  0.9026 -0.8528
   47TMC2    C6  732   1.929   2.376   9.380 -0.4082 -0.4287  0.4267
   47TMC2     C  733   2.185   2.084   9.235  0.2425  0.6548  0.3197
   47TMC2     O  734   2.271   2.126   9.157  0.4736  0.0091  0.5746
   47TMC2     H  735   2.181   2.343   9.164 -0.5365 -0.8403 -0.4617
   47TMC2    H1  736   1.993   2.049   9.419 -1.6510  0.3922  0.6762
   47TMC2    H2  737   1.873   2.460   9.421 -0.5602  0.3156 -1.2911
   47TMC2    C7  738   1.809   2.235   9.511  0.1302  0.8570  0.4430
   47TMC2    C8  739   2.087   2.533   9.295  0.2628 -1.2245 -0.5112
   47TMC2    O1  740   1.749   2.330   9.560 -0.8306 -0.4757 -0.8323
   47TMC2    O2  741   2.053   2.602   9.389  0.3113  0.6586  0.1205
   47TMC2    O5  742   2.102   2.582   9.167 -0.3664  0.7890  0.0433
   47TMC2    H5  743   2.073   2.513   9.104 -0.3170 -0.1198  1.0164
   48MPD2     C  744   2.413   1.882   9.257 -0.0288 -1.3314 -0.5090
   48MPD2    C1  745   2.282   1.859   9.307 -0.6999  0.6977 -0.0305
   48MPD2    C2  746   2.258   1.738   9.370  0.4667  0.0773  0.2109
   48MPD2    C3  747   2.353   1.649   9.399 -0.4235 -0.5821 -0.2098
   48MPD2    C4  748   2.481   1.677   9.357  0.0068 -0.4727  0.0380
   48MPD2    C5  749   2.510   1.790   9.283 -0.1686 -0.3781  0.9312
   48MPD2     H  750   2.161   1.713   9.413  0.3648 -1.7038 -1.0238
   48MPD2    H1  751   2.567   1.615   9.382  1.5586  1.2075 -1.1132
   48MPD2    H2  752   2.454   1.968   9.207  0.6579 -1.2336  0.2136
   48MPD2    H3  753   2.601   1.812   9.229 -1.0462  2.1880  0.4909
   48MPD2     N  754   2.324   1.528   9.469  0.1422 -0.2233  0.1758
   48MPD2    H5  755   2.226   1.507   9.484 -0.1677  0.4877 -0.8447
   48MPD2    N1  756   2.174   1.956   9.288 -0.2374 -0.1765  0.3177
   48MPD2    H7  757   2.084   1.930   9.326 -0.7655  0.3485 -0.5844
   49TMC2    C1  758   0.285   3.511   9.830  0.4499  0.1028 -0.0071
   49TMC2    C2  759   0.292   3.631   9.774 -0.2389  0.2999  0.4111
   49TMC2    C3  760   0.270   3.641   9.643  0.2830  0.4419 -0.5599
   49TMC2    C4  761   0.235   3.397   9.763  0.1174 -0.5564 -0.0039
   49TMC2    C5  762   0.215   3.412   9.629 -0.7312 -0.6776  0.1403
   49TMC2    C6  763   0.222   3.535   9.562 -0.2032  0.0475 -0.2096
   49TMC2     C  764   0.358   3.476   9.946  0.4493 -0.1073  0.0343
   49TMC2     O  765   0.338   3.366   9.988  0.6437  0.8394 -0.3184
   49TMC2     H  766   0.298   3.721   9.834 -1.4619  1.5555 -1.3744
   49TMC2    H1  767   0.228   3.298   9.807  1.9344 -0.0457  1.4173
   49TMC2    H2  768   0.215   3.553   9.455  0.7338 -1.4173 -0.5120
   49TMC2    C7  769   0.170   3.293   9.561  0.4077  0.6194  0.1909
   49TMC2    C8  770   0.245   3.780   9.599  0.8612  0.5077 -0.2928
   49TMC2    O1  771   0.181   3.301   9.440  0.3895  0.4185  0.4151
   49TMC2    O2  772   0.223   3.872   9.677 -0.6395  0.1728  0.5576
   49TMC2    O5  773   0.300   3.784   9.478  0.0352 -0.2570 -0.0931
   49TMC2    H5  774   0.365   3.715   9.451  1.6805  0.3265  2.3761
   50MPD2     C  775   0.534   3.461  10.195  0.0747  0.0311  0.5758
   50MPD2    C1  776   0.500   3.578  10.129 -0.3766 -0.2479 -1.0444
   50MPD2    C2  777   0.536   3.697  10.185  0.7959 -0.0514 -0.6161
   50MPD2    C3  778   0.616   3.699  10.299  1.2666  0.0758 -0.3357
   50MPD2    C4  779   0.645   3.577  10.362  0.1803 -0.5673  0.2257
   50MPD2    C5  780   0.595   3.458  10.315  0.2765 -0.0566 -0.3900
   50MPD2     H  781   0.507   3.786  10.131  1.8602  0.1669 -0.8216
   50MPD2    H1  782   0.695   3.572  10.458  1.9973  2.5648 -0.5426
   50MPD2    H2  783   0.503   3.362  10.161 -0.6979  0.5661 -0.2831
   50MPD2    H3  784   0.627   3.368  10.366  0.7676  0.3859  0.0846
   50MPD2     N  785   0.648   3.818  10.370 -1.0265 -0.0822  0.3826
   50MPD2    H5  786   0.697   3.801  10.457 -0.3837 -1.9787 -0.3603
   50MPD2    N1  787   0.431   3.579  10.001 -0.9741  0.5357 -0.3805
   50MPD2    H7  788   0.427   3.674   9.965 -0.4114  0.0875 -1.6543
   51TMC2    C1  789   0.060   3.889   0.953  0.1629 -0.3454 -0.5001
   51TMC2    C2  790   4.713   3.994   0.947 -0.1006  0.3493 -0.2442
   51TMC2    C3  791   4.719   4.083   0.847 -0.6725 -0.2801 -0.7822
   51TMC2    C4  792   0.142   3.863   0.849 -0.2297 -0.1049  0.0143
   51TMC2    C5  793   0.143   3.953   0.743 -0.4970  0.1005  0.4070
   51TMC2    C6  794   0.065   4.069   0.736  0.5730 -0.1872 -0.3595
   51TMC2     C  795   0.072   3.800   1.068  0.5024 -0.1174 -0.2858
   51TMC2     O  796   0.161   3.715   1.063 -0.1336 -0.1917 -0.6578
   51TMC2     H  797   4.644   4.022   1.026 -0.8401  2.0576 -1.4894
   51TMC2    H1  798   0.202   3.772   0.844  0.0951  0.0639  0.8809
   51TMC2    H2  799   0.065   4.134   0.649  1.5607  1.6976  1.0591
   51TMC2    C7  800   0.242   3.933   0.641  0.0442 -0.6390  0.1281
   51TMC2    C8  801   4.605   4.173   0.836  0.4394  0.0749  0.9150
   51TMC2    O1  802   0.334   3.858   0.676  0.5957  0.1546  1.0790
   51TMC2    O2  803   4.559   4.205   0.730 -0.1115 -0.2753  0.1078
   51TMC2    O5  804   4.600   4.245   0.950  0.2174  0.2550 -0.5755
   51TMC2    H5  805   4.662   4.213   1.019 -1.2028  0.2455  0.6762
   52MPD2     C  806   0.073   3.756   1.575  0.0267 -0.0090  0.0217
   52MPD2    C1  807   0.140   3.692   1.479  0.3041 -0.0699  0.0573
   52MPD2    C2  808   0.116   3.717   1.345 -0.0208 -0.6007  0.2508
   52MPD2    C3  809   0.023   3.812   1.312  0.1637 -0.1633  0.9283
   52MPD2    C4  810   4.694   3.880   1.413 -0.3173 -0.7954  0.4188
   52MPD2    C5  811   4.725   3.857   1.539 -0.4579  0.4178 -0.4318
   52MPD2     H  812   0.176   3.664   1.271  2.8848 -2.9230  4.2570
   52MPD2    H1  813   4.624   3.963   1.405  1.4650  0.8418  1.8079
   52MPD2    H2  814   0.094   3.742   1.681  1.6953  0.1517 -0.2920
   52MPD2    H3  815   4.685   3.925   1.613 -0.7463  1.0263 -1.1556
   52MPD2     N  816   0.004   3.848   1.178  0.2938 -0.3616 -0.2377
   52MPD2    H5  817   4.680   3.928   1.175  0.8930  0.1633  1.3611
   52MPD2    N1  818   0.238   3.589   1.501 -0.1747  0.2228  0.5363
   52MPD2    H7  819   0.275   3.540   1.420 -0.5332  3.6942 -1.7041
   53TMC2    C1  820   1.181   1.390  10.979  0.0130  0.3753  0.0426
   53TMC2    C2  821   1.302   1.423  10.927  0.1933 -0.3375 -0.3626
   53TMC2    C3  822   1.415   1.413  11.003 -0.0938 -0.6071 -0.3735
   53TMC2    C4  823   1.174   1.351  11.111  0.2718 -0.5383 -0.4803
   53TMC2    C5  824   1.289   1.346  11.184 -0.0547  0.2918 -0.4873
   53TMC2    C6  825   1.410   1.359  11.133 -0.5124  0.3519 -0.0443
   53TMC2     C  826   1.073   1.393  10.887 -0.1677  1.0606 -0.9751
   53TMC2     O  827   1.085   1.421  10.770  0.3047 -0.0760 -0.1888
   53TMC2     H  828   1.302   1.479  10.834  2.0767  1.6333  0.8413
   53TMC2    H1  829   1.090   1.312  11.167  1.7653  1.8605  3.4965
   53TMC2    H2  830   1.487   1.378  11.207  0.1646 -0.3673 -0.5624
   53TMC2    C7  831   1.272   1.350  11.330 -0.5664 -0.1786 -0.2303
   53TMC2    C8  832   1.541   1.455  10.947 -0.7126  0.5120 -0.7851
   53TMC2    O1  833   1.188   1.422  11.380  0.2978  0.1490  0.3000
   53TMC2    O2  834   1.637   1.467  11.025  0.5042  0.7828  0.1906
   53TMC2    O5  835   1.560   1.461  10.813 -0.5319  0.6426 -0.4801
   53TMC2    H5  836   1.475   1.446  10.766 -1.3112  2.3732  0.3874
   54MPD2     C  837   0.785   1.377  10.792 -0.3867  0.7010  0.5438
   54MPD2    C1  838   0.833   1.336  10.911  0.4812  0.6319  0.0801
   54MPD2    C2  839   0.741   1.279  11.000  0.5592 -0.8080  0.8749
   54MPD2    C3  840   0.607   1.268  10.977  0.1746  0.2555 -0.5325
   54MPD2    C4  841   0.564   1.298  10.843  0.1464  0.2989  0.2138
   54MPD2    C5  842   0.659   1.359  10.758 -0.0915  0.0788 -0.3578
   54MPD2     H  843   0.786   1.265  11.098  1.0699 -2.2358  0.4263
   54MPD2    H1  844   0.468   1.266  10.804  0.3371 -1.0608  0.8614
   54MPD2    H2  845   0.854   1.418  10.719 -2.1794 -1.1976 -2.2024
   54MPD2    H3  846   0.633   1.367  10.653  0.2312 -0.8027 -0.5029
   54MPD2     N  847   0.521   1.200  11.066 -0.2722  0.2031  0.6454
   54MPD2    H5  848   0.422   1.192  11.046  0.0779 -1.5405 -0.3778
   54MPD2    N1  849   0.965   1.360  10.955 -0.8478 -0.4591 -0.2573
   54MPD2    H7  850   0.983   1.330  11.050  0.7833  0.8545 -0.1474
   55TMC2    C1  851   1.888   0.429   0.212 -0.2106 -0.1505 -0.8623
   55TMC2    C2  852   1.960   0.538   0.179  0.1037  0.7229 -0.8225
   55TMC2    C3  853   2.097   0.525   0.185  0.0246 -0.2327 -0.1765
   55TMC2    C4  854   1.943   0.308   0.250  0.2374  0.5953 -0.4667
   55TMC2    C5  855   2.082   0.302   0.250  0.3306  0.4085  0.3014
   55TMC2    C6  856   2.164   0.410   0.227  0.9550  0.0126  0.7133
   55TMC2     C  857   1.745   0.436   0.224  0.8227  0.3026  0.1900
   55TMC2     O  858   1.703   0.351   0.301 -0.4228  0.3314  0.1554
   55TMC2     H  859   1.925   0.634   0.143 -1.3062  1.1964  1.7712
   55TMC2    H1  860   1.884   0.218   0.267  2.6016 -0.6696  1.0099
   55TMC2    H2  861   2.271   0.393   0.228  0.9998  0.2772  0.2603
   55TMC2    C7  862   2.143   0.172   0.252 -0.6482 -0.2221 -0.4796
   55TMC2    C8  863   2.169   0.652   0.174  0.4133 -0.4246 -0.0817
   55TMC2    O1  864   2.253   0.151   0.199  0.2147  0.1449  0.0678
   55TMC2    O2  865   2.180   0.693   0.062 -0.2404 -0.3535  0.2642
   55TMC2    O5  866   2.264   0.670   0.266 -0.3412  0.9591  0.3163
   55TMC2    H5  867   2.250   0.632   0.355 -0.3538  0.8861  0.2828
   56MPD2     C  868   1.512   0.629   0.030  0.2101 -1.0948 -0.5951
   56MPD2    C1  869   1.542   0.546   0.134 -0.4274 -0.1257 -0.3890
   56MPD2    C2  870   1.450   0.448   0.174 -0.2916 -0.0654  0.4716
   56MPD2    C3  871   1.326   0.448   0.117  0.3552 -0.0120 -0.4988
   56MPD2    C4  872   1.291   0.542   0.026  0.0338 -0.5458 -0.0699
   56MPD2    C5  873   1.384   0.631  17.729  0.0915 -0.2032  0.3063
   56MPD2     H  874   1.470   0.375   0.251  0.8215  0.3246  0.5507
   56MPD2    H1  875   1.189   0.553  17.742  0.1941 -0.9030 -0.6786
   56MPD2    H2  876   1.588   0.689  17.731 -1.4939 -0.3968 -2.4017
   56MPD2    H3  877   1.362   0.706  17.654 -0.6910  0.8807  1.6196
   56MPD2     N  878   1.238   0.346   0.154  0.3698  0.4360  0.3789
   56MPD2    H5  879   1.248   0.300   0.244  1.6502 -1.5009 -0.7579
   56MPD2    N1  880   1.682   0.537   0.161  0.3245 -0.2612  0.4906
   56MPD2    H7  881   1.738   0.601   0.105  1.3527 -0.8145  0.8880
   57TMC2    C1  882   1.102   0.119  13.393  0.4249  0.1532  0.1195
   57TMC2    C2  883   1.045   0.032  13.300 -0.2738  0.3656  1.0286
   57TMC2    C3  884   1.122   4.729  13.193  0.5704  0.0435  0.3837
   57TMC2    C4  885   1.239   0.143  13.388 -0.1177  0.4164 -0.0512
   57TMC2    C5  886   1.314   0.085  13.288 -0.3487 -0.1912  0.3576
   57TMC2    C6  887   1.256   0.016  13.181 -0.4924 -0.4503 -0.1787
   57TMC2     C  888   1.026   0.156  13.517  0.1792  0.0642  0.3721
   57TMC2     O  889   1.058   0.251  13.585  0.4595 -0.4662  0.3226
   57TMC2     H  890   0.938   0.019  13.294 -0.0953  0.4535 -2.1420
   57TMC2    H1  891   1.282   0.221  13.450  0.1906 -0.5610  0.9512
   57TMC2    H2  892   1.319   4.713  13.103  0.4781 -0.3793  0.5647
   57TMC2    C7  893   1.455   0.099  13.288 -0.9036 -0.6699 -0.5596
   57TMC2    C8  894   1.041   4.686  13.078 -0.3429 -0.2798 -1.0053
   57TMC2    O1  895   1.507   0.214  13.302 -0.1670  0.2570  0.5451
   57TMC2    O2  896   0.942   4.617  13.092 -0.4663 -0.1833 -0.2369
   57TMC2    O5  897   1.070   0.024  12.976 -0.3640 -0.1722 -0.1328
   57TMC2    H5  898   1.146   0.085  12.991  1.2184 -1.9480 -0.8279
   58MPD2     C  899   0.650   0.053  13.853  0.0797 -0.1127  0.5418
   58MPD2    C1  900   0.700   0.176  13.817  0.1177  0.3231 -0.6332
   58MPD2    C2  901   0.797   0.188  13.718  0.4938  0.3248  0.7997
   58MPD2    C3  902   0.831   0.076  13.645 -0.5080  0.0483  0.1694
   58MPD2    C4  903   0.770   4.695  13.668  0.4389 -0.8512  0.4207
   58MPD2    C5  904   0.698   4.689  13.782 -0.1547 -0.3732 -0.3280
   58MPD2     H  905   0.841   0.285  13.695 -0.8925  0.9652  0.8355
   58MPD2    H1  906   0.783   4.612  13.599  0.0237 -0.1863 -0.4558
   58MPD2    H2  907   0.576   0.040  13.931 -2.0316  1.7394 -1.1397
   58MPD2    H3  908   0.659   4.589  13.799  0.3389 -0.5737 -0.3635
   58MPD2     N  909   0.926   0.069  13.540 -0.0067 -0.2590  0.3686
   58MPD2    H5  910   0.928   4.730  13.474  2.9041  1.1060 -1.1474
   58MPD2    N1  911   0.657   0.300  13.877 -0.2034 -0.9166  0.7386
   58MPD2    H7  912   0.697   0.381  13.831 -0.0403 -1.5340 -0.1916
   59TMC2    C1  913   3.495   0.472  12.965  0.5623 -0.1853 -0.0577
   59TMC2    C2  914   3.580   0.367  12.996 -0.1306 -0.3934 -0.4578
   59TMC2    C3  915   3.531   0.246  12.962  0.3233 -0.2202 -0.1613
   59TMC2    C4  916   3.381   0.464  12.883  0.3250 -0.3364  0.0587
   59TMC2    C5  917   3.343   0.338  12.843  0.9051 -0.7582  0.1647
   59TMC2    C6  918   3.414   0.232  12.882  0.1144  0.2620 -0.6858
   59TMC2     C  919   3.516   0.598  13.038 -0.4107 -0.2312 -0.1645
   59TMC2     O  920   3.428   0.681  13.032  0.6502 -0.1856  0.0279
   59TMC2     H  921   3.653   0.372  13.075 -0.0200  1.0437 -0.6443
   59TMC2    H1  922   3.320   0.549  12.854 -1.5726 -1.3480  1.0680
   59TMC2    H2  923   3.385   0.137  12.840 -1.7570  0.6672 -0.3260
   59TMC2    C7  924   3.238   0.319  12.755  0.6422 -0.1738  0.4030
   59TMC2    C8  925   3.619   0.136  12.965  0.3092 -0.0961  0.1893
   59TMC2    O1  926   3.191   0.204  12.744  0.5815 -0.3626  0.0874
   59TMC2    O2  927   3.582   0.022  12.929 -0.0366  0.9256 -0.2290
   59TMC2    O5  928   3.746   0.181  12.936  0.2485 -0.0890  0.1977
   59TMC2    H5  929   3.762   0.275  12.958  0.4250 -0.0094 -0.2769
   60MPD2     C  930   3.652   0.844  13.143 -0.2667 -0.2702 -0.2660
   60MPD2    C1  931   3.717   0.724  13.141  0.1276 -0.4418 -0.4513
   60MPD2    C2  932   3.843   0.704  13.196  0.8035 -0.5218  0.6097
   60MPD2    C3  933   3.905   0.815  13.252  0.0840  0.4209  0.0980
   60MPD2    C4  934   3.848   0.940  13.247 -0.1935  0.2610  0.3145
   60MPD2    C5  935   3.728   0.952  13.183  0.6938  0.0681  0.1874
   60MPD2     H  936   3.894   0.609  13.185  2.6628  0.7121 -1.5642
   60MPD2    H1  937   3.901   1.025  13.289 -0.7387  0.7973 -0.0799
   60MPD2    H2  938   3.551   0.864  13.108  0.9318  1.6607 -2.6005
   60MPD2    H3  939   3.689   1.052  13.169 -0.3059 -0.4009 -0.4155
   60MPD2     N  940   4.031   0.800  13.318  0.2063 -0.0041  0.2035
   60MPD2    H5  941   4.080   0.886  13.344 -0.7637  1.1641 -1.8150
   60MPD2    N1  942   3.648   0.611  13.084  0.2023 -0.4196  0.3427
   60MPD2    H7  943   3.717   0.538  13.070  0.4564 -0.0167 -0.5446
   61TMC2    C1  944   2.634   1.811  15.783 -0.8160  0.0652 -0.3089
   61TMC2    C2  945   2.590   1.758  15.898 -0.2646 -0.1492  0.0740
   61TMC2    C3  946   2.479   1.816  15.962 -0.2229 -0.4521 -0.0847
   61TMC2    C4  947   2.570   1.912  15.725  0.1313 -0.9361  0.2161
   61TMC2    C5  948   2.453   1.959  15.780  0.2798 -0.2752  0.4526
   61TMC2    C6  949   2.418   1.922  15.907  0.1853  0.4101 -0.1285
   61TMC2     C  950   2.762   1.769  15.730 -0.6715  0.7951 -0.3968
   61TMC2     O  951   2.804   1.672  15.787  0.4589 -0.3029  0.1765
   61TMC2     H  952   2.638   1.672  15.945 -2.3315  0.4814  3.3528
   61TMC2    H1  953   2.604   1.976  15.645  2.0148 -0.1152  1.6908
   61TMC2    H2  954   2.335   1.975  15.951  2.4244  3.6886  0.1570
   61TMC2    C7  955   2.431   2.105  15.750 -0.1610 -0.3718 -0.3369
   61TMC2    C8  956   2.453   1.795  16.094 -0.2977  0.2137  0.3271
   61TMC2    O1  957   2.477   2.194  15.822 -0.2498  0.1321  0.0370
   61TMC2    O2  958   2.406   1.887  16.161  0.0247  0.0696  0.1111
   61TMC2    O5  959   2.486   1.668  16.131  0.5846  0.0583  0.2926
   61TMC2    H5  960   2.515   1.611  16.057  1.4315  1.4181 -0.3923
   62MPD2     C  961   3.003   1.683  15.576  0.6786 -0.0814 -0.0688
   62MPD2    C1  962   2.913   1.789  15.546  0.1652 -0.3420  0.8297
   62MPD2    C2  963   2.935   1.847  15.418  0.7648  0.3022  0.4859
   62MPD2    C3  964   3.037   1.805  15.333 -0.4746  0.2177 -0.4635
   62MPD2    C4  965   3.121   1.706  15.371 -0.1893  0.0403 -0.3285
   62MPD2    C5  966   3.098   1.643  15.491 -1.0781  0.0820  0.2927
   62MPD2     H  967   2.854   1.912  15.389  0.7818  0.2115  0.2378
   62MPD2    H1  968   3.187   1.658  15.300  2.2928 -0.3300  2.2358
   62MPD2    H2  969   3.006   1.651  15.680  1.1158  0.6909  0.1535
   62MPD2    H3  970   3.163   1.560  15.518 -1.0174  0.3069  0.8472
   62MPD2     N  971   3.057   1.874  15.209  0.1788  0.3577 -0.0204
   62MPD2    H5  972   2.991   1.947  15.186  0.4889  0.7471  0.3274
   62MPD2    N1  973   2.802   1.829  15.617  0.4631  0.3395  0.1792
   62MPD2    H7  974   2.744   1.894  15.564  0.0084 -1.6214 -1.7493
   63TMC2    C1  975   2.294   1.992  10.048 -0.6064  0.8335  0.0891
   63TMC2    C2  976   2.395   1.905  10.079 -0.1334 -0.2136  0.1211
   63TMC2    C3  977   2.526   1.961  10.077 -0.1011  0.3972 -0.1816
   63TMC2    C4  978   2.316   2.126  10.008  0.5349  0.1960  0.5188
   63TMC2    C5  979   2.450   2.171  10.016  0.3995  0.0741 -0.2964
   63TMC2    C6  980   2.559   2.092  10.043  0.1710  0.6207 -0.5282
   63TMC2     C  981   2.166   1.956  10.088  0.0635  0.0864  0.5204
   63TMC2     O  982   2.087   2.050  10.075  0.0061 -0.0544 -0.0430
   63TMC2     H  983   2.385   1.801  10.106 -1.4951 -0.3687 -1.0113
   63TMC2    H1  984   2.237   2.200   9.999  0.8666  0.2932 -1.5830
   63TMC2    H2  985   2.665   2.113  10.038  1.0070 -3.3549  0.1502
   63TMC2    C7  986   2.474   2.310   9.976 -0.7480 -0.2900 -0.3304
   63TMC2    C8  987   2.626   1.866  10.106 -0.1037  0.3205  0.8909
   63TMC2    O1  988   2.373   2.365   9.934 -0.3272  0.0590 -0.2072
   63TMC2    O2  989   2.602   1.774  10.180 -0.1420 -0.5039  0.0047
   63TMC2    O5  990   2.697   1.859   9.992  0.7879  0.3544  0.0588
   63TMC2    H5  991   2.676   1.927   9.924  2.6196  1.7113  0.8720
   64MPD2     C  992   1.864   1.703  10.406  0.7429 -0.1679  0.1515
   64MPD2    C1  993   1.951   1.612  10.352 -0.2475  0.1147 -0.1920
   64MPD2    C2  994   2.040   1.654  10.254 -0.2776 -0.2110 -0.5757
   64MPD2    C3  995   2.036   1.785  10.207 -0.9579  0.1870 -0.0712
   64MPD2    C4  996   1.930   1.871  10.254  0.4833 -0.4394  0.2811
   64MPD2    C5  997   1.845   1.829  10.351  0.4283  0.0817  0.0027
   64MPD2     H  998   2.121   1.586  10.232 -1.6838 -1.7619 -1.0328
   64MPD2    H1  999   1.911   1.971  10.218 -1.1919 -0.9751 -0.3327
   64MPD2    H2 1000   1.795   1.675  10.485 -0.6248  0.2669 -0.8988
   64MPD2    H3 1001   1.769   1.895  10.392 -0.3952 -1.0360  0.2609
   64MPD2     N 1002   2.149   1.829  10.135  0.2455 -0.2331 -0.7436
   64MPD2    H5 1003   2.221   1.758  10.121  1.7799  1.5380 -1.8939
   64MPD2    N1 1004   1.948   1.487  10.417 -0.5881 -0.5619 -0.1816
   64MPD2    H7 1005   1.911   1.490  10.511  0.9210  1.1829  0.3674
   65TMC2    C1 1006   3.573   1.604  15.342 -0.1831 -0.4069 -0.5742
   65TMC2    C2 1007   3.560   1.539  15.220  0.8056 -0.3785  0.0220
   65TMC2    C3 1008   3.546   1.622  15.112 -0.4233  0.4246 -1.1416
   65TMC2    C4 1009   3.558   1.740  15.355 -0.5864  0.1669 -0.4974
   65TMC2    C5 1010   3.543   1.816  15.240 -0.1440  0.2842  0.0997
   65TMC2    C6 1011   3.538   1.754  15.116 -0.2191 -0.2657  0.4948
   65TMC2     C 1012   3.632   1.524  15.456  0.6564  0.8393  0.5305
   65TMC2     O 1013   3.671   1.585  15.557  0.8000 -0.3275 -0.0419
   65TMC2     H 1014   3.568   1.432  15.210  0.7824 -0.1866 -1.9809
   65TMC2    H1 1015   3.563   1.792  15.450 -0.9019  1.0902 -0.9810
   65TMC2    H2 1016   3.521   1.816  15.029  0.4380 -4.3898 -2.5785
   65TMC2    C7 1017   3.485   1.950  15.255 -0.0216  0.3244 -0.2490
   65TMC2    C8 1018   3.536   1.572  14.976 -0.1088  0.7919 -0.6025
   65TMC2    O1 1019   3.481   2.019  15.150  0.0612  0.0375 -0.9136
   65TMC2    O2 1020   3.471   1.614  14.882 -0.0770 -0.2959  0.7150
   65TMC2    O5 1021   3.610   1.460  14.975  0.5440 -0.2303 -0.6190
   65TMC2    H5 1022   3.662   1.444  15.057 -1.7705  1.0857  1.1221
   66MPD2     C 1023   3.752   1.325  15.648 -0.6562 -0.1828  0.1389
   66MPD2    C1 1024   3.667   1.288  15.544 -0.2755 -0.4811  0.2669
   66MPD2    C2 1025   3.620   1.159  15.539 -0.1442  0.6815  0.0973
   66MPD2    C3 1026   3.657   1.069  15.641 -0.5127  0.4445  0.7528
   66MPD2    C4 1027   3.734   1.110  15.748  0.3064 -0.4467 -0.0638
   66MPD2    C5 1028   3.776   1.241  15.753  0.2207 -1.0194  0.1511
   66MPD2     H 1029   3.565   1.121  15.454 -1.2315 -0.0210  1.1252
   66MPD2    H1 1030   3.756   1.052  15.836  3.6788  1.1143  0.1012
   66MPD2    H2 1031   3.789   1.426  15.662  3.3931 -1.6930  0.6256
   66MPD2    H3 1032   3.826   1.274  15.844 -1.8576  0.5531  0.7255
   66MPD2     N 1033   3.614   0.935  15.641 -0.0792 -0.3100 -0.1449
   66MPD2    H5 1034   3.618   0.885  15.730 -0.3339  1.0491  0.6250
   66MPD2    N1 1035   3.615   1.384  15.445  0.2902 -0.0526 -0.1510
   66MPD2    H7 1036   3.556   1.352  15.369 -0.9959 -0.1224  0.8605
   67TMC2    C1 1037   3.785   0.685  14.250  0.3845  0.8360 -0.2476
   67TMC2    C2 1038   3.683   0.779  14.280  0.7574  0.2422 -0.2955
   67TMC2    C3 1039   3.702   0.852  14.396 -0.1249  0.2204 -0.2840
   67TMC2    C4 1040   3.899   0.660  14.327  0.1953  0.2692 -0.3322
   67TMC2    C5 1041   3.905   0.736  14.443 -0.1484 -0.1455 -0.1443
   67TMC2    C6 1042   3.810   0.832  14.476 -0.5415  0.0173  1.0948
   67TMC2     C 1043   3.758   0.592  14.143  0.2424 -0.3740  0.6672
   67TMC2     O 1044   3.831   0.494  14.130  0.1933  0.1147 -0.4270
   67TMC2     H 1045   3.586   0.788  14.233  0.6947 -3.1489 -0.8418
   67TMC2    H1 1046   3.973   0.588  14.295 -0.1742 -1.0760  1.8224
   67TMC2    H2 1047   3.819   0.899  14.561  1.4255 -1.2485  1.8700
   67TMC2    C7 1048   4.012   0.703  14.532 -0.0304 -0.3601  0.7770
   67TMC2    C8 1049   3.592   0.919  14.458  0.5352  0.1743 -0.5919
   67TMC2    O1 1050   4.124   0.682  14.482  0.4224 -0.5432 -0.3427
   67TMC2    O2 1051   3.556   0.906  14.574 -0.6748  0.2841 -0.1929
   67TMC2    O5 1052   3.589   1.031  14.389  0.3422  0.4190 -0.3886
   67TMC2    H5 1053   3.640   1.026  14.305  0.6661 -0.4461 -0.1479
   68MPD2     C 1054   3.649   0.438  13.908  0.1191 -1.1695  0.0154
   68MPD2    C1 1055   3.604   0.559  13.950 -0.3797 -0.2542 -0.4539
   68MPD2    C2 1056   3.508   0.631  13.876  0.1366 -0.2351  0.1754
   68MPD2    C3 1057   3.445   0.579  13.764 -0.1374 -0.1452 -0.1744
   68MPD2    C4 1058   3.480   0.451  13.734 -0.3374  0.8247  0.2011
   68MPD2    C5 1059   3.585   0.382  13.801  0.5175  0.3469  0.1951
   68MPD2     H 1060   3.478   0.727  13.918  2.2107  2.3588 -4.1872
   68MPD2    H1 1061   3.433   0.397  13.653 -0.6704  0.3224  0.7267
   68MPD2    H2 1062   3.722   0.375  13.958 -1.1159 -0.9218  2.1516
   68MPD2    H3 1063   3.607   0.280  13.771  0.1656  0.4342 -0.3741
   68MPD2     N 1064   3.345   0.641  13.682 -0.1931 -0.2690 -0.0205
   68MPD2    H5 1065   3.300   0.575  13.619  0.2299 -1.0084  0.4544
   68MPD2    N1 1066   3.659   0.627  14.063  0.3504  0.5494  0.3656
   68MPD2    H7 1067   3.613   0.717  14.077 -0.2902 -0.0675  2.1726
   69TMC2    C1 1068   0.897   1.706  12.428 -0.1112 -0.0765  0.2719
   69TMC2    C2 1069   0.771   1.769  12.424 -0.5537 -0.5060  0.8984
   69TMC2    C3 1070   0.717   1.791  12.300 -0.0727 -0.1630  0.2628
   69TMC2    C4 1071   0.959   1.664  12.316  0.7021 -0.0568  0.2692
   69TMC2    C5 1072   0.901   1.694  12.194 -0.3039  0.0097 -0.0877
   69TMC2    C6 1073   0.783   1.759  12.185  0.2045  0.1961 -0.0494
   69TMC2     C 1074   0.943   1.654  12.556 -0.3312 -0.2815 -0.2961
   69TMC2     O 1075   0.875   1.674  12.656  0.1467  0.2292 -0.8889
   69TMC2     H 1076   0.720   1.797  12.516  1.9042 -0.8929  2.3783
   69TMC2    H1 1077   1.053   1.610  12.313  0.1229 -0.8761 -2.3833
   69TMC2    H2 1078   0.732   1.776  12.091  1.3965 -1.1856 -0.9530
   69TMC2    C7 1079   0.995   1.727  12.088 -0.3529 -0.6591 -0.4139
   69TMC2    C8 1080   0.581   1.835  12.282 -0.2207 -0.0627  0.1810
   69TMC2    O1 1081   1.075   1.643  12.053  0.2798  0.0884  0.3759
   69TMC2    O2 1082   0.551   1.922  12.205 -0.4098  0.3950 -0.0930
   69TMC2    O5 1083   0.514   1.793  12.392  0.4047  0.2895  0.0181
   69TMC2    H5 1084   0.543   1.711  12.437 -1.4758  0.1743  1.0048
   70MPD2     C 1085   1.287   1.543  12.621  0.0506 -0.7004  0.1928
   70MPD2    C1 1086   1.152   1.549  12.638  0.4241  0.2444  0.1232
   70MPD2    C2 1087   1.094   1.483  12.739 -0.2104 -0.5024  0.0469
   70MPD2    C3 1088   1.164   1.390  12.816  0.3279 -0.1251 -0.6587
   70MPD2    C4 1089   1.301   1.374  12.799 -0.5851 -0.8372 -0.2422
   70MPD2    C5 1090   1.356   1.459  12.711 -0.5307 -0.0910 -0.1151
   70MPD2     H 1091   0.991   1.502  12.767  0.6184 -1.6926  3.8877
   70MPD2    H1 1092   1.361   1.303  12.856  0.6411  0.3482 -0.0410
   70MPD2    H2 1093   1.334   1.605  12.546 -2.2060 -0.2245 -0.8095
   70MPD2    H3 1094   1.463   1.446  12.704 -0.4844  0.6555 -0.9082
   70MPD2     N 1095   1.105   1.303  12.915 -0.0405  0.0409  0.0108
   70MPD2    H5 1096   1.171   1.239  12.960  1.4809  0.9623 -0.8922
   70MPD2    N1 1097   1.077   1.623  12.547 -0.1146 -0.2863 -0.4582
   70MPD2    H7 1098   1.131   1.662  12.470 -0.7169  0.6833 -0.3839
   71TMC2    C1 1099   3.010   3.108   1.368  0.1871 -0.1347 -0.0495
   71TMC2    C2 1100   3.097   3.188   1.434 -0.2295 -0.6369  0.0194
   71TMC2    C3 1101   3.059   3.272   1.537  1.5636  0.0834  0.1080
   71TMC2    C4 1102   2.879   3.122   1.398  0.5586 -0.1664  0.7253
   71TMC2    C5 1103   2.833   3.205   1.498 -0.4910 -0.1694 -0.2011
   71TMC2    C6 1104   2.923   3.288   1.567  0.0731  0.0948  0.1998
   71TMC2     C 1105   3.058   3.008   1.274  0.2672 -0.1436  0.0502
   71TMC2     O 1106   3.167   3.028   1.217 -0.0080  0.0544 -0.0487
   71TMC2     H 1107   3.203   3.183   1.410 -0.6390  0.9524 -2.0552
   71TMC2    H1 1108   2.802   3.081   1.333  1.3455  0.2607 -0.4841
   71TMC2    H2 1109   2.874   3.346   1.644 -1.7212 -0.2947 -0.6396
   71TMC2    C7 1110   2.691   3.233   1.517  0.7130 -0.8567 -0.0239
   71TMC2    C8 1111   3.165   3.337   1.622  0.6046  0.1465  0.0884
   71TMC2    O1 1112   2.658   3.338   1.577 -0.2838  0.1543 -0.0907
   71TMC2    O2 1113   3.277   3.367   1.579  0.3851 -0.1971  0.3884
   71TMC2    O5 1114   3.113   3.377   1.733  0.1072  0.6127  0.0898
   71TMC2    H5 1115   3.042   3.319   1.769 -0.6930  1.0736 -0.7185
   72MPD2     C 1116   2.939   2.558   1.048 -1.0156 -0.3368 -0.5699
   72MPD2    C1 1117   3.022   2.659   1.006  0.7994 -0.5598  0.2026
   72MPD2    C2 1118   3.042   2.772   1.084  0.5078 -0.0433  0.0086
   72MPD2    C3 1119   2.978   2.783   1.209  0.1616  0.0807  0.1711
   72MPD2    C4 1120   2.888   2.681   1.240 -0.2280  0.2810  0.0272
   72MPD2    C5 1121   2.878   2.571   1.167 -0.6147 -0.4851  0.2415
   72MPD2     H 1122   3.107   2.849   1.046  1.3937 -0.1206  1.3602
   72MPD2    H1 1123   2.832   2.681   1.333  1.2943  1.7561  0.9626
   72MPD2    H2 1124   2.927   2.471   0.984 -1.7581 -1.1007  0.6154
   72MPD2    H3 1125   2.802   2.497   1.190  0.6641 -2.0677 -0.5367
   72MPD2     N 1126   2.970   2.900   1.284  0.0768  0.4934 -0.1062
   72MPD2    H5 1127   2.901   2.893   1.358 -0.4803 -1.5662 -0.8089
   72MPD2    N1 1128   3.093   2.652   0.883 -0.9954 -0.1794  0.6233
   72MPD2    H7 1129   3.147   2.734   0.857 -0.3263 -0.7993  0.0826
   73TMC2    C1 1130   2.758   4.119  13.989  0.9639  0.3099  0.2428
   73TMC2    C2 1131   2.745   4.246  14.035 -0.7086 -0.3346  0.3341
   73TMC2    C3 1132   2.794   4.274  14.162  0.5014  0.4737  0.0342
   73TMC2    C4 1133   2.819   4.024  14.064 -0.4350  0.0761  0.4995
   73TMC2    C5 1134   2.890   4.064  14.175  0.3053 -0.3804  0.2649
   73TMC2    C6 1135   2.867   4.182  14.236  0.2833 -0.6043  0.0816
   73TMC2     C 1136   2.776   4.109  13.845 -0.3727  0.0303  0.5438
   73TMC2     O 1137   2.878   4.054  13.808 -0.0898 -0.0331 -0.5083
   73TMC2     H 1138   2.711   4.329  13.975  1.5776  1.0408  0.9342
   73TMC2    H1 1139   2.847   3.933  14.012  0.6455  0.3374  0.6071
   73TMC2    H2 1140   2.938   4.209  14.314  1.8805 -1.4877 -1.0713
   73TMC2    C7 1141   3.029   4.032  14.169  0.4865  1.1340 -0.0356
   73TMC2    C8 1142   2.713   4.371  14.238  0.8002  0.9494  0.2114
   73TMC2    O1 1143   3.100   4.039  14.264 -0.4107  0.3429  0.0385
   73TMC2    O2 1144   2.747   4.423  14.345  0.2933  0.0960  0.2994
   73TMC2    O5 1145   2.607   4.396  14.165  0.5765 -0.4606  0.6519
   73TMC2    H5 1146   2.604   4.340  14.084 -0.0388  1.8150 -0.9268
   74MPD2     C 1147   2.768   4.382  13.407 -0.0176  0.5254  0.7360
   74MPD2    C1 1148   2.845   4.271  13.443  0.8256  1.2145  0.3918
   74MPD2    C2 1149   2.819   4.206  13.565  0.6186  0.4979  0.5219
   74MPD2    C3 1150   2.705   4.237  13.641 -1.0863  0.9022 -0.1964
   74MPD2    C4 1151   2.620   4.333  13.593 -0.1423 -0.1111 -0.6624
   74MPD2    C5 1152   2.653   4.408  13.478 -0.2154  0.5642 -0.7386
   74MPD2     H 1153   2.891   4.135  13.603 -0.6994 -0.0650  1.9664
   74MPD2    H1 1154   2.527   4.365  13.639  0.2795  0.8092 -0.4360
   74MPD2    H2 1155   2.795   4.439  13.318 -0.2070  1.1916  1.1064
   74MPD2    H3 1156   2.599   4.494  13.440 -1.9678 -0.0937  0.2676
   74MPD2     N 1157   2.685   4.185  13.773 -0.5321  0.0856  0.7597
   74MPD2    H5 1158   2.603   4.215  13.825 -0.6530  1.5590 -0.3149
   74MPD2    N1 1159   2.950   4.235  13.361 -0.4185 -0.1476 -0.5906
   74MPD2    H7 1160   2.961   4.274  13.268  0.2331  2.0838  0.4172
   75TMC2    C1 1161   3.234   0.820  13.572  0.1871 -0.8868  0.8073
   75TMC2    C2 1162   3.182   0.943  13.568 -0.1361 -0.1964  0.3902
   75TMC2    C3 1163   3.117   0.978  13.451  0.4438 -0.2576 -0.0902
   75TMC2    C4 1164   3.230   0.734  13.464 -0.7474  0.1264 -0.0716
   75TMC2    C5 1165   3.167   0.776  13.355 -0.3811 -0.3353  0.1804
   75TMC2    C6 1166   3.104   0.895  13.345 -0.6660  0.3898  0.3911
   75TMC2     C 1167   3.303   0.772  13.693 -0.2480 -0.6208  0.1288
   75TMC2     O 1168   3.344   0.860  13.769 -0.1914  0.0563  0.2748
   75TMC2     H 1169   3.182   1.002  13.658  0.9044  1.8661 -0.9623
   75TMC2    H1 1170   3.275   0.635  13.469  1.0447  1.0191  1.4186
   75TMC2    H2 1171   3.058   0.934  13.255  1.2605  0.3346 -0.6140
   75TMC2    C7 1172   3.124   0.683  13.247  0.4539  0.3279 -0.3398
   75TMC2    C8 1173   3.036   1.104  13.449 -0.9775 -0.7109  0.5320
   75TMC2    O1 1174   3.035   0.725  13.174 -1.0277  0.7540 -0.4438
   75TMC2    O2 1175   3.007   1.168  13.346 -1.0307  0.6681  0.1457
   75TMC2    O5 1176   2.963   1.096  13.563  0.3296  0.1920  0.2314
   75TMC2    H5 1177   2.984   1.022  13.624 -3.5095  0.4099  1.8115
   76TMC2    C1 1178   1.824   0.904  12.043 -0.4322 -0.4745  0.4165
   76TMC2    C2 1179   1.776   0.790  11.986  0.1762  0.3404  0.3154
   76TMC2    C3 1180   1.799   0.667  12.050 -0.2796 -0.2509  0.0215
   76TMC2    C4 1181   1.886   0.900  12.164 -0.3442 -0.6033 -0.1181
   76TMC2    C5 1182   1.883   0.780  12.230 -0.1687 -0.2105  0.2890
   76TMC2    C6 1183   1.850   0.663  12.173  0.5603 -0.6363 -0.0197
   76TMC2     C 1184   1.791   1.033  11.978 -0.2088 -0.3603  1.1000
   76TMC2     O 1185   1.684   1.024  11.915 -0.5092  0.1091 -0.0668
   76TMC2     H 1186   1.722   0.802  11.893 -0.2057 -1.0553  0.3443
   76TMC2    H1 1187   1.918   0.992  12.210  2.6949 -2.7186  1.9815
   76TMC2    H2 1188   1.857   0.565  12.217  0.9790  0.1881  1.7598
   76TMC2    C7 1189   1.956   0.755  12.351 -0.8212  0.2286  0.1257
   76TMC2    C8 1190   1.707   0.565  12.039 -0.4453  1.0768  0.5540
   76TMC2    O1 1191   1.981   0.642  12.386 -0.0745  0.4178  0.2595
   76TMC2    O2 1192   1.728   0.451  12.082  0.0322  0.2795  0.4196
   76TMC2    O5 1193   1.588   0.626  12.008 -0.0140  0.2886 -0.0777
   76TMC2    H5 1194   1.590   0.719  11.978  0.9306  1.1598  2.7281
   77MPD2     C 1195   1.950   1.381  11.635  0.1374 -0.1399 -0.2045
   77MPD2    C1 1196   1.819   1.358  11.681 -0.5075  0.3805  0.0538
   77MPD2    C2 1197   1.797   1.273  11.789 -0.1370 -0.5481  0.2838
   77MPD2    C3 1198   1.908   1.205  11.847 -0.2049 -0.1528 -0.1799
   77MPD2    C4 1199   2.038   1.238  11.796 -0.7875  0.4406 -0.8859
   77MPD2    C5 1200   2.059   1.323  11.690 -0.1933  0.3797 -0.0328
   77MPD2     H 1201   1.698   1.253  11.827  0.9614 -1.8819  2.4301
   77MPD2    H1 1202   2.127   1.188  11.831 -1.1801 -0.3303 -0.9791
   77MPD2    H2 1203   1.972   1.443  11.548 -0.3044 -0.9158 -0.8737
   77MPD2    H3 1204   2.161   1.351  11.664 -0.3077 -0.1326 -1.0484
   77MPD2     N 1205   1.897   1.112  11.956  0.0488  0.4753 -0.2704
   77MPD2    H5 1206   1.985   1.076  11.992  1.2422  2.8608 -0.7960
   77MPD2    N1 1207   1.702   1.414  11.620  0.1568  0.3742 -0.1137
   77MPD2    H7 1208   1.610   1.397  11.660  0.4917  1.5487  1.1627
   78TMC2    C1 1209   3.971   2.328   0.163 -0.4945  0.9448  0.0219
   78TMC2    C2 1210   4.024   2.198   0.175  0.4073  0.3544 -0.2529
   78TMC2    C3 1211   4.046   2.156   0.308 -0.0360  0.4308  0.2516
   78TMC2    C4 1212   3.975   2.419   0.265 -0.2618  0.0452  0.6040
   78TMC2    C5 1213   3.999   2.369   0.391 -0.3220  0.5064 -0.8265
   78TMC2    C6 1214   4.031   2.236   0.414 -0.2072  0.4849 -0.9924
   78TMC2     C 1215   3.851   2.345   0.082  0.1398  0.6229 -0.1506
   78TMC2     O 1216   3.816   2.458   0.047  0.0323 -0.0218 -0.6689
   78TMC2     H 1217   4.037   2.137   0.087 -0.7619 -0.1569 -0.0701
   78TMC2    H1 1218   3.950   2.523   0.246 -0.1342 -0.1013 -0.3851
   78TMC2    H2 1219   4.051   2.195   0.512  0.3027 -0.0665 -1.3242
   78TMC2    C7 1220   3.977   2.445   0.508 -0.4268  0.2778 -0.1067
   78TMC2    C8 1221   4.087   2.015   0.328  0.6018 -0.5785  0.1781
   78TMC2    O1 1222   4.047   2.408   0.602 -0.4582  0.0764 -0.3290
   78TMC2    O2 1223   4.031   1.919   0.289  0.3982  0.3315  0.5004
   78TMC2    O5 1224   4.202   2.021   0.392 -0.0796 -0.3501 -0.0535
   78TMC2    H5 1225   4.224   2.113   0.416 -2.6992  0.1332  0.4226
   79MPD1     C 1226   3.553   2.104  17.507  1.1719 -0.0555  0.8629
   79MPD1    C1 1227   3.601   2.228  17.506  0.1649 -0.0826  0.3230
   79MPD1    C2 1228   3.679   2.262  17.612 -0.1438 -1.1918 -0.2163
   79MPD1    C3 1229   3.709   2.185  17.723  0.5514 -0.2599  0.0731
   79MPD1    C4 1230   3.645   2.066  17.726  0.9358  0.0183 -0.5901
   79MPD1    C5 1231   3.577   2.020  17.612  0.3445  0.6468 -0.6597
   79MPD1     H 1232   3.729   2.357  17.597 -1.0278 -0.7896 -0.5981
   79MPD1    H1 1233   3.667   1.991   0.052 -1.8555  0.0363  0.2432
   79MPD1    H2 1234   3.498   2.062  17.423  1.1860 -0.3138  0.9811
   79MPD1    H3 1235   3.532   1.921  17.613  1.3345  0.2066  0.2176
   79MPD1     N 1236   3.803   2.222   0.071 -0.1522 -0.0178  0.9603
   79MPD1    H5 1237   3.826   2.152   0.141  1.2355 -1.0177 -0.4925
   79MPD1    N1 1238   3.588   2.304  17.391  0.1317  0.6293  0.4266
   79MPD1    H6 1239   3.605   2.401  17.419  1.2956  0.1857  1.2403
   79MPD1    H7 1240   3.493   2.293  17.354  1.0455  1.8516 -2.3529
   80TMC2    C1 1241   0.325   0.596  11.661  0.0413  0.4775 -0.3740
   80TMC2    C2 1242   0.196   0.637  11.655  0.1502  0.1409 -0.2038
   80TMC2    C3 1243   0.094   0.554  11.685 -0.3279  0.4445  0.6903
   80TMC2    C4 1244   0.342   0.468  11.709 -0.3082  0.4067  0.5009
   80TMC2    C5 1245   0.234   0.393  11.743  0.7293  0.4608  0.5404
   80TMC2    C6 1246   0.104   0.430  11.729 -0.3289  0.1710 -0.0452
   80TMC2     C 1247   0.417   0.667  11.576 -0.1231  0.3341 -0.6516
   80TMC2     O 1248   0.361   0.750  11.500  0.6548 -0.2566  0.1080
   80TMC2     H 1249   0.172   0.731  11.606  0.5964  0.4041  0.0816
   80TMC2    H1 1250   0.439   0.419  11.703 -0.2798  0.3741  1.2925
   80TMC2    H2 1251   0.020   0.363  11.748 -0.7928  0.5208 -0.8946
   80TMC2    C7 1252   0.257   0.256  11.790  0.1598  0.3676  0.0211
   80TMC2    C8 1253   4.699   0.589  11.636  0.5716 -0.1091 -0.6407
   80TMC2    O1 1254   0.176   0.170  11.761  0.6376 -0.5234 -0.1287
   80TMC2    O2 1255   4.682   0.668  11.542 -0.3848  0.0972 -0.4818
   80TMC2    O5 1256   4.614   0.538  11.731 -0.2138  0.6369  0.2672
   80TMC2    H5 1257   4.673   0.514  11.806  1.3445 -2.1568 -1.8581
   81MPD2     C 1258   0.658   0.793  11.450  0.8749  0.8937  0.3426
   81MPD2    C1 1259   0.665   0.723  11.564 -0.0430  0.3229  0.0522
   81MPD2    C2 1260   0.787   0.719  11.631  0.5234  0.0411 -0.6073
   81MPD2    C3 1261   0.895   0.791  11.593  0.3348 -0.9183 -0.8553
   81MPD2    C4 1262   0.878   0.866  11.481 -0.5273 -1.0607 -0.2808
   81MPD2    C5 1263   0.760   0.867  11.414  0.5187 -0.2095 -0.1846
   81MPD2     H 1264   0.792   0.649  11.714  1.2400 -1.0433 -1.5714
   81MPD2    H1 1265   0.957   0.924  11.435 -1.5958 -1.3333 -2.4640
   81MPD2    H2 1266   0.563   0.796  11.396  1.0522  2.3099  0.1060
   81MPD2    H3 1267   0.747   0.928  11.326  0.4919  0.0689  0.0117
   81MPD2     N 1268   1.017   0.802  11.664 -0.3940  0.4079 -0.2600
   81MPD2    H5 1269   1.079   0.877  11.634 -0.2997 -0.1974 -1.5793
   81MPD2    N1 1270   0.553   0.643  11.609  0.8032 -0.8420  0.3408
   81MPD2    H7 1271   0.569   0.572  11.680 -0.0042 -0.2910  1.0797
   82TMC2    C1 1272   4.087   0.274  10.796  0.7083 -0.4042 -0.7902
   82TMC2    C2 1273   4.193   0.220  10.868  0.0115 -0.2479  0.0637
   82TMC2    C3 1274   4.196   0.093  10.911  0.6327 -0.2611 -0.0080
   82TMC2    C4 1275   3.965   0.202  10.812 -0.8854 -0.6610  0.1942
   82TMC2    C5 1276   3.963   0.076  10.862 -0.1801  0.2590  0.3705
   82TMC2    C6 1277   4.083   0.015  10.901  0.7714  0.3137 -0.6947
   82TMC2     C 1278   4.071   0.418  10.823 -0.3824  0.2071 -0.0544
   82TMC2     O 1279   4.024   0.484  10.730 -0.0726 -0.1780  0.5443
   82TMC2     H 1280   4.281   0.283  10.878 -0.5192  0.8653 -2.1989
   82TMC2    H1 1281   3.874   0.254  10.788 -1.7692 -2.1135  0.3680
   82TMC2    H2 1282   4.076   4.654  10.947  0.1167  1.0377  0.7757
   82TMC2    C7 1283   3.833   0.009  10.900  0.2629  0.0108  0.2171
   82TMC2    C8 1284   4.322   0.016  10.881 -0.4394  0.3041 -0.1854
   82TMC2    O1 1285   3.844   4.655  10.978 -0.2583  0.1974  0.3687
   82TMC2    O2 1286   4.421   0.058  10.820  0.4517 -0.8239  0.1296
   82TMC2    O5 1287   4.316   4.629  10.935 -0.2106 -0.2948  0.0954
   82TMC2    H5 1288   4.248   4.615  11.004  0.3994  1.2605  1.0268
   83MPD2     C 1289   3.875   0.749  11.179 -1.2376 -0.7078  0.4652
   83MPD2    C1 1290   3.865   0.749  11.039 -0.2485  0.6637  0.7615
   83MPD2    C2 1291   3.940   0.659  10.966 -0.3743 -0.1667  0.0505
   83MPD2    C3 1292   4.025   0.565  11.026 -0.3450  0.5177 -0.4818
   83MPD2    C4 1293   4.040   0.573  11.163  0.5219  0.1654 -1.1417
   83MPD2    C5 1294   3.958   0.661  11.238  0.4867 -0.7197 -0.1010
   83MPD2     H 1295   3.927   0.657  10.858 -1.3687 -1.0494  0.1894
   83MPD2    H1 1296   4.090   0.507  11.233 -0.9559 -1.0777 -1.2636
   83MPD2    H2 1297   3.831   0.834  11.229  1.1982 -0.2144  1.7584
   83MPD2    H3 1298   3.968   0.652  11.345  2.5500 -0.4391 -0.2703
   83MPD2     N 1299   4.077   0.450  10.959  0.0996 -0.2416  0.0825
   83MPD2    H5 1300   4.120   0.388  11.027 -1.4762 -2.1968 -0.7123
   83MPD2    N1 1301   3.755   0.817  10.983  0.8391 -0.1589  0.2092
   83MPD2    H7 1302   3.685   0.855  11.046 -0.8058 -1.4163 -0.8716
   84TMC2    C1 1303   0.560   4.221  10.577 -0.6202 -0.2868 -0.6297
   84TMC2    C2 1304   0.652   4.200  10.668  0.3223 -0.2190  0.5111
   84TMC2    C3 1305   0.756   4.106  10.640 -0.7335 -0.3386  0.4454
   84TMC2    C4 1306   0.557   4.142  10.458  0.1906  0.3814 -0.7414
   84TMC2    C5 1307   0.644   4.042  10.449  0.0307  0.2914  0.2502
   84TMC2    C6 1308   0.749   4.012  10.540 -0.6446  0.0565  0.0173
   84TMC2     C 1309   0.437   4.289  10.617 -0.0562  0.2592 -0.6604
   84TMC2     O 1310   0.396   4.283  10.729  0.1634 -0.1299 -0.2855
   84TMC2     H 1311   0.652   4.263  10.757 -1.9359 -1.9987  1.7899
   84TMC2    H1 1312   0.471   4.150  10.392 -0.0037  0.1043 -0.5233
   84TMC2    H2 1313   0.823   3.937  10.516  0.7743  1.1596  0.9601
   84TMC2    C7 1314   0.614   3.945  10.338 -0.2181 -0.8367  0.8359
   84TMC2    C8 1315   0.877   4.132  10.713  0.0441 -0.8721  0.5444
   84TMC2    O1 1316   0.548   3.986  10.246  0.5696  0.2224  0.2651
   84TMC2    O2 1317   0.888   4.213  10.804  0.3365 -0.3302  0.8823
   84TMC2    O5 1318   0.979   4.066  10.657 -0.0348  0.2500 -0.2032
   84TMC2    H5 1319   1.064   4.074  10.706 -0.9025  0.1182  1.3244
   85TMC2    C1 1320   1.056   2.994  16.254  0.5354  0.4607  0.4501
   85TMC2    C2 1321   1.016   3.097  16.329  0.4146 -0.6520  0.3860
   85TMC2    C3 1322   0.998   3.210  16.256 -0.2890 -0.0426 -0.0243
   85TMC2    C4 1323   1.086   2.997  16.117 -0.0545 -0.6455  0.0009
   85TMC2    C5 1324   1.071   3.115  16.052 -0.3827  1.0322 -0.2990
   85TMC2    C6 1325   1.021   3.230  16.119  0.2827 -0.7534  0.5756
   85TMC2     C 1326   1.096   2.880  16.337 -0.2683  0.1613  0.1725
   85TMC2     O 1327   1.150   2.909  16.444 -0.0411  0.1087 -0.3122
   85TMC2     H 1328   0.991   3.082  16.434 -1.3165 -2.2065 -0.2466
   85TMC2    H1 1329   1.131   2.910  16.070  0.5311 -0.2183 -0.2228
   85TMC2    H2 1330   1.005   3.327  16.073 -0.1041 -0.0136  2.2546
   85TMC2    C7 1331   1.149   3.141  15.933 -0.0284 -0.5773 -0.4895
   85TMC2    C8 1332   0.928   3.318  16.319  0.4770 -0.4362  0.0201
   85TMC2    O1 1333   1.236   3.061  15.908  0.3761  0.1310  0.0915
   85TMC2    O2 1334   0.883   3.413  16.253 -0.1016  0.3125  0.2219
   85TMC2    O5 1335   0.929   3.304  16.451  0.1084  0.3672  0.0544
   85TMC2    H5 1336   1.011   3.263  16.484 -0.6358  0.3608  1.8969
   86MPD2     C 1337   1.100   2.393  16.454 -0.0364  0.5734 -0.7141
   86MPD2    C1 1338   1.010   2.424  16.355 -0.4232  0.6404 -0.1688
   86MPD2    C2 1339   1.008   2.543  16.290 -0.0309  0.6414  0.1971
   86MPD2    C3 1340   1.076   2.648  16.341 -0.3201 -0.4625  0.0097
   86MPD2    C4 1341   1.160   2.619  16.452  0.5153  0.2621 -0.7254
   86MPD2    C5 1342   1.172   2.495  16.509  0.3553  0.3700  0.4828
   86MPD2     H 1343   0.941   2.562  16.207 -0.8676 -2.0063  0.2658
   86MPD2    H1 1344   1.222   2.698  16.494 -1.8362  2.0270 -0.5951
   86MPD2    H2 1345   1.092   2.300  16.509 -1.3091  1.7427  1.0761
   86MPD2    H3 1346   1.234   2.478  16.595 -1.1236  1.4185  1.7699
   86MPD2     N 1347   1.057   2.767  16.281  0.2123 -0.7431  0.2904
   86MPD2    H5 1348   1.000   2.768  16.198  1.0050  0.2070 -0.2441
   86MPD2    N1 1349   0.923   2.322  16.309  0.5092  0.0839 -0.5812
   86MPD2    H7 1350   0.873   2.345  16.224 -0.4377 -0.9535 -0.2975
   87TMC2    C1 1351   3.857   1.134   1.343 -0.7906 -0.1532 -0.3993
   87TMC2    C2 1352   3.886   1.112   1.474  0.1118 -0.7287 -0.7421
   87TMC2    C3 1353   3.919   1.229   1.545 -0.0357 -0.9359 -0.2339
   87TMC2    C4 1354   3.842   1.264   1.300 -0.0711 -0.5981  0.1737
   87TMC2    C5 1355   3.854   1.369   1.373 -0.1801 -0.1783  0.0666
   87TMC2    C6 1356   3.890   1.355   1.501  0.0063  0.6666  0.6164
   87TMC2     C 1357   3.847   1.020   1.251  0.3804 -0.1279 -0.1356
   87TMC2     O 1358   3.868   1.043   1.136 -0.8190  0.1800 -0.8373
   87TMC2     H 1359   3.925   1.018   1.513  2.6927  0.2796 -0.9061
   87TMC2    H1 1360   3.825   1.277   1.193  2.1533  0.5756 -0.0438
   87TMC2    H2 1361   3.901   1.441   1.566 -1.5196 -0.2817  2.1273
   87TMC2    C7 1362   3.789   1.495   1.327 -0.8392 -0.0892  0.1092
   87TMC2    C8 1363   3.950   1.219   1.683  0.8519  0.3218  0.0248
   87TMC2    O1 1364   3.701   1.467   1.248  0.1531 -0.1927  0.6386
   87TMC2    O2 1365   4.000   1.314   1.742  0.1004 -0.4117 -0.1259
   87TMC2    O5 1366   3.896   1.106   1.734 -0.0440  0.1710  0.3695
   87TMC2    H5 1367   3.839   1.045   1.682  0.8351  0.4502 -0.9099
   88MPD2     C 1368   3.833   1.850   1.433  0.4874  0.1982  0.0861
   88MPD2    C1 1369   3.771   1.743   1.373  0.6171 -0.6375 -0.6015
   88MPD2    C2 1370   3.656   1.762   1.305  1.2948 -0.2145  0.2872
   88MPD2    C3 1371   3.598   1.885   1.287  0.3371 -1.3230 -0.1747
   88MPD2    C4 1372   3.652   1.991   1.353 -0.1328 -0.2935  0.5732
   88MPD2    C5 1373   3.774   1.970   1.414 -0.2675 -0.3242 -0.4749
   88MPD2     H 1374   3.610   1.669   1.271 -0.0325  0.4520  0.2486
   88MPD2    H1 1375   3.602   2.087   1.346  1.9849  0.6082 -2.5932
   88MPD2    H2 1376   3.926   1.837   1.488 -0.3131  2.2370  1.9001
   88MPD2    H3 1377   3.810   2.057   1.468  0.3106 -0.7647 -0.1548
   88MPD2     N 1378   3.490   1.906   1.204 -0.0276  0.4611 -0.5242
   88MPD2    H5 1379   3.473   2.002   1.176  1.4197  0.5882 -0.9345
   88MPD2    N1 1380   3.829   1.614   1.389  0.2610  0.0246 -0.5324
   88MPD2    H7 1381   3.911   1.617   1.448 -0.8516 -2.0156  1.1176
   89TMC2    C1 1382   4.067   4.263   1.802  0.6904  0.3328  0.1362
   89TMC2    C2 1383   4.130   4.381   1.826  0.2086  0.5544  0.3944
   89TMC2    C3 1384   4.163   4.469   1.727 -0.2261 -0.1879 -0.4910
   89TMC2    C4 1385   4.017   4.233   1.674 -0.0146  0.3400 -0.4051
   89TMC2    C5 1386   4.056   4.314   1.576 -0.3530 -0.0792  0.5576
   89TMC2    C6 1387   4.126   4.432   1.602  0.5899  0.9064 -0.1680
   89TMC2     C 1388   3.985   4.231   1.913 -0.2574  0.8029 -0.2856
   89TMC2     O 1389   4.048   4.216   2.013 -0.2775 -0.0892  0.7018
   89TMC2     H 1390   4.169   4.400   1.925  0.9991 -2.1341  0.5946
   89TMC2    H1 1391   3.983   4.133   1.649  1.9609 -0.4250 -0.0252
   89TMC2    H2 1392   4.151   4.512   1.532  0.6641  0.6474 -0.4404
   89TMC2    C7 1393   4.048   4.259   1.435  0.9684  0.0014 -0.5384
   89TMC2    C8 1394   4.214   4.605   1.751 -0.1141 -0.5338 -0.0191
   89TMC2    O1 1395   3.997   4.147   1.429  0.0892  0.1814 -0.0723
   89TMC2    O2 1396   4.273   4.673   1.669 -0.1676 -0.4115  0.4659
   89TMC2    O5 1397   4.174   4.643   1.875  1.0865 -0.0268 -0.5239
   89TMC2    H5 1398   4.133   4.571   1.927  0.6617  0.2137 -0.5307
   90MPD2     C 1399   3.538   4.065   2.145 -0.4525 -0.6037 -0.1257
   90MPD2    C1 1400   3.515   4.101   2.011  0.5065 -0.2889  0.0849
   90MPD2    C2 1401   3.623   4.129   1.927  0.4273 -1.0652 -0.5037
   90MPD2    C3 1402   3.756   4.120   1.968  0.0298  0.5254 -0.1653
   90MPD2    C4 1403   3.779   4.095   2.101  0.0803  0.2148  0.8886
   90MPD2    C5 1404   3.669   4.065   2.186 -0.0609 -0.0478 -0.1361
   90MPD2     H 1405   3.595   4.157   1.826 -0.6136  1.2749  0.4318
   90MPD2    H1 1406   3.878   4.101   2.145 -0.1639 -0.6135  1.5480
   90MPD2    H2 1407   3.464   4.030   2.216 -1.7981  0.3233 -1.0760
   90MPD2    H3 1408   3.688   4.026   2.285  0.9598 -1.7158 -0.9951
   90MPD2     N 1409   3.855   4.185   1.879 -0.7675  0.3945 -0.1719
   90MPD2    H5 1410   3.828   4.200   1.783  0.4258 -2.0723 -0.8772
   90MPD2    N1 1411   3.379   4.104   1.957  0.1405 -0.0055  0.7220
   90MPD2    H7 1412   3.374   4.109   1.856  1.3957  2.0593  0.7774
   91TMC2    C1 1413   0.573   3.601  16.190  0.6257  0.2058  0.3784
   91TMC2    C2 1414   0.636   3.602  16.312  0.1143  0.2270  0.5279
   91TMC2    C3 1415   0.602   3.514  16.405  0.1138  0.3517  0.1834
   91TMC2    C4 1416   0.465   3.517  16.162 -0.9171  0.6038  0.3447
   91TMC2    C5 1417   0.430   3.434  16.262  0.1200  0.2820 -0.5507
   91TMC2    C6 1418   0.492   3.432  16.386 -0.2718  0.8779 -0.5446
   91TMC2     C 1419   0.638   3.654  16.071 -0.0939  0.0567 -0.5798
   91TMC2     O 1420   0.574   3.675  15.968  0.0878  0.4737  0.2547
   91TMC2     H 1421   0.704   3.684  16.334  0.7889  0.1075 -1.1640
   91TMC2    H1 1422   0.430   3.498  16.061 -0.7760 -4.1842  1.1832
   91TMC2    H2 1423   0.449   3.368  16.461  0.7719 -0.4808 -1.1060
   91TMC2    C7 1424   0.337   3.322  16.239 -0.0436  0.0356  0.1227
   91TMC2    C8 1425   0.682   3.513  16.521  0.1325  0.5100  0.3984
   91TMC2    O1 1426   0.338   3.222  16.312  0.4002  0.4171  0.1239
   91TMC2    O2 1427   0.769   3.594  16.550  0.6967  0.2002 -0.6572
   91TMC2    O5 1428   0.644   3.409  16.597  0.4229 -0.3570  0.5664
   91TMC2    H5 1429   0.620   3.331  16.543  1.8079 -0.3246 -0.0943
   92MPD2     C 1430   0.873   3.751  15.888  0.6385 -0.5066 -0.6037
   92MPD2    C1 1431   0.882   3.674  15.999  0.3286  0.4558  0.3733
   92MPD2    C2 1432   1.003   3.636  16.052 -0.3087 -0.0982 -0.2475
   92MPD2    C3 1433   1.119   3.681  15.992  0.1996  0.2550 -0.2772
   92MPD2    C4 1434   1.118   3.774  15.882 -0.0121 -0.1361  0.2776
   92MPD2    C5 1435   0.993   3.791  15.829  0.4868 -0.6558  0.3724
   92MPD2     H 1436   1.018   3.577  16.142 -1.9453 -1.5362 -0.9324
   92MPD2    H1 1437   1.212   3.801  15.837 -0.2516  1.8697  0.9933
   92MPD2    H2 1438   0.781   3.782  15.839  1.3129  2.0819 -0.2335
   92MPD2    H3 1439   0.988   3.857  15.744  0.6964 -1.5686 -0.3432
   92MPD2     N 1440   1.231   3.644  16.062  0.3557 -0.5490 -0.6195
   92MPD2    H5 1441   1.229   3.581  16.142  2.9912 -0.2391 -0.2884
   92MPD2    N1 1442   0.776   3.632  16.077  0.4113 -0.2834 -0.0047
   92MPD2    H7 1443   0.805   3.583  16.161 -1.1876 -1.1727  0.0299
   93TMC2    C1 1444   2.660   3.503  13.731 -0.7111 -0.0574 -0.2097
   93TMC2    C2 1445   2.591   3.598  13.799  0.2555  0.7026  0.0459
   93TMC2    C3 1446   2.657   3.658  13.908 -0.2179 -0.1923  0.1753
   93TMC2    C4 1447   2.792   3.484  13.752 -0.7711  0.5545 -0.3235
   93TMC2    C5 1448   2.854   3.543  13.860  0.0253  0.1797  0.0282
   93TMC2    C6 1449   2.784   3.623  13.942 -0.2600  0.2436  0.3224
   93TMC2     C 1450   2.599   3.417  13.631 -0.4617  0.5626  0.2093
   93TMC2     O 1451   2.672   3.332  13.583 -0.2753 -0.2939  0.1319
   93TMC2     H 1452   2.484   3.611  13.798 -0.0709 -1.8737 -0.5391
   93TMC2    H1 1453   2.849   3.402  13.711  0.0459  0.0036  1.8894
   93TMC2    H2 1454   2.847   3.679  14.010  3.0321  0.1001 -2.6593
   93TMC2    C7 1455   2.999   3.574  13.842  0.3829  0.4189 -0.8158
   93TMC2    C8 1456   2.584   3.753  13.992 -0.3732 -0.4362  0.4206
   93TMC2    O1 1457   3.073   3.617  13.925  0.1284 -0.3962 -0.0239
   93TMC2    O2 1458   2.630   3.765  14.101  0.4985  0.2166  0.0575
   93TMC2    O5 1459   2.566   3.858  13.913 -0.6096  0.0382 -0.7573
   93TMC2    H5 1460   2.563   3.833  13.818 -1.3944  1.0845 -1.0099
   94MPD2     C 1461   2.447   3.292  13.427 -0.1389  0.3257 -0.6112
   94MPD2    C1 1462   2.388   3.357  13.537 -0.6570  0.0818  1.3122
   94MPD2    C2 1463   2.255   3.353  13.561 -0.0218 -0.1810  0.5367
   94MPD2    C3 1464   2.175   3.280  13.476  0.3970  0.0600  0.0310
   94MPD2    C4 1465   2.227   3.209  13.372  0.5440 -0.2217 -0.0132
   94MPD2    C5 1466   2.361   3.218  13.344  0.5098  0.1149  0.3162
   94MPD2     H 1467   2.221   3.403  13.651 -0.8161 -0.3484  0.3313
   94MPD2    H1 1468   2.160   3.171  13.295 -1.5503  1.0246  1.1920
   94MPD2    H2 1469   2.551   3.296  13.397  0.2169  0.0202  0.5917
   94MPD2    H3 1470   2.387   3.178  13.246  0.7253  1.0074  0.0107
   94MPD2     N 1471   2.036   3.259  13.500 -0.6673 -0.1941  0.0056
   94MPD2    H5 1472   1.996   3.195  13.433 -1.0383 -0.9812  0.9819
   94MPD2    N1 1473   2.470   3.442  13.609  0.6407 -0.1235 -0.0443
   94MPD2    H7 1474   2.414   3.513  13.654  1.6537  0.1031  0.8650
   95TMC2    C1 1475   2.744   0.325  16.174  0.5014 -0.0042 -0.1387
   95TMC2    C2 1476   2.679   0.220  16.118 -0.1350 -0.9243  0.7462
   95TMC2    C3 1477   2.610   0.133  16.201  0.9493 -0.4778 -0.4775
   95TMC2    C4 1478   2.732   0.351  16.307 -0.8223 -0.1049 -0.3730
   95TMC2    C5 1479   2.648   0.277  16.392 -1.5596 -0.6167  0.5608
   95TMC2    C6 1480   2.591   0.174  16.335 -0.3598  0.3325  0.2244
   95TMC2     C 1481   2.833   0.406  16.082  0.6838  0.1636 -0.4545
   95TMC2     O 1482   2.862   0.341  15.983  0.0533 -0.0791 -0.1054
   95TMC2     H 1483   2.691   0.196  16.013  0.5560  2.4594  0.0277
   95TMC2    H1 1484   2.804   0.413  16.360 -1.5671  1.6564 -1.4225
   95TMC2    H2 1485   2.529   0.110  16.396 -1.1931 -0.8327 -1.8382
   95TMC2    C7 1486   2.612   0.317  16.529  0.2372 -0.3893  0.2744
   95TMC2    C8 1487   2.507   0.063  16.142 -0.3945  0.0246  0.7361
   95TMC2    O1 1488   2.509   0.276  16.572 -0.3244 -0.0306 -0.1967
   95TMC2    O2 1489   2.493   0.056  16.025 -0.4568  0.6940  0.3802
   95TMC2    O5 1490   2.398   0.061  16.229 -0.5695  0.2701  0.5191
   95TMC2    H5 1491   2.331   0.001  16.190 -0.2160 -0.8680  1.6659
   96MPD2     C 1492   3.069   0.848  15.953 -0.1408 -0.4627  0.2393
   96MPD2    C1 1493   3.082   0.719  15.898  0.2778 -0.3880  0.1355
   96MPD2    C2 1494   3.006   0.617  15.952  0.1097 -0.1948 -0.0979
   96MPD2    C3 1495   2.932   0.639  16.073 -0.6509 -0.2023  0.1160
   96MPD2    C4 1496   2.927   0.769  16.119  0.7301 -0.1683 -0.5746
   96MPD2    C5 1497   2.988   0.874  16.053  0.7617 -0.4803 -0.4646
   96MPD2     H 1498   3.006   0.519  15.906 -0.4863 -1.1730  1.9791
   96MPD2    H1 1499   2.855   0.798  16.194  1.9228 -0.1082  0.5409
   96MPD2    H2 1500   3.123   0.933  15.911  2.2457 -1.3682  1.5001
   96MPD2    H3 1501   2.984   0.973  16.095 -0.8477 -1.4484  1.6376
   96MPD2     N 1502   2.857   0.536  16.137  0.0801 -0.1986  0.3814
   96MPD2    H5 1503   2.807   0.562  16.222 -2.9702  0.5150 -1.6574
   96MPD2    N1 1504   3.187   0.700  15.794  0.1826 -0.2430  0.4772
   96MPD2    H7 1505   3.230   0.785  15.759 -0.8257 -0.4728 -1.2966
   97TMC2    C1 1506   1.023   2.759   0.457  0.2358  0.4958 -0.1598
   97TMC2    C2 1507   1.140   2.684   0.438 -0.3005  0.1821  0.3864
   97TMC2    C3 1508   1.209   2.722   0.332 -0.1706  0.6899  0.0661
   97TMC2    C4 1509   0.982   2.864   0.380  0.6274  0.4328 -0.5689
   97TMC2    C5 1510   1.079   2.902   0.291  0.7620 -0.5461 -0.0762
   97TMC2    C6 1511   1.192   2.829   0.263 -0.2522 -0.8283  0.6035
   97TMC2     C 1512   0.937   2.725   0.566  0.0998 -0.1700  0.0534
   97TMC2     O 1513   0.835   2.795   0.572  0.1582 -0.2437  0.0732
   97TMC2     H 1514   1.149   2.584   0.479  0.2281  1.3571  3.1352
   97TMC2    H1 1515   0.899   2.931   0.400  1.0462  1.5285 -2.5280
   97TMC2    H2 1516   1.257   2.860   0.182 -0.3394  1.3262  1.3579
   97TMC2    C7 1517   1.060   3.021   0.206 -0.2955  0.2291 -0.2478
   97TMC2    C8 1518   1.326   2.630   0.305 -0.1529 -0.7244 -0.3095
   97TMC2    O1 1519   1.146   3.106   0.208  0.1258 -0.2381  0.2746
   97TMC2    O2 1520   1.414   2.596   0.384 -0.0042  0.0098 -0.0097
   97TMC2    O5 1521   1.319   2.607   0.174  0.4680 -0.0067  0.3267
   97TMC2    H5 1522   1.241   2.650   0.133 -0.4614 -2.2434 -0.2688
   98MPD2     C 1523   0.824   2.504   1.010 -0.7236 -0.3973 -0.8895
   98MPD2    C1 1524   0.763   2.615   0.947 -0.1956 -0.0022  0.8773
   98MPD2    C2 1525   0.807   2.656   0.820 -0.0087  0.4288  0.3404
   98MPD2    C3 1526   0.921   2.589   0.769 -0.1699  0.4081 -0.3150
   98MPD2    C4 1527   0.979   2.484   0.838 -0.3744  0.8874 -0.1243
   98MPD2    C5 1528   0.928   2.438   0.954  0.7774 -0.5247 -0.1300
   98MPD2     H 1529   0.767   2.740   0.764  0.6817 -0.0690 -0.8936
   98MPD2    H1 1530   1.073   2.447   0.798 -0.5144  0.8959 -0.4548
   98MPD2    H2 1531   0.793   2.475   1.110  2.2436  1.5995  0.6377
   98MPD2    H3 1532   0.989   2.367   1.008 -1.2183 -0.9529  1.5526
   98MPD2     N 1533   0.992   2.638   0.659 -0.5114  0.4406  0.0275
   98MPD2    H5 1534   1.086   2.600   0.653 -0.2169  0.7174  3.1792
   98MPD2    N1 1535   0.665   2.683   1.020  0.2471  0.0312 -0.2607
   98MPD2    H7 1536   0.628   2.643   1.106 -0.8345  2.6570  0.5120
   99TMC2    C1 1537   3.594   4.429   1.661 -0.7700  0.2953  0.3415
   99TMC2    C2 1538   3.681   4.474   1.762  0.3014 -0.2237  0.6083
   99TMC2    C3 1539   3.658   4.605   1.798  0.0807  0.6301  0.5448
   99TMC2    C4 1540   3.503   4.510   1.601  1.1757  0.5841  0.3040
   99TMC2    C5 1541   3.487   4.636   1.647 -0.2737  0.0372  0.1844
   99TMC2    C6 1542   3.564   4.687   1.745  0.3790  0.3951  0.5337
   99TMC2     C 1543   3.653   4.331   1.574 -0.5137  0.4290 -0.0851
   99TMC2     O 1544   3.715   4.237   1.627  0.1117 -0.1964  0.2780
   99TMC2     H 1545   3.760   4.411   1.800  0.5215  0.3644  1.1229
   99TMC2    H1 1546   3.430   4.473   1.530  1.1883  0.5292  0.3204
   99TMC2    H2 1547   3.564   0.054   1.771 -2.7136  0.5315  0.0064
   99TMC2    C7 1548   3.408   4.735   1.577 -0.2150 -0.0820 -0.4280
   99TMC2    C8 1549   3.776   4.662   1.859 -0.0740 -0.3391 -1.1572
   99TMC2    O1 1550   3.437   0.114   1.592 -0.2426 -0.0122  0.3492
   99TMC2    O2 1551   3.885   4.619   1.824 -0.5405  0.2009  0.0986
   99TMC2    O5 1552   3.748   0.043   1.912 -0.0722 -0.3322  0.7360
   99TMC2    H5 1553   3.660   0.048   1.954  0.2162 -2.3323  1.5969
  100MPD2     C 1554   3.641   4.132   1.362  0.3712  0.0922 -0.9634
  100MPD2    C1 1555   3.652   4.263   1.340  0.3693 -0.4288  1.0311
  100MPD2    C2 1556   3.638   4.309   1.213 -0.2231 -0.2681  0.0763
  100MPD2    C3 1557   3.640   4.218   1.107 -0.6006 -0.0675 -0.9258
  100MPD2    C4 1558   3.639   4.084   1.136 -0.9854 -0.1158  0.2104
  100MPD2    C5 1559   3.632   4.042   1.263 -0.4095  0.4185  0.4333
  100MPD2     H 1560   3.635   4.415   1.191  0.6589 -0.5682 -1.4501
  100MPD2    H1 1561   3.621   4.012   1.058 -3.2137  0.7825 -0.0993
  100MPD2    H2 1562   3.648   4.093   1.463 -2.4070 -1.7064 -1.4553
  100MPD2    H3 1563   3.619   3.936   1.278 -0.5347  0.0250 -2.3197
  100MPD2     N 1564   3.627   4.269   0.974 -0.3075  0.0260 -0.0228
  100MPD2    H5 1565   3.642   4.367   0.953 -1.1795  0.3828  1.0583
  100MPD2    N1 1566   3.639   4.358   1.438 -0.3421  0.0139 -0.0358
  100MPD2    H7 1567   3.640   4.457   1.415 -0.0911  0.4291  1.7461
  101TMC2    C1 1568   0.346   1.164  13.072 -0.2186 -0.8409  0.2829
  101TMC2    C2 1569   0.358   1.274  13.150 -0.6419 -0.5139  0.6168
  101TMC2    C3 1570   0.432   1.374  13.092 -0.8898 -0.4467 -0.4649
  101TMC2    C4 1571   0.420   1.145  12.956  0.3888 -0.6520 -0.7384
  101TMC2    C5 1572   0.485   1.258  12.914  0.1569  0.1530 -0.1160
  101TMC2    C6 1573   0.492   1.375  12.973 -0.2671  0.2072  0.6969
  101TMC2     C 1574   0.255   1.061  13.117  0.7676  1.1232  1.2197
  101TMC2     O 1575   0.202   1.081  13.222 -0.1353 -0.5618 -0.4302
  101TMC2     H 1576   0.321   1.279  13.252 -1.0812  2.0057  0.3286
  101TMC2    H1 1577   0.379   1.074  12.885 -1.0362  0.0029 -0.5673
  101TMC2    H2 1578   0.560   1.454  12.945  0.4056 -0.1201  1.4331
  101TMC2    C7 1579   0.552   1.239  12.787 -0.4704  0.0763 -0.6018
  101TMC2    C8 1580   0.394   1.505  13.145 -0.3519 -0.4366  0.2753
  101TMC2    O1 1581   0.587   1.338  12.725 -0.4037 -0.2444  0.2369
  101TMC2    O2 1582   0.325   1.519  13.244 -0.6004  0.1357 -0.1413
  101TMC2    O5 1583   0.400   1.600  13.046 -0.0311  0.4616 -0.1507
  101TMC2    H5 1584   0.449   1.583  12.963  0.9747 -0.5926  0.6617
  102MPD2     C 1585   0.177   0.727  12.967  0.7145 -0.3447 -0.1292
  102MPD2    C1 1586   0.161   0.837  13.054 -0.4029  0.5120  0.1003
  102MPD2    C2 1587   0.071   0.835  13.157  0.0441 -0.0898  0.0640
  102MPD2    C3 1588   4.726   0.731  13.168 -0.6637  0.1364 -0.2757
  102MPD2    C4 1589   4.737   0.620  13.081 -0.2071  0.4439 -0.5249
  102MPD2    C5 1590   0.089   0.625  12.976  0.4965  0.6351 -0.2711
  102MPD2     H 1591   0.064   0.916  13.229 -0.1656 -1.1001  1.1773
  102MPD2    H1 1592   4.680   0.529  13.084 -0.4797  0.6126 -0.6062
  102MPD2    H2 1593   0.249   0.724  12.885  1.1615 -0.5725  0.2756
  102MPD2    H3 1594   0.091   0.556  12.892  1.1841  1.9138 -1.3010
  102MPD2     N 1595   4.633   0.730  13.277  0.3689 -0.6448  0.1176
  102MPD2    H5 1596   4.616   0.813  13.332  0.5640  0.3012 -1.2543
  102MPD2    N1 1597   0.247   0.946  13.041  0.4042 -0.3593  0.1495
  102MPD2    H7 1598   0.296   0.947  12.952 -0.2548  1.1440 -0.1880
  103TMC2    C1 1599   2.391   1.340  12.694 -0.0262 -0.5945 -0.6513
  103TMC2    C2 1600   2.438   1.452  12.626  0.1984 -0.0908  0.0509
  103TMC2    C3 1601   2.475   1.551  12.708 -0.2774 -0.9392 -0.3864
  103TMC2    C4 1602   2.382   1.338  12.834 -0.2231 -0.2706  0.2775
  103TMC2    C5 1603   2.437   1.442  12.909  0.1267 -0.6900  0.0993
  103TMC2    C6 1604   2.487   1.549  12.847 -0.1039  0.7435 -0.2041
  103TMC2     C 1605   2.331   1.240  12.616  0.3844 -0.1763  0.0757
  103TMC2     O 1606   2.312   1.258  12.494  0.0675  0.8912  0.3255
  103TMC2     H 1607   2.446   1.450  12.518 -1.0082  1.2950 -0.0568
  103TMC2    H1 1608   2.326   1.260  12.884  0.5563 -0.4780  0.8329
  103TMC2    H2 1609   2.512   1.636  12.908 -0.1582  1.2458 -0.8913
  103TMC2    C7 1610   2.380   1.450  13.039  0.4708  0.0028 -0.7243
  103TMC2    C8 1611   2.518   1.665  12.625  0.3778 -0.3759 -0.2501
  103TMC2    O1 1612   2.262   1.416  13.055  0.3603 -0.2686  0.1616
  103TMC2    O2 1613   2.470   1.684  12.516  0.0735 -0.4058 -0.5286
  103TMC2    O5 1614   2.612   1.742  12.685 -0.0180 -0.0537 -0.0704
  103TMC2    H5 1615   2.641   1.702  12.769  0.0744 -1.6590 -0.8602
  104MPD2     C 1616   2.230   0.906  12.746  0.3953  0.1099 -0.1353
  104MPD2    C1 1617   2.236   1.004  12.650 -0.1259  0.2183 -0.5871
  104MPD2    C2 1618   2.165   0.993  12.531 -0.2544  0.0327 -0.4244
  104MPD2    C3 1619   2.081   0.881  12.512  0.3777  0.6750  0.0991
  104MPD2    C4 1620   2.065   0.788  12.617  0.0346 -0.2491  0.2549
  104MPD2    C5 1621   2.156   0.801  12.729  0.6191  0.2450  0.4808
  104MPD2     H 1622   2.161   1.068  12.454 -0.0981  0.7984  0.3168
  104MPD2    H1 1623   1.999   0.704  12.601 -1.5073  0.9987 -0.0145
  104MPD2    H2 1624   2.283   0.910  12.840  0.5694 -0.9158 -0.1898
  104MPD2    H3 1625   2.152   0.726  12.808  1.7683  0.7962  1.0569
  104MPD2     N 1626   2.004   0.872  12.399 -0.2124 -0.0391  0.7216
  104MPD2    H5 1627   1.978   0.945  12.333 -1.1204 -0.5130  0.5584
  104MPD2    N1 1628   2.323   1.118  12.689 -0.2161  0.1912  0.3044
  104MPD2    H7 1629   2.373   1.113  12.777  0.4507 -0.9680 -0.1404
  105TMC2    C1 1630   3.703   0.523   0.461  0.0038 -0.1033 -0.4343
  105TMC2    C2 1631   3.654   0.648   0.426  0.5912 -0.7124 -0.9698
  105TMC2    C3 1632   3.611   0.728   0.537  0.7852 -0.0585 -0.0649
  105TMC2    C4 1633   3.722   0.488   0.593 -0.4447  0.3630  0.6676
  105TMC2    C5 1634   3.681   0.569   0.692  0.3201  0.5198 -0.4599
  105TMC2    C6 1635   3.634   0.694   0.665 -0.2506  0.3806 -0.2053
  105TMC2     C 1636   3.775   0.432   0.368  0.6569 -1.0124  0.4644
  105TMC2     O 1637   3.802   0.323   0.414  0.2557  0.0827  0.4104
  105TMC2     H 1638   3.616   0.651   0.324  0.2427 -1.2122 -0.8529
  105TMC2    H1 1639   3.757   0.389   0.620  0.8644  0.5945 -0.1829
  105TMC2    H2 1640   3.599   0.766   0.738 -1.5649  0.4519 -0.8977
  105TMC2    C7 1641   3.736   0.541   0.829 -0.3396  0.5187 -0.0565
  105TMC2    C8 1642   3.530   0.839   0.506  0.0338 -0.2023  0.4712
  105TMC2    O1 1643   3.760   0.429   0.857 -0.3137  0.4014 -0.0201
  105TMC2    O2 1644   3.492   0.912   0.596 -0.3542 -0.0905  0.2477
  105TMC2    O5 1645   3.578   0.874   0.384  0.3620 -0.0369  0.3647
  105TMC2    H5 1646   3.610   0.800   0.328 -0.5165  0.9253 -1.4246
  106MPD2     C 1647   4.066   0.316  17.712  0.8392 -0.2665  0.6724
  106MPD2    C1 1648   4.023   0.451  17.702 -0.1652  0.3179  0.2386
  106MPD2    C2 1649   3.946   0.508   0.051  0.6473  0.2223 -0.2972
  106MPD2    C3 1650   3.913   0.434   0.161 -0.0184  0.5916 -0.2636
  106MPD2    C4 1651   3.960   0.302   0.179  0.1150 -0.1533 -0.3713
  106MPD2    C5 1652   4.028   0.248   0.076 -0.1539 -0.0174 -0.5138
  106MPD2     H 1653   3.909   0.609   0.036  1.3837  0.5526  0.0976
  106MPD2    H1 1654   3.960   0.242   0.269 -1.8140 -0.5778 -0.6579
  106MPD2    H2 1655   4.147   0.275  17.654  0.1996  1.0934 -1.1934
  106MPD2    H3 1656   4.078   0.152   0.085  1.5503  0.6727 -2.6282
  106MPD2     N 1657   3.819   0.492   0.252  0.5746 -0.3676  0.3139
  106MPD2    H5 1658   3.793   0.585   0.219 -1.3925 -1.0096  0.0760
  106MPD2    N1 1659   4.059   0.537  17.594  0.1191  0.0549  0.7003
  106MPD2    H7 1660   4.000   0.620  17.596 -1.6127 -1.1632  0.8800
  107TMC2    C1 1661   4.455   4.257  11.048 -0.1636 -0.4475  0.4438
  107TMC2    C2 1662   4.315   4.258  11.038  0.2899  0.0653  0.2377
  107TMC2    C3 1663   4.260   4.303  10.925  0.5586 -0.5825  0.0750
  107TMC2    C4 1664   4.538   4.300  10.951 -0.0554  0.2345 -0.7066
  107TMC2    C5 1665   4.479   4.353  10.838  0.3021  0.2564  0.2820
  107TMC2    C6 1666   4.344   4.353  10.830  0.7938 -0.2550 -0.3790
  107TMC2     C 1667   4.501   4.249  11.185  0.3284  0.4228 -0.1453
  107TMC2     O 1668   4.415   4.212  11.267  0.5670  0.0790  0.2005
  107TMC2     H 1669   4.255   4.216  11.118 -1.3470  0.0796 -0.9755
  107TMC2    H1 1670   4.645   4.307  10.965  0.0827  1.0898 -2.1756
  107TMC2    H2 1671   4.292   4.388  10.741  1.0239  1.7339  0.2506
  107TMC2    C7 1672   4.546   4.408  10.726  0.0957  0.2454 -0.0985
  107TMC2    C8 1673   4.116   4.297  10.906 -0.5130  0.1156 -0.5557
  107TMC2    O1 1674   4.475   4.470  10.655 -0.3162  0.1751 -0.2425
  107TMC2    O2 1675   4.052   4.366  10.831 -0.7297  0.0579  0.4334
  107TMC2    O5 1676   4.104   4.161  10.914  0.3044  0.1597  0.1953
  107TMC2    H5 1677   4.177   4.123  10.967  3.4260  1.7731 -2.9073
  108MPD2     C 1678   0.087   4.386  11.319  0.5024  0.1852  0.5263
  108MPD2    C1 1679   4.690   4.335  11.332 -0.0704 -0.8746  0.0047
  108MPD2    C2 1680   4.626   4.323  11.453  0.3861  0.1909 -0.9136
  108MPD2    C3 1681   4.688   4.369  11.571  0.4070  0.2654  0.7530
  108MPD2    C4 1682   0.079   4.422  11.558 -0.0339 -0.0527  0.2634
  108MPD2    C5 1683   0.146   4.425  11.439 -0.6723 -0.3027  0.6275
  108MPD2     H 1684   4.528   4.277  11.460 -0.1499  1.7878  1.6423
  108MPD2    H1 1685   0.128   4.466  11.644  3.5089 -4.3204  0.4005
  108MPD2    H2 1686   0.137   4.386  11.222  0.2912  0.4088  0.4195
  108MPD2    H3 1687   0.243   4.471  11.426 -0.9000 -0.1696 -0.6663
  108MPD2     N 1688   4.622   4.365  11.698  0.2506 -0.7587 -0.2590
  108MPD2    H5 1689   4.684   4.396  11.771  0.8274 -2.6463  0.0406
  108MPD2    N1 1690   4.625   4.311  11.204 -0.2118  0.6619  0.3203
  108MPD2    H7 1691   4.679   4.336  11.122 -0.0639 -1.1322 -0.1383
  109TMC2    C1 1692   4.526   3.580   1.706 -0.1801  0.0187  0.0050
  109TMC2    C2 1693   4.538   3.682   1.794  0.9551 -0.0032 -0.2895
  109TMC2    C3 1694   4.622   3.659   1.900  0.1131 -0.2491  0.7157
  109TMC2    C4 1695   4.577   3.458   1.719  0.1822 -0.0037  0.6701
  109TMC2    C5 1696   4.670   3.448   1.822 -0.1420 -0.3048  0.5641
  109TMC2    C6 1697   4.688   3.537   1.925  0.2251 -0.0321  0.0502
  109TMC2     C 1698   4.430   3.603   1.598  0.2413  0.3261  0.3047
  109TMC2     O 1699   4.346   3.693   1.608  0.2196 -0.2153  0.0231
  109TMC2     H 1700   4.495   3.776   1.762 -0.6732 -1.0030 -1.0450
  109TMC2    H1 1701   4.553   3.375   1.653  0.1375  0.4736  0.0795
  109TMC2    H2 1702   0.019   3.526   2.008 -1.7031  1.2555  1.8137
  109TMC2    C7 1703   0.007   3.321   1.835 -0.3110 -0.8486 -0.0109
  109TMC2    C8 1704   4.702   3.770   1.954  0.1076 -0.3557  0.1034
  109TMC2    O1 1705   0.052   3.289   1.948 -1.2220 -0.7048  0.2326
  109TMC2    O2 1706   0.075   3.744   1.986  0.1527 -0.3386  0.3773
  109TMC2    O5 1707   4.649   3.881   1.900 -0.7140 -0.0962 -0.6226
  109TMC2    H5 1708   4.552   3.869   1.909 -0.7605 -0.5838 -1.7479
  110MPD2     C 1709   4.184   3.373   1.204  0.1479  0.0516  0.1738
  110MPD2    C1 1710   4.309   3.326   1.211 -0.1699 -0.3891  0.2128
  110MPD2    C2 1711   4.392   3.378   1.308 -0.0815  0.1778 -0.6125
  110MPD2    C3 1712   4.345   3.477   1.398 -0.1733 -0.1481  0.2238
  110MPD2    C4 1713   4.217   3.529   1.380  0.1013  0.1048  0.2247
  110MPD2    C5 1714   4.138   3.465   1.291 -0.5180 -0.0841  1.1033
  110MPD2     H 1715   4.466   3.309   1.349 -0.3143 -1.4323 -2.8973
  110MPD2    H1 1716   4.174   3.602   1.448 -1.5220  0.7301 -1.4865
  110MPD2    H2 1717   4.115   3.340   1.128  1.4370  0.4647 -1.1661
  110MPD2    H3 1718   4.033   3.492   1.287 -0.1363  1.1819 -0.4037
  110MPD2     N 1719   4.439   3.510   1.497 -0.4867  0.2373 -0.2085
  110MPD2    H5 1720   4.526   3.459   1.487 -0.2971  0.4170  0.4888
  110MPD2    N1 1721   4.357   3.218   1.135  0.7244 -0.3168 -1.0103
  110MPD2    H7 1722   4.452   3.191   1.161 -0.0250 -2.9837 -1.0980
  111TMC2    C1 1723   4.565   1.456  11.587 -0.3251  0.2931 -0.2308
  111TMC2    C2 1724   4.485   1.362  11.650 -0.0933  0.1049  0.0164
  111TMC2    C3 1725   4.551   1.270  11.730 -0.3292 -1.1015 -0.5783
  111TMC2    C4 1726   4.699   1.447  11.587  0.3888  0.4444 -0.3608
  111TMC2    C5 1727   0.025   1.350  11.664 -1.5349 -0.3045  1.5047
  111TMC2    C6 1728   4.688   1.258  11.736 -0.2447  0.0618 -0.3234
  111TMC2     C 1729   4.500   1.562  11.516 -0.1585  0.5094 -0.0385
  111TMC2     O 1730   4.570   1.624  11.435  0.5797 -0.0739  0.0906
  111TMC2     H 1731   4.379   1.357  11.629 -0.5433 -0.1478  2.3265
  111TMC2    H1 1732   0.025   1.528  11.550  1.5280  0.0424  0.7256
  111TMC2    H2 1733   4.732   1.186  11.805 -0.4476  0.3999  0.1559
  111TMC2    C7 1734   0.170   1.357  11.694  0.2188  1.0249 -0.3703
  111TMC2    C8 1735   4.475   1.180  11.815  0.2147  0.1319 -0.1785
  111TMC2    O1 1736   0.207   1.325  11.804 -0.1207  0.0994 -0.0072
  111TMC2    O2 1737   4.519   1.076  11.861 -0.0108 -0.0904 -0.1384
  111TMC2    O5 1738   4.388   1.261  11.877 -0.0655 -0.1265 -0.3160
  111TMC2    H5 1739   4.371   1.348  11.835  0.3006 -0.5847 -1.3982
  112MPD2     C 1740   4.059   1.825  11.388  0.7598  0.1984  0.5174
  112MPD2    C1 1741   4.183   1.823  11.328  0.4777  0.5939 -0.1480
  112MPD2    C2 1742   4.288   1.749  11.374  0.4955  0.4841  0.8329
  112MPD2    C3 1743   4.269   1.652  11.477 -0.2795  0.7271  0.5158
  112MPD2    C4 1744   4.142   1.652  11.541 -0.0368  0.1184  0.1316
  112MPD2    C5 1745   4.047   1.743  11.500  0.0388 -0.6130 -0.7550
  112MPD2     H 1746   4.384   1.747  11.324  1.3846  1.7842  2.4750
  112MPD2    H1 1747   4.111   1.588  11.623 -0.1176 -0.2167 -0.1600
  112MPD2    H2 1748   3.975   1.885  11.355 -0.5407 -1.5291  0.6532
  112MPD2    H3 1749   3.947   1.739  11.542  0.4303  0.5091  0.2888
  112MPD2     N 1750   4.368   1.573  11.543  0.0263  0.1918  0.5758
  112MPD2    H5 1751   4.349   1.525  11.630  2.4112 -0.3624  0.7948
  112MPD2    N1 1752   4.216   1.906  11.212 -0.0782 -0.0707 -0.5961
  112MPD2    H7 1753   4.310   1.903  11.173  0.5326 -0.8313  0.9599
  113TMC2    C1 1754   2.598   4.657   0.605  0.2548  0.2330 -0.0844
  113TMC2    C2 1755   2.508   0.021   0.629  0.3075  0.3644 -0.6024
  113TMC2    C3 1756   2.374   4.721   0.620 -0.0141  0.5164  0.0303
  113TMC2    C4 1757   2.563   4.531   0.569 -0.0849 -0.2550  0.0317
  113TMC2    C5 1758   2.433   4.498   0.571 -0.1461  0.2309 -0.6459
  113TMC2    C6 1759   2.344   4.591   0.607  0.0793  0.0630  0.4304
  113TMC2     C 1760   2.736   4.692   0.635  0.0230  0.1606 -0.0974
  113TMC2     O 1761   2.758   0.056   0.701  0.2137  0.6015 -0.4071
  113TMC2     H 1762   2.542   0.118   0.665  0.4714  0.2244 -0.3796
  113TMC2    H1 1763   2.635   4.455   0.544  0.0157 -0.1068 -0.1332
  113TMC2    H2 1764   2.240   4.559   0.602  0.4040 -0.9126 -0.0478
  113TMC2    C7 1765   2.390   4.363   0.536  0.2954 -0.0668  0.3610
  113TMC2    C8 1766   2.271   0.086   0.640  0.7578 -0.3145  0.4029
  113TMC2    O1 1767   2.475   4.299   0.478  0.6488  0.3781  0.5208
  113TMC2    O2 1768   2.306   0.204   0.641  0.1250  0.7116 -0.2306
  113TMC2    O5 1769   2.175   0.030   0.711 -0.7194 -0.0103  0.0089
  113TMC2    H5 1770   2.183   4.670   0.714 -1.7230 -0.0644  0.7678
  114MPD2     C 1771   3.163   4.446   0.758  0.0707 -0.4135  0.3832
  114MPD2    C1 1772   3.118   4.561   0.811 -0.1954  0.0568 -0.4571
  114MPD2    C2 1773   3.006   4.618   0.756  0.6592  0.3807 -0.3220
  114MPD2    C3 1774   2.940   4.553   0.654 -0.2001  0.2875 -0.1001
  114MPD2    C4 1775   2.987   4.435   0.599  0.4357  0.4802  0.1049
  114MPD2    C5 1776   3.098   4.381   0.654  0.6991 -0.6109  0.1444
  114MPD2     H 1777   2.980   4.719   0.786  0.6473  0.3875 -0.3553
  114MPD2    H1 1778   2.931   4.386   0.521  1.6595 -0.3086 -0.2671
  114MPD2    H2 1779   3.253   4.399   0.797 -0.3077 -0.7742  0.8235
  114MPD2    H3 1780   3.148   4.295   0.612 -1.0115 -1.1461 -0.7987
  114MPD2     N 1781   2.814   4.590   0.597 -0.1056  0.6245 -0.7784
  114MPD2    H5 1782   2.791   4.538   0.513  0.8888 -0.1068 -0.5959
  114MPD2    N1 1783   3.174   4.634   0.924 -0.1041 -0.3559  0.1134
  114MPD2    H7 1784   3.125   4.717   0.956  2.6975  1.2933  0.1097
  115TMC2    C1 1785   3.652   2.789  17.549  0.2359 -0.2766 -0.0417
  115TMC2    C2 1786   3.752   2.730  17.624 -0.5070  0.2856  0.0071
  115TMC2    C3 1787   3.811   2.817  17.712 -0.3237  0.8961  0.4621
  115TMC2    C4 1788   3.631   2.931  17.544  0.1514  0.1187  0.3709
  115TMC2    C5 1789   3.693   3.000  17.638 -0.9606 -0.1426 -1.3827
  115TMC2    C6 1790   3.770   2.944  17.735  0.3068 -0.0836 -0.8277
  115TMC2     C 1791   3.579   2.694  17.464  0.4620 -0.6756 -0.4283
  115TMC2     O 1792   3.594   2.573  17.480 -0.0661  0.2241 -0.1878
  115TMC2     H 1793   3.773   2.624  17.615 -1.0065  0.0972  1.1158
  115TMC2    H1 1794   3.547   2.973  17.491 -1.8076 -2.7937  1.1214
  115TMC2    H2 1795   3.819   3.017   0.049 -1.1485  0.5030 -0.3783
  115TMC2    C7 1796   3.688   3.150  17.630 -0.4273  0.5102  0.2989
  115TMC2    C8 1797   3.917   2.776   0.051 -0.5658 -0.7044 -0.2245
  115TMC2    O1 1798   3.703   3.212  17.731 -0.7202 -0.6018 -0.0123
  115TMC2    O2 1799   3.953   2.843   0.147 -0.2864  0.1058 -0.0049
  115TMC2    O5 1800   3.990   2.691  17.719 -0.2858 -0.0421 -0.1831
  115TMC2    H5 1801   3.942   2.632  17.657 -1.2989  0.7133 -0.1098
  116MPD2     C 1802   3.232   2.663  17.087  0.4604 -0.6178 -0.5624
  116MPD2    C1 1803   3.281   2.561  17.167 -0.0814  0.0556 -0.3843
  116MPD2    C2 1804   3.378   2.593  17.264 -0.4953  0.5404 -0.2227
  116MPD2    C3 1805   3.425   2.724  17.271 -0.4673  1.2691 -0.5911
  116MPD2    C4 1806   3.379   2.821  17.185 -0.3064 -0.5970 -0.2006
  116MPD2    C5 1807   3.279   2.791  17.098  0.1517  0.0038 -0.4552
  116MPD2     H 1808   3.410   2.525  17.342 -1.7874 -0.2610 -0.3986
  116MPD2    H1 1809   3.424   2.919  17.182  1.9492 -1.6000  0.9254
  116MPD2    H2 1810   3.154   2.646  17.014 -0.1410 -1.1659  0.2062
  116MPD2    H3 1811   3.251   2.872  17.032 -2.2157 -0.3046  0.1678
  116MPD2     N 1812   3.519   2.768  17.365 -0.5177 -0.1923  0.0333
  116MPD2    H5 1813   3.554   2.864  17.359 -0.5421 -0.2478 -1.0594
  116MPD2    N1 1814   3.218   2.434  17.152 -0.5821  0.1630 -0.2494
  116MPD2    H7 1815   3.155   2.421  17.074  0.7868 -0.6644 -1.2046
  117TMC2    C1 1816   1.858   3.915  14.026  0.2209  0.2902 -0.1253
  117TMC2    C2 1817   1.952   3.815  14.025  0.2366 -0.4836  0.1411
  117TMC2    C3 1818   2.078   3.853  14.043 -0.0167 -0.5418 -0.4925
  117TMC2    C4 1819   1.891   4.047  14.029 -0.8010  0.1754 -0.7853
  117TMC2    C5 1820   2.021   4.079  14.046  0.3916 -0.0620 -0.3117
  117TMC2    C6 1821   2.118   3.981  14.049  0.4032  0.2295 -0.0368
  117TMC2     C 1822   1.717   3.865  14.016 -0.3082 -0.0146 -0.3403
  117TMC2     O 1823   1.698   3.748  13.996 -0.4391 -0.0959  0.1177
  117TMC2     H 1824   1.921   3.712  14.039 -1.0231 -0.1809 -0.4700
  117TMC2    H1 1825   1.816   4.125  14.026 -0.5950  0.4636  2.5240
  117TMC2    H2 1826   2.222   4.007  14.066  0.9469  0.0013 -3.0153
  117TMC2    C7 1827   2.069   4.215  14.042  0.0866  0.4404 -0.2029
  117TMC2    C8 1828   2.173   3.750  14.084  0.7757 -0.6376 -0.2029
  117TMC2    O1 1829   2.189   4.224  14.065  0.0396  0.1751 -0.1714
  117TMC2    O2 1830   2.283   3.780  14.129 -0.1560  0.7478 -0.2778
  117TMC2    O5 1831   2.138   3.631  14.026  0.4451 -0.1136 -0.1195
  117TMC2    H5 1832   2.057   3.628  13.971  1.1079  0.4699 -1.1240
  118MPD2     C 1833   1.879   4.504  13.934  1.2400 -1.0104 -0.0907
  118MPD2    C1 1834   1.990   4.427  13.950 -0.5325 -0.7878 -0.6192
  118MPD2    C2 1835   2.117   4.477  13.913  0.0851  0.5895  0.6390
  118MPD2    C3 1836   2.124   4.609  13.865 -0.4489  0.7743 -0.0237
  118MPD2    C4 1837   2.009   4.685  13.857 -0.0045  1.2351 -0.3471
  118MPD2    C5 1838   1.891   4.631  13.888  0.5077  0.1344  0.2213
  118MPD2     H 1839   2.205   4.416  13.928  0.3097  0.4402 -1.2953
  118MPD2    H1 1840   2.006   0.046  13.811  0.6918  1.6580  0.5169
  118MPD2    H2 1841   1.779   4.480  13.967 -0.0609  1.2200 -2.3980
  118MPD2    H3 1842   1.801   4.685  13.860 -0.5058 -1.1853  0.9316
  118MPD2     N 1843   2.247   4.666  13.824 -0.3168 -0.4911  1.1106
  118MPD2    H5 1844   2.238   0.024  13.792  0.1066 -1.1826 -1.0568
  118MPD2    N1 1845   1.968   4.298  14.004  0.3037 -0.5217 -0.2446
  118MPD2    H7 1846   1.875   4.260  14.019  1.3731 -3.0454  0.1209
  119TMC2    C1 1847   0.484   0.251  13.502 -0.6395 -0.0042 -0.0739
  119TMC2    C2 1848   0.566   0.204  13.396 -0.6747  0.3748  0.0535
  119TMC2    C3 1849   0.529   0.081  13.354  0.0010  0.5264  0.1401
  119TMC2    C4 1850   0.378   0.179  13.564 -0.0839  0.2666 -0.1487
  119TMC2    C5 1851   0.350   0.055  13.513 -0.4239  0.6232 -0.2293
  119TMC2    C6 1852   0.430   0.000  13.413 -0.5112 -0.8790  0.3263
  119TMC2     C 1853   0.530   0.373  13.573 -0.2852 -0.8051 -0.4595
  119TMC2     O 1854   0.455   0.419  13.658 -0.2610 -0.1364  0.3211
  119TMC2     H 1855   0.626   0.276  13.341  1.3504 -1.3705 -0.0230
  119TMC2    H1 1856   0.341   0.219  13.658 -0.2688  2.3655 -1.1150
  119TMC2    H2 1857   0.394   4.649  13.362 -1.4932  0.3609 -1.1413
  119TMC2    C7 1858   0.209   0.022  13.478  0.2563  0.0620 -0.4958
  119TMC2    C8 1859   0.641   0.025  13.282  0.2656  0.2710  0.7098
  119TMC2    O1 1860   0.182   4.706  13.373  0.2165 -0.0401  0.3896
  119TMC2    O2 1861   0.719   0.100  13.226 -0.6349  0.7779  0.7226
  119TMC2    O5 1862   0.686   4.654  13.350  0.1584  0.4475  0.5501
  119TMC2    H5 1863   0.622   4.600  13.402  0.0568  1.2989  1.3160
  120MPD2     C 1864   0.910   0.701  13.726 -0.0298  0.0668  0.0156
  120MPD2    C1 1865   0.780   0.693  13.764  0.6331 -0.4372 -0.1417
  120MPD2    C2 1866   0.691   0.597  13.695  0.5431 -0.1525  1.1117
  120MPD2    C3 1867   0.742   0.512  13.604  0.3051 -0.6008  0.0168
  120MPD2    C4 1868   0.880   0.520  13.576 -0.1710  0.1531  0.0369
  120MPD2    C5 1869   0.956   0.618  13.629  0.0430  0.8433 -0.1408
  120MPD2     H 1870   0.583   0.605  13.704  0.3320  1.3364 -2.8029
  120MPD2    H1 1871   0.928   0.454  13.505  1.5804 -1.4822  2.7145
  120MPD2    H2 1872   0.975   0.772  13.776  1.2486 -0.3874 -0.9865
  120MPD2    H3 1873   1.054   0.620  13.584 -0.0822 -0.6098 -0.4843
  120MPD2     N 1874   0.664   0.407  13.547 -0.5260  0.1260  0.0620
  120MPD2    H5 1875   0.716   0.350  13.482 -1.9068 -0.1748 -0.7947
  120MPD2    N1 1876   0.741   0.785  13.862  0.1759  0.6076  0.1154
  120MPD2    H7 1877   0.814   0.850  13.887 -0.2553  0.6946  1.1744
  121TMC2    C1 1878   1.768   2.300  14.287 -0.9369  0.1843  0.1446
  121TMC2    C2 1879   1.758   2.261  14.416  0.5287  0.3244 -1.1962
  121TMC2    C3 1880   1.660   2.171  14.445 -0.3353 -0.9301 -0.1059
  121TMC2    C4 1881   1.683   2.260  14.189 -0.2353  0.5126  0.3202
  121TMC2    C5 1882   1.588   2.174  14.221 -1.4850 -0.2080 -0.1240
  121TMC2    C6 1883   1.570   2.131  14.353  0.4387 -0.8232 -0.5883
  121TMC2     C 1884   1.870   2.396  14.250 -0.5501 -0.0691  0.4680
  121TMC2     O 1885   1.918   2.451  14.346  1.0224  0.0049 -0.0650
  121TMC2     H 1886   1.835   2.290  14.486 -0.7253  1.0547 -0.1086
  121TMC2    H1 1887   1.679   2.287  14.084  3.3180 -0.1574  0.0204
  121TMC2    H2 1888   1.494   2.057  14.375 -0.7249  1.5434  3.3240
  121TMC2    C7 1889   1.526   2.091  14.119 -0.1678  0.6601 -0.6135
  121TMC2    C8 1890   1.623   2.172  14.581 -0.3291 -0.4315 -0.6342
  121TMC2    O1 1891   1.604   2.024  14.051  0.8400  0.5484  0.1300
  121TMC2    O2 1892   1.505   2.164  14.618 -0.3498  0.0024 -0.3551
  121TMC2    O5 1893   1.736   2.145  14.655  0.0890 -0.2582  0.8020
  121TMC2    H5 1894   1.817   2.168  14.605 -2.1189  1.3465 -2.0508
  122MPD2     C 1895   2.070   2.565  14.132  0.6233 -0.1867 -0.0932
  122MPD2    C1 1896   1.988   2.491  14.053 -0.4476 -0.5091 -0.4563
  122MPD2    C2 1897   1.993   2.501  13.917 -0.0182 -0.0651  0.4093
  122MPD2    C3 1898   2.090   2.577  13.847  0.5060 -0.0167  0.6114
  122MPD2    C4 1899   2.163   2.655  13.936  0.1260  0.9809  0.0626
  122MPD2    C5 1900   2.151   2.649  14.068 -0.7712 -0.0087 -0.3398
  122MPD2     H 1901   1.918   2.441  13.866 -0.3924 -1.0933  2.1735
  122MPD2    H1 1902   2.224   2.738  13.901  3.0525 -0.6818  1.2533
  122MPD2    H2 1903   2.070   2.561  14.240 -3.6406 -1.0484 -0.1094
  122MPD2    H3 1904   2.215   2.719  14.121 -2.2282  1.2499 -0.2338
  122MPD2     N 1905   2.095   2.604  13.714 -0.4069 -0.0612  0.0801
  122MPD2    H5 1906   2.152   2.683  13.685 -1.0352  1.1678  2.1204
  122MPD2    N1 1907   1.888   2.407  14.111  0.1480 -0.2332 -0.3961
  122MPD2    H7 1908   1.830   2.352  14.050  1.6312 -1.3380 -0.7981
  123TMC2    C1 1909   4.680   4.002   8.915 -0.5632 -0.3045  0.0061
  123TMC2    C2 1910   4.710   3.998   8.778  0.6637  0.5162  0.1211
  123TMC2    C3 1911   4.684   4.111   8.706  0.1819  0.3714  0.6686
  123TMC2    C4 1912   4.605   4.106   8.973 -0.3383  0.2033  0.1177
  123TMC2    C5 1913   4.584   4.216   8.896  0.4649  0.5206 -0.5361
  123TMC2    C6 1914   4.635   4.221   8.772 -0.6233 -0.4495 -0.2381
  123TMC2     C 1915   4.699   3.880   8.995  0.8736 -0.8997 -0.7233
  123TMC2     O 1916   4.726   3.780   8.927  0.1062  0.4116 -0.0278
  123TMC2     H 1917   0.013   3.906   8.738 -1.2953 -0.2302 -0.1970
  123TMC2    H1 1918   4.571   4.106   9.076  1.6535 -1.9901  0.7867
  123TMC2    H2 1919   4.611   4.310   8.714  0.1722 -1.1251 -1.6164
  123TMC2    C7 1920   4.541   4.340   8.961  0.1209 -0.1736 -0.6498
  123TMC2    C8 1921   0.016   4.134   8.585  0.2811  0.5229 -0.4277
  123TMC2    O1 1922   4.467   4.317   9.055  0.0254  0.0412 -0.0852
  123TMC2    O2 1923   0.075   4.236   8.544  0.1745  0.1455  0.5148
  123TMC2    O5 1924   4.708   4.032   8.501  0.3127 -0.3786 -0.2367
  123TMC2    H5 1925   4.685   3.953   8.555  1.3110 -1.4108 -1.3303
  124MPD2     C 1926   4.690   3.636   9.446 -0.1922 -0.9322  0.4342
  124MPD2    C1 1927   4.664   3.767   9.475  0.3019 -0.4504  0.3341
  124MPD2    C2 1928   4.663   3.853   9.363  0.3009 -0.4199  0.3298
  124MPD2    C3 1929   4.674   3.805   9.231  0.1619 -0.4016 -0.3941
  124MPD2    C4 1930   4.701   3.674   9.210  0.8655  0.6872 -1.0338
  124MPD2    C5 1931   4.699   3.588   9.320 -0.3533  0.4795  0.0313
  124MPD2     H 1932   4.656   3.959   9.385 -0.4199 -0.2048 -0.9261
  124MPD2    H1 1933   4.717   3.641   9.108  1.1552  1.7934 -1.3405
  124MPD2    H2 1934   4.680   3.555   9.517  0.2359 -0.8912  0.5426
  124MPD2    H3 1935   4.717   3.482   9.306  0.4537  0.4227  1.4966
  124MPD2     N 1936   4.668   3.901   9.129 -0.1111 -0.6356  0.1956
  124MPD2    H5 1937   4.646   3.992   9.168  0.0236 -0.7235  0.4778
  124MPD2    N1 1938   4.647   3.815   9.610  0.0156  0.6110 -0.1394
  124MPD2    H7 1939   4.668   3.754   9.689 -1.3488 -0.5713 -0.6736
  125TMC2    C1 1940   1.102   2.376   9.928 -0.1987 -1.0349 -0.6765
  125TMC2    C2 1941   0.973   2.351   9.937 -1.0544  0.0416  0.0572
  125TMC2    C3 1942   0.927   2.227   9.907 -0.0581 -0.6504  0.8633
  125TMC2    C4 1943   1.196   2.288   9.891 -0.0324  0.6813  0.0736
  125TMC2    C5 1944   1.149   2.162   9.871  0.4694 -0.1880 -0.0629
  125TMC2    C6 1945   1.016   2.128   9.870 -0.3446 -0.2585 -0.3651
  125TMC2     C 1946   1.140   2.513   9.962 -0.5323  0.2068  0.4186
  125TMC2     O 1947   1.061   2.574  10.028  0.3804 -0.0006  0.3870
  125TMC2     H 1948   0.905   2.429   9.970 -1.7584  0.7079 -2.9800
  125TMC2    H1 1949   1.300   2.318   9.887  0.5275 -0.9034  2.5377
  125TMC2    H2 1950   0.969   2.032   9.851 -2.3895  0.3598  1.4972
  125TMC2    C7 1951   1.235   2.065   9.801 -0.2499  0.9190  0.0532
  125TMC2    C8 1952   0.795   2.223   9.861 -0.2476 -0.2915 -0.2832
  125TMC2    O1 1953   1.197   1.946   9.799 -0.6150  0.1920  0.4783
  125TMC2    O2 1954   0.721   2.129   9.865  0.7547  0.0038  0.0486
  125TMC2    O5 1955   0.783   2.313   9.761  0.4069  0.0750 -0.3885
  125TMC2    H5 1956   0.855   2.375   9.735  0.5720 -0.2185 -0.6337
  126MPD1     C 1957   1.452   2.921   9.978 -0.4812 -0.4993 -0.0457
  126MPD1    C1 1958   1.483   2.839   9.878  0.5837 -0.4919  0.0204
  126MPD1    C2 1959   1.416   2.725   9.854  0.3235  0.2778 -0.3452
  126MPD1    C3 1960   1.306   2.684   9.928  0.0252 -0.3928  0.3232
  126MPD1    C4 1961   1.285   2.760  10.043 -0.5096 -0.0465 -0.5360
  126MPD1    C5 1962   1.361   2.878  10.072 -0.6764 -0.1806 -0.5688
  126MPD1     H 1963   1.449   2.654   9.780 -0.8550 -0.8064  0.1711
  126MPD1    H1 1964   1.216   2.725  10.120 -0.2011 -1.6949 -1.0019
  126MPD1    H2 1965   1.503   3.013  10.003  1.6454 -1.9990  1.1021
  126MPD1    H3 1966   1.336   2.940  10.157  0.1624 -0.6125 -0.0169
  126MPD1     N 1967   1.253   2.562   9.903 -0.1935 -0.6502 -0.3236
  126MPD1    H5 1968   1.287   2.504   9.827 -0.8733  0.9032 -1.8349
  126MPD1    N1 1969   1.597   2.870   9.808 -0.4782 -0.0984  0.2983
  126MPD1    H6 1970   1.591   2.819   9.721 -3.4901  2.7534 -1.1772
  126MPD1    H7 1971   1.604   2.969   9.783  2.6038 -0.0586  1.3750
  127TMC2    C1 1972   1.606   0.822  10.220  0.0582 -0.5939 -0.0720
  127TMC2    C2 1973   1.697   0.754  10.296 -0.6483  0.4479 -0.7882
  127TMC2    C3 1974   1.641   0.668  10.383 -0.2334 -0.0541 -0.5005
  127TMC2    C4 1975   1.467   0.810  10.235 -0.3547 -0.4853  0.2809
  127TMC2    C5 1976   1.424   0.732  10.338 -0.2486 -0.7976 -0.3069
  127TMC2    C6 1977   1.506   0.656  10.407  0.3072  0.6370 -0.4216
  127TMC2     C 1978   1.662   0.901  10.106  0.2123 -0.3374 -0.2753
  127TMC2     O 1979   1.759   0.968  10.138  0.2713  0.5184 -0.0932
  127TMC2     H 1980   1.804   0.771  10.285 -0.1008 -1.4041  1.8391
  127TMC2    H1 1981   1.399   0.865  10.171  1.5273  3.1993  1.4509
  127TMC2    H2 1982   1.470   0.590  10.485  1.2776  0.0682 -0.4509
  127TMC2    C7 1983   1.288   0.745  10.374  1.0475  0.3748 -0.2193
  127TMC2    C8 1984   1.726   0.575  10.453  0.2630  0.3675  0.2995
  127TMC2    O1 1985   1.217   0.801  10.287  0.2199  0.1732 -0.8948
  127TMC2    O2 1986   1.685   0.515  10.547  0.0966  0.3006 -0.1228
  127TMC2    O5 1987   1.808   0.518  10.363 -0.3863 -0.9519  0.5021
  127TMC2    H5 1988   1.799   0.547  10.270 -0.1264  0.1749  0.8387
  128MPD2     C 1989   1.614   0.869   9.744  0.4348 -0.0963  0.2371
  128MPD2    C1 1990   1.671   0.919   9.858 -0.3961  0.3487  1.2153
  128MPD2    C2 1991   1.786   0.993   9.848 -0.4705 -0.5025  0.2846
  128MPD2    C3 1992   1.845   1.027   9.729 -0.2373 -0.4229 -0.4620
  128MPD2    C4 1993   1.788   0.972   9.613 -0.3900  0.0733  0.3666
  128MPD2    C5 1994   1.668   0.900   9.617 -0.1155 -0.5767  0.0806
  128MPD2     H 1995   1.839   1.031   9.935 -0.3587 -0.6024  0.2600
  128MPD2    H1 1996   1.838   0.971   9.517 -0.3016 -0.9853  0.4272
  128MPD2    H2 1997   1.527   0.804   9.750 -1.4645  2.3574 -0.8329
  128MPD2    H3 1998   1.617   0.863   9.529 -0.5649  1.1931 -0.4067
  128MPD2     N 1999   1.961   1.100   9.736 -0.1634 -0.4840  0.5845
  128MPD2    H5 2000   1.991   1.130   9.829  1.9111  0.1572 -0.2843
  128MPD2    N1 2001   1.610   0.879   9.979  0.1314  0.0139 -0.1700
  128MPD2    H7 2002   1.521   0.829   9.973 -0.0826  0.5166 -1.1432
  129TMC2    C1 2003   0.519   2.327   1.920  0.4528 -0.2617 -0.2239
  129TMC2    C2 2004   0.584   2.319   1.797 -0.1446 -0.3621  0.6648
  129TMC2    C3 2005   0.578   2.198   1.738 -0.3603 -0.4173  0.2647
  129TMC2    C4 2006   0.450   2.219   1.971  0.4733  0.5364 -0.7708
  129TMC2    C5 2007   0.462   2.102   1.908  0.0834  0.5729  0.7636
  129TMC2    C6 2008   0.517   2.088   1.786 -0.6099 -0.3048  0.3200
  129TMC2     C 2009   0.522   2.454   1.999  0.6784  0.3776 -0.2286
  129TMC2     O 2010   0.506   2.441   2.121  0.2722  0.6727 -0.1382
  129TMC2     H 2011   0.625   2.410   1.755 -1.3507  0.5188  1.3612
  129TMC2    H1 2012   0.381   2.241   2.051  0.5801 -1.0858 -0.2373
  129TMC2    H2 2013   0.513   2.002   1.721 -1.6499 -0.7338  0.9526
  129TMC2    C7 2014   0.370   1.999   1.944  0.2586  0.4216  0.1677
  129TMC2    C8 2015   0.669   2.179   1.627 -0.9501 -0.2808  0.9033
  129TMC2    O1 2016   0.347   1.918   1.854  0.0609  0.2775  0.1894
  129TMC2    O2 2017   0.768   2.248   1.607  0.1134  0.1599  0.4942
  129TMC2    O5 2018   0.585   2.136   1.531  0.4656 -0.2550  0.1116
  129TMC2    H5 2019   0.510   2.085   1.569 -0.6052  0.5038 -0.9606
  130MPD2     C 2020   0.545   2.740   2.106 -0.2921 -0.1573 -0.5617
  130MPD2    C1 2021   0.532   2.711   1.969  0.5376  0.1628 -0.9128
  130MPD2    C2 2022   0.515   2.812   1.874 -0.1501  0.5649 -0.6400
  130MPD2    C3 2023   0.518   2.943   1.923  0.4200  0.1275  0.1041
  130MPD2    C4 2024   0.538   2.970   2.052  0.2397 -0.0822  1.0473
  130MPD2    C5 2025   0.552   2.870   2.142 -0.4347 -0.0836 -0.0560
  130MPD2     H 2026   0.496   2.788   1.770 -2.0310  0.5965 -0.3031
  130MPD2    H1 2027   0.550   3.067   2.099 -0.2056  0.0138  0.9616
  130MPD2    H2 2028   0.581   2.665   2.175  2.5547  1.1675 -0.6096
  130MPD2    H3 2029   0.562   2.891   2.248  0.5186 -2.5791  0.3615
  130MPD2     N 2030   0.513   3.045   1.830  0.3465  0.2095  0.0915
  130MPD2    H5 2031   0.529   3.024   1.732  0.2726  0.2098  0.0796
  130MPD2    N1 2032   0.525   2.573   1.923  0.2885 -0.4768  0.4170
  130MPD2    H7 2033   0.512   2.569   1.823 -2.4247  1.3479  0.6866
  131TMC2    C1 2034   4.722   0.136   9.628 -1.0075 -0.4351 -0.4093
  131TMC2    C2 2035   0.089   0.121   9.537  0.0502 -0.1457  0.2612
  131TMC2    C3 2036   0.143   0.231   9.474 -0.7466  0.3196  0.2459
  131TMC2    C4 2037   4.656   0.259   9.641 -0.6156 -0.3751  1.0477
  131TMC2    C5 2038   4.703   0.359   9.567 -0.2499  0.1704  0.0486
  131TMC2    C6 2039   0.073   0.347   9.480  0.1907  0.0796 -0.1557
  131TMC2     C 2040   4.691   0.015   9.699  0.3204  0.6130 -0.1307
  131TMC2     O 2041   0.006   4.650   9.665 -0.0407 -0.2777 -0.5684
  131TMC2     H 2042   0.136   0.024   9.531  1.0684  0.2371  2.0441
  131TMC2    H1 2043   4.576   0.279   9.711 -1.6783 -1.6286  0.2050
  131TMC2    H2 2044   0.116   0.434   9.431  1.5208 -1.0463 -0.9798
  131TMC2    C7 2045   4.638   0.487   9.586  0.0652 -0.6368  0.2098
  131TMC2    C8 2046   0.214   0.208   9.350 -0.7965 -0.0191  0.6987
  131TMC2    O1 2047   4.518   0.487   9.589 -0.0841 -0.3035 -0.2464
  131TMC2    O2 2048   0.180   0.266   9.252 -0.4470 -0.0173  0.1407
  131TMC2    O5 2049   0.342   0.196   9.397  0.1309 -0.5606  0.1947
  131TMC2    H5 2050   0.352   0.156   9.486 -3.1738  1.9455  1.6871
  132MPD2     C 2051   4.499   4.732  10.012  0.6073  0.5854  0.0785
  132MPD2    C1 2052   4.575   4.687   9.905 -0.6103 -0.6069  0.2324
  132MPD2    C2 2053   4.602   4.548   9.892 -0.1787  0.1887  0.5577
  132MPD2    C3 2054   4.560   4.462   9.986  0.0022 -0.4000  0.7802
  132MPD2    C4 2055   4.503   4.508  10.107 -0.1211  0.3851  0.4474
  132MPD2    C5 2056   4.456   4.639  10.106 -0.1618  0.4490 -0.0311
  132MPD2     H 2057   4.649   4.513   9.801  0.3197 -1.3303  1.4090
  132MPD2    H1 2058   4.446   4.438  10.168  0.6995 -1.7648 -1.2468
  132MPD2    H2 2059   4.459   0.095  10.017 -2.3293 -0.5004 -1.3191
  132MPD2    H3 2060   4.397   4.665  10.193 -1.1493 -0.8823 -0.2920
  132MPD2     N 2061   4.583   4.325   9.958  0.6210  0.0790  0.5021
  132MPD2    H5 2062   4.639   4.306   9.876 -1.0474  1.7610 -1.0467
  132MPD2    N1 2063   4.623   0.049   9.812  0.1403 -0.7073 -0.1877
  132MPD2    H7 2064   4.592   0.144   9.829 -1.6501 -1.4652  0.7663
  133TMC2    C1 2065   4.040   2.351   9.401 -0.0662  0.0425 -0.4994
  133TMC2    C2 2066   4.032   2.482   9.433  0.1195  0.4731  0.1677
  133TMC2    C3 2067   4.161   2.552   9.433 -0.1644 -0.0659  0.4718
  133TMC2    C4 2068   4.155   2.279   9.398 -0.3360  0.1918  0.3493
  133TMC2    C5 2069   4.270   2.353   9.407 -0.1763  0.1484 -0.5847
  133TMC2    C6 2070   4.282   2.491   9.427 -0.2118 -0.2073 -0.1048
  133TMC2     C 2071   3.929   2.261   9.421  0.1740  0.1529 -0.0413
  133TMC2     O 2072   3.941   2.143   9.393 -0.8888  0.5453 -0.5595
  133TMC2     H 2073   3.943   2.543   9.423 -0.7051 -1.0072 -1.5848
  133TMC2    H1 2074   4.156   2.175   9.367  0.1857  0.4901 -0.6580
  133TMC2    H2 2075   4.379   2.540   9.420 -0.4230  0.0783 -1.1148
  133TMC2    C7 2076   4.389   2.276   9.387 -0.0088 -0.4111  0.1078
  133TMC2    C8 2077   4.158   2.700   9.450  0.0376  0.4359  0.3499
  133TMC2    O1 2078   4.380   2.153   9.396 -0.0038  0.3208 -0.5737
  133TMC2    O2 2079   4.064   2.767   9.413 -0.1529  0.0877  0.1313
  133TMC2    O5 2080   4.259   2.745   9.535  0.0765 -0.2597 -0.4099
  133TMC2    H5 2081   4.320   2.679   9.575  0.3019 -0.4513 -1.0780
  134MPD2     C 2082   3.593   2.331   9.559  0.3164  0.4095  0.3053
  134MPD2    C1 2083   3.698   2.253   9.501  0.0668  0.0663 -0.0051
  134MPD2    C2 2084   3.671   2.120   9.481  0.1274 -0.1446  0.1103
  134MPD2    C3 2085   3.541   2.073   9.502 -0.4361  0.9709  0.0547
  134MPD2    C4 2086   3.440   2.152   9.549 -0.1083  0.7555 -0.0832
  134MPD2    C5 2087   3.466   2.281   9.575  0.6092  0.1300 -0.7804
  134MPD2     H 2088   3.746   2.047   9.453 -0.4808 -0.8396  0.2978
  134MPD2    H1 2089   3.343   2.110   9.574 -0.4537  1.6062 -0.0149
  134MPD2    H2 2090   3.620   2.434   9.581  3.2537  0.0482 -1.6089
  134MPD2    H3 2091   3.388   2.349   9.607 -2.3895 -3.4120 -0.5150
  134MPD2     N 2092   3.506   1.937   9.486 -0.3467 -0.2573 -0.1830
  134MPD2    H5 2093   3.417   1.913   9.528 -0.2700  1.4515  0.9481
  134MPD2    N1 2094   3.824   2.320   9.490  0.0097 -0.2067 -0.0273
  134MPD2    H7 2095   3.823   2.421   9.480  0.3827 -0.3543 -1.5506
  135TMC2    C1 2096   1.107   3.188   9.998  0.3740  0.0012 -0.2086
  135TMC2    C2 2097   1.063   3.233  10.115  0.3931 -0.4167  0.3010
  135TMC2    C3 2098   0.985   3.153  10.183  0.4042  0.4173 -0.1522
  135TMC2    C4 2099   1.080   3.067   9.947  0.1128 -0.5339  0.3742
  135TMC2    C5 2100   1.000   2.980  10.015 -0.3139  1.3596  0.0283
  135TMC2    C6 2101   0.951   3.026  10.138  0.4417  0.0183 -0.3809
  135TMC2     C 2102   1.215   3.261   9.950 -0.0322  0.5798 -0.2929
  135TMC2     O 2103   1.214   3.377   9.989  0.5422  0.2278 -0.1132
  135TMC2     H 2104   1.088   3.330  10.157  0.1525 -0.0590 -0.3845
  135TMC2    H1 2105   1.100   3.043   9.844  0.9681 -0.5784  0.5532
  135TMC2    H2 2106   0.886   2.961  10.196  0.7374  0.4168  0.3996
  135TMC2    C7 2107   0.920   2.882   9.939 -0.7911  0.3463 -0.0251
  135TMC2    C8 2108   0.927   3.204  10.307  0.8411  0.3706 -1.0165
  135TMC2    O1 2109   0.898   2.913   9.822 -0.4518 -0.0527  0.2584
  135TMC2    O2 2110   0.869   3.125  10.379 -0.0727  0.8426 -0.7003
  135TMC2    O5 2111   0.864   3.309  10.252 -0.1240  0.1029  0.3133
  135TMC2    H5 2112   0.913   3.357  10.182  0.6800  0.3640  1.0620
  136MPD2     C 2113   1.443   3.371   9.815 -0.1418  0.9978  0.3027
  136MPD2    C1 2114   1.395   3.252   9.782 -0.1374  0.4481 -0.0580
  136MPD2    C2 2115   1.464   3.174   9.689  0.0087  0.4823 -0.2193
  136MPD2    C3 2116   1.570   3.230   9.617  0.6013  0.2380  0.6593
  136MPD2    C4 2117   1.597   3.363   9.634  0.4353  0.9395 -0.2376
  136MPD2    C5 2118   1.535   3.429   9.737  0.1004 -0.5792  0.1822
  136MPD2     H 2119   1.422   3.077   9.670  0.5727  0.3313 -0.7157
  136MPD2    H1 2120   1.678   3.422   9.594  2.1669  0.2486  2.1956
  136MPD2    H2 2121   1.418   3.433   9.900  2.6448  3.4510 -0.6476
  136MPD2    H3 2122   1.574   3.525   9.768 -1.7857  0.3322 -0.2427
  136MPD2     N 2123   1.648   3.156   9.525  0.4513  0.5623  0.7542
  136MPD2    H5 2124   1.723   3.214   9.491 -0.2166  1.2444  0.4634
  136MPD2    N1 2125   1.290   3.195   9.854  0.7694  0.0019  0.1722
  136MPD2    H7 2126   1.262   3.105   9.817  2.2646 -0.7730  0.9153
  137TMC2    C1 2127   1.421   1.449   9.165 -0.1173 -0.4607 -0.3789
  137TMC2    C2 2128   1.485   1.493   9.056  0.3492 -0.6100 -0.5085
  137TMC2    C3 2129   1.480   1.418   8.943 -0.0487 -0.0417 -0.8297
  137TMC2    C4 2130   1.338   1.339   9.160  0.4745 -0.4909  0.3282
  137TMC2    C5 2131   1.330   1.276   9.040  0.1686  0.3621  0.1600
  137TMC2    C6 2132   1.398   1.318   8.927 -0.4530  0.0972 -0.4154
  137TMC2     C 2133   1.448   1.515   9.293 -0.3259 -0.3498  0.1655
  137TMC2     O 2134   1.558   1.568   9.302 -0.1258 -0.7348 -0.1421
  137TMC2     H 2135   1.543   1.584   9.059 -0.7116 -0.0379  1.8639
  137TMC2    H1 2136   1.309   1.284   9.248 -1.3103  0.0718  0.0996
  137TMC2    H2 2137   1.375   1.275   8.830 -1.1656  0.5637 -0.4528
  137TMC2    C7 2138   1.225   1.175   9.017 -0.6207  0.2723  0.6482
  137TMC2    C8 2139   1.540   1.469   8.822  0.1303 -0.0394  0.7386
  137TMC2    O1 2140   1.233   1.098   8.921 -0.7028 -0.4684  0.4770
  137TMC2    O2 2141   1.491   1.435   8.719 -0.6012 -0.4564  0.4328
  137TMC2    O5 2142   1.668   1.488   8.847 -0.0919 -0.3288 -0.3293
  137TMC2    H5 2143   1.696   1.455   8.936  0.2093 -0.7814 -0.5933
  138MPD2     C 2144   1.241   1.509   9.610  0.0333  0.2137 -0.1953
  138MPD2    C1 2145   1.353   1.531   9.526  0.8320 -0.5911  0.1224
  138MPD2    C2 2146   1.466   1.583   9.588  0.3660  0.6133  0.7849
  138MPD2    C3 2147   1.456   1.621   9.724  0.6598 -0.1755 -0.1470
  138MPD2    C4 2148   1.341   1.607   9.793 -0.2111  0.5436  1.0580
  138MPD2    C5 2149   1.234   1.547   9.738  0.3628  0.2755  0.0607
  138MPD2     H 2150   1.564   1.596   9.546  0.4214 -2.9528 -0.2261
  138MPD2    H1 2151   1.326   1.625   9.899  0.7390 -0.7366  1.4063
  138MPD2    H2 2152   1.154   1.458   9.572  1.1153 -1.5047 -0.3494
  138MPD2    H3 2153   1.144   1.519   9.791  0.1165  0.2464 -0.3740
  138MPD2     N 2154   1.576   1.678   9.779 -0.2961 -0.6049 -0.0538
  138MPD2    H5 2155   1.646   1.704   9.711 -1.6506  0.6037 -0.9969
  138MPD2    N1 2156   1.352   1.492   9.387  0.2303  0.0850 -0.0212
  138MPD2    H7 2157   1.264   1.462   9.347  0.0214 -1.1190  1.3377
  139TMC2    C1 2158   2.140   4.628  13.461 -0.3949 -0.1921  0.8375
  139TMC2    C2 2159   2.225   4.716  13.398 -0.2213 -0.2253 -0.2465
  139TMC2    C3 2160   2.201   0.105  13.420  0.0267  0.0113  0.0805
  139TMC2    C4 2161   2.024   4.667  13.528 -0.6854 -0.0261 -0.2547
  139TMC2    C5 2162   1.988   0.056  13.525  0.1067  0.1445 -0.3363
  139TMC2    C6 2163   2.081   0.144  13.471 -0.5978 -0.2084 -0.1454
  139TMC2     C 2164   2.204   4.498  13.471 -0.1897  0.2776  0.2247
  139TMC2     O 2165   2.316   4.492  13.419  0.2522  0.5455  0.2385
  139TMC2     H 2166   2.315   4.695  13.341  0.8359  0.8730  1.0153
  139TMC2    H1 2167   1.980   4.587  13.587  0.2805 -1.0024 -0.8495
  139TMC2    H2 2168   2.066   0.251  13.479  1.4939  0.0733 -0.0326
  139TMC2    C7 2169   1.853   0.100  13.542 -0.0821  0.4520  0.4455
  139TMC2    C8 2170   2.260   0.190  13.320  0.8668  0.1094 -0.2543
  139TMC2    O1 2171   1.836   0.220  13.540 -0.3151 -0.4485 -0.0039
  139TMC2    O2 2172   2.293   0.151  13.207  0.4877 -0.5023 -0.1869
  139TMC2    O5 2173   2.272   0.316  13.370 -0.0719 -0.0914 -0.0276
  139TMC2    H5 2174   2.244   0.316  13.464 -1.7998  0.8536 -0.5370
  140MPD2     C 2175   2.127   4.209  13.678  0.0991 -0.1520 -0.0864
  140MPD2    C1 2176   2.183   4.265  13.571  0.0853  0.1809  0.3835
  140MPD2    C2 2177   2.303   4.213  13.521 -1.2877  0.3194 -0.9014
  140MPD2    C3 2178   2.364   4.103  13.581 -0.4471  0.1520  0.2450
  140MPD2    C4 2179   2.307   4.053  13.687 -0.4115  0.0172  0.0973
  140MPD2    C5 2180   2.198   4.109  13.738 -0.6334  0.1237  0.4413
  140MPD2     H 2181   2.346   4.266  13.437 -2.5061  1.7283 -0.6489
  140MPD2    H1 2182   2.325   3.952  13.724  0.1002 -0.1942 -0.7274
  140MPD2    H2 2183   2.032   4.237  13.720 -0.4350  0.5809 -1.7682
  140MPD2    H3 2184   2.152   4.065  13.826 -0.7709  1.3642  0.9925
  140MPD2     N 2185   2.465   4.041  13.509  1.0608  0.0430 -0.1281
  140MPD2    H5 2186   2.490   4.088  13.423 -0.3435 -0.9329 -1.0828
  140MPD2    N1 2187   2.130   4.397  13.530 -0.7307  0.1736 -0.5639
  140MPD2    H7 2188   2.040   4.420  13.571 -0.9874  0.1612 -1.1174
  141TMC2    C1 2189   2.054   1.534  14.609  0.1976  0.1708  0.6347
  141TMC2    C2 2190   2.062   1.447  14.717  0.1385 -0.0941  0.5990
  141TMC2    C3 2191   2.125   1.488  14.826 -0.1021  0.2010 -0.5090
  141TMC2    C4 2192   2.090   1.661  14.613  0.6162  0.4081  0.9896
  141TMC2    C5 2193   2.136   1.705  14.733  0.4278 -0.4838  0.0611
  141TMC2    C6 2194   2.168   1.616  14.837  0.0440 -0.1232  0.8347
  141TMC2     C 2195   2.015   1.478  14.480 -0.4045  0.6264  0.2049
  141TMC2     O 2196   2.038   1.540  14.377  0.1901 -0.1251 -0.1785
  141TMC2     H 2197   2.036   1.341  14.713 -0.4715  0.0171  1.8908
  141TMC2    H1 2198   2.098   1.728  14.528 -0.4082 -0.6580  0.0427
  141TMC2    H2 2199   2.226   1.647  14.923 -0.9186 -0.4604  1.5979
  141TMC2    C7 2200   2.206   1.836  14.718  0.4285 -0.3774 -0.7708
  141TMC2    C8 2201   2.162   1.378  14.910 -0.6068  0.4418 -0.2317
  141TMC2    O1 2202   2.153   1.920  14.650  0.0071 -0.3913 -0.1551
  141TMC2    O2 2203   2.103   1.272  14.926 -0.7370 -0.0357  0.2537
  141TMC2    O5 2204   2.267   1.423  14.985 -0.4838 -0.6953  0.2131
  141TMC2    H5 2205   2.322   1.494  14.945 -2.3405  0.7693  0.2733
  142TMC2    C1 2206   4.305   0.047   9.648 -0.3022  0.3013  0.4992
  142TMC2    C2 2207   4.251   0.168   9.687  0.0890  0.3929 -0.4146
  142TMC2    C3 2208   4.271   0.273   9.604 -0.3745  0.5546 -0.0464
  142TMC2    C4 2209   4.387   0.037   9.540 -0.7588  0.3625 -0.3657
  142TMC2    C5 2210   4.419   0.147   9.473 -0.5561  0.7634  0.0066
  142TMC2    C6 2211   4.363   0.268   9.502  0.5176 -0.2920 -0.2008
  142TMC2     C 2212   4.264   4.670   9.725  0.2856 -0.7409 -0.4908
  142TMC2     O 2213   4.202   4.690   9.826  0.3629 -0.2825  0.0861
  142TMC2     H 2214   4.183   0.181   9.770 -0.5126 -2.8988 -0.4030
  142TMC2    H1 2215   4.445   4.685   9.523  0.6695  0.6456  2.9488
  142TMC2    H2 2216   4.357   0.347   9.428 -1.7770 -0.1111  0.1845
  142TMC2    C7 2217   4.471   0.141   9.338 -0.3913  0.1600 -0.4112
  142TMC2    C8 2218   4.194   0.390   9.614 -0.2618  0.0205 -0.3416
  142TMC2    O1 2219   4.520   0.247   9.306  0.1270  0.2817  0.0591
  142TMC2    O2 2220   4.073   0.387   9.637  0.1057  0.7224 -0.0164
  142TMC2    O5 2221   4.266   0.503   9.582 -0.5736 -0.1105  0.7056
  142TMC2    H5 2222   4.364   0.499   9.582 -0.4855  1.5995  3.6179
  143MPD2     C 2223   4.255   4.167   9.846  0.9849 -0.2791 -0.2663
  143MPD2    C1 2224   4.242   4.278   9.927  0.4552  1.2989 -0.5928
  143MPD2    C2 2225   4.263   4.403   9.870 -0.3504 -0.2261  0.2479
  143MPD2    C3 2226   4.278   4.421   9.732  0.3382  0.1041  0.1791
  143MPD2    C4 2227   4.286   4.311   9.648  0.7392 -0.2920 -0.3715
  143MPD2    C5 2228   4.266   4.187   9.708 -0.3039  0.5405  0.1579
  143MPD2     H 2229   4.253   4.491   9.932 -0.0167 -1.0774  1.5209
  143MPD2    H1 2230   4.296   4.319   9.541  0.9234  1.6653 -0.2089
  143MPD2    H2 2231   4.262   4.073   9.898  0.5116 -0.0439  0.2153
  143MPD2    H3 2232   4.269   4.099   9.646 -1.5723  1.5570 -1.3470
  143MPD2     N 2233   4.294   4.548   9.667  0.2765 -0.0013  0.1928
  143MPD2    H5 2234   4.321   4.551   9.569  0.7663  0.5381  0.3425
  143MPD2    N1 2235   4.216   4.258  10.065  0.1754 -0.7485 -0.6925
  143MPD2    H7 2236   4.230   4.167  10.106 -3.5923 -0.7278  0.6365
  144TMC2    C1 2237   2.593   3.446   0.431 -0.1826  0.1449  0.0401
  144TMC2    C2 2238   2.621   3.307   0.443  0.3830 -0.5196  0.1693
  144TMC2    C3 2239   2.744   3.269   0.499 -0.0332 -0.6370  0.3556
  144TMC2    C4 2240   2.682   3.541   0.469  0.1689  0.5423  0.1969
  144TMC2    C5 2241   2.797   3.497   0.535  0.1034 -0.0698  0.0550
  144TMC2    C6 2242   2.833   3.363   0.540  0.0290  0.0099 -0.0769
  144TMC2     C 2243   2.513   3.460   0.310  0.3923 -0.5682 -0.1326
  144TMC2     O 2244   2.500   3.361   0.237  1.0298  0.5129  0.1294
  144TMC2     H 2245   2.551   3.230   0.414 -1.4741  1.2996 -0.2013
  144TMC2    H1 2246   2.683   3.637   0.419  0.4425  1.1385  1.3512
  144TMC2    H2 2247   2.930   3.331   0.577 -0.1991 -1.6359 -0.9077
  144TMC2    C7 2248   2.907   3.586   0.566 -0.5344 -0.2626 -0.0435
  144TMC2    C8 2249   2.809   3.144   0.453 -0.7357 -0.3500  0.2109
  144TMC2    O1 2250   3.024   3.545   0.560 -0.0674 -0.3708  0.1966
  144TMC2    O2 2251   2.913   3.141   0.388  0.1925  0.8128 -0.1696
  144TMC2    O5 2252   2.722   3.042   0.453  0.1491  0.5153  0.0856
  144TMC2    H5 2253   2.654   3.047   0.524  0.3220  4.0373 -0.0322
  145MPD2     C 2254   2.270   3.736  17.697 -0.7384  0.6515 -0.0098
  145MPD2    C1 2255   2.314   3.602  17.692 -0.1339  0.2858 -0.4945
  145MPD2    C2 2256   2.384   3.557   0.052 -0.6747  0.1909 -0.5625
  145MPD2    C3 2257   2.410   3.631   0.165 -0.4545 -0.1956 -0.3044
  145MPD2    C4 2258   2.366   3.763   0.166 -0.4725  0.0928 -0.0221
  145MPD2    C5 2259   2.292   3.811   0.060 -0.1265  0.1587 -0.0508
  145MPD2     H 2260   2.418   3.454   0.047  0.9212  0.7308 -0.8129
  145MPD2    H1 2261   2.390   3.836   0.242  0.1732 -0.8184  0.6592
  145MPD2    H2 2262   2.235   3.783  17.605 -2.6361  0.4406  0.5986
  145MPD2    H3 2263   2.262   3.915   0.066  0.0652  0.1336  1.3785
  145MPD2     N 2264   2.486   3.585   0.280  0.4398  0.1807 -0.4041
  145MPD2    H5 2265   2.516   3.657   0.345 -1.6571 -0.0653  0.8371
  145MPD2    N1 2266   2.307   3.513  17.577  0.3261  0.0162  0.3943
  145MPD2    H7 2267   2.348   3.421  17.586  3.2785  1.0769 -1.9927
  146TMC2    C1 2268   4.218   2.341  11.645  0.0872  0.4308 -0.1441
  146TMC2    C2 2269   4.108   2.386  11.577  0.3931 -0.5279 -0.7057
  146TMC2    C3 2270   4.076   2.326  11.453 -0.0700 -0.3100 -0.2307
  146TMC2    C4 2271   4.290   2.232  11.600 -0.3787  0.6606 -1.1361
  146TMC2    C5 2272   4.259   2.179  11.478  0.4238  0.8023  0.5702
  146TMC2    C6 2273   4.159   2.233  11.398 -0.6211  0.0461 -0.1399
  146TMC2     C 2274   4.242   2.395  11.778  0.1031 -0.0261 -0.1632
  146TMC2     O 2275   4.171   2.486  11.817  0.3920  0.5601 -0.7462
  146TMC2     H 2276   4.059   2.479  11.603  3.6776  0.9022  0.3894
  146TMC2    H1 2277   4.372   2.186  11.655 -2.0316  0.9513  1.5827
  146TMC2    H2 2278   4.148   2.205  11.294  0.8717 -2.5178  0.3936
  146TMC2    C7 2279   4.366   2.134  11.399 -0.0781  0.3453 -0.8594
  146TMC2    C8 2280   4.021   2.418  11.361  0.1326 -0.0999  0.6846
  146TMC2    O1 2281   4.390   2.194  11.293 -0.2748 -0.4148  0.5608
  146TMC2    O2 2282   4.044   2.538  11.345  0.5103  0.2550  0.1623
  146TMC2    O5 2283   3.966   2.333  11.271 -0.2643  0.0005  0.3639
  146TMC2    H5 2284   3.939   2.245  11.306  1.4559  0.0797  1.8629
  147MPD2     C 2285   0.082   1.902  11.339  0.3232 -0.1882  0.0935
  147MPD2    C1 2286   0.032   1.883  11.472 -0.2780 -0.1997  0.1613
  147MPD2    C2 2287   4.644   1.927  11.506 -0.4732 -0.2261 -0.2817
  147MPD2    C3 2288   4.563   1.989  11.413 -0.5863  0.2985 -0.6724
  147MPD2    C4 2289   4.614   2.004  11.285  0.3559  0.4767  0.3175
  147MPD2    C5 2290   4.737   1.961  11.246 -0.0872  0.0192 -0.8414
  147MPD2     H 2291   4.607   1.908  11.606 -0.6239  1.1762 -0.0718
  147MPD2    H1 2292   4.546   2.056  11.218 -1.6009 -1.4625  0.7764
  147MPD2    H2 2293   0.171   1.847  11.312  0.1407 -0.8313  0.7979
  147MPD2    H3 2294   0.033   1.968  11.144  1.6145  1.4043 -0.1633
  147MPD2     N 2295   4.437   2.037  11.466  0.1792  0.0445  0.2222
  147MPD2    H5 2296   4.407   2.007  11.558 -1.0582  1.7647  0.3812
  147MPD2    N1 2297   0.122   1.832  11.572 -0.5039 -0.8764  0.4711
  147MPD2    H7 2298   0.214   1.816  11.533 -0.7592 -2.9952  0.7421
  148TMC2    C1 2299   4.312   1.511  10.410  0.2835  0.2342 -0.3564
  148TMC2    C2 2300   4.377   1.602  10.491 -0.2373 -0.2238  0.5201
  148TMC2    C3 2301   4.447   1.547  10.601 -0.0824 -0.0559 -0.1926
  148TMC2    C4 2302   4.330   1.373  10.421 -0.2654  0.4535  0.6186
  148TMC2    C5 2303   4.401   1.332  10.532 -0.4525 -0.3694 -0.3609
  148TMC2    C6 2304   4.463   1.416  10.621  0.2906 -0.2082  0.1106
  148TMC2     C 2305   4.184   1.563  10.359 -0.4442 -0.2684 -0.2815
  148TMC2     O 2306   4.174   1.684  10.354 -0.0341 -0.2965 -0.1961
  148TMC2     H 2307   4.366   1.709  10.479  0.7471  0.2272  3.8008
  148TMC2    H1 2308   4.278   1.301  10.360 -0.9696  2.0018 -0.6224
  148TMC2    H2 2309   4.502   1.375  10.714 -2.0244 -5.4507 -1.2350
  148TMC2    C7 2310   4.412   1.193  10.552  0.4776  0.1559 -0.4237
  148TMC2    C8 2311   4.495   1.642  10.699 -0.4826 -0.0188 -0.4889
  148TMC2    O1 2312   4.435   1.117  10.455  0.2733 -0.0925  0.1663
  148TMC2    O2 2313   4.480   1.620  10.819  0.1683 -0.2501 -0.0344
  148TMC2    O5 2314   4.553   1.757  10.647  0.2082  0.4804  0.0518
  148TMC2    H5 2315   4.568   1.743  10.551  3.5003  0.3988  0.5724
  149MPD2     C 2316   3.933   1.593  10.215 -0.7849  0.4511 -0.4261
  149MPD2    C1 2317   3.993   1.471  10.243  0.7389 -0.0089 -0.5232
  149MPD2    C2 2318   3.925   1.352  10.220  0.2136  0.5117 -0.0357
  149MPD2    C3 2319   3.802   1.351  10.163  0.4860 -0.0012 -0.1809
  149MPD2    C4 2320   3.739   1.473  10.145  0.1091  0.6777  0.0954
  149MPD2    C5 2321   3.804   1.592  10.168  0.2912 -0.0390 -1.4208
  149MPD2     H 2322   3.975   1.259  10.242 -1.4253 -0.3848 -0.1626
  149MPD2    H1 2323   3.632   1.481  10.131  0.4967  1.8554 -2.2407
  149MPD2    H2 2324   3.982   1.687  10.237 -3.3112  1.3255  1.4889
  149MPD2    H3 2325   3.753   1.684  10.143 -0.3322  0.5108  1.9678
  149MPD2     N 2326   3.724   1.237  10.136  0.6682  0.8585 -0.3150
  149MPD2    H5 2327   3.624   1.250  10.130  0.0681 -1.5947  3.7841
  149MPD2    N1 2328   4.110   1.461  10.311  0.7428 -0.1358 -0.2020
  149MPD2    H7 2329   4.132   1.368  10.347 -0.6373 -1.8294 -3.7878
  150TMC2    C1 2330   1.247   0.189  12.575  0.0658  0.0966  0.6833
  150TMC2    C2 2331   1.259   0.196  12.706 -0.4769  0.7411 -0.2597
  150TMC2    C3 2332   1.379   0.227  12.752 -0.0185 -0.4621  0.1942
  150TMC2    C4 2333   1.349   0.208  12.488  0.2708 -0.0108  0.2379
  150TMC2    C5 2334   1.469   0.249  12.535 -0.2930  0.0166  0.5995
  150TMC2    C6 2335   1.482   0.270  12.670  0.4447  0.1642 -0.0339
  150TMC2     C 2336   1.142   0.100  12.532 -0.4505 -0.4433 -0.1054
  150TMC2     O 2337   1.101   0.030  12.623  0.3118  0.0153 -0.6029
  150TMC2     H 2338   1.180   0.172  12.776 -0.1481  1.0606  0.2276
  150TMC2    H1 2339   1.334   0.196  12.382  0.0354  2.6847 -0.0314
  150TMC2    H2 2340   1.580   0.300  12.704 -0.1932  1.1371  0.9387
  150TMC2    C7 2341   1.583   0.247  12.442 -0.4911 -0.3234  1.1335
  150TMC2    C8 2342   1.387   0.242  12.900 -0.1881  0.2016 -0.2978
  150TMC2    O1 2343   1.567   0.263  12.322  0.4898 -0.0107  0.1796
  150TMC2    O2 2344   1.296   0.207  12.975 -0.1890 -0.0276 -0.5246
  150TMC2    O5 2345   1.471   0.340  12.930 -0.1297 -0.2516 -0.4384
  150TMC2    H5 2346   1.553   0.343  12.876 -0.6776 -0.4322 -1.2819
  151MPD2     C 2347   0.826   4.625  12.200  0.2730  0.4367 -0.0530
  151MPD2    C1 2348   0.860   0.008  12.145  0.0204 -0.1235  0.4577
  151MPD2    C2 2349   0.954   0.085  12.220 -0.1217 -0.1066  0.4521
  151MPD2    C3 2350   1.012   0.030  12.334 -0.3463 -0.0141 -0.3440
  151MPD2    C4 2351   0.975   4.649  12.384 -0.8894  0.0661  0.3943
  151MPD2    C5 2352   0.881   4.572  12.317 -0.0387 -0.0041  0.4568
  151MPD2     H 2353   0.998   0.180  12.196  2.4817 -1.6015 -0.6832
  151MPD2    H1 2354   1.027   4.606  12.469 -0.8637 -2.5012 -0.9084
  151MPD2    H2 2355   0.758   4.559  12.148 -2.3090  3.2342 -0.2407
  151MPD2    H3 2356   0.849   4.473  12.348 -1.5115  1.2795  2.9735
  151MPD2     N 2357   1.108   0.113  12.397 -0.4868  0.4547 -0.1466
  151MPD2    H5 2358   1.138   0.192  12.341 -0.8863  0.8057  0.1361
  151MPD2    N1 2359   0.806   0.053  12.023 -0.5944  0.0869 -0.1639
  151MPD2    H7 2360   0.757   4.717  11.976 -0.2841 -1.2382  1.5798
  152TMC2    C1 2361   1.549   4.535  12.863 -0.1135 -0.3445 -0.6769
  152TMC2    C2 2362   1.623   4.417  12.841 -0.4075 -0.0464 -0.3851
  152TMC2    C3 2363   1.757   4.432  12.845  0.1477 -0.4114 -0.0286
  152TMC2    C4 2364   1.610   4.658  12.853  0.0632  0.1058 -0.3479
  152TMC2    C5 2365   1.745   4.662  12.853 -0.6076  0.2148  0.5003
  152TMC2    C6 2366   1.822   4.552  12.851 -0.2641 -0.3483  0.2739
  152TMC2     C 2367   1.409   4.526  12.827  0.2858  1.0393 -0.2028
  152TMC2     O 2368   1.369   4.624  12.756 -0.1020  0.4580 -0.2300
  152TMC2     H 2369   1.574   4.323  12.819  0.8131 -0.8120  0.1750
  152TMC2    H1 2370   1.553   0.012  12.847  0.2835  0.0861 -2.5059
  152TMC2    H2 2371   1.930   4.558  12.863 -0.6451  1.2696  3.0331
  152TMC2    C7 2372   1.793   0.060  12.852  0.2827 -0.0983 -0.2509
  152TMC2    C8 2373   1.847   4.326  12.811  0.1246  0.0618 -0.1774
  152TMC2    O1 2374   1.714   0.153  12.840  0.2116 -0.4247 -0.8060
  152TMC2    O2 2375   1.876   4.240  12.890 -0.1079  0.0165  0.4686
  152TMC2    O5 2376   1.837   4.306  12.677  0.3342  0.1541 -0.3154
  152TMC2    H5 2377   1.795   4.382  12.630  0.7927 -0.0420 -1.0444
  153MPD2     C 2378   1.136   4.286  12.917  0.0093  0.2256  0.0618
  153MPD2    C1 2379   1.194   4.389  12.846  0.4217  0.3465  0.1835
  153MPD2    C2 2380   1.121   4.480  12.766 -0.3378 -0.1323 -0.2224
  153MPD2    C3 2381   0.987   4.463  12.755 -0.3270  0.3484  0.1263
  153MPD2    C4 2382   0.922   4.359  12.825 -0.4527 -0.5748  0.1608
  153MPD2    C5 2383   1.002   4.270  12.901  0.3600  0.4555  0.3455
  153MPD2     H 2384   1.164   4.564  12.714  1.6954 -1.5854 -0.8788
  153MPD2    H1 2385   0.816   4.340  12.821 -0.6098  0.1045  1.1665
  153MPD2    H2 2386   1.186   4.208  12.975  0.9872 -0.2511 -1.4184
  153MPD2    H3 2387   0.965   4.188  12.960 -2.9013  0.1039 -2.1954
  153MPD2     N 2388   0.917   4.582  12.712  0.1577  0.1334 -0.1672
  153MPD2    H5 2389   0.987   4.651  12.688  1.3953 -1.3449 -0.7908
  153MPD2    N1 2390   1.335   4.413  12.869  0.1937 -0.1542 -0.2339
  153MPD2    H7 2391   1.381   4.338  12.918 -0.5079 -0.4676 -0.0541
  154TMC2    C1 2392   3.577   0.217   0.104  0.2793 -0.6635  0.8678
  154TMC2    C2 2393   3.583   0.190  17.719  0.0934 -0.1455 -0.0472
  154TMC2    C3 2394   3.660   0.086  17.682  0.0592 -0.1720  0.1675
  154TMC2    C4 2395   3.625   0.135   0.203 -0.7598  0.2223 -0.3967
  154TMC2    C5 2396   3.689   0.018   0.165 -0.6737 -0.6386  0.3271
  154TMC2    C6 2397   3.713   4.735   0.026 -0.2099 -0.6370 -0.6323
  154TMC2     C 2398   3.490   0.329   0.152  0.1073 -0.4086 -0.1274
  154TMC2     O 2399   3.480   0.343   0.273  0.5815 -0.5891 -0.1262
  154TMC2     H 2400   3.533   0.246  17.642  0.4630  1.7185  1.0648
  154TMC2    H1 2401   3.604   0.149   0.309  3.0854 -1.4940  0.5840
  154TMC2    H2 2402   3.772   4.647   0.003 -1.2337 -1.6648  0.6753
  154TMC2    C7 2403   3.753   4.666   0.259  0.3020 -0.7620 -0.0896
  154TMC2    C8 2404   3.605   0.031  17.562  0.0164 -0.3696 -0.3942
  154TMC2    O1 2405   3.769   4.548   0.226  0.7149 -0.7685  0.7276
  154TMC2    O2 2406   3.481   0.026  17.562 -0.3367  0.0707 -0.2655
  154TMC2    O5 2407   3.676   4.659  17.539 -0.0667  0.3717  0.0702
  154TMC2    H5 2408   3.771   4.678  17.557 -0.5980  0.6062  2.5818
  155MPD2     C 2409   3.420   0.630  17.695 -0.6979  0.6592 -0.3086
  155MPD2    C1 2410   3.400   0.541   0.049 -0.9923 -0.0800 -0.0307
  155MPD2    C2 2411   3.328   0.575   0.162 -0.5656 -0.1941 -0.1368
  155MPD2    C3 2412   3.278   0.701   0.176  0.8886  0.4445  0.2191
  155MPD2    C4 2413   3.299   0.789   0.068 -0.6837 -0.5604  0.8540
  155MPD2    C5 2414   3.370   0.756  17.711 -1.1473 -0.3534 -0.5452
  155MPD2     H 2415   3.298   0.501   0.236  1.9137 -2.9401 -1.8757
  155MPD2    H1 2416   3.251   0.886   0.067 -1.4321 -0.9762 -1.5585
  155MPD2    H2 2417   3.482   0.609  17.609 -1.3333 -1.4097 -0.2659
  155MPD2    H3 2418   3.394   0.838  17.645 -0.3011 -0.5047 -0.4343
  155MPD2     N 2419   3.201   0.734   0.294 -0.0813  0.0665 -0.0098
  155MPD2    H5 2420   3.183   0.656   0.356  0.9766 -1.1200 -1.2138
  155MPD2    N1 2421   3.471   0.419   0.047 -0.0565 -0.8658  0.7918
  155MPD2    H7 2422   3.523   0.412  17.709 -0.1385 -1.0939  0.7630
  156TMC2    C1 2423   0.822   2.449  12.085 -0.3267 -0.6023 -0.2753
  156TMC2    C2 2424   0.706   2.378  12.099 -0.2999 -0.1325  0.1681
  156TMC2    C3 2425   0.603   2.416  12.017 -0.0477 -0.5548 -0.4673
  156TMC2    C4 2426   0.834   2.555  12.001  0.2045 -0.8568 -0.3970
  156TMC2    C5 2427   0.719   2.599  11.932 -0.3370 -0.3652  0.5527
  156TMC2    C6 2428   0.602   2.527  11.937 -0.5551  0.1545  0.1058
  156TMC2     C 2429   0.942   2.409  12.160  0.5759 -0.2891 -0.3030
  156TMC2     O 2430   1.039   2.489  12.165 -0.3007 -0.7394  0.0179
  156TMC2     H 2431   0.685   2.302  12.173  0.7597 -0.4825  0.1089
  156TMC2    H1 2432   0.924   2.614  12.005 -0.2274 -0.1005 -1.8438
  156TMC2    H2 2433   0.510   2.550  11.884  0.1073 -0.4343 -1.2899
  156TMC2    C7 2434   0.740   2.685  11.823 -0.0216  0.6800  0.2699
  156TMC2    C8 2435   0.471   2.364  12.044 -0.0765  0.8380  0.6966
  156TMC2    O1 2436   0.804   2.789  11.848  0.1331 -0.2568 -0.4035
  156TMC2    O2 2437   0.374   2.439  12.034 -0.3689  0.5019 -0.1182
  156TMC2    O5 2438   0.469   2.233  12.017  0.1133  0.2946  0.2148
  156TMC2    H5 2439   0.557   2.207  11.982 -0.0538  0.9004 -0.6815
  157MPD2     C 2440   1.039   2.084  12.312  0.0484 -0.3277  0.0863
  157MPD2    C1 2441   1.048   2.212  12.276  0.2571 -0.0440  0.3915
  157MPD2    C2 2442   1.164   2.275  12.321 -0.4736 -0.6260 -0.0847
  157MPD2    C3 2443   1.266   2.214  12.396  0.7952  0.0232  0.4293
  157MPD2    C4 2444   1.254   2.080  12.426  0.4413  0.5814  0.4506
  157MPD2    C5 2445   1.136   2.023  12.394 -0.1978 -0.4507  0.4277
  157MPD2     H 2446   1.181   2.375  12.285 -3.0152 -0.9886 -2.3808
  157MPD2    H1 2447   1.329   2.022  12.479  1.8671  1.5075 -0.5551
  157MPD2    H2 2448   0.947   2.032  12.292  0.6736 -0.7596 -1.6587
  157MPD2    H3 2449   1.114   1.924  12.434 -0.6096 -0.1953  0.8347
  157MPD2     N 2450   1.387   2.285  12.432 -0.1198 -0.1578  0.1181
  157MPD2    H5 2451   1.396   2.385  12.415 -1.6858 -0.0225  0.0950
  157MPD2    N1 2452   0.936   2.276  12.211 -0.0433 -0.4883 -0.3842
  157MPD2    H7 2453   0.876   2.207  12.167  1.2215 -3.1528  2.0153
  158TMC2    C1 2454   1.853   1.194  13.236  0.2375 -0.3484  0.9248
  158TMC2    C2 2455   1.871   1.293  13.143 -0.4549  0.1378 -0.0504
  158TMC2    C3 2456   1.766   1.354  13.085  0.9222 -0.3078 -0.8085
  158TMC2    C4 2457   1.729   1.148  13.260  0.6515  0.5538 -0.1260
  158TMC2    C5 2458   1.620   1.213  13.200 -0.5222 -0.2532 -0.6772
  158TMC2    C6 2459   1.639   1.315  13.114  0.5037  0.6607  0.3073
  158TMC2     C 2460   1.965   1.169  13.327 -0.6859  0.2583 -0.7628
  158TMC2     O 2461   2.061   1.251  13.328  0.1867 -0.3144  0.5564
  158TMC2     H 2462   1.970   1.337  13.137 -0.1105 -0.5971  0.2385
  158TMC2    H1 2463   1.710   1.065  13.327  3.3315  0.1379  0.1291
  158TMC2    H2 2464   1.556   1.372  13.074 -2.0290 -2.4402  1.1569
  158TMC2    C7 2465   1.492   1.204  13.265 -0.4629 -0.5399 -0.1294
  158TMC2    C8 2466   1.785   1.500  13.052 -0.1551  0.1051 -0.4376
  158TMC2    O1 2467   1.411   1.299  13.255 -0.2892 -0.1785 -0.1797
  158TMC2    O2 2468   1.802   1.537  12.938  0.8399 -0.1981  0.4321
  158TMC2    O5 2469   1.705   1.561  13.144 -0.1306  0.1955 -0.0728
  158TMC2    H5 2470   1.705   1.523  13.235  2.0286 -0.0580 -0.1875
  159MPD2     C 2471   2.202   0.948  13.718  0.3625 -0.0620 -0.0891
  159MPD2    C1 2472   2.065   0.934  13.740  0.0524 -0.5236  0.5596
  159MPD2    C2 2473   1.983   0.976  13.633  0.2033 -0.2444 -0.2263
  159MPD2    C3 2474   2.030   1.030  13.517  0.1696 -0.6122 -0.3025
  159MPD2    C4 2475   2.169   1.039  13.503 -0.1819  0.1186  0.3995
  159MPD2    C5 2476   2.251   1.000  13.598  0.1767 -0.3710 -0.2200
  159MPD2     H 2477   1.876   0.963  13.645  0.2419 -1.5100 -1.2373
  159MPD2    H1 2478   2.208   1.087  13.415 -0.8758 -0.3720 -0.1763
  159MPD2    H2 2479   2.275   0.916  13.791 -2.3738 -2.2931  1.6678
  159MPD2    H3 2480   2.357   1.012  13.582  0.0526 -0.9630 -1.5422
  159MPD2     N 2481   1.936   1.075  13.423 -0.0147  0.5678 -0.2341
  159MPD2    H5 2482   1.840   1.045  13.433  0.2937  0.2980  1.8947
  159MPD2    N1 2483   2.012   0.877  13.861  0.2895  0.0233 -0.0012
  159MPD2    H7 2484   2.076   0.836  13.928  0.0861 -1.3470 -0.6505
  160TMC2    C1 2485   1.046   3.964   1.440  0.0616  0.1082  0.3244
  160TMC2    C2 2486   1.004   3.831   1.430  0.6354  0.5499 -0.3714
  160TMC2    C3 2487   1.097   3.737   1.390 -0.0090 -0.0556 -0.2998
  160TMC2    C4 2488   1.179   3.999   1.419 -0.2892  0.5391 -0.2473
  160TMC2    C5 2489   1.268   3.900   1.386 -0.5677  0.2887  0.0400
  160TMC2    C6 2490   1.227   3.773   1.360 -0.4224  0.1751  0.0285
  160TMC2     C 2491   0.950   4.065   1.439  0.2662 -0.0117  0.0318
  160TMC2     O 2492   0.850   4.038   1.504  0.5179 -0.1133  0.5551
  160TMC2     H 2493   0.900   3.802   1.435  0.9193 -0.5843 -0.8125
  160TMC2    H1 2494   1.206   4.103   1.430  0.5766  0.2398  0.4698
  160TMC2    H2 2495   1.285   3.691   1.318 -1.1515  1.0003 -2.6019
  160TMC2    C7 2496   1.411   3.921   1.351  0.0297 -0.1135  0.5961
  160TMC2    C8 2497   1.038   3.612   1.350 -0.2712  0.5499  0.0386
  160TMC2    O1 2498   1.482   3.826   1.322 -0.2235  0.2516 -0.7188
  160TMC2    O2 2499   0.937   3.565   1.400  0.2296  0.1226  0.3158
  160TMC2    O5 2500   1.084   3.586   1.224  0.0735 -0.3465 -0.1097
  160TMC2    H5 2501   1.127   3.666   1.187  0.0789  0.3949  1.4564
  161MPD2     C 2502   0.775   4.305   1.421  0.2034  0.5248  0.8267
  161MPD2    C1 2503   0.880   4.280   1.332 -0.1423  0.5287  0.2318
  161MPD2    C2 2504   0.902   4.368   1.227  0.1812  0.2442 -0.8114
  161MPD2    C3 2505   0.826   4.480   1.205  0.0895 -0.6181 -0.3601
  161MPD2    C4 2506   0.720   4.501   1.291 -1.0207  0.0642  0.8008
  161MPD2    C5 2507   0.696   4.417   1.399  0.7994  0.3630 -0.2168
  161MPD2     H 2508   0.984   4.341   1.161  0.1234 -0.0161 -0.7750
  161MPD2    H1 2509   0.650   4.579   1.267 -2.5942 -2.6094 -3.2918
  161MPD2    H2 2510   0.760   4.249   1.512  1.4618 -2.1136 -0.5936
  161MPD2    H3 2511   0.613   4.434   1.466  0.5264  1.5349 -0.8431
  161MPD2     N 2512   0.840   4.577   1.101 -0.4314 -0.3916  0.0236
  161MPD2    H5 2513   0.775   4.654   1.092  1.2323  1.1324  1.0671
  161MPD2    N1 2514   0.967   4.167   1.351  0.8757  0.0156 -0.3045
  161MPD2    H7 2515   1.041   4.170   1.283 -1.2505 -1.2931 -2.6779
  162TMC2    C1 2516   3.941   1.748   0.994 -0.6229 -0.5773  0.1418
  162TMC2    C2 2517   3.838   1.824   0.938  0.1585 -0.4941 -0.1402
  162TMC2    C3 2518   3.834   1.952   0.981  0.1718 -0.2200 -0.5359
  162TMC2    C4 2519   4.041   1.800   1.076 -0.1975  0.3505  0.7674
  162TMC2    C5 2520   4.024   1.932   1.113 -0.0803  0.7340 -1.1642
  162TMC2    C6 2521   3.925   2.009   1.063  0.0424 -0.0261  0.9823
  162TMC2     C 2522   3.967   1.611   0.940  0.1281 -0.0986 -0.1783
  162TMC2     O 2523   3.917   1.592   0.830  0.0713 -0.4806 -0.5144
  162TMC2     H 2524   3.760   1.775   0.881 -0.0771  0.2804 -0.4878
  162TMC2    H1 2525   4.129   1.743   1.101  0.2825 -0.5140 -2.9462
  162TMC2    H2 2526   3.920   2.113   1.096 -0.0329 -0.2535  1.6918
  162TMC2    C7 2527   4.109   1.988   1.217 -0.1342 -0.5610  0.2918
  162TMC2    C8 2528   3.714   2.028   0.967 -0.1329 -0.2370 -0.4517
  162TMC2    O1 2529   4.117   2.112   1.211  0.0568 -0.1089  0.0664
  162TMC2    O2 2530   3.686   2.120   1.048  0.0311  0.2460 -0.0425
  162TMC2    O5 2531   3.630   1.956   0.890 -0.3908  0.1124 -0.2402
  162TMC2    H5 2532   3.669   1.910   0.812 -0.7152  1.3944 -1.1460
  163MPD2     C 2533   4.191   1.164   0.951 -0.2377  0.4609  0.0967
  163MPD2    C1 2534   4.136   1.230   0.847  0.3314  0.3141 -0.1708
  163MPD2    C2 2535   4.064   1.349   0.865 -0.1082  0.2834 -0.4027
  163MPD2    C3 2536   4.062   1.398   0.995 -0.5743 -0.1785  0.0986
  163MPD2    C4 2537   4.102   1.325   1.100 -0.3165 -0.5455 -0.2854
  163MPD2    C5 2538   4.165   1.205   1.079 -0.1764 -0.9238 -0.3340
  163MPD2     H 2539   4.024   1.408   0.784 -2.2230  0.5943  0.8711
  163MPD2    H1 2540   4.098   1.359   1.203 -1.5076  0.9991 -0.8497
  163MPD2    H2 2541   4.247   1.071   0.943  0.8791  0.9158  2.4917
  163MPD2    H3 2542   4.198   1.135   1.154  1.7535  0.0231 -0.3014
  163MPD2     N 2543   4.030   1.530   1.022 -0.4320 -0.1967  0.1056
  163MPD2    H5 2544   4.049   1.551   1.120  0.1601  1.4440 -0.3498
  163MPD2    N1 2545   4.163   1.174   0.715 -0.3540  0.0949 -0.0318
  163MPD2    H7 2546   4.229   1.097   0.715  1.9744  2.0697 -2.7720
  164TMC2    C1 2547   4.392   0.597  11.130  1.0803 -0.7233  0.4560
  164TMC2    C2 2548   4.420   0.506  11.227  0.0931  0.2588 -0.2697
  164TMC2    C3 2549   4.382   0.546  11.356 -0.6181 -0.1691 -0.3148
  164TMC2    C4 2550   4.362   0.724  11.154  0.2127  0.1857 -0.0425
  164TMC2    C5 2551   4.337   0.758  11.286  0.0904  0.0346  0.3531
  164TMC2    C6 2552   4.346   0.674  11.391 -0.1378 -0.0222  0.6300
  164TMC2     C 2553   4.429   0.556  10.994  0.3154  0.9389 -0.5488
  164TMC2     O 2554   4.429   0.436  10.976 -0.0251  0.3532  0.0187
  164TMC2     H 2555   4.454   0.405  11.209  0.8674  0.5205 -0.2598
  164TMC2    H1 2556   4.374   0.797  11.076  1.9160 -0.9902 -0.8687
  164TMC2    H2 2557   4.306   0.696  11.489  2.8344  2.2974  1.3264
  164TMC2    C7 2558   4.295   0.896  11.311  0.1630 -0.0490  0.0214
  164TMC2    C8 2559   4.371   0.440  11.442 -0.2016  0.0449 -0.4187
  164TMC2    O1 2560   4.300   0.973  11.218 -0.0557  0.6300 -0.1283
  164TMC2    O2 2561   4.285   0.445  11.524  0.0322  0.7625 -0.0656
  164TMC2    O5 2562   4.498   0.400  11.465  0.4371  0.1417  0.5609
  164TMC2    H5 2563   4.567   0.423  11.399  0.9815  0.3887  1.2302
  165TMC2    C1 2564   0.793   3.645   0.261  0.0380  0.5467  0.6895
  165TMC2    C2 2565   0.797   3.507   0.250 -0.5301  0.2333 -0.3420
  165TMC2    C3 2566   0.873   3.436   0.339 -0.4821 -0.8605  0.5008
  165TMC2    C4 2567   0.856   3.712   0.368  0.8803  0.2286  0.2847
  165TMC2    C5 2568   0.937   3.641   0.444  0.2816  0.4311 -0.4623
  165TMC2    C6 2569   0.945   3.505   0.433  0.4869 -0.9609 -0.6824
  165TMC2     C 2570   0.664   3.695   0.203 -0.5429  0.5182 -0.0607
  165TMC2     O 2571   0.634   3.651   0.090  0.0287  0.2368 -0.1710
  165TMC2     H 2572   0.732   3.452   0.184  0.0256 -0.5278 -0.2564
  165TMC2    H1 2573   0.848   3.820   0.369 -1.6790  0.0389  0.4370
  165TMC2    H2 2574   1.008   3.456   0.505  1.6758 -0.0067 -1.0802
  165TMC2    C7 2575   1.029   3.707   0.531  0.4536 -0.2878  0.3466
  165TMC2    C8 2576   0.852   3.293   0.356  0.2645  0.7389 -0.4337
  165TMC2    O1 2577   1.120   3.641   0.579  0.0197  0.2225  0.0854
  165TMC2    O2 2578   0.938   3.249   0.434 -0.2914  0.2109 -0.2377
  165TMC2    O5 2579   0.720   3.272   0.354 -0.1461  0.3918  0.5120
  165TMC2    H5 2580   0.661   3.324   0.295 -1.4682 -1.3640  0.3064
  166MPD2     C 2581   0.214   3.929   0.291  0.2999 -0.0771 -0.4661
  166MPD2    C1 2582   0.278   3.915   0.405 -0.1455  0.2906  0.5973
  166MPD2    C2 2583   0.399   3.854   0.404  0.9294  0.0591 -0.9141
  166MPD2    C3 2584   0.457   3.809   0.283 -0.2673  0.5421  0.5257
  166MPD2    C4 2585   0.384   3.815   0.165  0.2656 -0.3629 -0.0160
  166MPD2    C5 2586   0.264   3.884   0.178  1.5485 -0.5329 -0.2048
  166MPD2     H 2587   0.465   3.841   0.490 -0.6297 -0.3820  0.2069
  166MPD2    H1 2588   0.412   3.786   0.064 -1.3281  1.3951 -0.9565
  166MPD2    H2 2589   0.116   3.974   0.279 -0.2437 -0.8405  1.0159
  166MPD2    H3 2590   0.214   3.904   0.084  1.6285  0.0734 -0.1212
  166MPD2     N 2591   0.591   3.760   0.298 -0.4503  0.2062  0.0635
  166MPD2    H5 2592   0.626   3.772   0.393  1.6203 -1.0429 -0.5477
  166MPD2    N1 2593   0.208   3.963   0.515  0.0103 -0.4579  0.2982
  166MPD2    H7 2594   0.117   4.005   0.501  0.3849  1.0064  2.2795
  167TMC2    C1 2595   4.308   4.623  12.800  0.7251 -0.0331  0.2851
  167TMC2    C2 2596   4.273   4.523  12.884  1.2312 -0.0029  0.0181
  167TMC2    C3 2597   4.349   4.409  12.885 -0.7793  0.4750  0.9073
  167TMC2    C4 2598   4.416   4.610  12.719  0.4102 -0.2671 -0.4728
  167TMC2    C5 2599   4.477   4.485  12.718  0.2462  0.3855 -0.1905
  167TMC2    C6 2600   4.452   4.382  12.805  0.2633 -0.1872 -0.2822
  167TMC2     C 2601   4.213   4.727  12.787 -0.3478  0.4789 -0.5410
  167TMC2     O 2602   4.146   0.012  12.883  0.2587 -0.2356 -0.1846
  167TMC2     H 2603   4.185   4.536  12.945  1.0470 -0.8283 -0.0708
  167TMC2    H1 2604   4.428   4.685  12.641 -0.1072 -0.5613 -0.8325
  167TMC2    H2 2605   4.489   4.280  12.805 -0.0589 -0.2998  1.8464
  167TMC2    C7 2606   4.594   4.453  12.627 -0.1690  0.0667 -0.3878
  167TMC2    C8 2607   4.271   4.301  12.945 -0.1200 -0.0819 -0.1751
  167TMC2    O1 2608   4.695   4.406  12.680  0.5843  0.0082  0.3356
  167TMC2    O2 2609   4.150   4.289  12.930 -0.4730  0.1164 -0.3039
  167TMC2    O5 2610   4.343   4.246  13.047  0.2041  0.1061 -0.4467
  167TMC2    H5 2611   4.438   4.263  13.031  0.6359 -1.6281  0.2860
  168MPD2     C 2612   4.029   0.211  12.707  0.3330 -0.9258 -0.6577
  168MPD2    C1 2613   4.103   0.124  12.617 -0.0757  0.0212 -0.2037
  168MPD2    C2 2614   4.072   0.147  12.485  0.2939  0.1112 -0.4326
  168MPD2    C3 2615   3.993   0.254  12.439 -0.1517 -0.5488  0.3262
  168MPD2    C4 2616   3.931   0.338  12.526 -0.2711  0.4353 -0.2764
  168MPD2    C5 2617   3.956   0.319  12.661 -0.3615  0.2329 -0.1537
  168MPD2     H 2618   4.125   0.081  12.418 -0.1783 -0.9199  0.1986
  168MPD2    H1 2619   3.869   0.421  12.494 -0.3056  0.1928 -0.8436
  168MPD2    H2 2620   4.030   0.192  12.814  0.5091 -0.3739 -0.5603
  168MPD2    H3 2621   3.915   0.391  12.731 -1.0540 -0.1160 -0.2006
  168MPD2     N 2622   3.970   0.270  12.299 -0.0303 -0.0057  0.1207
  168MPD2    H5 2623   3.904   0.344  12.279 -1.0117 -1.3638 -1.7459
  168MPD2    N1 2624   4.194   0.025  12.655  0.3711 -0.5718  0.1572
  168MPD2    H7 2625   4.242   4.719  12.577  1.9039 -3.1124  2.5142
  169MPD1     C 2626   1.647   0.912   8.942  0.3039 -0.2199  0.0809
  169MPD1    C1 2627   1.539   0.837   8.988 -0.0085 -0.0680  0.5304
  169MPD1    C2 2628   1.561   0.768   9.110  0.8533 -0.0870  0.3077
  169MPD1    C3 2629   1.684   0.772   9.180 -0.5826 -0.6309  0.5831
  169MPD1    C4 2630   1.784   0.852   9.130 -0.2201 -0.3756  0.3635
  169MPD1    C5 2631   1.756   0.928   9.024 -0.0411  0.2020  0.5227
  169MPD1     H 2632   1.480   0.707   9.148  0.6106 -0.3771 -0.6714
  169MPD1    H1 2633   1.874   0.869   9.188 -0.4788  0.3172  0.5564
  169MPD1    H2 2634   1.641   0.954   8.842  1.5654  2.1627  1.0047
  169MPD1    H3 2635   1.839   0.994   9.005 -0.3037  0.5413  0.5548
  169MPD1     N 2636   1.691   0.701   9.301 -0.1743 -0.4334 -0.7394
  169MPD1    H5 2637   1.606   0.655   9.330  0.1470 -0.7418 -0.2872
  169MPD1    N1 2638   1.429   0.800   8.906 -0.4512  0.1489 -0.7679
  169MPD1    H6 2639   1.409   0.880   8.846  0.9732  1.5890  0.6947
  169MPD1    H7 2640   1.345   0.771   8.955 -0.2341  1.4172  0.3359
  170MPD1     C 2641   0.642   3.171  12.793  0.2391 -0.0794 -0.1075
  170MPD1    C1 2642   0.621   3.067  12.880  0.4532 -0.4387 -0.4305
  170MPD1    C2 2643   0.527   3.079  12.987 -0.0812  0.5005 -0.5020
  170MPD1    C3 2644   0.459   3.199  13.000  0.4181 -0.0946  0.4540
  170MPD1    C4 2645   0.487   3.302  12.908  0.2533  0.1673  0.5134
  170MPD1    C5 2646   0.571   3.283  12.807  0.5876 -0.5106  0.2941
  170MPD1     H 2647   0.513   2.997  13.057 -0.6291  0.4852 -0.6335
  170MPD1    H1 2648   0.436   3.397  12.922  0.0429 -0.1673  2.0224
  170MPD1    H2 2649   0.701   3.163  12.703  0.3367  1.3629 -0.1824
  170MPD1    H3 2650   0.601   3.361  12.738 -1.6257  0.0799 -0.0145
  170MPD1     N 2651   0.377   3.209  13.117  0.0557 -0.2613 -0.8773
  170MPD1    H5 2652   0.353   3.123  13.166 -1.6676  0.2871 -0.7745
  170MPD1    N1 2653   0.678   2.940  12.859 -0.4264 -0.1788 -0.5234
  170MPD1    H6 2654   0.711   2.895  12.944 -0.7818  0.0330 -0.2716
  170MPD1    H7 2655   0.760   2.943  12.800 -0.7988  1.6556 -0.9322
  171MPD1     C 2656   3.403   4.179  15.185 -0.5849  0.6391  0.2083
  171MPD1    C1 2657   3.522   4.239  15.222  0.7925  0.2244  0.0891
  171MPD1    C2 2658   3.595   4.183  15.330 -0.1175 -0.4558 -0.3695
  171MPD1    C3 2659   3.553   4.069  15.395  0.8664  0.2715 -0.3360
  171MPD1    C4 2660   3.428   4.012  15.357 -0.2950 -0.4810  0.1633
  171MPD1    C5 2661   3.363   4.058  15.244 -0.0548  0.2865  0.3110
  171MPD1     H 2662   3.690   4.228  15.356 -0.5142 -0.8675  1.7420
  171MPD1    H1 2663   3.382   3.927  15.407  2.0845 -2.6147 -1.2966
  171MPD1    H2 2664   3.353   4.208  15.093 -0.6585  1.4114  0.4947
  171MPD1    H3 2665   3.281   3.995  15.211 -0.1180  1.0977 -1.0613
  171MPD1     N 2666   3.619   4.006  15.504 -0.1606  0.4055 -0.3813
  171MPD1    H5 2667   3.563   3.938  15.553  0.7393  0.5657  0.8594
  171MPD1    N1 2668   3.556   4.361  15.170  0.2869 -0.5855 -0.6599
  171MPD1    H6 2669   3.657   4.378  15.170  0.4567 -1.6695  2.0471
  171MPD1    H7 2670   3.536   4.356  15.070 -1.1972 -1.4869 -0.3021
  172MPD1     C 2671   3.466   3.731   0.149  0.3203  0.4565 -0.8645
  172MPD1    C1 2672   3.355   3.651   0.171 -0.3201  0.2681  0.0405
  172MPD1    C2 2673   3.231   3.707   0.210 -1.0228 -0.3877  1.0882
  172MPD1    C3 2674   3.224   3.846   0.224 -0.0616  0.1816 -0.1989
  172MPD1    C4 2675   3.326   3.926   0.181  0.1806 -0.2508 -0.0006
  172MPD1    C5 2676   3.449   3.866   0.156 -0.8146  0.1445  0.7588
  172MPD1     H 2677   3.155   3.636   0.241 -3.0281  1.1241 -0.3362
  172MPD1    H1 2678   3.333   4.033   0.194  1.9932 -0.6861  2.6754
  172MPD1    H2 2679   3.564   3.694   0.122  1.0575  1.9216 -0.1668
  172MPD1    H3 2680   3.532   3.932   0.138 -1.4790  1.1332  1.3242
  172MPD1     N 2681   3.107   3.914   0.281 -0.3888  0.0063  0.0213
  172MPD1    H5 2682   3.124   4.014   0.280  1.0783 -0.2499 -0.1562
  172MPD1    N1 2683   3.358   3.510   0.149 -0.0345 -0.7219  0.6629
  172MPD1    H6 2684   3.445   3.457   0.150  1.8431  2.2602 -2.9007
  172MPD1    H7 2685   3.286   3.460   0.200 -1.3368 -1.0623 -1.5166
  173MPD1     C 2686   4.603   3.958  13.811 -0.1225 -0.4292  0.2655
  173MPD1    C1 2687   4.504   3.979  13.907 -0.3133 -0.1526 -0.5790
  173MPD1    C2 2688   4.494   3.884  14.008  0.4619 -0.0906  0.7055
  173MPD1    C3 2689   4.566   3.764  14.006  0.1453  0.0564 -0.4848
  173MPD1    C4 2690   4.661   3.746  13.909 -0.0129 -0.0069  0.0531
  173MPD1    C5 2691   4.686   3.850  13.824  0.6402  0.9995 -0.1762
  173MPD1     H 2692   4.435   3.904  14.097 -2.2184  0.7809 -1.2844
  173MPD1    H1 2693   4.736   3.667  13.911 -0.5084 -0.4425  1.6709
  173MPD1    H2 2694   4.620   4.029  13.732  0.4728 -0.0004  0.7756
  173MPD1    H3 2695   0.027   3.840  13.750  0.6919  1.5181 -0.1960
  173MPD1     N 2696   4.545   3.670  14.111 -0.2943 -0.7398  0.1370
  173MPD1    H5 2697   4.471   3.692  14.178 -0.6997 -0.0411 -0.5394
  173MPD1    N1 2698   4.445   4.106  13.918  0.5038  0.3681  0.2096
  173MPD1    H6 2699   4.489   4.157  13.994 -1.0624 -1.6879  2.5230
  173MPD1    H7 2700   4.350   4.087  13.952  0.2133  0.3192 -0.6397
  174MPD1     C 2701   0.475   3.068  14.487 -0.5221 -0.6515  0.6688
  174MPD1    C1 2702   0.373   3.065  14.581  0.5391 -0.5882 -0.6044
  174MPD1    C2 2703   0.244   3.104  14.544 -0.1257  0.1244  0.0734
  174MPD1    C3 2704   0.225   3.173  14.427 -0.2745 -0.1798  0.7214
  174MPD1    C4 2705   0.327   3.173  14.336  1.3057  0.1281  0.4557
  174MPD1    C5 2706   0.449   3.129  14.369  0.2983 -0.3469  0.6068
  174MPD1     H 2707   0.163   3.079  14.611  0.8627 -0.6875  0.9703
  174MPD1    H1 2708   0.315   3.235  14.249 -1.5427 -1.1144 -0.0554
  174MPD1    H2 2709   0.574   3.028  14.501 -0.8541 -1.6841  0.1102
  174MPD1    H3 2710   0.525   3.132  14.291 -0.1859 -1.4093  0.0949
  174MPD1     N 2711   0.099   3.220  14.389 -0.3771 -0.1121  0.3634
  174MPD1    H5 2712   0.093   3.260  14.296 -2.3402  1.9531  1.3571
  174MPD1    N1 2713   0.400   2.990  14.704 -0.1964 -0.3207  0.2764
  174MPD1    H6 2714   0.497   2.977  14.731 -0.4025 -0.3156  1.0238
  174MPD1    H7 2715   0.344   3.016  14.785  0.6900 -1.8167  1.3771
  175MPD1     C 2716   2.413   4.522  15.125 -0.1795  0.4572 -0.1056
  175MPD1    C1 2717   2.478   4.422  15.193  0.7034  0.1293  0.0308
  175MPD1    C2 2718   2.476   4.428  15.331 -0.2485 -0.5406  0.4996
  175MPD1    C3 2719   2.396   4.516  15.404 -0.0641  0.3068  0.2336
  175MPD1    C4 2720   2.313   4.602  15.330  1.0608  0.0149  0.2433
  175MPD1    C5 2721   2.332   4.608  15.191  0.7190  1.3337 -0.3402
  175MPD1     H 2722   2.535   4.353  15.384  0.0471  1.1157  2.5127
  175MPD1    H1 2723   2.242   4.664  15.384 -0.3284  0.2606 -1.8479
  175MPD1    H2 2724   2.414   4.529  15.017 -0.9384  1.6489 -0.0354
  175MPD1    H3 2725   2.280   4.671  15.120  1.0739  1.6000 -0.3636
  175MPD1     N 2726   2.412   4.541  15.546  0.7055  0.1851  0.4215
  175MPD1    H5 2727   2.359   4.616  15.589  0.9460  0.5483  0.0771
  175MPD1    N1 2728   2.549   4.324  15.120  0.3262  0.2817 -0.1058
  175MPD1    H6 2729   2.568   4.242  15.177  2.8361  0.1413 -1.1293
  175MPD1    H7 2730   2.487   4.297  15.043  0.5577 -0.3269 -0.0785
  176MPD1     C 2731   4.124   1.743  17.241  0.4571 -0.4819 -0.5883
  176MPD1    C1 2732   4.159   1.846  17.155 -0.3149  0.2038  0.0224
  176MPD1    C2 2733   4.209   1.964  17.208  0.1684 -0.2699  0.0906
  176MPD1    C3 2734   4.230   1.971  17.346  0.1777 -0.3829 -0.7770
  176MPD1    C4 2735   4.204   1.867  17.429 -0.0803  0.4281  0.2737
  176MPD1    C5 2736   4.156   1.753  17.370  0.0931  0.3148 -0.1136
  176MPD1     H 2737   4.246   2.047  17.149  0.4224 -0.6954 -0.3497
  176MPD1    H1 2738   4.216   1.875  17.537  2.7266 -4.5615  0.3614
  176MPD1    H2 2739   4.077   1.653  17.204 -0.3683 -1.2628  2.3169
  176MPD1    H3 2740   4.130   1.668  17.431 -0.6778  1.2977  0.9389
  176MPD1     N 2741   4.283   2.096  17.390 -0.1156 -0.3233 -0.3073
  176MPD1    H5 2742   4.308   2.166  17.321 -0.5248 -0.7619 -0.8957
  176MPD1    N1 2743   4.132   1.843  17.018 -0.2250  0.1376 -0.3052
  176MPD1    H6 2744   4.154   1.749  16.986 -2.0270 -0.2102 -0.5530
  176MPD1    H7 2745   4.178   1.921  16.972 -0.6675  0.3455 -0.3952
  177MPD1     C 2746   2.728   0.828  10.095 -0.6975 -0.4376 -0.3597
  177MPD1    C1 2747   2.786   0.864   9.980 -0.2610  0.0591  0.2783
  177MPD1    C2 2748   2.716   0.964   9.907  0.2157  0.2965 -0.1254
  177MPD1    C3 2749   2.610   1.032   9.971  0.3878  0.2201  0.3377
  177MPD1    C4 2750   2.581   1.000  10.104 -0.0583 -0.1307  0.3908
  177MPD1    C5 2751   2.632   0.896  10.163 -0.1375 -0.7901  0.1370
  177MPD1     H 2752   2.740   0.992   9.806 -1.7006  0.1022 -0.6335
  177MPD1    H1 2753   2.512   1.053  10.169  0.7462 -0.0002  1.1407
  177MPD1    H2 2754   2.776   0.752  10.155  2.4192  2.5334  0.8842
  177MPD1    H3 2755   2.603   0.876  10.266  1.2676  1.2081  0.9149
  177MPD1     N 2756   2.545   1.132   9.905  0.2552  0.1676 -0.7470
  177MPD1    H5 2757   2.585   1.156   9.815  0.5989  1.0687 -0.3527
  177MPD1    N1 2758   2.886   0.781   9.924 -0.1539  0.0046 -0.0987
  177MPD1    H6 2759   2.946   0.827   9.855 -0.4744 -1.2490 -1.2289
  177MPD1    H7 2760   2.940   0.747  10.003  2.0879  0.2255 -1.5359
  178MPD1     C 2761   0.283   3.413  17.510 -0.0551  0.2153 -0.2709
  178MPD1    C1 2762   0.357   3.333  17.602 -0.4442  0.4595  0.0295
  178MPD1    C2 2763   0.355   3.195  17.577  0.4997  0.5449  0.3378
  178MPD1    C3 2764   0.290   3.132  17.473  0.0853  1.6596  0.0439
  178MPD1    C4 2765   0.230   3.210  17.381  0.0996 -0.5391  0.1291
  178MPD1    C5 2766   0.216   3.347  17.405 -0.0150 -0.3802  0.1964
  178MPD1     H 2767   0.410   3.131  17.646  1.3511 -0.8628 -1.6386
  178MPD1    H1 2768   0.162   3.171  17.307 -0.9249 -2.8192  2.3017
  178MPD1    H2 2769   0.266   3.519  17.519  2.9669  0.6096  0.8872
  178MPD1    H3 2770   0.161   3.412  17.338  0.1710  0.0704  0.4817
  178MPD1     N 2771   0.280   2.992  17.459  0.2630 -0.2582  0.2735
  178MPD1    H5 2772   0.234   2.964  17.373 -0.5793  1.5467  0.1539
  178MPD1    N1 2773   0.419   3.404  17.710  0.1612  0.4444 -0.2317
  178MPD1    H6 2774   0.474   3.483  17.677  0.0076  0.2134 -1.0198
  178MPD1    H7 2775   0.480   3.340   0.012  0.4863  0.2185 -0.8990
  179MPD1     C 2776   4.554   1.003  15.122  0.6276 -0.1036 -0.4513
  179MPD1    C1 2777   4.656   1.019  15.216 -0.0383  0.8963 -0.1049
  179MPD1    C2 2778   4.689   0.912  15.301  0.2285 -0.0781  0.0181
  179MPD1    C3 2779   4.605   0.802  15.301  0.3877 -0.7262 -0.5743
  179MPD1    C4 2780   4.498   0.796  15.217 -0.5815 -0.6578 -0.3036
  179MPD1    C5 2781   4.474   0.896  15.124  0.3400 -1.1308  0.3353
  179MPD1     H 2782   0.034   0.910  15.371 -1.0112  1.2386  1.5066
  179MPD1    H1 2783   4.424   0.717  15.223 -0.6034 -0.6529 -0.4965
  179MPD1    H2 2784   4.527   1.081  15.052 -0.4958  1.8105  2.0925
  179MPD1    H3 2785   4.382   0.893  15.068  0.2445 -0.1367  0.4423
  179MPD1     N 2786   4.627   0.683  15.381  0.3254  0.1798 -0.2169
  179MPD1    H5 2787   4.584   0.601  15.339  1.1903 -0.1823 -0.3959
  179MPD1    N1 2788   0.005   1.127  15.200 -0.2917  0.0454 -0.2730
  179MPD1    H6 2789   4.687   1.203  15.162 -2.6159 -1.0135  0.9649
  179MPD1    H7 2790   0.054   1.153  15.286 -0.0827 -0.5931 -0.1973
  180MPD1     C 2791   3.993   2.075  14.530  0.4533  0.0648 -0.6450
  180MPD1    C1 2792   4.054   2.188  14.493  0.1390  0.1145  0.5504
  180MPD1    C2 2793   4.112   2.187  14.368  0.5800 -0.5589 -0.1824
  180MPD1    C3 2794   4.092   2.082  14.280  0.1538 -0.9375 -0.2395
  180MPD1    C4 2795   4.014   1.978  14.318 -0.3191  0.6181  0.4683
  180MPD1    C5 2796   3.973   1.972  14.445 -0.2247 -0.0420 -0.3167
  180MPD1     H 2797   4.168   2.276  14.340  0.5789 -0.7898 -0.9225
  180MPD1    H1 2798   4.018   1.890  14.254  0.8832  0.4394  0.7861
  180MPD1    H2 2799   3.955   2.055  14.629  1.3350  1.0083 -0.1091
  180MPD1    H3 2800   3.912   1.891  14.484  0.2046 -1.6799 -3.0433
  180MPD1     N 2801   4.155   2.097  14.153  0.2212 -0.3118  0.8023
  180MPD1    H5 2802   4.226   2.169  14.144 -1.2684  1.1667  0.8410
  180MPD1    N1 2803   4.090   2.282  14.590  0.0150 -0.2477 -0.0362
  180MPD1    H6 2804   4.137   2.358  14.542  0.4675 -0.1101  0.6276
  180MPD1    H7 2805   4.008   2.326  14.632 -1.7749 -0.9562 -2.7514
  181MPD1     C 2806   1.124   3.848   9.180  0.4590  0.2489 -0.4807
  181MPD1    C1 2807   1.046   3.925   9.258  0.0813 -0.1930  0.3357
  181MPD1    C2 2808   1.112   3.997   9.362  0.1670 -0.1530 -0.4134
  181MPD1    C3 2809   1.246   4.013   9.362  0.1660 -0.3190 -0.2849
  181MPD1    C4 2810   1.319   3.921   9.284  0.1297  0.3814 -0.1840
  181MPD1    C5 2811   1.257   3.835   9.193  0.5748 -0.2874  0.1651
  181MPD1     H 2812   1.046   4.051   9.429 -0.2941 -1.0934 -0.1017
  181MPD1    H1 2813   1.427   3.926   9.292  0.0047 -0.5067  2.0404
  181MPD1    H2 2814   1.075   3.792   9.101 -3.4246  0.9503  1.4150
  181MPD1    H3 2815   1.316   3.766   9.134  0.1427  0.7752 -1.5076
  181MPD1     N 2816   1.315   4.093   9.449 -0.1585  0.3609 -0.3196
  181MPD1    H5 2817   1.416   4.088   9.442 -0.2315  0.6175 -1.6126
  181MPD1    N1 2818   0.905   3.909   9.256  0.4415 -0.2999  0.4070
  181MPD1    H6 2819   0.851   3.989   9.290  0.5541  0.9846 -2.5038
  181MPD1    H7 2820   0.877   3.889   9.161  0.4102 -1.0000  0.5598
  182MPD1     C 2821   1.581   3.279   0.760 -0.4010 -0.2310 -0.0845
  182MPD1    C1 2822   1.639   3.200   0.855  1.1600 -0.2709 -0.5802
  182MPD1    C2 2823   1.781   3.183   0.856 -0.2760 -0.7431  0.1649
  182MPD1    C3 2824   1.861   3.270   0.785  0.5320 -0.0961 -1.0151
  182MPD1    C4 2825   1.799   3.370   0.706  0.6074  0.3611  0.1711
  182MPD1    C5 2826   1.661   3.367   0.692  0.1813  0.0567  0.1901
  182MPD1     H 2827   1.813   3.109   0.929  0.8452  1.7555  2.2191
  182MPD1    H1 2828   1.857   3.445   0.654 -2.3610  0.3436 -3.1644
  182MPD1    H2 2829   1.475   3.286   0.736 -0.0822 -0.3584 -1.4968
  182MPD1    H3 2830   1.618   3.439   0.624 -0.8044  0.3872  1.1660
  182MPD1     N 2831   2.002   3.269   0.796 -0.2934  0.6608  0.1298
  182MPD1    H5 2832   2.057   3.333   0.740 -0.6136 -0.7734 -1.8083
  182MPD1    N1 2833   1.553   3.112   0.928 -0.5146  0.2277  0.5509
  182MPD1    H6 2834   1.457   3.145   0.936 -0.1640  1.1013  1.1953
  182MPD1    H7 2835   1.583   3.119   1.025 -1.2971 -1.7219  0.9331
  183MPD1     C 2836   2.954   4.210  10.650  0.6731 -0.1374  0.0567
  183MPD1    C1 2837   2.818   4.232  10.635  0.0823 -0.0073  0.4016
  183MPD1    C2 2838   2.761   4.179  10.521 -0.3634  0.0406 -0.4258
  183MPD1    C3 2839   2.832   4.106  10.427  0.1491 -0.6150 -0.1006
  183MPD1    C4 2840   2.965   4.091  10.439 -0.1925  0.0921  0.4780
  183MPD1    C5 2841   3.029   4.143  10.553  0.0756 -0.2735 -0.2649
  183MPD1     H 2842   2.656   4.180  10.493 -0.4185 -0.1818 -0.2363
  183MPD1    H1 2843   3.033   4.038  10.373 -0.9137  1.8890 -1.6961
  183MPD1    H2 2844   3.006   4.240  10.741  0.0950 -0.1869  0.4002
  183MPD1    H3 2845   3.136   4.133  10.565  0.1183 -2.1426 -2.2415
  183MPD1     N 2846   2.766   4.037  10.324 -0.6255  0.2120  0.6105
  183MPD1    H5 2847   2.666   4.042  10.308 -0.6979  0.6485  1.1952
  183MPD1    N1 2848   2.732   4.286  10.737  0.7279 -0.1996 -0.6090
  183MPD1    H6 2849   2.664   4.358  10.715 -1.0569 -1.6162  0.2430
  183MPD1    H7 2850   2.789   4.320  10.815  0.3924 -0.6643 -0.1621
  184MPD1     C 2851   1.424   1.574  10.565  0.2372  0.7334 -0.2478
  184MPD1    C1 2852   1.435   1.431  10.548 -0.2525  0.8014  0.3565
  184MPD1    C2 2853   1.516   1.383  10.444  0.0911 -0.2685  0.2813
  184MPD1    C3 2854   1.575   1.467  10.353  0.2419 -0.1264 -0.1911
  184MPD1    C4 2855   1.566   1.606  10.375  0.6503 -0.3941  0.0597
  184MPD1    C5 2856   1.500   1.662  10.480 -0.6751  0.5221  0.5697
  184MPD1     H 2857   1.521   1.275  10.445  2.2411 -0.1574  1.2480
  184MPD1    H1 2858   1.625   1.669  10.309  1.4981 -1.6989 -0.4302
  184MPD1    H2 2859   1.365   1.612  10.648 -3.4097 -0.5389 -2.2370
  184MPD1    H3 2860   1.507   1.770  10.490 -0.7182  0.3806  2.0857
  184MPD1     N 2861   1.640   1.424  10.238 -0.0790 -0.2118  0.4624
  184MPD1    H5 2862   1.663   1.501  10.176 -0.9271 -0.9144 -0.7141
  184MPD1    N1 2863   1.379   1.350  10.643  0.1104  0.0315 -0.6211
  184MPD1    H6 2864   1.280   1.371  10.651 -0.2351 -1.9512  0.3019
  184MPD1    H7 2865   1.380   1.252  10.617 -1.2913 -0.0233 -0.4333
  185MPD1     C 2866   1.393   1.013   9.294 -0.2364 -0.2288 -0.4321
  185MPD1    C1 2867   1.316   1.046   9.402 -0.2835  0.3852 -0.4717
  185MPD1    C2 2868   1.367   1.127   9.502  0.6439 -0.2888  0.5066
  185MPD1    C3 2869   1.504   1.164   9.494  0.8111 -0.8986 -0.1070
  185MPD1    C4 2870   1.579   1.138   9.380 -0.2066  0.3272  0.2493
  185MPD1    C5 2871   1.523   1.057   9.281  0.2454  0.0046 -0.3690
  185MPD1     H 2872   1.297   1.149   9.582 -0.0092  0.0096 -0.1544
  185MPD1    H1 2873   1.684   1.165   9.377 -0.4264  1.3031  1.3810
  185MPD1    H2 2874   1.358   0.944   9.218 -0.8911  0.2953 -0.6074
  185MPD1    H3 2875   1.573   1.029   9.189 -1.5915  1.9719 -1.9923
  185MPD1     N 2876   1.566   1.237   9.599 -0.9556  0.3780 -0.5043
  185MPD1    H5 2877   1.659   1.269   9.574 -0.7340 -1.3547 -1.8552
  185MPD1    N1 2878   1.191   0.993   9.418 -0.4558 -0.2207  0.1218
  185MPD1    H6 2879   1.140   1.060   9.475 -2.5022 -0.8566 -0.9422
  185MPD1    H7 2880   1.141   0.975   9.331 -1.4329  0.8081  0.4729
  186MPD1     C 2881   0.206   1.485  15.611 -0.1953  0.7019 -0.6481
  186MPD1    C1 2882   0.131   1.503  15.725  0.3369 -0.5395 -0.1142
  186MPD1    C2 2883   0.189   1.460  15.841 -0.0151 -1.0997  0.5890
  186MPD1    C3 2884   0.320   1.407  15.844  0.1818  0.0657  0.0516
  186MPD1    C4 2885   0.390   1.395  15.726 -0.5693  0.5876 -0.5186
  186MPD1    C5 2886   0.330   1.425  15.614  0.0945  0.1179 -0.8175
  186MPD1     H 2887   0.133   1.466  15.934  0.4506  0.8166  0.7413
  186MPD1    H1 2888   0.487   1.346  15.730 -0.2420  1.3964  1.8444
  186MPD1    H2 2889   0.163   1.497  15.512 -1.0687  1.3636 -0.1891
  186MPD1    H3 2890   0.370   1.408  15.515  1.2847 -0.2110 -0.2858
  186MPD1     N 2891   0.387   1.365  15.962 -0.3431  1.0123 -0.7359
  186MPD1    H5 2892   0.487   1.364  15.950 -0.0793  0.4314  1.5457
  186MPD1    N1 2893   4.735   1.553  15.720  0.5450 -0.0470  0.1027
  186MPD1    H6 2894   4.681   1.479  15.766  1.0374 -0.0008  0.7550
  186MPD1    H7 2895   4.715   1.566  15.621 -1.7861  0.4236  0.6225
  187MPD1     C 2896   4.657   3.270  17.717 -0.2260  0.1350 -0.6540
  187MPD1    C1 2897   4.520   3.270  17.692 -0.4849 -0.1966 -0.1796
  187MPD1    C2 2898   4.469   3.214  17.576 -0.6004 -0.1487  0.2187
  187MPD1    C3 2899   4.557   3.142  17.498 -0.7484 -0.0124 -0.2973
  187MPD1    C4 2900   4.690   3.133  17.530  0.1615  0.3643 -0.6347
  187MPD1    C5 2901   0.002   3.198  17.637  0.4562  0.5185 -0.2517
  187MPD1     H 2902   4.361   3.210  17.566 -0.7614  1.0999  1.4321
  187MPD1    H1 2903   0.021   3.069  17.475 -1.9551 -2.8525  0.5088
  187MPD1    H2 2904   4.695   3.342   0.039 -0.9558  0.1777 -0.3035
  187MPD1    H3 2905   0.109   3.199  17.657  0.4128  3.6310 -0.2367
  187MPD1     N 2906   4.523   3.069  17.390 -0.2782 -0.3437 -0.0388
  187MPD1    H5 2907   4.591   3.014  17.337  1.0957  1.2100  0.1204
  187MPD1    N1 2908   4.437   3.352   0.019 -0.0891  0.3808  0.0209
  187MPD1    H6 2909   4.338   3.330   0.007  0.6041 -1.9890 -1.3218
  187MPD1    H7 2910   4.464   3.356   0.117  1.8435  0.7617 -0.5332
  188MPD1     C 2911   4.341   2.808  10.693  0.0706  0.2312 -0.4041
  188MPD1    C1 2912   4.379   2.681  10.731 -0.3362 -0.0372  0.0329
  188MPD1    C2 2913   4.356   2.580  10.640  0.6031  0.2256 -0.0975
  188MPD1    C3 2914   4.297   2.608  10.519  0.8097 -0.7622 -0.2833
  188MPD1    C4 2915   4.280   2.739  10.475 -0.5439 -0.1856  0.2301
  188MPD1    C5 2916   4.285   2.833  10.574  0.1156 -0.0414  0.2252
  188MPD1     H 2917   4.385   2.478  10.660  2.5571 -0.0847 -4.6304
  188MPD1    H1 2918   4.233   2.765  10.382 -0.2798 -0.1347  0.1122
  188MPD1    H2 2919   4.371   2.893  10.753 -0.0539  0.8852 -1.2735
  188MPD1    H3 2920   4.254   2.934  10.548 -3.5738 -1.4041 -0.6268
  188MPD1     N 2921   4.279   2.506  10.420  0.4462 -0.5391  0.2583
  188MPD1    H5 2922   4.272   2.536  10.323  0.1638 -0.0513  0.4302
  188MPD1    N1 2923   4.426   2.655  10.863  0.0231  0.2254 -0.2169
  188MPD1    H6 2924   4.502   2.589  10.870  0.2044  0.9087  4.0389
  188MPD1    H7 2925   4.454   2.740  10.911 -0.3555  1.0177 -1.3805
  189MPD1     C 2926   1.848   3.760   0.242 -0.3190  0.8709 -0.2248
  189MPD1    C1 2927   1.748   3.847   0.280 -0.0537 -0.9592 -0.2474
  189MPD1    C2 2928   1.629   3.845   0.211  0.0621  0.2536 -0.4634
  189MPD1    C3 2929   1.602   3.756   0.105 -1.2661  1.4047  0.4470
  189MPD1    C4 2930   1.696   3.662   0.089  0.3707  0.9018 -0.5699
  189MPD1    C5 2931   1.820   3.671   0.148 -0.0878 -0.7431 -0.0325
  189MPD1     H 2932   1.560   3.928   0.221 -1.2892 -0.6355 -2.1129
  189MPD1    H1 2933   1.681   3.582   0.017  1.3214 -0.3682  0.6466
  189MPD1    H2 2934   1.953   3.768   0.267 -0.4192 -0.6794  0.6576
  189MPD1    H3 2935   1.898   3.600   0.123  0.1904  0.4424 -2.5235
  189MPD1     N 2936   1.484   3.744   0.029 -0.8929  0.6479  0.3156
  189MPD1    H5 2937   1.461   3.659  17.728  1.6245  1.0491 -1.5302
  189MPD1    N1 2938   1.777   3.957   0.356 -0.2235 -0.1420  0.1517
  189MPD1    H6 2939   1.846   3.931   0.426  1.5445  0.2789 -1.4162
  189MPD1    H7 2940   1.695   3.996   0.402  1.0259  0.0051  2.2389
  190MPD1     C 2941   0.242   2.056  15.250  0.0313  0.2788 -0.3769
  190MPD1    C1 2942   0.363   1.997  15.256  0.1752 -0.3334 -0.1524
  190MPD1    C2 2943   0.466   2.065  15.319 -0.1275 -0.2011  0.0448
  190MPD1    C3 2944   0.446   2.183  15.386 -0.0088 -0.0159  0.2232
  190MPD1    C4 2945   0.323   2.245  15.379 -0.7085  0.1477  0.4256
  190MPD1    C5 2946   0.225   2.180  15.309  0.5075  0.3601 -0.1490
  190MPD1     H 2947   0.561   2.016  15.338  1.2633  2.9190  1.2471
  190MPD1    H1 2948   0.305   2.335  15.438 -1.2733  1.3632 -1.5975
  190MPD1    H2 2949   0.157   2.003  15.207  1.5434 -1.9391 -0.6160
  190MPD1    H3 2950   0.127   2.226  15.305  1.3331  2.0041 -1.4200
  190MPD1     N 2951   0.547   2.230  15.473  0.4383 -0.2868 -0.3692
  190MPD1    H5 2952   0.626   2.168  15.486 -0.7435 -1.5628  0.7686
  190MPD1    N1 2953   0.372   1.861  15.222  0.0459 -0.1119 -0.5245
  190MPD1    H6 2954   0.465   1.822  15.212  1.1060  2.7594 -1.7528
  190MPD1    H7 2955   0.317   1.839  15.139 -0.6999  0.0964 -0.0862
  191MPD1     C 2956   3.588   3.206  12.669  0.2552 -0.4952  0.2982
  191MPD1    C1 2957   3.503   3.316  12.664  1.2067 -0.6278 -0.6861
  191MPD1    C2 2958   3.549   3.435  12.607 -0.3315 -0.0249 -0.3435
  191MPD1    C3 2959   3.683   3.444  12.567  0.0987  0.6856 -0.2599
  191MPD1    C4 2960   3.763   3.335  12.574  0.8762  0.2930 -0.1072
  191MPD1    C5 2961   3.715   3.213  12.612  0.8382  0.6599  0.3181
  191MPD1     H 2962   3.474   3.512  12.594 -2.0145 -1.5171  0.5991
  191MPD1    H1 2963   3.865   3.333  12.538  1.3769  2.2240  1.2445
  191MPD1    H2 2964   3.568   3.106  12.706 -2.4767  0.5150  1.5408
  191MPD1    H3 2965   3.788   3.133  12.624 -1.2744 -1.5928 -1.9801
  191MPD1     N 2966   3.729   3.570  12.512  0.2931 -0.3840 -0.7331
  191MPD1    H5 2967   3.658   3.640  12.494 -0.8310 -0.8081  2.0277
  191MPD1    N1 2968   3.369   3.311  12.701 -0.4952 -0.5562  0.1007
  191MPD1    H6 2969   3.355   3.237  12.770 -0.9076 -0.4676  0.1089
  191MPD1    H7 2970   3.339   3.401  12.740  0.4958 -0.2648  0.1868
  192MPD1     C 2971   3.489   4.173  11.761 -0.4894  0.4015 -0.2723
  192MPD1    C1 2972   3.424   4.100  11.853  0.0309  0.6726  0.1006
  192MPD1    C2 2973   3.490   4.035  11.952  0.0619  0.0523  0.7183
  192MPD1    C3 2974   3.624   4.076  11.971 -0.0013 -0.4847 -0.7829
  192MPD1    C4 2975   3.681   4.171  11.896  0.1448  0.0107 -0.2883
  192MPD1    C5 2976   3.622   4.210  11.777 -0.7324 -0.5824  0.4943
  192MPD1     H 2977   3.434   3.968  12.017  0.5922  0.5858  1.7349
  192MPD1    H1 2978   3.786   4.195  11.912 -0.6807  2.4961  1.4813
  192MPD1    H2 2979   3.438   4.222  11.678  0.0471 -0.4644 -1.1094
  192MPD1    H3 2980   3.679   4.266  11.704 -0.4136 -2.2883 -0.5464
  192MPD1     N 2981   3.701   4.029  12.077  0.3513  0.1191 -0.5037
  192MPD1    H5 2982   3.786   4.078  12.100 -0.0646  1.9371 -2.8563
  192MPD1    N1 2983   3.287   4.071  11.832 -0.0056  0.8518  0.3904
  192MPD1    H6 2984   3.249   4.132  11.760  0.3600 -0.8278 -1.2170
  192MPD1    H7 2985   3.230   4.072  11.916  0.8749 -0.3971  1.0060
  193MPD1     C 2986   3.412   4.270  16.332  0.0573  0.5512  0.6587
  193MPD1    C1 2987   3.382   4.288  16.466 -0.3715 -0.1260  0.1104
  193MPD1    C2 2988   3.482   4.330  16.547  0.5807  0.1991  0.2983
  193MPD1    C3 2989   3.611   4.368  16.503  0.1260 -0.5728  0.0356
  193MPD1    C4 2990   3.636   4.360  16.368  0.0095 -0.4774 -0.3171
  193MPD1    C5 2991   3.540   4.302  16.285  0.0672 -0.3646 -0.4028
  193MPD1     H 2992   3.467   4.336  16.654  0.5703  0.7461  0.2677
  193MPD1    H1 2993   3.737   4.379  16.333  0.6563 -0.8378  1.3437
  193MPD1    H2 2994   3.339   4.242  16.256  0.0270  0.4855  0.7123
  193MPD1    H3 2995   3.568   4.287  16.181 -0.6138  2.0548 -0.9539
  193MPD1     N 2996   3.718   4.413  16.585 -0.0258 -0.5947 -0.5138
  193MPD1    H5 2997   3.803   4.441  16.538 -1.5067  2.4188 -1.3922
  193MPD1    N1 2998   3.274   4.219  16.521 -0.5720  0.1086  0.4246
  193MPD1    H6 2999   3.195   4.215  16.457  2.5329  1.9546 -3.5170
  193MPD1    H7 3000   3.251   4.247  16.616 -1.1899 -1.3368  0.7040
  194MPD1     C 3001   1.293   1.873  17.078  0.2169  0.4225  0.0007
  194MPD1    C1 3002   1.231   1.780  17.159  0.0572 -0.0250 -0.0135
  194MPD1    C2 3003   1.284   1.658  17.161  0.1390  0.1616  0.0451
  194MPD1    C3 3004   1.396   1.620  17.085 -0.7309  0.2739  0.2082
  194MPD1    C4 3005   1.452   1.715  17.001 -0.0517 -0.0543  0.1005
  194MPD1    C5 3006   1.395   1.835  16.995  0.5406 -0.3398 -0.2027
  194MPD1     H 3007   1.238   1.595  17.236  1.7628 -0.2380  0.7030
  194MPD1    H1 3008   1.522   1.688  16.922  0.8605  0.3747  0.7645
  194MPD1    H2 3009   1.250   1.972  17.071 -0.2602  0.2896  0.9127
  194MPD1    H3 3010   1.417   1.914  16.925  1.2593  0.2589  0.6948
  194MPD1     N 3011   1.459   1.495  17.078  0.0159  0.3137  0.0252
  194MPD1    H5 3012   1.540   1.476  17.020 -0.7573 -2.3278 -0.1969
  194MPD1    N1 3013   1.112   1.809  17.232 -0.5742 -0.1026  0.5638
  194MPD1    H6 3014   1.113   1.908  17.257 -3.2108 -0.3040  1.5182
  194MPD1    H7 3015   1.111   1.768  17.326  1.1579 -2.0086 -0.2447
  195MPD1     C 3016   3.569   3.801   0.650 -0.0931 -0.3175 -0.9791
  195MPD1    C1 3017   3.671   3.734   0.722  0.4993  0.3138 -0.8848
  195MPD1    C2 3018   3.712   3.607   0.680 -0.2587  0.1417 -0.0493
  195MPD1    C3 3019   3.636   3.536   0.590  0.4788  0.2073  0.2733
  195MPD1    C4 3020   3.536   3.596   0.525 -0.1876 -0.4788 -0.0773
  195MPD1    C5 3021   3.512   3.731   0.551 -0.0798  0.2689 -0.7581
  195MPD1     H 3022   3.807   3.571   0.719  0.0547 -1.2969 -2.1179
  195MPD1    H1 3023   3.470   3.553   0.451  0.6030 -1.7567 -0.0305
  195MPD1    H2 3024   3.553   3.907   0.669 -2.8733 -1.2604  1.9881
  195MPD1    H3 3025   3.431   3.779   0.497  0.1090  2.4704  0.9482
  195MPD1     N 3026   3.665   3.401   0.557  0.2429  0.3705 -0.0650
  195MPD1    H5 3027   3.611   3.359   0.482 -2.8827 -1.4091  3.2186
  195MPD1    N1 3028   3.763   3.808   0.798 -0.0530 -1.3061 -0.0468
  195MPD1    H6 3029   3.803   3.753   0.874 -1.9699 -1.8688  0.5441
  195MPD1    H7 3030   3.719   3.887   0.843  3.0264  1.1647 -1.3389
  196MPD1     C 3031   2.851   2.268   0.030  0.3451  0.5129 -0.6388
  196MPD1    C1 3032   2.922   2.389   0.003  0.0077  0.1499  0.0949
  196MPD1    C2 3033   3.015   2.425   0.099  0.0128 -0.2970  0.0084
  196MPD1    C3 3034   3.020   2.361   0.222 -0.2742 -0.6114  0.5632
  196MPD1    C4 3035   2.951   2.252   0.246  0.6767  0.5531  0.6103
  196MPD1    C5 3036   2.861   2.207   0.152 -0.0856  0.8197  0.3298
  196MPD1     H 3037   3.069   2.517   0.077 -0.4789 -0.0365 -0.1152
  196MPD1    H1 3038   2.958   2.194   0.337  2.3793  0.0543  0.1638
  196MPD1    H2 3039   2.777   2.238  17.707 -0.7259  1.0268  0.2456
  196MPD1    H3 3040   2.807   2.115   0.172 -0.8184  0.8653 -1.4053
  196MPD1     N 3041   3.099   2.406   0.332  0.2332  0.5206 -0.8990
  196MPD1    H5 3042   3.074   2.366   0.422 -1.0906  0.9763 -1.0620
  196MPD1    N1 3043   2.924   2.447  17.628 -0.4062  0.1664  0.3031
  196MPD1    H6 3044   2.843   2.442  17.566 -0.6296 -1.8661  0.7592
  196MPD1    H7 3045   2.960   2.542  17.630  1.6573 -0.6166 -0.4417
  197MPD1     C 3046   2.476   4.492  17.616  0.1795  0.1391  0.6445
  197MPD1    C1 3047   2.526   4.611  17.661 -0.1459 -0.5136  0.1343
  197MPD1    C2 3048   2.588   4.696  17.571  0.6796  0.6505 -0.4305
  197MPD1    C3 3049   2.609   4.658  17.436  0.1557  0.3557  0.4180
  197MPD1    C4 3050   2.556   4.540  17.393 -1.2746 -0.0220 -0.0037
  197MPD1    C5 3051   2.498   4.458  17.484 -0.8298  0.7416  0.2323
  197MPD1     H 3052   2.623   0.058  17.597  0.2874  0.6487  0.1058
  197MPD1    H1 3053   2.573   4.504  17.292 -0.6124  0.5467 -0.0941
  197MPD1    H2 3054   2.428   4.417  17.677  0.5667 -0.2981  0.4143
  197MPD1    H3 3055   2.462   4.357  17.465  2.5950  0.1007 -2.9498
  197MPD1     N 3056   2.652   0.010  17.336 -0.4244  0.0144  0.1540
  197MPD1    H5 3057   2.621   4.715  17.245 -2.2322  1.4618  0.2398
  197MPD1    N1 3058   2.505   4.649   0.045 -0.3709 -0.3119 -0.6789
  197MPD1    H6 3059   2.574   4.710   0.088 -0.2494 -1.2864  0.5112
  197MPD1    H7 3060   2.487   4.570   0.106 -1.7221 -1.3195 -2.3628
  198MPD1     C 3061   4.717   2.929  14.869  0.0945  0.6253 -0.0717
  198MPD1    C1 3062   0.061   2.949  14.972  1.3187 -0.5905 -0.2229
  198MPD1    C2 3063   0.016   3.012  15.084 -0.0052 -0.6637 -0.1107
  198MPD1    C3 3064   4.628   3.027  15.110  0.0581  0.2680 -0.3973
  198MPD1    C4 3065   4.543   2.987  15.010  0.4849 -0.0197  0.2782
  198MPD1    C5 3066   4.589   2.946  14.892 -0.1449  0.5050 -0.3347
  198MPD1     H 3067   0.088   3.057  15.151 -1.1436 -0.1704  0.7724
  198MPD1    H1 3068   4.435   2.989  15.026  0.4453 -1.0501  0.1271
  198MPD1    H2 3069   0.011   2.893  14.772 -0.2828  0.3056 -0.0777
  198MPD1    H3 3070   4.528   2.924  14.804  1.9533  0.6977 -1.8384
  198MPD1     N 3071   4.593   3.110  15.219 -0.0388 -0.0507 -0.0283
  198MPD1    H5 3072   4.670   3.127  15.282 -0.1873  0.0598  0.1242
  198MPD1    N1 3073   0.201   2.944  14.951 -0.4633  0.5960 -0.6013
  198MPD1    H6 3074   0.258   2.923  15.032 -0.0838  0.9482 -0.7744
  198MPD1    H7 3075   0.229   2.873  14.884 -3.0425 -3.1538  2.3111
  199MPD1     C 3076   1.485   4.050   8.904 -0.5301 -0.2616 -1.0387
  199MPD1    C1 3077   1.557   4.127   8.999 -0.0003  0.5247 -0.4108
  199MPD1    C2 3078   1.473   4.196   9.084  0.1035 -0.2299 -0.3829
  199MPD1    C3 3079   1.333   4.209   9.076 -0.4526  0.6107  0.8697
  199MPD1    C4 3080   1.269   4.133   8.977 -0.2284 -0.4232 -0.3979
  199MPD1    C5 3081   1.347   4.054   8.893  0.0729 -0.5207  0.0497
  199MPD1     H 3082   1.530   4.241   9.165 -0.9092  2.3648 -1.1284
  199MPD1    H1 3083   1.161   4.127   8.970 -0.1271 -1.1564 -1.3610
  199MPD1    H2 3084   1.549   3.988   8.842  1.7465  2.2887 -1.2253
  199MPD1    H3 3085   1.304   3.995   8.813  2.3982 -3.8117  1.2170
  199MPD1     N 3086   1.256   4.291   9.163  0.1130 -0.2098 -0.4704
  199MPD1    H5 3087   1.155   4.294   9.150 -0.1307 -1.8889  0.9644
  199MPD1    N1 3088   1.691   4.093   9.021  0.1756  0.1633  0.5214
  199MPD1    H6 3089   1.730   4.072   8.929  0.2512  1.2189  0.3131
  199MPD1    H7 3090   1.746   4.172   9.053  1.2716 -0.8304  1.1027
  200MPD1     C 3091   0.614   4.263  14.876  0.3928 -0.1005  0.2849
  200MPD1    C1 3092   0.638   4.249  14.741 -0.6976  0.2707 -0.4211
  200MPD1    C2 3093   0.765   4.233  14.702  0.3449  0.7662  0.2630
  200MPD1    C3 3094   0.872   4.249  14.786  0.3500  0.8172 -0.0439
  200MPD1    C4 3095   0.849   4.285  14.917  0.3614  0.1886 -0.0492
  200MPD1    C5 3096   0.720   4.287  14.964  0.1107  0.0316  0.0879
  200MPD1     H 3097   0.784   4.206  14.599 -1.8615  0.6260 -0.0954
  200MPD1    H1 3098   0.931   4.312  14.984  3.1361 -0.8146 -3.0219
  200MPD1    H2 3099   0.515   4.258  14.920 -0.0441 -0.5290 -0.7496
  200MPD1    H3 3100   0.695   4.308  15.067 -3.4273 -2.9903 -0.1712
  200MPD1     N 3101   1.002   4.249  14.734  0.0665  0.0097 -0.1672
  200MPD1    H5 3102   1.012   4.201  14.646 -1.6394  0.5379 -0.6493
  200MPD1    N1 3103   0.531   4.210  14.656 -0.3405  0.6029  0.1671
  200MPD1    H6 3104   0.451   4.267  14.682  1.7342  3.1390  1.0087
  200MPD1    H7 3105   0.534   4.231  14.557  0.4093  0.4227  0.1497
  201MPD1     C 3106   3.127   2.987  13.400 -0.1418  0.3685 -0.2131
  201MPD1    C1 3107   3.215   3.076  13.455  0.0462  0.0540 -0.3834
  201MPD1    C2 3108   3.330   3.027  13.509 -0.2169 -0.2657 -0.0124
  201MPD1    C3 3109   3.346   2.891  13.530 -0.6226 -0.0921 -0.0185
  201MPD1    C4 3110   3.250   2.804  13.492  0.9748 -0.6649 -0.6029
  201MPD1    C5 3111   3.141   2.855  13.423 -0.7679  0.3162 -0.2824
  201MPD1     H 3112   3.400   3.101  13.547  1.4592 -0.8151 -2.0633
  201MPD1    H1 3113   3.249   2.699  13.519  0.5013 -0.4717  0.1392
  201MPD1    H2 3114   3.033   3.018  13.355 -0.4741 -0.2015  0.0814
  201MPD1    H3 3115   3.067   2.786  13.383 -0.0973 -0.1668 -0.6830
  201MPD1     N 3116   3.470   2.850  13.592  0.3633 -0.1854 -0.7712
  201MPD1    H5 3117   3.524   2.926  13.634  0.8983 -1.7332  1.3409
  201MPD1    N1 3118   3.195   3.210  13.428  0.2233 -0.2898 -0.0533
  201MPD1    H6 3119   3.099   3.239  13.408  0.3649  1.4556  1.7450
  201MPD1    H7 3120   3.244   3.275  13.489 -0.6656  0.7487 -0.4458
  202MPD1     C 3121   3.115   3.486  10.815 -0.4927  0.5040  0.7065
  202MPD1    C1 3122   3.222   3.392  10.823  0.3182  0.3105  0.6150
  202MPD1    C2 3123   3.246   3.323  10.699 -0.4130 -0.2726  0.1159
  202MPD1    C3 3124   3.134   3.297  10.616  0.3213  0.0426  0.2001
  202MPD1    C4 3125   3.015   3.372  10.631  0.0978  0.1557  0.6322
  202MPD1    C5 3126   3.010   3.476  10.726 -0.3475 -0.6855 -0.5004
  202MPD1     H 3127   3.339   3.268  10.692 -0.0924  0.2497  0.2755
  202MPD1    H1 3128   2.931   3.354  10.564  0.5715  1.7731 -0.3890
  202MPD1    H2 3129   3.102   3.559  10.894 -2.3070  0.2556  0.6300
  202MPD1    H3 3130   2.925   3.541  10.741 -0.1440 -1.2382  3.0957
  202MPD1     N 3131   3.144   3.226  10.494 -0.1422  0.1749 -0.1460
  202MPD1    H5 3132   3.060   3.226  10.437 -0.3838  0.2555  0.2097
  202MPD1    N1 3133   3.330   3.425  10.897  0.4988  0.2116  0.2450
  202MPD1    H6 3134   3.301   3.461  10.987  1.8989 -1.8491  1.5270
  202MPD1    H7 3135   3.371   3.335  10.921  1.0384  0.5120  0.4571
  203MPD1     C 3136   2.102   3.722  12.543  0.0631  0.6013 -0.0154
  203MPD1    C1 3137   2.095   3.619  12.457 -0.0005 -0.5928 -0.3142
  203MPD1    C2 3138   2.196   3.523  12.454 -0.2579  0.4220  0.0457
  203MPD1    C3 3139   2.315   3.542  12.522 -0.3212  0.4819  0.7600
  203MPD1    C4 3140   2.323   3.657  12.597 -0.1003  0.2889 -0.0577
  203MPD1    C5 3141   2.223   3.747  12.603  0.3855  0.1789 -0.0032
  203MPD1     H 3142   2.186   3.433  12.394  0.4455  0.0697  0.4522
  203MPD1    H1 3143   2.412   3.692  12.649  0.1755 -0.0821 -0.2804
  203MPD1    H2 3144   2.011   3.781  12.547 -0.2232  0.1999 -0.7563
  203MPD1    H3 3145   2.233   3.847  12.645  1.1882 -0.2462  0.7948
  203MPD1     N 3146   2.409   3.438  12.519  0.3464  0.2222 -0.1259
  203MPD1    H5 3147   2.382   3.352  12.474  2.3701  0.2897 -1.4348
  203MPD1    N1 3148   1.969   3.585  12.406 -0.3741 -0.2568 -0.0513
  203MPD1    H6 3149   1.971   3.514  12.333  2.7108 -0.0266 -0.1554
  203MPD1    H7 3150   1.910   3.544  12.479  0.1154 -1.3672 -0.2770
  204MPD1     C 3151   1.781   0.608  17.528  0.6868  0.0450  0.0148
  204MPD1    C1 3152   1.700   0.607  17.420  0.3455  0.0980  0.1425
  204MPD1    C2 3153   1.670   0.487  17.354  0.2798  0.1652  0.5891
  204MPD1    C3 3154   1.712   0.364  17.414  0.1430  0.5750 -0.3164
  204MPD1    C4 3155   1.780   0.372  17.535 -0.0977  0.2546  0.0526
  204MPD1    C5 3156   1.821   0.488  17.583 -0.5173  0.0606 -0.1313
  204MPD1     H 3157   1.604   0.473  17.269  1.3464 -1.3798  0.0106
  204MPD1    H1 3158   1.829   0.284  17.574  2.7654  2.4997  1.5463
  204MPD1    H2 3159   1.821   0.698  17.573 -1.7486  0.7528  0.7662
  204MPD1    H3 3160   1.883   0.479  17.672  1.3364  0.3256 -1.4103
  204MPD1     N 3161   1.689   0.243  17.349 -0.0984 -0.9000  0.2219
  204MPD1    H5 3162   1.636   0.247  17.262  0.0699  1.1957  0.2305
  204MPD1    N1 3163   1.678   0.735  17.350  0.6186  1.1279  0.2428
  204MPD1    H6 3164   1.599   0.737  17.287  2.9312 -0.9500 -2.7504
  204MPD1    H7 3165   1.668   0.813  17.415  1.4449 -0.7190  2.6123
  205MPD1     C 3166   0.932   3.556  16.824 -0.1889  1.2048  0.2829
  205MPD1    C1 3167   1.024   3.456  16.826 -0.1844 -0.2252  0.1581
  205MPD1    C2 3168   1.146   3.466  16.889 -0.4372  0.4533  0.8172
  205MPD1    C3 3169   1.186   3.588  16.938 -0.8284  0.1067  0.0849
  205MPD1    C4 3170   1.096   3.699  16.929 -0.2949  0.3077 -0.6717
  205MPD1    C5 3171   0.974   3.679  16.873  0.1058  0.3984  0.3509
  205MPD1     H 3172   1.218   3.385  16.893  0.9360  1.6258 -0.2769
  205MPD1    H1 3173   1.117   3.803  16.951 -0.9756  0.8831 -2.7481
  205MPD1    H2 3174   0.830   3.549  16.788 -0.5550 -0.4158  1.6365
  205MPD1    H3 3175   0.907   3.764  16.884  0.3672  0.9214 -2.1029
  205MPD1     N 3176   1.311   3.608  17.001  0.1473 -0.0571 -0.0636
  205MPD1    H5 3177   1.322   3.701  17.039  1.2904 -0.0419 -0.4198
  205MPD1    N1 3178   0.993   3.329  16.779  0.1981  0.3152 -0.3733
  205MPD1    H6 3179   1.075   3.273  16.758  0.4513  0.2460  0.8151
  205MPD1    H7 3180   0.932   3.338  16.698  0.2701 -1.1944 -0.6002
  206MPD1     C 3181   1.750   1.443  16.632  0.1497 -0.1072 -0.0529
  206MPD1    C1 3182   1.661   1.522  16.571  0.2375  0.4360  0.1135
  206MPD1    C2 3183   1.675   1.538  16.431  0.5313 -0.1985  0.4565
  206MPD1    C3 3184   1.762   1.462  16.356 -0.0579  1.1717 -0.0170
  206MPD1    C4 3185   1.841   1.369  16.422  0.4388  1.0824  0.5427
  206MPD1    C5 3186   1.833   1.361  16.561 -0.4985  0.2445  0.1827
  206MPD1     H 3187   1.609   1.603  16.375 -0.4697 -0.5171  1.2673
  206MPD1    H1 3188   1.926   1.316  16.379 -1.6601 -0.3396 -1.8362
  206MPD1    H2 3189   1.760   1.436  16.740 -0.3161 -2.3756 -0.1614
  206MPD1    H3 3190   1.901   1.297  16.616  0.1709 -2.0967 -3.3721
  206MPD1     N 3191   1.792   1.487  16.220 -0.1532 -0.2805 -0.0026
  206MPD1    H5 3192   1.860   1.427  16.174 -0.1940 -0.6974  0.4866
  206MPD1    N1 3193   1.600   1.621  16.645 -0.3556 -0.0146 -0.0578
  206MPD1    H6 3194   1.518   1.651  16.592  0.3754 -0.3360 -1.3703
  206MPD1    H7 3195   1.660   1.701  16.657  3.1494 -2.5069 -0.9508
  207MPD1     C 3196   3.519   4.064  10.847  0.2982 -0.1504  0.6702
  207MPD1    C1 3197   3.496   4.106  10.723 -0.0965  0.0528  0.4375
  207MPD1    C2 3198   3.607   4.144  10.648  0.2188  0.3100 -0.3111
  207MPD1    C3 3199   3.737   4.144  10.700  0.0712  0.4714  0.4476
  207MPD1    C4 3200   3.755   4.106  10.835 -0.2377  0.0453  0.1258
  207MPD1    C5 3201   3.644   4.052  10.905 -0.0934 -1.0615  0.0341
  207MPD1     H 3202   3.582   4.181  10.549 -1.1195 -0.0553 -0.1071
  207MPD1    H1 3203   3.851   4.105  10.885  0.0629  0.5518 -0.4420
  207MPD1    H2 3204   3.436   4.030  10.908 -1.6369 -0.7038 -2.2748
  207MPD1    H3 3205   3.658   4.021  11.008  1.6673 -2.0273 -0.4953
  207MPD1     N 3206   3.857   4.184  10.636 -0.4421  0.4868  0.5315
  207MPD1    H5 3207   3.945   4.184  10.687 -0.6196  1.1954  0.8481
  207MPD1    N1 3208   3.371   4.082  10.667  0.1931  0.5074  0.3179
  207MPD1    H6 3209   3.354   4.150  10.593  0.0264 -0.5854 -0.6558
  207MPD1    H7 3210   3.299   4.096  10.737 -2.0021 -1.0611 -1.5987
  208MPD1     C 3211   2.862   3.549  17.723  0.3173  0.4030  0.0411
  208MPD1    C1 3212   2.870   3.457   0.078 -0.1579  0.3012 -0.0013
  208MPD1    C2 3213   2.781   3.354   0.073  0.2201  0.1645 -0.0027
  208MPD1    C3 3214   2.692   3.345  17.719  0.2142 -0.5734  0.2097
  208MPD1    C4 3215   2.686   3.435  17.618 -0.4580 -0.1926  0.4669
  208MPD1    C5 3216   2.773   3.535  17.618 -0.5978 -0.1076 -0.2763
  208MPD1     H 3217   2.775   3.286   0.158 -0.7383  0.0922 -0.1310
  208MPD1    H1 3218   2.620   3.440  17.532 -0.5147  1.2126  0.5941
  208MPD1    H2 3219   2.934   3.631  17.721 -0.0583  0.6634 -2.1209
  208MPD1    H3 3220   2.768   3.602  17.533 -0.7687  0.7278  0.3955
  208MPD1     N 3221   2.626   3.222  17.714 -0.0062  0.5917 -0.0801
  208MPD1    H5 3222   2.661   3.155   0.032  0.3986  1.7954  0.8889
  208MPD1    N1 3223   2.970   3.464   0.183 -0.2712  0.9144 -0.0799
  208MPD1    H6 3224   2.973   3.557   0.224 -0.3083  0.3485  1.2312
  208MPD1    H7 3225   2.934   3.406   0.259  1.8683  1.0131  0.9938
  209MPD1     C 3226   4.264   4.015  11.645 -0.3187  0.2632 -0.2432
  209MPD1    C1 3227   4.236   3.976  11.517  0.1502  0.0209 -0.2959
  209MPD1    C2 3228   4.339   3.943  11.433 -0.5809  0.5320  0.6262
  209MPD1    C3 3229   4.476   3.949  11.474 -0.2765 -0.1998  0.1335
  209MPD1    C4 3230   4.502   3.985  11.607 -0.1064 -0.0469  0.6694
  209MPD1    C5 3231   4.396   4.024  11.691 -0.5671 -0.6878  0.0872
  209MPD1     H 3232   4.311   3.912  11.333 -1.1637 -1.0040  1.2663
  209MPD1    H1 3233   4.606   3.992  11.637  1.0046 -1.1983 -2.9540
  209MPD1    H2 3234   4.186   4.042  11.716  0.4976  1.8354  0.0593
  209MPD1    H3 3235   4.415   4.050  11.794  0.5826  0.8122 -0.5147
  209MPD1     N 3236   4.579   3.943  11.372 -0.3618 -0.6215  0.1541
  209MPD1    H5 3237   4.552   3.922  11.276  2.7895 -1.2283 -0.5976
  209MPD1    N1 3238   4.105   3.938  11.488 -0.6852  0.5623 -0.4834
  209MPD1    H6 3239   4.089   3.935  11.388  0.7730  0.6804 -0.7131
  209MPD1    H7 3240   4.036   4.002  11.527  0.3889  0.7903  1.0416
  210MPD1     C 3241   0.783   4.302  11.446 -0.0707  0.3097 -0.4824
  210MPD1    C1 3242   0.718   4.364  11.340 -0.3563  0.4445 -0.3425
  210MPD1    C2 3243   0.597   4.307  11.296 -0.3834  0.3150 -1.2400
  210MPD1    C3 3244   0.546   4.191  11.361  0.5052 -0.2051 -0.6441
  210MPD1    C4 3245   0.620   4.130  11.460 -0.3194 -0.1443 -0.3123
  210MPD1    C5 3246   0.735   4.188  11.505  0.0257  0.2720  0.1023
  210MPD1     H 3247   0.554   4.341  11.202 -0.6231 -0.7534 -1.5196
  210MPD1    H1 3248   0.589   4.033  11.498 -0.7004  0.1225  0.0648
  210MPD1    H2 3249   0.876   4.334  11.491  0.2922  1.2187 -1.8862
  210MPD1    H3 3250   0.792   4.132  11.579 -2.2087  0.5208  2.0140
  210MPD1     N 3251   0.429   4.122  11.311  0.3394 -0.1434  0.1317
  210MPD1    H5 3252   0.411   4.032  11.354 -0.2226  0.5159  1.2860
  210MPD1    N1 3253   0.761   4.482  11.280  0.6719  0.8340 -0.2095
  210MPD1    H6 3254   0.751   4.492  11.179 -1.6112  1.6271  0.0988
  210MPD1    H7 3255   0.859   4.505  11.296  0.4277  1.5678  0.2452
  211MPD1     C 3256   1.614   2.828  16.444  0.1796 -0.7844 -0.5447
  211MPD1    C1 3257   1.715   2.874  16.360 -0.2340  0.1761 -0.0359
  211MPD1    C2 3258   1.700   3.003  16.320  0.1510 -0.3805 -0.2100
  211MPD1    C3 3259   1.588   3.081  16.333 -0.1455 -0.3181  0.2314
  211MPD1    C4 3260   1.483   3.028  16.405 -0.1109  0.1497  0.4744
  211MPD1    C5 3261   1.502   2.904  16.466 -0.3798 -0.1836  0.0924
  211MPD1     H 3262   1.787   3.035  16.263  0.7498  0.1992  1.0301
  211MPD1    H1 3263   1.394   3.087  16.423 -0.7180 -1.2768  2.1112
  211MPD1    H2 3264   1.629   2.735  16.497 -0.7395 -1.1772 -0.9867
  211MPD1    H3 3265   1.421   2.868  16.529 -1.8733  1.9465 -0.5928
  211MPD1     N 3266   1.589   3.212  16.282 -0.4337  0.6754 -0.0103
  211MPD1    H5 3267   1.674   3.258  16.249  0.4858 -1.1781 -0.1900
  211MPD1    N1 3268   1.838   2.805  16.356 -0.9389 -0.3007  0.0067
  211MPD1    H6 3269   1.825   2.707  16.380  0.6593 -0.4455  0.2551
  211MPD1    H7 3270   1.897   2.825  16.276 -1.6067 -0.0512 -0.4267
  212MPD1     C 3271   1.423   2.062  16.569  0.4459 -0.2573 -0.4089
  212MPD1    C1 3272   1.343   2.109  16.671  0.1240  0.1744 -0.3589
  212MPD1    C2 3273   1.240   2.031  16.724 -0.0673 -0.3944  0.0048
  212MPD1    C3 3274   1.226   1.894  16.684  0.1262 -0.2477 -0.7233
  212MPD1    C4 3275   1.306   1.847  16.587 -0.0078 -0.1537 -0.1748
  212MPD1    C5 3276   1.400   1.936  16.532 -0.2697  0.3464 -0.0514
  212MPD1     H 3277   1.181   2.069  16.806  0.8389 -2.2543  1.5340
  212MPD1    H1 3278   1.292   1.744  16.558  0.8981 -0.2709 -0.2076
  212MPD1    H2 3279   1.503   2.116  16.521  0.2016 -0.2039 -0.7531
  212MPD1    H3 3280   1.470   1.891  16.463 -2.3408 -2.2354 -0.4672
  212MPD1     N 3281   1.133   1.794  16.742 -0.3836 -0.1269 -0.5089
  212MPD1    H5 3282   1.136   1.696  16.716  1.4381 -0.3385  0.5322
  212MPD1    N1 3283   1.375   2.234  16.722 -0.2348 -0.5342  0.5124
  212MPD1    H6 3284   1.304   2.303  16.742 -0.9651 -1.0794 -0.2121
  212MPD1    H7 3285   1.439   2.285  16.661  0.1261 -0.4776  0.9415
  213MPD1     C 3286   4.117   2.500  15.964  0.3329 -0.4062 -0.2941
  213MPD1    C1 3287   4.050   2.389  15.955 -0.7205  0.1795  0.8722
  213MPD1    C2 3288   4.038   2.338  15.823  0.2486 -0.0123 -0.2695
  213MPD1    C3 3289   4.043   2.428  15.717  0.0481 -0.6569 -0.1620
  213MPD1    C4 3290   4.092   2.552  15.740  0.0934 -0.2477 -0.2111
  213MPD1    C5 3291   4.134   2.585  15.864  0.1976  0.1100  0.1446
  213MPD1     H 3292   4.002   2.237  15.803  1.9438 -0.6797  0.0994
  213MPD1    H1 3293   4.106   2.629  15.664  1.3089  0.5224  0.7834
  213MPD1    H2 3294   4.156   2.544  16.056  2.8248 -0.8605 -1.1168
  213MPD1    H3 3295   4.195   2.673  15.880  0.3262  0.1902 -0.7692
  213MPD1     N 3296   3.993   2.383  15.592 -0.3168  0.6070  0.2624
  213MPD1    H5 3297   3.979   2.283  15.592  0.5378  0.4873 -0.7679
  213MPD1    N1 3298   4.052   2.293  16.059 -0.5771  0.2436  0.0638
  213MPD1    H6 3299   3.983   2.219  16.056 -0.3077 -0.0548  1.3709
  213MPD1    H7 3300   4.035   2.328  16.153  1.2615 -0.4723  0.6634
  214MPD1     C 3301   3.886   1.581  15.058 -0.0258 -0.0795 -0.1040
  214MPD1    C1 3302   3.889   1.617  15.189 -0.1702  1.2168  0.7295
  214MPD1    C2 3303   3.882   1.757  15.213 -0.1227 -0.4785  0.0739
  214MPD1    C3 3304   3.860   1.855  15.120  0.2839 -0.7495 -0.1260
  214MPD1    C4 3305   3.854   1.815  14.990 -0.3843  0.6752  1.1373
  214MPD1    C5 3306   3.865   1.679  14.963  0.8179 -0.2084  0.3516
  214MPD1     H 3307   3.885   1.785  15.317  0.4579  0.7056 -0.2667
  214MPD1    H1 3308   3.827   1.878  14.907 -0.0416  0.3138  0.7510
  214MPD1    H2 3309   3.891   1.478  15.024 -1.5449 -0.7185  1.6014
  214MPD1    H3 3310   3.854   1.639  14.863  0.1090  2.0704 -0.4668
  214MPD1     N 3311   3.859   1.997  15.138 -0.1393  0.1539 -0.5044
  214MPD1    H5 3312   3.835   2.049  15.054 -1.2448 -1.0744 -0.9534
  214MPD1    N1 3313   3.920   1.525  15.291 -0.2847 -0.4269 -1.0723
  214MPD1    H6 3314   3.896   1.553  15.385  0.4468  2.1101 -1.6356
  214MPD1    H7 3315   3.871   1.439  15.270 -1.0071 -0.4280  0.6947
  215MPD1     C 3316   4.040   3.501  10.402 -0.2171 -0.4688 -0.7015
  215MPD1    C1 3317   3.923   3.454  10.469  0.3674  0.6258 -0.3892
  215MPD1    C2 3318   3.923   3.490  10.601  0.4512  0.0790 -0.1771
  215MPD1    C3 3319   4.033   3.535  10.678  0.4385 -0.3556 -0.1718
  215MPD1    C4 3320   4.145   3.557  10.609 -0.4839 -0.2390 -0.8374
  215MPD1    C5 3321   4.147   3.548  10.474  0.4207  0.2398 -0.0794
  215MPD1     H 3322   3.830   3.479  10.656  0.5728 -0.7415 -0.1341
  215MPD1    H1 3323   4.238   3.598  10.647  0.2680 -3.3443  0.6407
  215MPD1    H2 3324   4.058   3.491  10.295 -1.4040  0.2303 -0.9580
  215MPD1    H3 3325   4.233   3.576  10.414  0.4098  0.1101 -0.1577
  215MPD1     N 3326   4.012   3.577  10.810  0.0490 -0.0758 -0.0661
  215MPD1    H5 3327   3.920   3.568  10.850  0.1573  2.2022  0.7061
  215MPD1    N1 3328   3.805   3.437  10.398 -0.2719 -1.0775 -0.3418
  215MPD1    H6 3329   3.747   3.373  10.452 -0.8354 -0.4882 -0.2515
  215MPD1    H7 3330   3.825   3.392  10.309 -1.6450  0.5761 -1.4856
  216MPD1     C 3331   1.072   1.743  17.622  0.6852  0.2708  0.5744
  216MPD1    C1 3332   1.159   1.660  17.555 -0.4305  0.8655 -0.5143
  216MPD1    C2 3333   1.119   1.536  17.507 -0.1395 -0.1276 -0.3125
  216MPD1    C3 3334   0.979   1.510  17.509 -0.9243 -0.4492 -0.0423
  216MPD1    C4 3335   0.886   1.603  17.548 -0.6564  0.2219 -0.7480
  216MPD1    C5 3336   0.936   1.718  17.614 -0.0662  0.5885  0.3793
  216MPD1     H 3337   1.183   1.465  17.456  0.9096  1.6896 -1.5287
  216MPD1    H1 3338   0.779   1.594  17.537 -0.6886 -0.6862  0.3237
  216MPD1    H2 3339   1.118   1.835  17.654  1.0778 -0.0210  0.8576
  216MPD1    H3 3340   0.865   1.787  17.658 -0.0466  1.5345 -1.0529
  216MPD1     N 3341   0.937   1.382  17.462  0.1518  0.0788  0.5850
  216MPD1    H5 3342   1.008   1.323  17.420  0.5363  1.0238 -0.0739
  216MPD1    N1 3343   1.296   1.687  17.555  0.4548 -0.0767  0.4066
  216MPD1    H6 3344   1.316   1.787  17.554  0.4390 -0.0458  2.6110
  216MPD1    H7 3345   1.351   1.646  17.480  0.5582 -0.6414  0.7929
  217MPD1     C 3346   1.555   2.203   9.202  0.4923 -0.4380 -0.1210
  217MPD1    C1 3347   1.633   2.264   9.109 -0.4245  0.5839 -0.9466
  217MPD1    C2 3348   1.669   2.397   9.122  0.5574 -0.8411 -0.4715
  217MPD1    C3 3349   1.625   2.473   9.232  0.1473  0.0392  0.2990
  217MPD1    C4 3350   1.538   2.416   9.323  0.1341  0.1076 -0.3688
  217MPD1    C5 3351   1.508   2.278   9.310 -0.5221 -0.2736  0.5380
  217MPD1     H 3352   1.746   2.434   9.055  1.0799 -0.0718  0.5458
  217MPD1    H1 3353   1.500   2.465   9.412  2.4373 -1.8275  1.7143
  217MPD1    H2 3354   1.534   2.097   9.197  0.8361 -0.5342  0.4160
  217MPD1    H3 3355   1.448   2.235   9.389 -0.3852  0.5743  1.1014
  217MPD1     N 3356   1.666   2.607   9.254  0.2522  0.0171  0.2202
  217MPD1    H5 3357   1.631   2.650   9.339  1.0667  0.3560  0.3837
  217MPD1    N1 3358   1.706   2.182   9.017  0.2947  0.1946  0.0719
  217MPD1    H6 3359   1.754   2.230   8.941 -1.6165  1.4439 -0.3598
  217MPD1    H7 3360   1.636   2.119   8.979  0.6230 -0.9055  1.2776
  218MPD1     C 3361   3.793   1.628  12.484  0.8542  0.0257 -0.2878
  218MPD1    C1 3362   3.707   1.732  12.518 -0.2726 -0.2304 -0.7694
  218MPD1    C2 3363   3.759   1.855  12.559  0.0775 -0.7569  0.9148
  218MPD1    C3 3364   3.892   1.852  12.601 -1.0322 -0.1990  0.1115
  218MPD1    C4 3365   3.978   1.744  12.579  0.0771  0.1612 -0.2208
  218MPD1    C5 3366   3.927   1.636  12.504  0.1296  0.5860  0.1448
  218MPD1     H 3367   3.696   1.944  12.557 -1.1189 -1.6157  0.3271
  218MPD1    H1 3368   4.084   1.743  12.603 -0.1466  1.0660  0.7978
  218MPD1    H2 3369   3.750   1.536  12.445 -0.3520 -0.1318  1.3933
  218MPD1    H3 3370   3.986   1.550  12.474 -0.3760 -0.3004  1.7029
  218MPD1     N 3371   3.939   1.967  12.658  0.8817  0.7349 -0.0882
  218MPD1    H5 3372   3.871   2.037  12.688  1.0766  0.2858  1.4077
  218MPD1    N1 3373   3.579   1.732  12.466 -0.2096 -0.3858 -0.0825
  218MPD1    H6 3374   3.541   1.638  12.478  1.4581 -0.9485  0.7073
  218MPD1    H7 3375   3.514   1.787  12.522  2.4141  3.2059 -0.5580
  219MPD1     C 3376   3.619   2.661  13.240  0.2588 -0.5678 -0.4494
  219MPD1    C1 3377   3.603   2.521  13.235  0.0815 -0.4263  0.1923
  219MPD1    C2 3378   3.694   2.445  13.162 -0.5476 -0.8214 -0.1142
  219MPD1    C3 3379   3.807   2.509  13.108 -0.4102 -0.4294 -0.0934
  219MPD1    C4 3380   3.816   2.646  13.113  0.8078  0.0732  0.0704
  219MPD1    C5 3381   3.708   2.718  13.166  0.3149 -0.0141 -0.2355
  219MPD1     H 3382   3.669   2.342  13.139  3.1193 -2.0323  1.2891
  219MPD1    H1 3383   3.905   2.703  13.089  1.2286  0.3925  2.4227
  219MPD1    H2 3384   3.544   2.723  13.289  0.3015 -0.0353 -1.0651
  219MPD1    H3 3385   3.693   2.825  13.155 -1.2389 -0.0395  1.7666
  219MPD1     N 3386   3.897   2.444  13.025 -0.7005  0.2004  0.3229
  219MPD1    H5 3387   3.959   2.495  12.963 -0.9781 -0.1664 -0.2611
  219MPD1    N1 3388   3.487   2.468  13.287  0.3112  0.0299 -0.2051
  219MPD1    H6 3389   3.479   2.367  13.291  1.8884 -0.0601  0.9208
  219MPD1    H7 3390   3.465   2.512  13.376  1.7452  2.5163 -1.0809
  220MPD1     C 3391   3.427   3.301   9.974 -0.4872 -0.3253 -0.7289
  220MPD1    C1 3392   3.302   3.344   9.953  0.3764 -0.1727 -0.6067
  220MPD1    C2 3393   3.245   3.428  10.053  0.1141 -0.2850 -0.2490
  220MPD1    C3 3394   3.308   3.454  10.174  1.0100 -0.8571  0.1750
  220MPD1    C4 3395   3.432   3.404  10.194 -0.0283  0.2359  0.1076
  220MPD1    C5 3396   3.486   3.323  10.093 -0.6541 -0.5025 -0.2815
  220MPD1     H 3397   3.145   3.465  10.035  0.9227  2.1222  0.1940
  220MPD1    H1 3398   3.483   3.421  10.288  1.0344 -0.0843 -0.4090
  220MPD1    H2 3399   3.490   3.247   9.904 -1.0683 -0.1914 -1.3508
  220MPD1    H3 3400   3.583   3.278  10.110 -0.7056 -1.1343 -1.6642
  220MPD1     N 3401   3.235   3.515  10.276 -0.4879 -0.2215 -1.1525
  220MPD1    H5 3402   3.142   3.550  10.257  0.2352  2.2599 -0.1704
  220MPD1    N1 3403   3.253   3.336   9.817 -0.2523 -0.8033 -0.0870
  220MPD1    H6 3404   3.278   3.249   9.770  0.1916  0.6099 -2.4316
  220MPD1    H7 3405   3.152   3.336   9.831 -0.2715  1.1830 -0.1653
  221MPD1     C 3406   2.202   2.132  17.024 -0.0206 -0.1395 -0.2963
  221MPD1    C1 3407   2.308   2.213  16.988 -0.5072 -0.0689  0.1655
  221MPD1    C2 3408   2.311   2.272  16.865 -0.1250 -0.0711 -0.3083
  221MPD1    C3 3409   2.196   2.252  16.774  0.4926 -0.9063  0.1181
  221MPD1    C4 3410   2.086   2.184  16.813 -0.2896 -0.0394 -0.5591
  221MPD1    C5 3411   2.094   2.123  16.937 -0.0174  0.3152 -0.5147
  221MPD1     H 3412   2.397   2.327  16.829 -0.0054 -1.0329 -1.4890
  221MPD1    H1 3413   1.993   2.176  16.757 -0.6477 -3.8045  0.5768
  221MPD1    H2 3414   2.192   2.074  17.114  1.5869 -0.6803 -0.4672
  221MPD1    H3 3415   2.016   2.062  16.981  1.2357  0.9182  2.5410
  221MPD1     N 3416   2.189   2.323  16.653  0.2824 -0.7620 -0.2880
  221MPD1    H5 3417   2.098   2.310  16.610 -0.2755  1.1149  0.3539
  221MPD1    N1 3418   2.418   2.228  17.071  0.3241  1.3571 -0.7277
  221MPD1    H6 3419   2.462   2.318  17.055  0.6581  0.9150 -2.2668
  221MPD1    H7 3420   2.385   2.231  17.167 -1.0779  2.5982 -1.2485
  222MPD1     C 3421   0.992   1.179   1.368  0.8042  0.0653 -0.2158
  222MPD1    C1 3422   0.996   1.266   1.257 -0.2042  0.0506  0.0607
  222MPD1    C2 3423   1.050   1.389   1.273 -0.1228 -0.1747 -0.1629
  222MPD1    C3 3424   1.096   1.430   1.398 -0.5468 -0.3558  0.1904
  222MPD1    C4 3425   1.114   1.335   1.498 -0.8259  0.3581 -0.2982
  222MPD1    C5 3426   1.059   1.210   1.476  0.0780 -0.4107  0.0450
  222MPD1     H 3427   1.036   1.462   1.194  0.8486  1.2535  0.9754
  222MPD1    H1 3428   1.149   1.371   1.594 -2.4149 -2.7573  1.4399
  222MPD1    H2 3429   0.952   1.079   1.355 -0.3300  0.5078 -0.1462
  222MPD1    H3 3430   1.059   1.134   1.553  0.1079 -0.1777  0.2717
  222MPD1     N 3431   1.131   1.565   1.430 -0.7054  0.2533  0.0302
  222MPD1    H5 3432   1.165   1.579   1.525  0.5408  0.1148 -0.3958
  222MPD1    N1 3433   0.913   1.236   1.150 -0.2576 -0.1913  0.5206
  222MPD1    H6 3434   0.943   1.294   1.071 -0.2920 -0.3705  0.3770
  222MPD1    H7 3435   0.923   1.142   1.113  2.4210 -0.6646  2.3921
  223MPD1     C 3436   0.800   2.214   2.120  0.1625  0.2052  0.0446
  223MPD1    C1 3437   0.863   2.302   2.035 -0.3954 -0.2050 -0.0407
  223MPD1    C2 3438   0.930   2.250   1.924  0.2895  0.2306 -0.1593
  223MPD1    C3 3439   0.922   2.121   1.881  0.0624  0.7372  0.9244
  223MPD1    C4 3440   0.858   2.030   1.969  0.2248 -0.1053 -0.1864
  223MPD1    C5 3441   0.807   2.082   2.087  0.4617  0.1822  0.0524
  223MPD1     H 3442   0.981   2.313   1.852  0.2467  1.1531  0.6210
  223MPD1    H1 3443   0.860   1.924   1.948  0.2081 -0.2612  0.5987
  223MPD1    H2 3444   0.748   2.236   2.213 -2.1378  0.3790 -1.2910
  223MPD1    H3 3445   0.760   2.013   2.156  0.0136  0.4194 -0.0156
  223MPD1     N 3446   0.992   2.085   1.764 -0.0932 -0.2033  0.4447
  223MPD1    H5 3447   1.047   2.160   1.722  2.2347 -2.3328 -0.2624
  223MPD1    N1 3448   0.884   2.436   2.079 -0.0775  0.1558 -0.1181
  223MPD1    H6 3449   0.798   2.463   2.126  0.4064  0.3714  0.6398
  223MPD1    H7 3450   0.890   2.499   2.000  1.7044  2.0878  1.5808
  224MPD1     C 3451   2.681   0.339   9.237  0.4613  0.3398 -0.4304
  224MPD1    C1 3452   2.755   0.239   9.198 -0.0337 -0.2003  0.3465
  224MPD1    C2 3453   2.716   0.113   9.231  0.5238  0.8460  0.3483
  224MPD1    C3 3454   2.601   0.086   9.303 -0.4639  0.7281  0.1594
  224MPD1    C4 3455   2.532   0.199   9.353  0.3805 -0.3725  0.3195
  224MPD1    C5 3456   2.574   0.319   9.321 -0.0969  0.3423  0.2262
  224MPD1     H 3457   2.779   0.032   9.195 -2.2648 -1.4268  0.5302
  224MPD1    H1 3458   2.442   0.187   9.412  0.3357 -1.1617  0.0867
  224MPD1    H2 3459   2.679   0.442   9.203  3.6926 -0.0744 -1.7902
  224MPD1    H3 3460   2.521   0.405   9.360 -1.0643  0.1307 -0.6325
  224MPD1     N 3461   2.556   4.696   9.342 -0.2707 -0.5082  0.2450
  224MPD1    H5 3462   2.477   4.708   9.405 -0.4865  1.2879 -0.3495
  224MPD1    N1 3463   2.853   0.260   9.094  0.2895  0.4042  0.8073
  224MPD1    H6 3464   2.911   0.343   9.108  0.5639  0.0101  1.9674
  224MPD1    H7 3465   2.917   0.181   9.092 -1.1204 -0.6771 -0.7117
  225MPD1     C 3466   3.946   4.238  12.636  0.3840  0.6763  0.0101
  225MPD1    C1 3467   3.932   4.353  12.563 -0.0181  0.7807  0.6019
  225MPD1    C2 3468   3.833   4.356  12.465  0.4773 -0.3196  0.2020
  225MPD1    C3 3469   3.740   4.248  12.450  0.0510  0.7874 -0.4043
  225MPD1    C4 3470   3.750   4.145  12.545 -0.2050 -0.3866  0.8975
  225MPD1    C5 3471   3.850   4.146  12.636 -0.1012  0.6583  0.0623
  225MPD1     H 3472   3.830   4.445  12.403 -1.7237 -1.5623 -1.4931
  225MPD1    H1 3473   3.686   4.058  12.543 -0.7720  0.0038  2.4925
  225MPD1    H2 3474   4.026   4.234  12.709 -0.2748 -2.2822  0.5521
  225MPD1    H3 3475   3.856   4.063  12.706 -2.8870 -1.1848 -1.8542
  225MPD1     N 3476   3.630   4.247  12.363 -0.5227  1.5952 -0.5346
  225MPD1    H5 3477   3.562   4.172  12.368  0.4481  0.5312 -3.2980
  225MPD1    N1 3478   4.033   4.453  12.564  0.2122  0.1755 -0.3897
  225MPD1    H6 3479   4.093   4.457  12.646 -0.2337 -1.9991  0.0620
  225MPD1    H7 3480   3.997   4.543  12.532 -1.5007 -0.3117  0.1306
  226MPD1     C 3481   1.636   0.459   9.015  0.1292 -0.3522 -0.1756
  226MPD1    C1 3482   1.560   0.405   9.115 -0.1424  1.2289 -0.0218
  226MPD1    C2 3483   1.619   0.301   9.195 -0.2204  0.2039  0.0360
  226MPD1    C3 3484   1.752   0.275   9.182  0.7891 -0.4422  0.4524
  226MPD1    C4 3485   1.834   0.353   9.101 -0.2279 -0.6870  0.3816
  226MPD1    C5 3486   1.767   0.433   9.013 -0.8033  0.2845 -0.3703
  226MPD1     H 3487   1.563   0.244   9.269 -0.7623  1.4971  0.6162
  226MPD1    H1 3488   1.941   0.339   9.099 -0.0570  0.8586 -1.1653
  226MPD1    H2 3489   1.602   0.540   8.953 -0.8036 -0.4154  0.2515
  226MPD1    H3 3490   1.829   0.503   8.958  0.1891 -0.3510 -0.0579
  226MPD1     N 3491   1.809   0.189   9.283 -0.4394  0.0537  0.0852
  226MPD1    H5 3492   1.748   0.147   9.353  2.6021 -1.4870  1.7787
  226MPD1    N1 3493   1.422   0.438   9.130  0.0274 -0.4166 -0.5517
  226MPD1    H6 3494   1.392   0.520   9.077  1.1022  0.3088 -0.0364
  226MPD1    H7 3495   1.385   0.433   9.225  1.4249 -0.6551 -0.0233
  227MPD1     C 3496   1.798   0.229  10.239  0.3148 -0.6646  0.1784
  227MPD1    C1 3497   1.937   0.220  10.210  0.0802 -0.5829  0.2111
  227MPD1    C2 3498   1.971   0.159  10.090  0.2349  0.4570  0.1781
  227MPD1    C3 3499   1.875   0.134   9.994 -0.2660 -0.3409 -0.4684
  227MPD1    C4 3500   1.737   0.149  10.026 -0.2976 -0.3179  0.0138
  227MPD1    C5 3501   1.705   0.194  10.149 -0.0712  0.4293  0.1430
  227MPD1     H 3502   2.079   0.148  10.080  0.1388 -0.3011 -0.0364
  227MPD1    H1 3503   1.655   0.124   9.960 -1.5395  1.4868  0.8695
  227MPD1    H2 3504   1.765   0.245  10.341  1.2487 -2.0393  0.6892
  227MPD1    H3 3505   1.602   0.207  10.182 -0.7843 -1.1571 -1.3989
  227MPD1     N 3506   1.917   0.089   9.867 -0.1461 -0.0615 -0.1830
  227MPD1    H5 3507   2.016   0.074   9.853  0.5315  3.7247  0.5964
  227MPD1    N1 3508   2.043   0.235  10.305 -0.0733  0.0147 -0.8599
  227MPD1    H6 3509   2.111   0.296  10.260 -0.6696 -0.6377 -2.6315
  227MPD1    H7 3510   2.003   0.281  10.386  2.0661  1.3173 -0.5444
  228MPD1     C 3511   0.924   1.839  11.416 -0.0226 -0.5363  0.5488
  228MPD1    C1 3512   0.807   1.814  11.351 -0.3422  1.0337 -0.2285
  228MPD1    C2 3513   0.705   1.777  11.436  0.2891  0.6990  0.9743
  228MPD1    C3 3514   0.705   1.797  11.574 -0.4368 -0.4858  0.2386
  228MPD1    C4 3515   0.825   1.820  11.638  0.2322 -0.6548 -0.1675
  228MPD1    C5 3516   0.932   1.845  11.554 -0.3864  0.1856  0.7552
  228MPD1     H 3517   0.614   1.760  11.379  1.6249 -0.4892 -0.8052
  228MPD1    H1 3518   0.830   1.841  11.744 -0.0343 -1.7444  0.0632
  228MPD1    H2 3519   1.014   1.860  11.359  0.4557  0.6353  1.7302
  228MPD1    H3 3520   1.026   1.885  11.589  0.7642  0.1491 -2.2979
  228MPD1     N 3521   0.580   1.765  11.640  0.0921 -0.4431 -0.2210
  228MPD1    H5 3522   0.498   1.753  11.581 -0.4710 -1.9330  0.8534
  228MPD1    N1 3523   0.806   1.806  11.213  0.4248 -0.2895  0.3512
  228MPD1    H6 3524   0.715   1.813  11.167  1.2273 -0.4281 -1.2511
  228MPD1    H7 3525   0.864   1.881  11.175 -0.3005 -0.3396 -0.8260
  229MPD1     C 3526   0.085   1.282  14.712  0.1182  0.0969  0.0586
  229MPD1    C1 3527   0.097   1.211  14.593 -0.2926  0.1537 -0.2719
  229MPD1    C2 3528   0.130   1.076  14.607 -0.3427  0.0873  1.0028
  229MPD1    C3 3529   0.130   1.021  14.731 -0.5903  0.1181  0.1932
  229MPD1    C4 3530   0.099   1.089  14.845  0.2052  0.0171  0.3064
  229MPD1    C5 3531   0.088   1.224  14.837  0.8879  0.3301  0.5503
  229MPD1     H 3532   0.145   1.012  14.520  0.8020  0.4939  0.8925
  229MPD1    H1 3533   0.092   1.043  14.944  0.0397 -1.2745 -0.3004
  229MPD1    H2 3534   0.069   1.389  14.712 -3.2175 -0.4016 -0.1321
  229MPD1    H3 3535   0.067   1.277  14.930  2.0100  1.8223 -0.0619
  229MPD1     N 3536   0.171   0.889  14.756 -0.2293 -0.0046  0.0551
  229MPD1    H5 3537   0.163   0.867  14.855 -3.4670 -0.0010 -0.1816
  229MPD1    N1 3538   0.122   1.274  14.472 -0.0596 -0.0244 -0.0852
  229MPD1    H6 3539   0.066   1.358  14.464 -0.3629 -0.1297  0.9578
  229MPD1    H7 3540   0.102   1.212  14.393 -2.4853  1.4497 -0.6229
  230MPD1     C 3541   0.762   0.493  15.436 -0.1927 -0.4747 -0.3227
  230MPD1    C1 3542   0.821   0.445  15.324 -0.2496  0.0206 -0.4747
  230MPD1    C2 3543   0.747   0.463  15.208 -0.6137 -0.1451  0.4038
  230MPD1    C3 3544   0.624   0.534  15.202  0.7801  0.5557  0.1775
  230MPD1    C4 3545   0.582   0.604  15.315 -0.0231  0.8338  0.1639
  230MPD1    C5 3546   0.654   0.583  15.425 -0.2809 -0.2525  0.4343
  230MPD1     H 3547   0.780   0.410  15.119 -0.4402  0.1047  0.3185
  230MPD1    H1 3548   0.505   0.679  15.332 -1.5923 -0.4942 -1.2143
  230MPD1    H2 3549   0.807   0.474  15.533 -0.4299  0.3001 -0.0676
  230MPD1    H3 3550   0.631   0.630  15.520  0.4991 -1.3044  1.1451
  230MPD1     N 3551   0.557   0.543  15.076  0.7954 -0.2257 -0.2176
  230MPD1    H5 3552   0.596   0.480  15.007 -0.0242 -2.4798  1.3545
  230MPD1    N1 3553   0.930   0.360  15.332 -0.3502 -0.0478 -1.0889
  230MPD1    H6 3554   1.001   0.361  15.259  0.7750  1.7366  0.0306
  230MPD1    H7 3555   0.971   0.371  15.425 -2.5131  1.6508 -0.3580
  231MPD1     C 3556   3.208   2.549  15.303  0.0033  0.2399 -0.7345
  231MPD1    C1 3557   3.188   2.568  15.170  0.2772 -0.4691 -0.2657
  231MPD1    C2 3558   3.295   2.581  15.084  0.5233 -0.1573 -0.6950
  231MPD1    C3 3559   3.423   2.583  15.145 -0.2933  0.4011  0.3635
  231MPD1    C4 3560   3.445   2.556  15.277  0.1283 -0.9027 -0.2242
  231MPD1    C5 3561   3.333   2.531  15.354 -0.5177  1.3564  0.0570
  231MPD1     H 3562   3.282   2.612  14.981  2.0980 -1.3198 -1.2524
  231MPD1    H1 3563   3.542   2.557  15.324  1.3276  0.8350 -2.7679
  231MPD1    H2 3564   3.122   2.539  15.370  1.4354  0.7458  1.1822
  231MPD1    H3 3565   3.350   2.518  15.460 -1.9561 -1.9689 -0.1308
  231MPD1     N 3566   3.529   2.619  15.065 -0.1430  0.2735 -0.1527
  231MPD1    H5 3567   3.500   2.645  14.971 -0.8280  1.1524  0.3011
  231MPD1    N1 3568   3.054   2.562  15.126  0.5151 -0.1586  0.1969
  231MPD1    H6 3569   2.989   2.628  15.169 -0.1856 -0.6716 -0.0721
  231MPD1    H7 3570   3.036   2.580  15.027 -1.1846 -1.4490  0.2752
  232MPD1     C 3571   0.900   0.227  17.292 -0.0745 -0.2259 -0.3392
  232MPD1    C1 3572   0.850   0.130  17.380  0.2386 -0.7492 -0.1481
  232MPD1    C2 3573   0.714   0.127  17.393  0.5536  0.0001  0.2173
  232MPD1    C3 3574   0.627   0.217  17.341 -0.1185 -0.8404  0.6272
  232MPD1    C4 3575   0.682   0.317  17.264  0.4094 -0.1408  0.6054
  232MPD1    C5 3576   0.815   0.318  17.237  0.6572 -0.4582  0.4837
  232MPD1     H 3577   0.674   0.047  17.455 -0.3862  0.5164  0.2744
  232MPD1    H1 3578   0.625   0.401  17.225 -1.3982  0.0016  3.5210
  232MPD1    H2 3579   1.006   0.244  17.282 -0.2879  0.5729 -1.2856
  232MPD1    H3 3580   0.853   0.404  17.184 -0.8188 -1.1481 -1.6504
  232MPD1     N 3581   0.483   0.189  17.360  0.0646  0.2152 -0.0995
  232MPD1    H5 3582   0.461   0.098  17.400 -3.0073  1.7544  1.7778
  232MPD1    N1 3583   0.937   0.026  17.415 -0.5066 -0.1395 -0.3638
  232MPD1    H6 3584   1.028   0.061  17.443  0.1975 -1.1244 -1.3941
  232MPD1    H7 3585   0.907   4.711  17.497  4.0487 -0.1934  1.2531
  233MPD1     C 3586   1.466   2.853  17.537 -0.7845 -0.1485  0.4803
  233MPD1    C1 3587   1.566   2.947  17.524 -0.4634  0.3058  0.7483
  233MPD1    C2 3588   1.662   2.956  17.624  0.1526 -0.1054 -0.4923
  233MPD1    C3 3589   1.657   2.865  17.732 -0.1906  0.2602  0.3840
  233MPD1    C4 3590   1.555   2.779  17.746  0.1724  0.2055  0.2852
  233MPD1    C5 3591   1.461   2.770  17.644 -0.6835  0.0649  0.1221
  233MPD1     H 3592   1.738   3.033  17.629 -0.2779  0.4135 -1.8605
  233MPD1    H1 3593   1.556   2.702   0.073 -0.9086  1.6856  1.7748
  233MPD1    H2 3594   1.380   2.861  17.472 -1.2330  0.1692  1.1082
  233MPD1    H3 3595   1.385   2.693  17.645 -0.3016 -0.3138  0.0533
  233MPD1     N 3596   1.756   2.864   0.080 -0.8537 -0.7305  0.1663
  233MPD1    H5 3597   1.724   2.812   0.161  1.9552 -0.3677  1.4972
  233MPD1    N1 3598   1.558   3.047  17.427 -0.0372 -0.0224  0.1520
  233MPD1    H6 3599   1.653   3.068  17.397  0.3545 -3.3486 -0.8666
  233MPD1    H7 3600   1.509   3.005  17.348 -0.1442 -0.2065  0.3185
  234MPD1     C 3601   3.577   3.241   9.546 -0.2453 -0.2154 -0.4063
  234MPD1    C1 3602   3.528   3.364   9.510  0.3717 -0.2138 -0.0843
  234MPD1    C2 3603   3.392   3.380   9.499 -0.3838 -0.5455  0.1450
  234MPD1    C3 3604   3.306   3.278   9.519  0.0125 -0.2547  0.8153
  234MPD1    C4 3605   3.354   3.153   9.567  0.1282 -0.1863 -0.3405
  234MPD1    C5 3606   3.491   3.137   9.583 -0.3918 -0.0163  0.7316
  234MPD1     H 3607   3.354   3.481   9.488 -0.3760 -0.4816  0.7368
  234MPD1    H1 3608   3.289   3.069   9.585  1.3783 -1.0257  0.2467
  234MPD1    H2 3609   3.682   3.220   9.565 -0.4952 -2.5170 -1.6098
  234MPD1    H3 3610   3.532   3.043   9.618 -0.2743 -0.7085 -1.2378
  234MPD1     N 3611   3.172   3.311   9.500  0.2006  1.0163  0.2691
  234MPD1    H5 3612   3.153   3.403   9.463 -0.5268  1.2095  1.1114
  234MPD1    N1 3613   3.605   3.481   9.518 -0.4504 -0.8543 -0.5869
  234MPD1    H6 3614   3.704   3.464   9.502  0.1973  0.9296  1.3775
  234MPD1    H7 3615   3.577   3.560   9.459 -1.7083 -0.5919  0.3606
  235MPD1     C 3616   0.197   3.604  10.541  0.2103 -0.1893  0.4317
  235MPD1    C1 3617   0.075   3.659  10.547  0.7845  0.7849  0.5079
  235MPD1    C2 3618   0.002   3.704  10.431  0.7278  0.1018 -0.9063
  235MPD1    C3 3619   0.071   3.701  10.312  0.4516 -0.1233  0.2328
  235MPD1    C4 3620   0.194   3.644  10.304 -0.8514  0.0106  0.1504
  235MPD1    C5 3621   0.247   3.600  10.420 -0.5297 -0.2410  0.0943
  235MPD1     H 3622   4.647   3.759  10.438  0.9711  0.4047 -0.0772
  235MPD1    H1 3623   0.250   3.638  10.211 -1.9988 -0.2548 -0.5169
  235MPD1    H2 3624   0.244   3.554  10.625 -0.1902 -0.3009  0.5906
  235MPD1    H3 3625   0.344   3.554  10.406 -0.0578  0.6218  0.5316
  235MPD1     N 3626   0.001   3.778  10.214 -0.1184  0.7461  0.7908
  235MPD1    H5 3627   4.641   3.803  10.225 -1.0745 -2.6269  0.1040
  235MPD1    N1 3628   0.010   3.640  10.666  0.0896 -0.3094  0.5182
  235MPD1    H6 3629   4.661   3.693  10.673 -0.7485 -1.4502 -1.0370
  235MPD1    H7 3630   0.067   3.650  10.750 -0.7755 -0.7703  1.1606
  236MPD1     C 3631   2.910   1.263  10.027 -0.4086  0.3652  0.3538
  236MPD1    C1 3632   3.013   1.291   9.950 -0.7508 -0.1240 -0.4666
  236MPD1    C2 3633   3.136   1.234   9.985  0.1518  0.0588 -0.3696
  236MPD1    C3 3634   3.151   1.153  10.092 -0.3482 -0.2253 -0.4122
  236MPD1    C4 3635   3.044   1.126  10.168  0.1446 -0.4163  0.2481
  236MPD1    C5 3636   2.926   1.176  10.135  0.3252  0.3860  0.3490
  236MPD1     H 3637   3.221   1.260   9.924  0.1582 -3.2116 -1.7533
  236MPD1    H1 3638   3.047   1.063  10.257  2.4027 -0.6682 -0.0029
  236MPD1    H2 3639   2.808   1.288  10.000 -0.1215 -0.6534 -1.6519
  236MPD1    H3 3640   2.846   1.140  10.199  0.5179  0.1893  0.4748
  236MPD1     N 3641   3.279   1.107  10.112  0.5555  0.0623 -0.5049
  236MPD1    H5 3642   3.357   1.149  10.063  2.7317 -0.7804  2.2002
  236MPD1    N1 3643   2.985   1.342   9.826  0.0140 -0.2072  0.1273
  236MPD1    H6 3644   3.068   1.395   9.800 -0.0819  1.4468  3.2384
  236MPD1    H7 3645   2.909   1.409   9.837  0.2030  0.4002 -2.4294
  237MPD1     C 3646   4.104   4.078  15.214  0.6598 -0.0820  0.3507
  237MPD1    C1 3647   4.098   3.959  15.282 -0.0228  0.0104  0.6480
  237MPD1    C2 3648   3.984   3.888  15.270 -0.2853 -0.4673 -0.2420
  237MPD1    C3 3649   3.885   3.922  15.180  0.1996 -0.1056 -1.0674
  237MPD1    C4 3650   3.895   4.031  15.103  0.1460  0.0097 -0.3106
  237MPD1    C5 3651   4.011   4.107  15.115 -0.3073  0.1250 -0.2818
  237MPD1     H 3652   3.974   3.804  15.339 -1.0148 -0.6328 -0.5492
  237MPD1    H1 3653   3.815   4.057  15.035  0.0488  1.6340  0.4236
  237MPD1    H2 3654   4.192   4.142  15.224  0.8169 -0.6706  2.7220
  237MPD1    H3 3655   4.019   4.199  15.058 -1.7113  0.7167  0.4864
  237MPD1     N 3656   3.766   3.844  15.169  0.2933  0.7477 -0.5922
  237MPD1    H5 3657   3.695   3.897  15.119 -0.2434  0.7811  0.1967
  237MPD1    N1 3658   4.198   3.930  15.375  0.1692 -0.0103  0.0216
  237MPD1    H6 3659   4.154   3.918  15.466 -0.4268  0.4586 -0.2061
  237MPD1    H7 3660   4.271   3.999  15.388  2.8115 -2.1705 -3.0493
  238MPD1     C 3661   0.726   2.595  14.843 -0.6276  0.0827 -0.2372
  238MPD1    C1 3662   0.627   2.679  14.891 -0.8733 -0.7350 -0.8517
  238MPD1    C2 3663   0.504   2.672  14.830  0.3600 -0.2829 -0.3846
  238MPD1    C3 3664   0.469   2.561  14.748  0.4718 -0.1698  0.4370
  238MPD1    C4 3665   0.571   2.481  14.701 -0.0660 -0.1592 -0.1739
  238MPD1    C5 3666   0.694   2.494  14.761  0.2268 -0.6475 -0.4744
  238MPD1     H 3667   0.426   2.740  14.862  0.1408 -1.2522  1.1637
  238MPD1    H1 3668   0.556   2.408  14.623 -1.3180  0.1124 -0.1996
  238MPD1    H2 3669   0.830   2.596  14.873 -0.5182  0.2430 -0.6252
  238MPD1    H3 3670   0.780   2.441  14.721  0.0620 -1.0527 -0.2847
  238MPD1     N 3671   0.340   2.553  14.682  0.4591  0.1519  0.4279
  238MPD1    H5 3672   0.326   2.476  14.617 -1.4421  1.5051 -0.7839
  238MPD1    N1 3673   0.666   2.788  14.971 -0.3107  0.7250 -0.3427
  238MPD1    H6 3674   0.741   2.760  15.035 -0.4212 -1.1115 -1.0046
  238MPD1    H7 3675   0.592   2.826  15.029 -1.5123 -1.3466 -0.5283
  239MPD1     C 3676   0.704   3.091  15.095 -0.2214  0.6269  0.2012
  239MPD1    C1 3677   0.808   3.149  15.018 -0.3323  0.2111 -0.4505
  239MPD1    C2 3678   0.766   3.219  14.902 -0.5319  0.5168  0.4319
  239MPD1    C3 3679   0.637   3.257  14.879  0.0809 -0.2561  0.0592
  239MPD1    C4 3680   0.544   3.212  14.967 -0.4184  0.3901  0.3374
  239MPD1    C5 3681   0.573   3.120  15.064  0.4808 -0.2862  0.9485
  239MPD1     H 3682   0.841   3.241  14.827  1.2162 -0.0969  2.0113
  239MPD1    H1 3683   0.437   3.228  14.954 -0.5216  0.6773  1.5055
  239MPD1    H2 3684   0.727   3.016  15.170 -2.6118  0.0121  0.3079
  239MPD1    H3 3685   0.495   3.079  15.126 -0.6574 -1.7844 -1.4919
  239MPD1     N 3686   0.596   3.319  14.768 -0.2242  0.0855  0.3984
  239MPD1    H5 3687   0.498   3.339  14.753 -0.5932 -1.7220  0.3724
  239MPD1    N1 3688   0.941   3.129  15.034 -0.1858  0.1106  0.1086
  239MPD1    H6 3689   1.001   3.193  14.982 -2.0365  1.1228 -0.8079
  239MPD1    H7 3690   0.984   3.107  15.123 -3.7206 -0.6020  1.6229
  240MPD1     C 3691   4.388   3.557  13.824 -0.1213  0.2499  0.0755
  240MPD1    C1 3692   4.309   3.511  13.923  0.0648  0.6592  0.2727
  240MPD1    C2 3693   4.320   3.385  13.979 -0.3080  0.0483 -0.6538
  240MPD1    C3 3694   4.438   3.310  13.957  0.6158  0.5155 -0.1175
  240MPD1    C4 3695   4.520   3.360  13.851  1.0761  0.0554  0.1902
  240MPD1    C5 3696   4.490   3.472  13.778 -0.2767 -0.1101 -0.0894
  240MPD1     H 3697   4.257   3.350  14.060 -1.2504 -0.2382 -1.5207
  240MPD1    H1 3698   4.608   3.306  13.817  0.3604 -0.3568 -1.0379
  240MPD1    H2 3699   4.382   3.649  13.767 -1.0778 -0.6755 -1.3175
  240MPD1    H3 3700   4.560   3.499  13.700 -1.0549  0.8727 -0.4433
  240MPD1     N 3701   4.469   3.191  14.026 -0.0363  0.1683  0.0339
  240MPD1    H5 3702   4.394   3.163  14.088 -0.4439  0.5847 -0.2685
  240MPD1    N1 3703   4.198   3.591  13.949  0.1849 -0.2096  0.8251
  240MPD1    H6 3704   4.221   3.690  13.941  0.5765 -0.3421  0.2774
  240MPD1    H7 3705   4.166   3.576  14.045 -2.9745 -1.9050 -0.5006
  241MPD1     C 3706   0.566   2.578  14.323 -0.3694 -0.5945  0.3149
  241MPD1    C1 3707   0.506   2.677  14.402 -0.1186 -0.1608 -0.1621
  241MPD1    C2 3708   0.385   2.736  14.350 -0.2591  0.6641 -0.0138
  241MPD1    C3 3709   0.331   2.685  14.234  0.0436 -0.5125  0.2546
  241MPD1    C4 3710   0.399   2.589  14.158 -0.0941  0.1593  0.0517
  241MPD1    C5 3711   0.511   2.532  14.204 -0.7325  0.1220 -0.5209
  241MPD1     H 3712   0.348   2.825  14.401 -1.4362 -0.5243  1.1823
  241MPD1    H1 3713   0.353   2.550  14.068 -0.7199 -3.2759  1.8529
  241MPD1    H2 3714   0.666   2.545  14.349  0.3530  1.3972  0.0459
  241MPD1    H3 3715   0.559   2.458  14.140 -2.3193 -0.6318 -0.8375
  241MPD1     N 3716   0.201   2.720  14.185 -0.4914  0.7025 -0.3332
  241MPD1    H5 3717   0.171   2.687  14.094 -0.2696  1.8681 -0.8255
  241MPD1    N1 3718   0.576   2.737  14.506  0.0533 -0.1885 -0.3362
  241MPD1    H6 3719   0.512   2.777  14.575  1.4991  0.3478  0.6763
  241MPD1    H7 3720   0.645   2.680  14.555 -2.8872 -2.3985  1.3195
  242MPD1     C 3721   4.347   0.508  15.766  0.3177  0.1708 -0.3283
  242MPD1    C1 3722   4.300   0.563  15.649  0.2079 -0.3587 -0.1566
  242MPD1    C2 3723   4.343   0.689  15.625 -0.1904  0.0063  0.3923
  242MPD1    C3 3724   4.439   0.756  15.698 -0.4879  0.3677  0.3835
  242MPD1    C4 3725   4.492   0.694  15.805  0.4122 -0.5443  0.0639
  242MPD1    C5 3726   4.446   0.569  15.835 -0.5349  0.2304 -0.5592
  242MPD1     H 3727   4.291   0.745  15.548 -1.5708 -2.4093 -0.4037
  242MPD1    H1 3728   4.563   0.737  15.874 -1.4225  0.7611  1.1434
  242MPD1    H2 3729   4.310   0.413  15.803  0.6202 -0.0507 -0.6005
  242MPD1    H3 3730   4.483   0.526  15.927  0.6853 -0.7580 -1.5205
  242MPD1     N 3731   4.475   0.890  15.670  0.0725  0.0498  0.2898
  242MPD1    H5 3732   4.548   0.934  15.724  2.0614 -0.0730 -2.3199
  242MPD1    N1 3733   4.177   0.509  15.595  0.0220  0.8982 -0.6419
  242MPD1    H6 3734   4.168   0.409  15.612  0.4492  1.0625  0.5149
  242MPD1    H7 3735   4.169   0.528  15.495  2.7921  0.3782 -0.9602
  243MPD1     C 3736   0.381   4.632  17.225 -0.1954 -0.0226 -0.7178
  243MPD1    C1 3737   0.476   4.597  17.313  0.1549 -0.0772  0.0862
  243MPD1    C2 3738   0.606   4.612  17.275  0.0627  0.7133  0.0056
  243MPD1    C3 3739   0.649   4.658  17.152 -0.9669 -0.0588 -0.5950
  243MPD1    C4 3740   0.547   4.697  17.063 -0.0101  0.8217 -0.2985
  243MPD1    C5 3741   0.420   4.685  17.106 -0.0819 -0.9877 -0.3352
  243MPD1     H 3742   0.676   4.598  17.356 -1.9979 -1.6061  1.3960
  243MPD1    H1 3743   0.563   4.725  16.960 -0.8260 -0.4629 -0.7815
  243MPD1    H2 3744   0.276   4.631  17.250 -0.2250 -2.2766 -0.9716
  243MPD1    H3 3745   0.341   4.733  17.049  0.6994 -0.0276 -0.6180
  243MPD1     N 3746   0.786   4.668  17.126 -0.2196 -0.7842 -0.0524
  243MPD1    H5 3747   0.840   4.668  17.212 -0.3905 -0.6803  0.0548
  243MPD1    N1 3748   0.443   4.574  17.447  0.0991 -0.2666 -0.5131
  243MPD1    H6 3749   0.344   4.563  17.467  0.1649  0.9258  0.4748
  243MPD1    H7 3750   0.508   4.512  17.495  0.0234  0.4568  0.5284
  244MPD1     C 3751   1.381   4.522  17.716 -0.3512  0.4154  0.2239
  244MPD1    C1 3752   1.313   4.430  17.641 -0.4421  0.5463 -0.2883
  244MPD1    C2 3753   1.243   4.474  17.533 -0.1813 -0.5518 -0.5796
  244MPD1    C3 3754   1.275   4.590  17.471  0.1755  0.9041 -0.3387
  244MPD1    C4 3755   1.349   4.678  17.536  0.0277 -0.1351 -1.0929
  244MPD1    C5 3756   1.395   4.647  17.660  0.0216  0.0228 -0.0950
  244MPD1     H 3757   1.165   4.404  17.503  0.4057 -0.0035 -3.3711
  244MPD1    H1 3758   1.369   0.043  17.505  1.4047  0.4570  1.6739
  244MPD1    H2 3759   1.427   4.506   0.064 -0.3732 -1.5305 -0.0903
  244MPD1    H3 3760   1.436   4.725  17.722  0.2346 -0.2285  0.0811
  244MPD1     N 3761   1.225   4.623  17.348  0.3041  0.2092 -0.6042
  244MPD1    H5 3762   1.152   4.559  17.318  0.9082  0.5119 -2.6837
  244MPD1    N1 3763   1.284   4.302  17.696 -0.4086 -0.2677  0.6439
  244MPD1    H6 3764   1.354   4.267   0.012 -0.7919  0.3879  1.3973
  244MPD1    H7 3765   1.279   4.233  17.622  0.4080  0.3520  0.0144
  245MPD1     C 3766   3.456   0.029  13.338  0.1943  0.7485  0.2485
  245MPD1    C1 3767   3.591   0.043  13.320  0.7311 -0.4524 -0.4418
  245MPD1    C2 3768   3.646   0.163  13.341  0.7024 -0.0523 -1.1006
  245MPD1    C3 3769   3.568   0.271  13.386  0.3092  0.2956 -0.0533
  245MPD1    C4 3770   3.431   0.249  13.408  0.2313 -1.1004 -0.2629
  245MPD1    C5 3771   3.380   0.124  13.386  0.0836  0.0535  0.0570
  245MPD1     H 3772   3.752   0.173  13.323  0.6794  0.8347 -0.7159
  245MPD1    H1 3773   3.365   0.327  13.444  0.3045 -2.0157  1.8543
  245MPD1    H2 3774   3.410   4.673  13.309  0.8292  0.8267 -0.9769
  245MPD1    H3 3775   3.278   0.095  13.405  0.3729 -1.4394 -0.6266
  245MPD1     N 3776   3.624   0.395  13.412 -0.3694 -0.9474  0.1249
  245MPD1    H5 3777   3.724   0.407  13.418 -0.7402  2.3531  0.1082
  245MPD1    N1 3778   3.657   4.685  13.242  0.9474  0.7096 -0.4856
  245MPD1    H6 3779   3.616   4.592  13.241 -0.1125  1.1518  1.3956
  245MPD1    H7 3780   3.758   4.670  13.250  0.4690 -0.9708  2.3960
  246MPD1     C 3781   0.136   2.217   9.260 -0.6602  0.0013 -0.3326
  246MPD1    C1 3782   0.108   2.347   9.242 -0.3601 -0.4182 -0.1417
  246MPD1    C2 3783   4.716   2.387   9.272  1.2567 -0.0862 -0.7590
  246MPD1    C3 3784   4.630   2.299   9.330  0.2081  0.5056 -0.0014
  246MPD1    C4 3785   4.669   2.169   9.364 -0.8171  0.4096 -0.0690
  246MPD1    C5 3786   0.055   2.129   9.324  0.6568  0.0322  0.4372
  246MPD1     H 3787   4.696   2.492   9.258  1.8443  0.2227  0.7092
  246MPD1    H1 3788   4.616   2.108   9.436  0.1753 -2.6726 -1.9422
  246MPD1    H2 3789   0.234   2.176   9.235  0.0153  1.1608  0.4306
  246MPD1    H3 3790   0.096   2.029   9.330  4.2945  1.5171  0.3697
  246MPD1     N 3791   4.502   2.346   9.353  0.0620 -0.1742  0.1212
  246MPD1    H5 3792   4.491   2.443   9.325 -0.3365 -0.0192  0.8202
  246MPD1    N1 3793   0.186   2.428   9.155 -0.3651  0.7205 -0.1836
  246MPD1    H6 3794   0.177   2.526   9.179  2.2617  0.6673  1.0010
  246MPD1    H7 3795   0.285   2.405   9.151 -1.0572 -2.1145 -1.5675
  247MPD1     C 3796   2.701   0.522  16.986  0.4128  0.4579  0.3566
  247MPD1    C1 3797   2.636   0.406  16.950  0.3537 -0.1973 -0.3831
  247MPD1    C2 3798   2.625   0.369  16.817  0.1428 -0.2390 -0.0643
  247MPD1    C3 3799   2.692   0.438  16.723  0.1688  0.8342 -0.4544
  247MPD1    C4 3800   2.767   0.546  16.769 -1.2645  0.1988  0.2033
  247MPD1    C5 3801   2.777   0.591  16.891 -0.1009 -0.6265 -0.4658
  247MPD1     H 3802   2.581   0.274  16.790  2.3454 -1.4744  0.6923
  247MPD1    H1 3803   2.827   0.598  16.695  0.3833 -0.3594  1.1518
  247MPD1    H2 3804   2.703   0.560  17.087  0.1044 -1.6720  1.1738
  247MPD1    H3 3805   2.825   0.686  16.912  0.3394 -0.9057 -0.2208
  247MPD1     N 3806   2.705   0.398  16.588 -0.2538  0.1071 -0.4418
  247MPD1    H5 3807   2.774   0.443  16.530 -0.2123 -0.1776 -0.6160
  247MPD1    N1 3808   2.573   0.340  17.059  0.7500 -0.0701  0.1392
  247MPD1    H6 3809   2.506   0.268  17.032  2.6808 -1.8895  0.1953
  247MPD1    H7 3810   2.531   0.400  17.130  1.9488  1.1269 -0.1724
  248MPD1     C 3811   3.940   4.559   0.726  0.3181  0.0116 -0.0140
  248MPD1    C1 3812   3.890   4.691   0.731 -1.1858  0.1426 -0.3484
  248MPD1    C2 3813   3.849   0.008   0.611 -0.4111 -0.1404 -0.4154
  248MPD1    C3 3814   3.845   4.674   0.494  0.7472 -0.5243 -0.9991
  248MPD1    C4 3815   3.889   4.547   0.488  0.3554 -0.2866 -0.2855
  248MPD1    C5 3816   3.926   4.495   0.603  0.6435  1.1707 -1.0259
  248MPD1     H 3817   3.805   0.107   0.613 -2.0179 -0.8940  1.1114
  248MPD1    H1 3818   3.888   4.488   0.397 -2.1379 -2.0114  0.8546
  248MPD1    H2 3819   3.988   4.510   0.810 -1.0480 -0.4669  0.4931
  248MPD1    H3 3820   3.971   4.399   0.583 -0.9904  0.5615 -1.7711
  248MPD1     N 3821   3.786   4.736   0.381 -0.0315 -0.4722  0.2711
  248MPD1    H5 3822   3.776   0.099   0.378 -1.2453 -0.6542 -1.8820
  248MPD1    N1 3823   3.900   0.024   0.849 -0.0349 -0.0611  0.4495
  248MPD1    H6 3824   3.812   0.073   0.864 -0.4571 -0.3640 -1.0650
  248MPD1    H7 3825   3.908   4.701   0.931  2.2443  0.2098  0.4387
  249MPD1     C 3826   0.061   2.788   9.551  0.6647  0.1591 -0.5415
  249MPD1    C1 3827   0.015   2.836   9.672  0.0569  0.6795  0.0319
  249MPD1    C2 3828   0.025   2.974   9.696  0.4912  0.0966  0.0468
  249MPD1    C3 3829   0.100   3.059   9.612  1.1512 -0.0472  0.9039
  249MPD1    C4 3830   0.167   3.004   9.506 -0.2699  0.2407 -0.3488
  249MPD1    C5 3831   0.141   2.870   9.471  0.5441  0.0415  0.1891
  249MPD1     H 3832   4.728   3.018   9.789 -0.5020  0.8450 -0.6865
  249MPD1    H1 3833   0.220   3.070   9.438  1.3663 -1.1109 -0.3809
  249MPD1    H2 3834   0.037   2.685   9.527  1.3254  0.1846 -1.2844
  249MPD1    H3 3835   0.184   2.830   9.381  1.1236  0.5102  0.2573
  249MPD1     N 3836   0.116   3.196   9.642 -0.4214 -0.4067 -0.0371
  249MPD1    H5 3837   0.092   3.226   9.736  0.4006 -2.5430  0.8429
  249MPD1    N1 3838   4.678   2.754   9.756  0.1388  0.0163 -0.3828
  249MPD1    H6 3839   4.729   2.668   9.769  0.1002 -0.1041 -1.0367
  249MPD1    H7 3840   4.669   2.799   9.847  3.1672 -0.8448  0.3191
  250MPD2     C 3841   2.025   3.597  12.844 -0.0708 -0.3793  0.7151
  250MPD2    C1 3842   1.918   3.651  12.904  0.1193  0.1440  0.1583
  250MPD2    C2 3843   1.806   3.574  12.909  0.9027 -0.8560  0.2872
  250MPD2    C3 3844   1.795   3.463  12.832 -0.5270 -0.2052 -0.1129
  250MPD2    C4 3845   1.903   3.405  12.770  0.6808  0.5773  0.4320
  250MPD2    C5 3846   2.018   3.476  12.782  0.2991 -0.1567 -0.6842
  250MPD2     H 3847   1.722   3.626  12.954 -0.8756 -4.1209  0.7198
  250MPD2    H1 3848   1.891   3.308  12.724  0.2872  0.1625  1.4011
  250MPD2    H2 3849   2.122   3.643  12.835  0.5912 -1.7242  1.0742
  250MPD2    H3 3850   2.110   3.449  12.732  1.3450  1.7753  0.1970
  250MPD2     N 3851   1.676   3.395  12.821 -0.8018  0.2785  0.2700
  250MPD2    H5 3852   1.685   3.309  12.768  0.6639  0.4517  0.2517
  250MPD2    N1 3853   1.941   3.773  12.975  0.7044 -0.0152 -0.4697
  250MPD2    H7 3854   2.032   3.813  12.951  1.0828 -0.9746 -0.6147
  251TMC3    C1 3855   1.917   3.958  13.112 -0.6861  0.1485  0.0884
  251TMC3    C2 3856   1.838   4.065  13.131  0.6126 -0.3080  0.8591
  251TMC3    C3 3857   1.886   4.170  13.203  1.1957 -1.1436  0.1534
  251TMC3    C4 3858   2.044   3.955  13.156 -0.6232  0.0003  0.5234
  251TMC3    C5 3859   2.103   4.067  13.208 -0.1163 -0.7059  0.2362
  251TMC3    C6 3860   2.026   4.179  13.232  0.3440 -0.1764  0.1698
  251TMC3     C 3861   1.857   3.843  13.049 -0.4516  0.6073 -0.4956
  251TMC3     O 3862   1.741   3.818  13.079  0.8627  0.5289 -0.0860
  251TMC3     H 3863   1.733   4.056  13.104  0.9797 -2.6669  0.2534
  251TMC3    H1 3864   2.110   3.870  13.140 -1.2972 -0.0588 -1.9899
  251TMC3    H2 3865   2.063   4.264  13.288 -0.6772 -0.9140  1.9575
  251TMC3    C7 3866   2.247   4.081  13.209  0.1653  0.3222 -0.4923
  251TMC3    C8 3867   1.806   4.293  13.192  0.1450  0.5658 -0.1448
  251TMC3    O1 3868   2.309   3.978  13.227  0.3948  0.4160 -0.4982
  251TMC3    O2 3869   1.680   4.292  13.204 -0.0940 -0.0615  1.2054
  252TMC3    C1 3870   1.783   0.600   9.496  0.2573  0.4053  0.3549
  252TMC3    C2 3871   1.889   0.559   9.569 -0.9688 -0.1392  0.2296
  252TMC3    C3 3872   1.864   0.502   9.691  0.0454  0.9215  0.0308
  252TMC3    C4 3873   1.656   0.582   9.542  0.6215  0.3885  0.3553
  252TMC3    C5 3874   1.631   0.509   9.654 -0.0655  0.5197  0.0227
  252TMC3    C6 3875   1.735   0.470   9.732 -0.2258 -0.6488 -0.1252
  252TMC3     C 3876   1.805   0.680   9.381  0.4194 -0.2761  0.3681
  252TMC3     O 3877   1.919   0.724   9.367  0.5876 -0.5341  0.0164
  252TMC3     H 3878   1.989   0.578   9.531 -0.8535 -1.5927 -0.1818
  252TMC3    H1 3879   1.567   0.594   9.481  0.3246 -1.1234  0.4908
  252TMC3    H2 3880   1.713   0.408   9.818  0.7224 -3.3019 -1.7940
  252TMC3    C7 3881   1.508   0.437   9.670 -0.2039  0.8426  0.3797
  252TMC3    C8 3882   1.971   0.458   9.780 -0.0120  0.7577  0.1935
  252TMC3    O1 3883   1.441   0.427   9.567  0.3918 -0.4300  0.3621
  252TMC3    O2 3884   1.935   0.442   9.897 -0.1247 -0.8701  0.1493
  253MPD2     C 3885   2.864   3.635  15.093  0.5501 -0.3387  0.0256
  253MPD2    C1 3886   2.726   3.646  15.110  0.4831 -0.3794 -0.7715
  253MPD2    C2 3887   2.667   3.705  15.222  0.4614 -0.1784  0.5055
  253MPD2    C3 3888   2.753   3.762  15.317  0.2993 -0.1829 -0.0391
  253MPD2    C4 3889   2.888   3.762  15.291  0.8674  0.0133 -0.4221
  253MPD2    C5 3890   2.944   3.696  15.184  0.3599 -1.0018  0.3716
  253MPD2     H 3891   2.559   3.710  15.233  0.2659 -2.9586 -0.1531
  253MPD2    H1 3892   2.955   3.815  15.358  1.2178 -1.9851  0.7987
  253MPD2    H2 3893   2.909   3.584  15.008  0.2836 -3.4780  1.7345
  253MPD2    H3 3894   3.051   3.690  15.166  0.4507  1.2377  0.1658
  253MPD2     N 3895   2.714   3.821  15.436  0.0466  0.6306 -0.3222
  253MPD2    H5 3896   2.786   3.869  15.489 -1.9687  2.5084  0.6790
  253MPD2    N1 3897   2.632   3.608  15.015 -0.0289 -0.2898 -0.2192
  253MPD2    H7 3898   2.534   3.626  15.036  0.0728  0.6124 -0.4996
  254TMC3    C1 3899   2.573   3.916  15.596  0.4347 -0.8393 -0.2419
  254TMC3    C2 3900   2.455   3.974  15.626 -0.5244 -0.2895 -0.5373
  254TMC3    C3 3901   2.430   4.027  15.742 -0.3647 -0.8504 -0.0037
  254TMC3    C4 3902   2.679   3.923  15.681 -0.1986  0.6411  0.0943
  254TMC3    C5 3903   2.647   3.960  15.804  0.1965  0.0128  0.1328
  254TMC3    C6 3904   2.524   4.009  15.840 -0.2267 -0.6654 -0.1792
  254TMC3     C 3905   2.587   3.834  15.471 -0.2314 -0.4341  0.6970
  254TMC3     O 3906   2.484   3.812  15.413 -0.1741 -0.3019  0.1682
  254TMC3     H 3907   2.380   3.986  15.548  0.6663  1.5944 -1.4016
  254TMC3    H1 3908   2.777   3.882  15.663 -0.4303 -0.3677  1.1202
  254TMC3    H2 3909   2.516   4.041  15.944 -0.8885  1.5749 -0.9289
  254TMC3    C7 3910   2.743   3.956  15.909  0.0145  0.2583  0.3615
  254TMC3    C8 3911   2.302   4.079  15.777  0.1442  0.4726  0.1023
  254TMC3    O1 3912   2.700   3.935  16.022  0.1107  0.7322 -0.4693
  254TMC3    O2 3913   2.275   4.077  15.900  0.3481  0.5637 -0.3312
  255MPD2     C 3914   1.187   2.377  10.288  0.1439 -0.0289 -0.4837
  255MPD2    C1 3915   1.150   2.245  10.259  0.2861 -0.5003  0.2374
  255MPD2    C2 3916   1.245   2.155  10.208 -0.3704  0.4818 -0.0050
  255MPD2    C3 3917   1.374   2.198  10.175 -0.2945  0.1438 -0.5412
  255MPD2    C4 3918   1.395   2.333  10.184  0.2104 -0.1201  0.5474
  255MPD2    C5 3919   1.308   2.419  10.240 -0.9565 -0.0268 -0.4571
  255MPD2     H 3920   1.222   2.051  10.191  1.1799 -0.1680  1.8354
  255MPD2    H1 3921   1.485   2.385  10.155 -0.0995  1.2599  2.0542
  255MPD2    H2 3922   1.115   2.450  10.321  0.0252 -0.2947 -0.1613
  255MPD2    H3 3923   1.326   2.525  10.253 -3.1795  0.2920  0.0635
  255MPD2     N 3924   1.459   2.105  10.110  0.0237 -1.0086 -0.1741
  255MPD2    H5 3925   1.428   2.009  10.122  0.3167 -1.0827 -0.0084
  255MPD2    N1 3926   1.012   2.208  10.288 -0.9341  0.1494  0.4024
  255MPD2    H7 3927   0.964   2.257  10.363  0.7508  2.0012  0.2593
  256TMC3    C1 3928   0.810   2.084  10.230  0.3794  0.9605  1.2445
  256TMC3    C2 3929   0.733   2.194  10.225  0.4204 -0.5976 -0.1942
  256TMC3    C3 3930   0.605   2.179  10.170  0.8309  0.3426  0.4626
  256TMC3    C4 3931   0.765   1.953  10.203 -1.1124 -0.0048  0.1466
  256TMC3    C5 3932   0.640   1.947  10.156 -0.1774 -0.3380 -0.8069
  256TMC3    C6 3933   0.557   2.054  10.136  0.8715 -0.2383  0.5558
  256TMC3     C 3934   0.954   2.095  10.233  0.4079 -0.4943 -0.1101
  256TMC3     O 3935   1.010   2.008  10.164 -0.1883  0.9441 -0.3172
  256TMC3     H 3936   0.764   2.294  10.255 -0.5383 -0.7552  1.3074
  256TMC3    H1 3937   0.830   1.868  10.220 -0.9123 -0.2215 -1.7710
  256TMC3    H2 3938   0.458   2.050  10.091  1.0518  0.9795  0.0502
  256TMC3    C7 3939   0.588   1.809  10.124  0.1276  0.0142  0.3015
  256TMC3    C8 3940   0.553   2.287  10.082  0.5198 -0.6755 -0.6626
  256TMC3    O1 3941   0.671   1.724  10.093 -0.0101  0.0393  0.2972
  256TMC3    O2 3942   0.468   2.261  10.003  0.0577 -0.0649 -0.2345
  257MPD2     C 3943   0.196   4.044  13.219  0.2849  0.6622 -0.2737
  257MPD2    C1 3944   0.143   3.947  13.131 -0.1324 -0.2433 -0.2384
  257MPD2    C2 3945   0.093   3.829  13.195 -0.2398 -1.1344 -0.2541
  257MPD2    C3 3946   0.104   3.801  13.325  0.3485  0.1576 -0.2592
  257MPD2    C4 3947   0.154   3.894  13.413 -0.2180 -0.1694 -0.5286
  257MPD2    C5 3948   0.200   4.012  13.355  0.1275 -0.3674  0.5081
  257MPD2     H 3949   0.053   3.747  13.137 -0.6702  0.5900 -2.4348
  257MPD2    H1 3950   0.163   3.879  13.521 -1.9862  0.5202 -0.2917
  257MPD2    H2 3951   0.236   4.137  13.179  0.8127  0.3388 -0.4977
  257MPD2    H3 3952   0.237   4.091  13.420  1.6559 -1.1977  0.6290
  257MPD2     N 3953   0.068   3.665  13.368  0.0377  0.2327 -0.4754
  257MPD2    H5 3954   0.026   3.609  13.295 -0.0952  0.2720 -0.4285
  257MPD2    N1 3955   0.159   3.953  12.991  0.3584 -0.5419 -0.4238
  257MPD2    H7 3956   0.210   4.021  12.935  0.5475  0.8749  1.4421
  258TMC3    C1 3957   0.152   3.471  13.448 -0.8208 -0.7667 -0.7381
  258TMC3    C2 3958   0.167   3.427  13.314 -0.1305  0.3977 -0.2771
  258TMC3    C3 3959   0.249   3.321  13.287  0.7640  0.4928  0.1019
  258TMC3    C4 3960   0.211   3.408  13.553  1.4211 -0.0669 -0.0481
  258TMC3    C5 3961   0.292   3.299  13.520  0.9577 -0.6189 -0.1010
  258TMC3    C6 3962   0.305   3.253  13.389 -0.9538  0.7019 -0.0860
  258TMC3     C 3963   0.114   3.605  13.481 -0.7388  0.7687  0.1334
  258TMC3     O 3964   0.139   3.655  13.588  1.0596  0.0964 -0.0321
  258TMC3     H 3965   0.123   3.476  13.228 -0.9477 -0.4919 -0.3669
  258TMC3    H1 3966   0.206   3.448  13.654 -2.1568  2.5467 -1.2261
  258TMC3    H2 3967   0.365   3.164  13.374  0.2357  1.2494  1.3537
  258TMC3    C7 3968   0.377   3.240  13.619 -0.3136 -0.1416  0.3903
  258TMC3    C8 3969   0.315   3.325  13.159 -0.0906  1.0397  0.2575
  258TMC3    O1 3970   0.478   3.193  13.570  0.1537  0.4228 -0.6058
  258TMC3    O2 3971   0.331   3.440  13.122 -0.0247  1.1792 -0.2518
  259MPD2     C 3972   3.898   1.003   0.819  1.0069  0.1159 -0.0370
  259MPD2    C1 3973   3.988   0.903   0.819 -0.9253 -0.0033 -0.0894
  259MPD2    C2 3974   4.009   0.838   0.702  0.1791  0.6802  0.2812
  259MPD2    C3 3975   3.957   0.870   0.580  0.2647  0.5225  0.1291
  259MPD2    C4 3976   3.873   0.980   0.586 -0.3574 -0.3281  0.3439
  259MPD2    C5 3977   3.832   1.033   0.703 -0.1835  0.3027 -0.1252
  259MPD2     H 3978   4.072   0.750   0.705 -0.0863  0.4349 -1.7031
  259MPD2    H1 3979   3.814   1.015   0.502 -0.3978  2.4127  1.5098
  259MPD2    H2 3980   3.884   1.066   0.906 -2.9771 -1.4258  0.4177
  259MPD2    H3 3981   3.754   1.108   0.711  1.8612  2.6909 -2.3816
  259MPD2     N 3982   4.010   0.806   0.470 -0.2764 -0.0863  0.1734
  259MPD2    H5 3983   4.082   0.738   0.491 -1.1156  0.3664  4.3983
  259MPD2    N1 3984   4.043   0.863   0.944  0.2382 -0.5883  0.1251
  259MPD2    H7 3985   4.008   0.902   1.031 -3.8223 -0.8523 -1.4100
  260TMC3    C1 3986   4.078   0.767   0.257 -0.8204  0.8172  0.0063
  260TMC3    C2 3987   4.118   0.829   0.141 -0.4142  0.2460  0.2336
  260TMC3    C3 3988   4.242   0.789   0.089  0.1356  0.2972  0.9945
  260TMC3    C4 3989   4.146   0.657   0.311 -0.7095  1.1696  0.1023
  260TMC3    C5 3990   4.270   0.624   0.252 -0.2538  0.3346 -0.5275
  260TMC3    C6 3991   4.324   0.696   0.148  0.1921  0.2932 -0.0061
  260TMC3     C 3992   3.998   0.851   0.341  0.5463  0.4965 -0.3864
  260TMC3     O 3993   3.933   0.945   0.299  0.4760 -0.5776  0.1985
  260TMC3     H 3994   4.058   0.903   0.088 -1.1224 -1.8228 -1.8487
  260TMC3    H1 3995   4.089   0.591   0.376  1.3361 -0.7960 -0.0890
  260TMC3    H2 3996   4.424   0.676   0.114  1.3872  1.3168  2.8594
  260TMC3    C7 3997   4.295   0.478   0.242 -0.2748  0.5487 -0.3456
  260TMC3    C8 3998   4.275   0.821  17.703  0.3071 -0.5859  0.0093
  260TMC3    O1 3999   4.345   0.434   0.142 -1.0542 -0.4671  0.2015
  260TMC3    O2 4000   4.247   0.928  17.654 -0.2230 -0.2201  0.4887
  261MPD2     C 4001   0.905   3.398  12.552  0.2789 -0.2009  0.7342
  261MPD2    C1 4002   1.033   3.452  12.546 -0.2671 -0.1978  0.0756
  261MPD2    C2 4003   1.055   3.560  12.468  0.0036  0.2037 -0.4729
  261MPD2    C3 4004   0.953   3.614  12.389  0.5079  0.1570  0.0430
  261MPD2    C4 4005   0.827   3.560  12.399  0.1048  0.4495 -0.2079
  261MPD2    C5 4006   0.809   3.450  12.475 -0.0393  0.3220  0.5720
  261MPD2     H 4007   1.155   3.602  12.469  0.0688  0.0462 -0.2105
  261MPD2    H1 4008   0.741   3.585  12.338  0.9764  0.9309 -1.2298
  261MPD2    H2 4009   0.878   3.312  12.612 -0.1328  0.2599  1.2156
  261MPD2    H3 4010   0.710   3.406  12.486  0.7206 -1.3798  0.6032
  261MPD2     N 4011   0.986   3.729  12.313 -0.3579  0.2564  0.2283
  261MPD2    H5 4012   1.086   3.745  12.312 -0.3092  0.0376  1.9771
  261MPD2    N1 4013   1.127   3.405  12.639  0.1749  0.3540 -0.2796
  261MPD2    H7 4014   1.205   3.470  12.649 -0.1630  0.8588 -0.8514
  262TMC3    C1 4015   0.944   3.907  12.140 -0.1456 -0.4597  0.1549
  262TMC3    C2 4016   0.854   3.995  12.081  0.7455 -0.5810 -0.8027
  262TMC3    C3 4017   0.897   4.070  11.978  0.2018  1.1931 -0.1069
  262TMC3    C4 4018   1.071   3.882  12.090  0.0707 -0.7513  0.6403
  262TMC3    C5 4019   1.097   3.951  11.974 -0.9130 -0.5849  0.2439
  262TMC3    C6 4020   1.021   4.049  11.927 -0.2349 -0.4008  0.3024
  262TMC3     C 4021   0.894   3.803  12.237 -0.5174 -0.0828  0.0159
  262TMC3     O 4022   0.775   3.811  12.255  0.2867  0.2297  0.3004
  262TMC3     H 4023   0.761   4.018  12.131  1.6541  1.5109 -0.0675
  262TMC3    H1 4024   1.134   3.801  12.126  0.7378 -1.2627 -1.6655
  262TMC3    H2 4025   1.049   4.110  11.841  0.7459 -0.3600  0.6566
  262TMC3    C7 4026   1.200   3.905  11.885  0.2423 -0.3405 -0.4085
  262TMC3    C8 4027   0.823   4.175  11.920  0.4364 -0.6099  0.5422
  262TMC3    O1 4028   1.312   3.882  11.933  0.1207  0.3020  0.4831
  262TMC3    O2 4029   0.883   4.282  11.905  0.0036  0.0823 -0.1889
  263MPD2     C 4030   1.935   3.008  11.577  0.2484  0.0525  0.6857
  263MPD2    C1 4031   2.011   3.106  11.521 -0.5497 -0.2824 -0.1628
  263MPD2    C2 4032   1.958   3.192  11.434 -0.0595 -0.3497 -0.3274
  263MPD2    C3 4033   1.825   3.185  11.405 -0.3051 -0.1532 -0.1412
  263MPD2    C4 4034   1.743   3.090  11.463  0.2596 -0.2117  0.2130
  263MPD2    C5 4035   1.802   2.991  11.549 -0.8769  0.3545 -1.0504
  263MPD2     H 4036   2.014   3.271  11.385 -1.7107 -0.4795 -2.4250
  263MPD2    H1 4037   1.638   3.062  11.455 -0.2790  2.4827 -2.2269
  263MPD2    H2 4038   1.987   2.951  11.653 -1.6507  1.5561  3.1058
  263MPD2    H3 4039   1.754   2.906  11.597  1.7736 -1.0179 -0.8286
  263MPD2     N 4040   1.786   3.277  11.308 -0.0332 -0.2978 -0.6841
  263MPD2    H5 4041   1.850   3.348  11.273 -0.7504 -0.3867 -2.1692
  263MPD2    N1 4042   2.143   3.111  11.556 -0.5319 -0.0997  0.4507
  263MPD2    H7 4043   2.162   3.037  11.623  2.8275  0.2499 -0.1159
  264TMC3    C1 4044   1.661   3.369  11.137  0.4396  0.6223 -0.4638
  264TMC3    C2 4045   1.707   3.497  11.172  0.6607 -0.0381 -0.4056
  264TMC3    C3 4046   1.752   3.591  11.082  0.4328  0.4354 -0.7223
  264TMC3    C4 4047   1.689   3.334  11.009  0.5115 -0.1838 -0.1787
  264TMC3    C5 4048   1.729   3.430  10.915 -0.4666 -0.1367  0.5991
  264TMC3    C6 4049   1.752   3.562  10.951  0.1696 -0.9854 -0.4190
  264TMC3     C 4050   1.672   3.264  11.235  0.8987 -0.0249 -0.0784
  264TMC3     O 4051   1.588   3.176  11.233  0.2251 -0.5935 -0.3172
  264TMC3     H 4052   1.713   3.515  11.279  2.3304 -0.1245 -0.4762
  264TMC3    H1 4053   1.667   3.232  10.981 -1.6600 -0.3266  2.0065
  264TMC3    H2 4054   1.811   3.626  10.885  0.4755 -1.3837 -0.5282
  264TMC3    C7 4055   1.755   3.391  10.771 -0.0271 -0.3303  0.1955
  264TMC3    C8 4056   1.817   3.707  11.123  0.0521 -0.0027 -0.3168
  264TMC3    O1 4057   1.772   3.486  10.695  0.2641 -0.0471 -0.4928
  264TMC3    O2 4058   1.882   3.772  11.039  0.0434  0.3194 -0.3268
  265MPD2     C 4059   3.979   3.329  15.607 -0.2891 -0.4237 -0.2368
  265MPD2    C1 4060   3.951   3.444  15.535 -0.5844  0.8194  0.0240
  265MPD2    C2 4061   3.993   3.447  15.405  0.3234 -0.0841 -0.1368
  265MPD2    C3 4062   4.060   3.342  15.343 -0.4099 -0.4105  0.3122
  265MPD2    C4 4063   4.083   3.236  15.421 -0.7007  0.2199  0.0275
  265MPD2    C5 4064   4.046   3.225  15.549  0.1582 -0.0284 -0.3218
  265MPD2     H 4065   3.973   3.539  15.352  0.9718  0.2004  0.1167
  265MPD2    H1 4066   4.157   3.167  15.383 -1.3106 -1.0232  1.1035
  265MPD2    H2 4067   3.950   3.323  15.711  1.8024  0.8837  0.4080
  265MPD2    H3 4068   4.071   3.135  15.603  0.7192 -0.7073 -1.6940
  265MPD2     N 4069   4.097   3.332  15.211 -0.3321  0.4549 -0.0619
  265MPD2    H5 4070   4.138   3.245  15.179 -0.2848  0.3846  0.1910
  265MPD2    N1 4071   3.894   3.566  15.582 -0.0444 -0.1572  0.0808
  265MPD2    H7 4072   3.871   3.644  15.522 -0.5834 -0.7380 -0.4651
  266TMC3    C1 4073   3.858   3.736  15.737 -0.1688 -0.6717 -0.0306
  266TMC3    C2 4074   3.915   3.789  15.843  0.3181  0.5648 -0.0566
  266TMC3    C3 4075   3.900   3.924  15.863  0.3635 -0.3180  0.5931
  266TMC3    C4 4076   3.779   3.814  15.648  0.3521 -0.1025 -0.1754
  266TMC3    C5 4077   3.772   3.947  15.673 -0.2349  0.1442 -0.5203
  266TMC3    C6 4078   3.842   4.001  15.773  0.0648  0.1066  0.3835
  266TMC3     C 4079   3.884   3.595  15.712 -0.6665 -0.1800 -0.5071
  266TMC3     O 4080   3.900   3.529  15.814  0.0308 -0.1468 -0.7016
  266TMC3     H 4081   3.975   3.724  15.905  1.3035  1.0409 -0.5002
  266TMC3    H1 4082   3.722   3.764  15.570  0.9673  1.2226 -1.4769
  266TMC3    H2 4083   3.815   4.102  15.802 -1.8197  0.1471 -1.5536
  266TMC3    C7 4084   3.741   4.039  15.564 -0.4580 -0.1505  0.6559
  266TMC3    C8 4085   3.969   3.975  15.977  0.1976  0.0120  0.9954
  266TMC3    O1 4086   3.827   4.124  15.544  0.4247  0.5849 -0.0521
  266TMC3    O2 4087   4.053   3.903  16.035  0.1510 -0.4382  0.2970
  267MPD2     C 4088   0.970   0.554   0.263  0.1644 -0.3491  0.0387
  267MPD2    C1 4089   1.030   0.679   0.233  0.2192 -0.0488 -0.0011
  267MPD2    C2 4090   0.973   0.760   0.133  0.0031 -0.4867  0.2659
  267MPD2    C3 4091   0.863   0.712   0.065 -0.0345  0.4209 -0.9327
  267MPD2    C4 4092   0.798   0.594   0.104  0.3719 -0.4561  0.2915
  267MPD2    C5 4093   0.858   0.518   0.199  0.6143 -0.4119  0.5518
  267MPD2     H 4094   1.002   0.861   0.104  1.0362 -0.8162  0.1610
  267MPD2    H1 4095   0.716   0.550   0.049 -0.8618  0.1016  1.6827
  267MPD2    H2 4096   1.012   0.486   0.336 -1.3866 -2.1038 -0.7097
  267MPD2    H3 4097   0.807   0.426   0.225  0.1569 -0.7278 -1.4544
  267MPD2     N 4098   0.800   0.786  17.713 -0.3754  0.0751  0.0446
  267MPD2    H5 4099   0.738   0.733  17.652 -1.1487  2.7638 -1.4708
  267MPD2    N1 4100   1.150   0.705   0.301 -0.6750 -0.8222 -0.4345
  267MPD2    H7 4101   1.198   0.632   0.353  2.2300  0.2151 -1.6131
  268TMC3    C1 4102   1.349   0.810   0.358 -0.6628 -0.7690  0.2708
  268TMC3    C2 4103   1.452   0.884   0.311  0.0936  0.3302 -0.2537
  268TMC3    C3 4104   1.571   0.866   0.382  0.0189  0.6072 -0.0022
  268TMC3    C4 4105   1.350   0.748   0.479  0.1336  0.5070 -0.1754
  268TMC3    C5 4106   1.459   0.753   0.555  0.4227 -0.0492  0.0811
  268TMC3    C6 4107   1.578   0.795   0.500  0.1366 -0.5030  0.1440
  268TMC3     C 4108   1.225   0.822   0.286  0.2898  0.3029  0.1021
  268TMC3     O 4109   1.197   0.925   0.230 -0.1281  0.1145 -0.0237
  268TMC3     H 4110   1.437   0.932   0.214 -0.2462 -0.1901 -0.4552
  268TMC3    H1 4111   1.257   0.723   0.528 -1.5506  2.6060 -2.2712
  268TMC3    H2 4112   1.673   0.780   0.549  1.9829 -0.2719 -3.3597
  268TMC3    C7 4113   1.467   0.663   0.670  0.3783 -0.4308 -0.8084
  268TMC3    C8 4114   1.694   0.876   0.303  0.3390 -0.2860 -0.9238
  268TMC3    O1 4115   1.572   0.623   0.707 -0.8238 -0.3950  0.3004
  268TMC3    O2 4116   1.791   0.804   0.338  0.4462  0.2775 -0.2316
  269MPD2     C 4117   1.847   4.372  15.344 -0.6824  0.1054  0.0418
  269MPD2    C1 4118   1.758   4.409  15.447 -0.2253  1.1167 -0.0972
  269MPD2    C2 4119   1.699   4.536  15.444 -0.5202 -0.0842 -0.8489
  269MPD2    C3 4120   1.739   4.629  15.346  0.3845  0.1101  0.5255
  269MPD2    C4 4121   1.833   4.600  15.249 -0.0041 -0.4695 -0.3323
  269MPD2    C5 4122   1.877   4.470  15.245  0.5107  0.0890 -0.8341
  269MPD2     H 4123   1.627   4.569  15.518 -1.2973 -0.8136 -1.2850
  269MPD2    H1 4124   1.854   4.655  15.158 -0.0875  1.8814  1.0775
  269MPD2    H2 4125   1.886   4.271  15.344 -1.0612 -0.0442 -0.2262
  269MPD2    H3 4126   1.934   4.433  15.160  1.1378  0.8006 -0.7198
  269MPD2     N 4127   1.678   0.019  15.358  1.2780 -0.0659  0.1059
  269MPD2    H5 4128   1.594   0.031  15.413  2.2404  0.4276  1.4663
  269MPD2    N1 4129   1.728   4.304  15.538  0.0009 -0.1375 -0.3178
  269MPD2    H7 4130   1.779   4.218  15.519  2.6491  1.4253 -0.2694
  270TMC3    C1 4131   1.623   4.179  15.701 -0.7240  0.6484  0.4359
  270TMC3    C2 4132   1.495   4.114  15.712 -0.4577 -0.1649 -0.4048
  270TMC3    C3 4133   1.495   3.984  15.747 -0.0441 -0.5203  0.2308
  270TMC3    C4 4134   1.745   4.111  15.714  0.1233  0.1459 -0.4288
  270TMC3    C5 4135   1.739   3.982  15.746 -0.1405 -0.0238  0.3201
  270TMC3    C6 4136   1.614   3.921  15.772  0.5441 -0.1298 -0.1847
  270TMC3     C 4137   1.625   4.302  15.627  0.1663 -0.1295  0.2940
  270TMC3     O 4138   1.528   4.376  15.634 -0.1480  0.3233  0.2404
  270TMC3     H 4139   1.404   4.167  15.684  0.0275 -1.2722 -4.1020
  270TMC3    H1 4140   1.846   4.150  15.728 -0.6744  2.8989 -2.3304
  270TMC3    H2 4141   1.614   3.823  15.817 -1.0997  0.1561  0.4327
  270TMC3    C7 4142   1.848   3.898  15.700 -0.4026  0.1837 -0.8476
  270TMC3    C8 4143   1.433   3.902  15.640  0.6569  0.5039 -0.5517
  270TMC3    O1 4144   1.965   3.924  15.729  0.1088  0.1275  0.0778
  270TMC3    O2 4145   1.508   3.819  15.593 -0.5777 -0.0235 -0.3885
  271MPD2     C 4146   0.957   3.690  13.794  0.1041 -0.0510 -0.2297
  271MPD2    C1 4147   0.930   3.718  13.928 -0.7593  0.4604 -0.5107
  271MPD2    C2 4148   0.839   3.824  13.948  0.0013 -0.0517 -0.3785
  271MPD2    C3 4149   0.776   3.889  13.838  0.1734 -0.2004  0.0078
  271MPD2    C4 4150   0.813   3.853  13.711  1.1027 -0.0217 -0.3623
  271MPD2    C5 4151   0.907   3.761  13.694 -0.4117  0.1992  0.1133
  271MPD2     H 4152   0.802   3.840  14.048  1.9071  2.5195 -0.0735
  271MPD2    H1 4153   0.765   3.904  13.628  0.2991  0.0928  0.1640
  271MPD2    H2 4154   1.024   3.607  13.777 -0.7434 -1.2299  2.1371
  271MPD2    H3 4155   0.932   3.735  13.592  0.5460  0.6173  0.2476
  271MPD2     N 4156   0.662   3.969  13.847  0.0276 -0.0704 -0.0325
  271MPD2    H5 4157   0.617   3.980  13.756 -1.2260 -1.3654  0.4287
  271MPD2    N1 4158   0.975   3.655  14.039 -0.0601  0.3933 -0.3999
  271MPD2    H7 4159   0.935   3.698  14.122  1.2279  0.5371  0.1471
  272TMC3    C1 4160   1.098   3.512  14.184  0.0478  0.0169 -0.2121
  272TMC3    C2 4161   1.224   3.476  14.201  0.8152  0.0401  0.5357
  272TMC3    C3 4162   1.284   3.504  14.323  0.3635  0.2596 -0.3635
  272TMC3    C4 4163   1.025   3.569  14.284 -0.2667 -0.0622  0.7566
  272TMC3    C5 4164   1.084   3.602  14.400  0.3731 -0.1320 -0.0189
  272TMC3    C6 4165   1.216   3.563  14.428  0.8663 -0.4371  0.7545
  272TMC3     C 4166   1.059   3.546  14.049  0.1008 -0.9625 -0.1958
  272TMC3     O 4167   1.129   3.501  13.957 -0.2107  0.4298  0.1060
  272TMC3     H 4168   1.276   3.420  14.124  1.1961 -0.6694  1.3111
  272TMC3    H1 4169   0.925   3.601  14.257  0.4042  1.5136  0.1373
  272TMC3    H2 4170   1.254   3.596  14.524  0.0420  1.5316  0.3956
  272TMC3    C7 4171   1.002   3.661  14.497 -0.2393 -0.0790 -0.1248
  272TMC3    C8 4172   1.427   3.496  14.328 -0.4053  0.0782 -0.0634
  272TMC3    O1 4173   0.882   3.643  14.493  0.6245 -0.1506 -0.1965
  272TMC3    O2 4174   1.479   3.479  14.218 -0.4572  0.5200 -0.0366
  273MPD2     C 4175   2.347   1.634  11.089  0.5209  0.1638 -0.3984
  273MPD2    C1 4176   2.394   1.727  11.182 -0.3252  0.0961 -0.1846
  273MPD2    C2 4177   2.501   1.804  11.135  0.3752 -0.3214 -0.4310
  273MPD2    C3 4178   2.546   1.805  11.010 -0.5686  0.2570  0.1017
  273MPD2    C4 4179   2.500   1.715  10.921 -0.2641  0.4226  0.5488
  273MPD2    C5 4180   2.394   1.631  10.958  0.5222  0.2015  0.0672
  273MPD2     H 4181   2.543   1.880  11.200  0.7697 -1.9234  1.1957
  273MPD2    H1 4182   2.553   1.704  10.827 -0.7968  0.6326  0.2252
  273MPD2    H2 4183   2.268   1.562  11.109  0.2289  0.5197 -0.2892
  273MPD2    H3 4184   2.351   1.558  10.890  0.7986  1.6481 -1.6641
  273MPD2     N 4185   2.636   1.905  10.966 -0.0911 -0.4466  0.1997
  273MPD2    H5 4186   2.679   1.893  10.876 -0.7123  0.0174 -0.1606
  273MPD2    N1 4187   2.346   1.719  11.306  0.0739 -0.3866 -0.0828
  273MPD2    H7 4188   2.268   1.660  11.332  0.7008 -0.9453  0.5240
  274TMC3    C1 4189   2.732   2.119  10.938 -0.2528 -0.3827  0.0053
  274TMC3    C2 4190   2.708   2.114  10.802  0.8383  0.0137  0.3205
  274TMC3    C3 4191   2.713   2.225  10.723 -0.1136 -0.5205 -0.0250
  274TMC3    C4 4192   2.765   2.238  10.992 -1.0095  0.2440 -0.0021
  274TMC3    C5 4193   2.769   2.357  10.916 -0.4852 -0.5595 -0.1661
  274TMC3    C6 4194   2.743   2.349  10.780  1.0034  0.2604 -0.7018
  274TMC3     C 4195   2.668   2.026  11.024  0.2895 -0.0419 -0.9453
  274TMC3     O 4196   2.624   2.073  11.125 -0.4110  0.1561  0.2492
  274TMC3     H 4197   2.677   2.022  10.754  2.0722 -0.2114 -0.0658
  274TMC3    H1 4198   2.773   2.242  11.101 -0.5193 -1.0167  0.0058
  274TMC3    H2 4199   2.739   2.440  10.722 -1.3736 -1.5087 -3.3360
  274TMC3    C7 4200   2.733   2.482  10.983 -0.5743  0.4979  0.2007
  274TMC3    C8 4201   2.622   2.231  10.607 -0.1927  1.0511  0.0436
  274TMC3    O1 4202   2.646   2.475  11.070 -0.3099 -0.1164  0.6873
  274TMC3    O2 4203   2.573   2.122  10.581 -0.4894 -0.1114  0.0779
  275MPD2     C 4204   2.365   0.156  14.810 -0.3440  0.0080 -0.0536
  275MPD2    C1 4205   2.393   0.019  14.794 -0.0706  0.0377  0.3876
  275MPD2    C2 4206   2.313   4.679  14.711  0.5921  0.3395  0.6165
  275MPD2    C3 4207   2.205   4.737  14.646  0.1018  0.2132 -0.0163
  275MPD2    C4 4208   2.179   0.136  14.647 -0.0407 -0.1699 -0.7277
  275MPD2    C5 4209   2.266   0.208  14.729  0.0715  0.9035  0.0114
  275MPD2     H 4210   2.334   4.573  14.709  1.9643  0.6140  0.5311
  275MPD2    H1 4211   2.107   0.192  14.588  1.6817  3.5337  0.6708
  275MPD2    H2 4212   2.419   0.230  14.868 -1.2103  0.8256 -0.2928
  275MPD2    H3 4213   2.258   0.316  14.729  0.1475  0.8972 -2.4497
  275MPD2     N 4214   2.112   4.667  14.569  0.0222 -0.1488 -0.0203
  275MPD2    H5 4215   2.043   4.722  14.519 -1.0152  0.1402  1.7247
  275MPD2    N1 4216   2.502   4.695  14.858 -0.0065 -0.2164  0.3027
  275MPD2    H7 4217   2.518   4.598  14.832 -0.5201 -0.0907 -0.4626
  276TMC3    C1 4218   2.724   4.692  14.948  0.2542  1.0904 -0.0538
  276TMC3    C2 4219   2.750   4.590  14.862  0.0394 -0.6436 -0.6410
  276TMC3    C3 4220   2.879   4.545  14.869  0.2769 -0.2723 -0.7478
  276TMC3    C4 4221   2.810   0.010  15.036  0.2104 -0.2198 -0.0231
  276TMC3    C5 4222   2.936   4.696  15.035  0.5893  0.2238  0.6232
  276TMC3    C6 4223   2.977   4.591  14.954 -0.0638 -0.1485  0.4437
  276TMC3     C 4224   2.596   0.021  14.931  0.7179 -0.2589  0.4972
  276TMC3     O 4225   2.575   0.124  14.995 -0.4531  0.3197  0.4486
  276TMC3     H 4226   2.682   4.558  14.785 -2.5817  2.5449  0.3605
  276TMC3    H1 4227   2.781   0.092  15.101  2.7092  1.0321 -0.5205
  276TMC3    H2 4228   3.081   4.559  14.955 -0.4133 -1.3697 -1.3267
  276TMC3    C7 4229   3.026   0.020  15.128 -1.1228 -1.0544 -0.1798
  276TMC3    C8 4230   2.923   4.429  14.785 -0.2133 -0.7225 -0.8498
  276TMC3    O1 4231   2.981   0.097  15.211 -0.5647 -0.2818 -0.2263
  276TMC3    O2 4232   3.043   4.416  14.773 -0.5034  0.5154 -0.5223
  277MPD2     C 4233   4.406   3.830  13.334  0.0238  0.1626  0.5469
  277MPD2    C1 4234   4.281   3.797  13.286  0.1419 -0.4881 -0.0178
  277MPD2    C2 4235   4.168   3.807  13.368  0.4706  0.4698 -0.0143
  277MPD2    C3 4236   4.187   3.833  13.505 -0.1950  0.1929  0.5576
  277MPD2    C4 4237   4.317   3.853  13.550 -0.4029  0.1532  0.2829
  277MPD2    C5 4238   4.424   3.852  13.469  0.2659 -0.2294  0.6588
  277MPD2     H 4239   4.067   3.793  13.332  0.0835  0.7648  0.9601
  277MPD2    H1 4240   4.326   3.897  13.649 -4.2607  0.5551  0.4523
  277MPD2    H2 4241   4.496   3.805  13.277 -0.0879  0.6452  0.1589
  277MPD2    H3 4242   4.524   3.859  13.511  0.9781  0.1565 -1.0867
  277MPD2     N 4243   4.068   3.836  13.589  0.2131 -0.5371  0.0331
  277MPD2    H5 4244   3.985   3.818  13.535  0.9281  0.3134 -1.3483
  277MPD2    N1 4245   4.278   3.762  13.148  0.0253  0.1596 -0.9796
  277MPD2    H7 4246   4.361   3.766  13.089 -0.9643  2.4682 -2.2280
  278TMC3    C1 4247   3.941   3.819  13.782  0.3026  0.2186 -0.1179
  278TMC3    C2 4248   3.933   3.766  13.912 -0.2931 -0.0181 -0.1272
  278TMC3    C3 4249   3.823   3.689  13.948 -0.5430  0.0866  0.2011
  278TMC3    C4 4250   3.842   3.808  13.690  0.0461  0.4714  0.4307
  278TMC3    C5 4251   3.727   3.762  13.739  0.2730  0.5262  0.1257
  278TMC3    C6 4252   3.718   3.691  13.858  0.6056 -0.4299  0.5008
  278TMC3     C 4253   4.068   3.849  13.725  0.1625 -0.5415 -0.8476
  278TMC3     O 4254   4.157   3.870  13.808 -0.2706 -0.1843 -0.3134
  278TMC3     H 4255   4.019   3.779  13.976  1.0608 -3.4548 -1.2809
  278TMC3    H1 4256   3.845   3.853  13.592  1.2117 -1.0819 -0.2449
  278TMC3    H2 4257   3.628   3.634  13.881  0.3382  0.2862  1.2010
  278TMC3    C7 4258   3.620   3.750  13.636  0.1549  0.4442  0.7061
  278TMC3    C8 4259   3.867   3.568  14.020  0.1425  0.1578 -0.5833
  278TMC3    O1 4260   3.652   3.769  13.519 -0.2292 -0.0338  0.1380
  278TMC3    O2 4261   3.941   3.586  14.112  0.8251 -0.5352  0.2440
  279MPD2     C 4262   3.114   4.628   0.251 -1.4868 -0.6144  0.4188
  279MPD2    C1 4263   3.102   4.504   0.203 -0.0189  0.2954 -0.3364
  279MPD2    C2 4264   3.159   4.468   0.085 -0.2386 -0.3258  0.3251
  279MPD2    C3 4265   3.245   4.555   0.015 -0.2818 -0.2364 -0.2386
  279MPD2    C4 4266   3.273   4.675   0.074  0.5588  0.2481 -0.3190
  279MPD2    C5 4267   3.203   4.712   0.190 -0.9143 -1.0007  0.0384
  279MPD2     H 4268   3.126   4.380   0.031  2.5769 -2.8950  2.8100
  279MPD2    H1 4269   3.342   0.001   0.021 -0.4269  1.2060 -0.4448
  279MPD2    H2 4270   3.052   4.667   0.331 -2.6364 -0.6352 -0.4658
  279MPD2    H3 4271   3.227   0.067   0.240 -0.2445 -0.9436 -0.3906
  279MPD2     N 4272   3.309   4.532  17.638  0.2126  0.2691 -0.6198
  279MPD2    H5 4273   3.361   4.606  17.591  1.6863 -1.2414 -1.3634
  279MPD2    N1 4274   3.008   4.410   0.257  0.2369 -0.2828  0.4226
  279MPD2    H7 4275   2.927   4.437   0.312 -0.3861 -0.2742 -0.5079
  280TMC3    C1 4276   2.914   4.199   0.306  0.1569  0.7950 -0.5866
  280TMC3    C2 4277   2.950   4.088   0.373 -0.7489 -0.4741  0.3845
  280TMC3    C3 4278   2.890   3.961   0.343  0.3666  0.9604 -0.1278
  280TMC3    C4 4279   2.810   4.197   0.219  0.4011 -0.1376  0.0687
  280TMC3    C5 4280   2.740   4.080   0.204  0.6285 -0.6144  0.6011
  280TMC3    C6 4281   2.782   3.959   0.259 -0.2694 -0.1106  0.4077
  280TMC3     C 4282   3.030   4.269   0.261  0.0108 -0.0105 -0.5877
  280TMC3     O 4283   3.128   4.202   0.226 -0.4572 -0.2122  0.0890
  280TMC3     H 4284   3.039   4.096   0.434 -0.7345 -2.5105  0.6199
  280TMC3    H1 4285   2.795   4.274   0.144  1.5310 -1.0632 -1.0912
  280TMC3    H2 4286   2.735   3.868   0.225  0.3899  0.2534 -1.5307
  280TMC3    C7 4287   2.636   4.087   0.101  1.0126 -0.3444  0.0071
  280TMC3    C8 4288   2.980   3.855   0.309 -0.8347  0.4815 -0.1005
  280TMC3    O1 4289   2.583   4.198   0.087  0.8421  0.6169  0.1061
  280TMC3    O2 4290   2.940   3.744   0.286 -0.5490 -0.0894  0.1096
  281TMC3    C1 4291   2.601   3.889  13.414 -0.2445 -0.0027 -0.4553
  281TMC3    C2 4292   2.667   3.978  13.337  0.5217 -0.0459 -0.0897
  281TMC3    C3 4293   2.718   3.924  13.224 -0.5696  0.6631  0.5701
  281TMC3    C4 4294   2.563   3.766  13.364 -0.1076  0.5296 -0.4278
  281TMC3    C5 4295   2.616   3.718  13.245 -0.3788  0.0833  0.0362
  281TMC3    C6 4296   2.706   3.795  13.179  0.1802 -0.1540  0.0715
  281TMC3     C 4297   2.538   3.936  13.538 -0.4217  0.4226  0.0293
  281TMC3     O 4298   2.532   3.854  13.632 -0.3468  0.1373 -0.4948
  281TMC3     H 4299   2.703   4.079  13.358 -1.0021  0.0988  1.8610
  281TMC3    H1 4300   2.519   3.696  13.435 -2.2000  1.1677 -1.1001
  281TMC3    H2 4301   2.739   3.770  13.079 -1.9316 -0.8941 -0.4260
  281TMC3    C7 4302   2.568   3.595  13.185 -0.0286 -0.1797  1.1054
  281TMC3    C8 4303   2.798   4.008  13.140 -0.1472  0.7144  0.0167
  281TMC3    O1 4304   2.637   3.553  13.099  0.2384  0.0696 -0.7579
  281TMC3    O2 4305   2.909   3.960  13.126 -0.6463 -0.4278  0.2376
  282MPD2     C 4306   4.216   0.665  15.000 -0.3085  0.2557  0.2722
  282MPD2    C1 4307   4.093   0.724  15.011 -0.5255  0.6464 -0.2061
  282MPD2    C2 4308   4.018   0.744  14.897  0.0441  0.8107 -0.4203
  282MPD2    C3 4309   4.058   0.704  14.774 -1.0583  0.1325  0.6756
  282MPD2    C4 4310   4.182   0.642  14.761  0.7389 -0.1179  0.6924
  282MPD2    C5 4311   4.255   0.628  14.879  0.1082  0.9214  0.0492
  282MPD2     H 4312   3.925   0.800  14.905  1.4430  3.1288 -0.3517
  282MPD2    H1 4313   4.225   0.607  14.667 -0.4454  0.1650  0.0407
  282MPD2    H2 4314   4.285   0.653  15.083  1.4417  2.2169 -0.8904
  282MPD2    H3 4315   4.350   0.575  14.878  0.5409  1.5756  3.3520
  282MPD2     N 4316   3.974   0.722  14.658 -0.1220 -0.3470 -0.5757
  282MPD2    H5 4317   3.878   0.748  14.673  0.1558  0.4056 -0.1204
  282MPD2    N1 4318   4.038   0.754  15.135 -0.3330  1.0667 -0.8806
  282MPD2    H7 4319   3.957   0.815  15.125 -0.7246  0.4383 -1.4847
  283TMC3    C1 4320   3.987   0.745  15.366  0.3946  0.2275  0.1799
  283TMC3    C2 4321   4.007   0.867  15.419 -0.4951 -0.3687  0.6183
  283TMC3    C3 4322   3.974   0.884  15.553 -0.0099  0.5521  0.4599
  283TMC3    C4 4323   3.937   0.640  15.435 -0.3439 -0.3135 -0.6276
  283TMC3    C5 4324   3.901   0.662  15.568  0.4255  0.2929  1.0853
  283TMC3    C6 4325   3.918   0.780  15.630 -0.4275 -0.2446 -1.1530
  283TMC3     C 4326   4.071   0.704  15.260 -0.3578  0.2309 -0.0419
  283TMC3     O 4327   4.132   0.597  15.273 -0.2674  0.2060 -0.6151
  283TMC3     H 4328   4.068   0.934  15.359 -1.1441 -0.9105 -0.6443
  283TMC3    H1 4329   3.922   0.547  15.382 -0.0863 -0.1182 -1.0392
  283TMC3    H2 4330   3.889   0.800  15.733 -1.5895 -1.5692 -1.2322
  283TMC3    C7 4331   3.839   0.555  15.646 -0.6948  0.8477 -1.0962
  283TMC3    C8 4332   4.029   0.993  15.624  0.0277 -0.4380 -0.6357
  283TMC3    O1 4333   3.827   0.584  15.762 -0.1480 -0.1932 -0.7047
  283TMC3    O2 4334   4.031   0.984  15.744 -0.4321  0.1809  0.4652
  284MPD2     C 4335   1.724   4.474  12.232 -0.6403  0.5316 -0.1084
  284MPD2    C1 4336   1.854   4.496  12.203  0.2152 -0.6043  0.0384
  284MPD2    C2 4337   1.944   4.409  12.261  0.6379  0.5810 -0.9529
  284MPD2    C3 4338   1.907   4.289  12.316  0.3538  0.2716  0.3417
  284MPD2    C4 4339   1.772   4.266  12.336  0.4280 -0.4388  0.5952
  284MPD2    C5 4340   1.684   4.365  12.300  0.1230 -0.0510 -0.2494
  284MPD2     H 4341   2.051   4.428  12.252  1.6278 -3.7936  1.3791
  284MPD2    H1 4342   1.727   4.173  12.368  0.8071 -0.9772 -0.4255
  284MPD2    H2 4343   1.641   4.535  12.196  0.2236  3.5271  2.9887
  284MPD2    H3 4344   1.576   4.351  12.305  0.1567 -0.4686 -0.7426
  284MPD2     N 4345   1.992   4.192  12.361  0.3958  0.1326 -0.4245
  284MPD2    H5 4346   1.958   4.115  12.418  0.1539 -0.1163 -0.9056
  284MPD2    N1 4347   1.899   4.602  12.117 -0.4938 -0.3811 -0.3905
  284MPD2    H7 4348   1.998   4.622  12.121 -0.5468 -0.3304  0.8564
  285TMC3    C1 4349   1.892   0.040  11.960  0.2042  0.2620  0.7647
  285TMC3    C2 4350   2.001   4.728  11.894  0.1559 -0.0888 -0.3850
  285TMC3    C3 4351   2.065   0.077  11.813  0.6880 -0.2692  0.2901
  285TMC3    C4 4352   1.839   0.165  11.930  0.4191  0.7640 -0.2991
  285TMC3    C5 4353   1.915   0.240  11.853  0.2096  0.5417 -0.4559
  285TMC3    C6 4354   2.033   0.207  11.804 -0.5257  0.2050  0.1379
  285TMC3     C 4355   1.816   4.682  12.043  0.4232 -0.2324  0.3462
  285TMC3     O 4356   1.695   4.704  12.059  0.4970  0.1058 -0.7088
  285TMC3     H 4357   2.043   4.629  11.902 -1.2843 -0.7952 -1.5141
  285TMC3    H1 4358   1.740   0.203  11.953 -1.2085 -3.3147 -0.4949
  285TMC3    H2 4359   2.092   0.278  11.747 -0.3579 -0.0660 -0.0311
  285TMC3    C7 4360   1.856   0.358  11.801 -0.4325 -0.1535 -0.1360
  285TMC3    C8 4361   2.151   0.026  11.713  0.6217 -0.2829  0.1464
  285TMC3    O1 4362   1.935   0.451  11.797  0.0079  0.2477  0.2561
  285TMC3    O2 4363   2.136   4.644  11.700 -0.0516 -0.4013 -0.2861
  286MPD2     C 4364   1.809   3.413   1.131 -0.1054 -0.0783  0.3837
  286MPD2    C1 4365   1.898   3.511   1.102 -0.3663  0.2880  0.9387
  286MPD2    C2 4366   2.034   3.490   1.121 -0.2867  0.2820  0.3809
  286MPD2    C3 4367   2.092   3.378   1.174 -0.5370 -0.4546 -0.1735
  286MPD2    C4 4368   2.002   3.281   1.195  0.1456 -0.2569  0.4949
  286MPD2    C5 4369   1.869   3.297   1.184 -0.3666  0.2204  0.2305
  286MPD2     H 4370   2.096   3.578   1.106 -2.2566  1.3583 -1.5524
  286MPD2    H1 4371   2.038   3.196   1.252 -0.5721 -0.8201  0.1108
  286MPD2    H2 4372   1.702   3.411   1.121  0.0473 -0.9761 -1.1371
  286MPD2    H3 4373   1.807   3.214   1.215  2.0299 -3.0385 -3.7927
  286MPD2     N 4374   2.230   3.352   1.196 -0.1330  0.7257 -0.3952
  286MPD2    H5 4375   2.260   3.257   1.216 -0.4407  0.3606 -1.6664
  286MPD2    N1 4376   1.842   3.634   1.065  0.8165 -0.2106  0.2616
  286MPD2    H7 4377   1.902   3.716   1.067  1.7427 -0.9478  2.6998
  287TMC3    C1 4378   2.465   3.399   1.214  0.1817  0.5602  0.5961
  287TMC3    C2 4379   2.504   3.284   1.148  0.3854  0.6079 -0.2819
  287TMC3    C3 4380   2.634   3.256   1.142  0.3980 -0.0488 -0.2228
  287TMC3    C4 4381   2.553   3.494   1.260  0.2370  0.4926  0.2495
  287TMC3    C5 4382   2.685   3.469   1.239  0.2986 -0.2768 -0.3070
  287TMC3    C6 4383   2.722   3.341   1.196  0.4775  0.0510 -0.0580
  287TMC3     C 4384   2.330   3.449   1.189 -0.6999 -0.0719 -0.2928
  287TMC3     O 4385   2.316   3.568   1.184 -0.4330 -0.1000  0.0822
  287TMC3     H 4386   2.432   3.211   1.111  0.6099  0.6539 -0.8204
  287TMC3    H1 4387   2.519   3.589   1.299 -0.7867 -0.3576  1.4309
  287TMC3    H2 4388   2.826   3.313   1.193  0.5061  0.1424  0.0722
  287TMC3    C7 4389   2.780   3.562   1.298  0.5425 -0.2435  0.4555
  287TMC3    C8 4390   2.681   3.139   1.072 -0.3492  0.9802 -0.3838
  287TMC3    O1 4391   2.732   3.649   1.372 -0.0053  0.4438  0.6489
  287TMC3    O2 4392   2.598   3.053   1.061  0.0951 -0.4290  0.5916
  288TMC3    C1 4393   4.627   3.323  14.412  0.2317 -0.1181  0.2290
  288TMC3    C2 4394   4.492   3.311  14.445  0.2009  0.7375  0.3664
  288TMC3    C3 4395   4.401   3.393  14.373  0.0813  0.1893  0.5101
  288TMC3    C4 4396   4.666   3.403  14.315 -0.2847 -0.0780 -0.4446
  288TMC3    C5 4397   4.575   3.481  14.247  0.2895  0.0816  0.4811
  288TMC3    C6 4398   4.438   3.486  14.273  0.2971 -0.6363 -0.6034
  288TMC3     C 4399   4.727   3.236  14.470  0.5080  0.4937 -0.7567
  288TMC3     O 4400   4.710   3.199  14.585  0.7872 -0.2747  0.3697
  288TMC3     H 4401   4.468   3.242  14.525 -0.4086  0.8821  0.3139
  288TMC3    H1 4402   0.031   3.432  14.295  0.1260 -1.9371 -1.0317
  288TMC3    H2 4403   4.361   3.533  14.213  0.1192 -0.5410 -0.3026
  288TMC3    C7 4404   4.631   3.570  14.141  0.9186  0.6869 -0.6718
  288TMC3    C8 4405   4.264   3.413  14.418 -0.4915 -0.2259 -0.4982
  288TMC3    O1 4406   0.004   3.542  14.100  0.0732  0.0280 -0.1978
  288TMC3    O2 4407   4.212   3.521  14.397 -0.0032  0.6679 -0.3634
  289MPD2     C 4408   4.415   2.437  13.778 -0.9887 -0.4374  0.2770
  289MPD2    C1 4409   4.384   2.501  13.894 -0.1861  0.4739 -0.8857
  289MPD2    C2 4410   4.253   2.481  13.950 -0.9725 -0.3833 -0.6685
  289MPD2    C3 4411   4.165   2.400  13.894  0.0899  0.9590  0.0016
  289MPD2    C4 4412   4.195   2.351  13.769 -0.3454  0.2890  0.3292
  289MPD2    C5 4413   4.317   2.368  13.718 -0.5784  0.3927 -0.1857
  289MPD2     H 4414   4.229   2.522  14.048  1.3137  1.3113 -0.8233
  289MPD2    H1 4415   4.124   2.292  13.711 -1.7869  1.0847  1.2832
  289MPD2    H2 4416   4.513   2.457  13.735 -1.1149 -0.7670 -0.1604
  289MPD2    H3 4417   4.326   2.323  13.620 -1.1232 -0.6498  0.2361
  289MPD2     N 4418   4.031   2.388  13.944  0.2928 -0.1585 -0.7317
  289MPD2    H5 4419   3.973   2.337  13.879  0.2904 -1.0742 -0.0273
  289MPD2    N1 4420   4.472   2.597  13.941 -0.2020 -0.0828  0.4702
  289MPD2    H7 4421   4.570   2.599  13.916 -0.5891 -3.0991 -1.2035
  290TMC3    C1 4422   3.826   2.455  14.044 -0.3589  0.0549  0.2588
  290TMC3    C2 4423   3.761   2.575  14.057 -0.7362  0.3644 -0.3606
  290TMC3    C3 4424   3.624   2.570  14.053 -0.3758  0.3872  0.5816
  290TMC3    C4 4425   3.758   2.338  14.043  0.0195  0.1803 -0.0626
  290TMC3    C5 4426   3.626   2.337  14.031  0.2347 -0.1603 -0.5556
  290TMC3    C6 4427   3.555   2.458  14.035 -0.4136 -0.3770 -0.5372
  290TMC3     C 4428   3.974   2.464  14.051 -0.0615 -0.0914 -0.4517
  290TMC3     O 4429   4.023   2.524  14.141  0.5639  0.0406 -0.1988
  290TMC3     H 4430   3.819   2.666  14.049  0.5803 -0.3809  0.5973
  290TMC3    H1 4431   3.820   2.250  14.039 -2.9706 -2.0448  2.6024
  290TMC3    H2 4432   3.448   2.471  14.023 -0.2055  3.3844  1.5141
  290TMC3    C7 4433   3.555   2.219  14.086 -0.1045  0.1109 -0.0946
  290TMC3    C8 4434   3.545   2.687  14.019 -0.2730  0.3402 -0.5028
  290TMC3    O1 4435   3.445   2.241  14.132 -0.0058 -0.0556  0.6391
  290TMC3    O2 4436   3.475   2.670  13.919 -0.4348  0.4903  0.4804
  291MPD2     C 4437   3.316   2.890  17.663 -0.2079  0.4910  0.1837
  291MPD2    C1 4438   3.356   2.799   0.007  0.2804  0.4062 -0.5192
  291MPD2    C2 4439   3.433   2.843   0.118 -0.2444 -0.2025  0.7497
  291MPD2    C3 4440   3.470   2.981   0.134  0.4885  0.3575 -0.4713
  291MPD2    C4 4441   3.415   3.063   0.046 -0.1376 -0.0624  0.0773
  291MPD2    C5 4442   3.343   3.019  17.689 -0.2662  0.7476 -0.3871
  291MPD2     H 4443   3.469   2.760   0.177  0.9853 -0.6102 -0.5973
  291MPD2    H1 4444   3.426   3.170   0.061  1.6815 -0.2130 -0.0905
  291MPD2    H2 4445   3.267   2.850  17.575 -1.3762 -2.7501  2.2940
  291MPD2    H3 4446   3.321   3.089  17.609  0.2857  0.2102 -1.0014
  291MPD2     N 4447   3.545   3.033   0.237  0.2866  0.0769  0.0682
  291MPD2    H5 4448   3.564   3.132   0.227  0.8992  0.0024  0.4812
  291MPD2    N1 4449   3.353   2.653   0.005 -0.0778 -0.1467  0.6155
  291MPD2    H7 4450   3.387   2.599   0.084  0.3710 -0.1691  0.4056
  292TMC3    C1 4451   3.353   2.445  17.651 -0.5246  0.6213 -0.2459
  292TMC3    C2 4452   3.448   2.429   0.001  0.0370  0.1145 -0.7209
  292TMC3    C3 4453   3.443   2.325   0.082 -0.3287 -0.3950 -0.0818
  292TMC3    C4 4454   3.255   2.354  17.631 -0.1867  0.0743  0.0713
  292TMC3    C5 4455   3.256   2.246  17.717  0.2468  0.1052  0.5506
  292TMC3    C6 4456   3.338   2.234   0.077 -0.3385  0.1973  0.0714
  292TMC3     C 4457   3.303   2.578  17.655 -0.4875 -0.2823  0.2729
  292TMC3     O 4458   3.221   2.614  17.569 -0.3213 -0.4847  0.3784
  292TMC3     H 4459   3.535   2.494   0.000  0.4266 -0.3648  2.8016
  292TMC3    H1 4460   3.193   2.380  17.546  0.5244 -1.5151 -0.9475
  292TMC3    H2 4461   3.333   2.141   0.132  1.8629 -0.4789 -0.8972
  292TMC3    C7 4462   3.195   2.121  17.677  0.0827 -0.2788 -0.0915
  292TMC3    C8 4463   3.465   2.377   0.212 -0.0883  0.9616  0.2499
  292TMC3    O1 4464   3.233   2.018  17.731  0.1167 -0.2732 -0.2579
  292TMC3    O2 4465   3.505   2.494   0.228  0.0878  0.1851  0.0842
  293MPD2     C 4466   0.468   3.629  12.596 -0.5527 -0.6368 -0.1194
  293MPD2    C1 4467   0.359   3.574  12.657  0.2498  1.0731 -0.4425
  293MPD2    C2 4468   0.342   3.597  12.792  1.0645 -0.8607  0.5323
  293MPD2    C3 4469   0.439   3.659  12.872  0.1442  0.4684  0.2347
  293MPD2    C4 4470   0.551   3.701  12.808 -0.5809  0.3279  0.1428
  293MPD2    C5 4471   0.560   3.698  12.673 -0.3860 -0.2244 -0.0092
  293MPD2     H 4472   0.245   3.572  12.834  1.4034  0.9003  2.3760
  293MPD2    H1 4473   0.633   3.749  12.860  1.6268 -0.4103 -2.6933
  293MPD2    H2 4474   0.477   3.628  12.488  1.4066  0.1140  0.0283
  293MPD2    H3 4475   0.637   3.755  12.623 -1.8844  2.0581  0.3295
  293MPD2     N 4476   0.421   3.673  13.015 -0.0566  0.6188 -0.0553
  293MPD2    H5 4477   0.371   3.603  13.067 -0.8243  2.5978  1.8750
  293MPD2    N1 4478   0.266   3.514  12.574  0.3435  0.2767  0.0012
  293MPD2    H7 4479   0.289   3.515  12.475 -1.4464  1.5038 -0.3987
  294TMC3    C1 4480   0.080   3.414  12.480  0.8479 -0.9983 -0.3658
  294TMC3    C2 4481   4.703   3.349  12.499  0.2917 -0.4373  0.1692
  294TMC3    C3 4482   4.612   3.331  12.396  0.3030 -0.2244  0.6005
  294TMC3    C4 4483   0.112   3.462  12.358 -0.3782  0.1804  0.1413
  294TMC3    C5 4484   0.018   3.451  12.253 -0.1275 -0.1395  0.0801
  294TMC3    C6 4485   4.632   3.388  12.276  0.9095 -0.2967 -0.1726
  294TMC3     C 4486   0.152   3.446  12.601  0.1755 -0.3458 -0.1427
  294TMC3     O 4487   0.098   3.433  12.713 -0.2623  0.9073  0.1114
  294TMC3     H 4488   4.686   3.289  12.588 -2.3058  0.9473  0.5997
  294TMC3    H1 4489   0.207   3.509  12.336 -1.1843  1.4578 -0.6484
  294TMC3    H2 4490   4.561   3.379  12.194  2.4864  0.9951 -1.6643
  294TMC3    C7 4491   0.063   3.403  12.127 -0.5431 -0.1778 -0.0445
  294TMC3    C8 4492   4.586   3.192  12.379 -0.0489 -0.0726  0.5731
  294TMC3    O1 4493   4.722   3.335  12.065  0.4376  0.2705  0.7521
  294TMC3    O2 4494   4.528   3.150  12.476  0.0610 -0.6703  0.4002
  295MPD2     C 4495   0.582   3.164   0.864  0.5635 -0.5211  0.0519
  295MPD2    C1 4496   0.660   3.116   0.968  0.1766 -0.3604 -0.0486
  295MPD2    C2 4497   0.616   3.125   1.095  0.7181 -0.4463 -0.2729
  295MPD2    C3 4498   0.492   3.180   1.131  0.0633 -1.0144  0.4722
  295MPD2    C4 4499   0.413   3.221   1.029  0.2080 -0.2608  0.1185
  295MPD2    C5 4500   0.458   3.208   0.902  0.0082  0.3716 -0.1832
  295MPD2     H 4501   0.678   3.083   1.173  0.4088 -0.3750  0.0124
  295MPD2    H1 4502   0.313   3.258   1.049 -0.2836  0.5561 -3.8218
  295MPD2    H2 4503   0.616   3.143   0.763 -0.5426 -0.2931 -0.3661
  295MPD2    H3 4504   0.375   3.225   0.833  0.6088 -2.3405 -1.5791
  295MPD2     N 4505   0.440   3.208   1.258  0.0470  0.1222 -0.3501
  295MPD2    H5 4506   0.344   3.242   1.267  0.8847  2.8542 -1.9012
  295MPD2    N1 4507   0.788   3.055   0.942  0.3986 -0.1742  0.0497
  295MPD2    H7 4508   0.816   3.038   0.846 -1.6434  3.9521 -1.2853
  296TMC3    C1 4509   0.453   3.240   1.501  0.5787  0.3721 -0.4695
  296TMC3    C2 4510   0.368   3.345   1.499  0.0865 -0.3169 -0.2349
  296TMC3    C3 4511   0.325   3.405   1.619  0.1941 -0.4245  0.1667
  296TMC3    C4 4512   0.510   3.201   1.620  0.1511 -0.1260 -0.4057
  296TMC3    C5 4513   0.462   3.257   1.732  0.5998 -0.3143  0.3868
  296TMC3    C6 4514   0.367   3.353   1.738  0.3170 -0.5032  0.1690
  296TMC3     C 4515   0.514   3.185   1.379  0.0553 -0.3846 -0.2277
  296TMC3     O 4516   0.611   3.116   1.400  0.5026  0.7459  0.5878
  296TMC3     H 4517   0.332   3.374   1.401 -1.3929  1.3290  0.7919
  296TMC3    H1 4518   0.607   3.153   1.625  0.1897 -0.1845 -1.7758
  296TMC3    H2 4519   0.310   3.377   1.828 -1.2776  1.1676 -1.2942
  296TMC3    C7 4520   0.480   3.178   1.857  0.8781 -0.3873  0.2912
  296TMC3    C8 4521   0.272   3.541   1.625 -0.2265 -0.0484  0.0084
  296TMC3    O1 4522   0.441   3.229   1.962 -0.1349  0.7485  0.4044
  296TMC3    O2 4523   0.258   3.590   1.739  0.0550 -0.2632  0.1169
  297MPD2     C 4524   2.797   4.340  16.302 -0.2049  0.4105 -0.0398
  297MPD2    C1 4525   2.819   4.399  16.183  0.0028 -0.1964 -0.5867
  297MPD2    C2 4526   2.945   4.457  16.170  0.2393 -0.0078 -0.5991
  297MPD2    C3 4527   3.038   4.475  16.273 -0.0216  0.3074  0.1686
  297MPD2    C4 4528   3.013   4.415  16.388  0.4674 -0.1785 -0.2036
  297MPD2    C5 4529   2.891   4.347  16.410  0.7726 -0.2872  0.6838
  297MPD2     H 4530   2.979   4.504  16.079 -0.1026 -0.8342 -1.1610
  297MPD2    H1 4531   3.083   4.416  16.470 -2.1464 -0.5746  2.0606
  297MPD2    H2 4532   2.701   4.305  16.338  0.0478 -0.6408 -0.3989
  297MPD2    H3 4533   2.860   4.300  16.503 -0.5630  0.5204  0.6576
  297MPD2     N 4534   3.157   4.546  16.254 -0.0367 -0.3040  0.2325
  297MPD2    H5 4535   3.177   4.567  16.157 -0.0139 -2.3578 -0.2113
  297MPD2    N1 4536   2.728   4.386  16.076 -0.4057 -0.0705  0.0797
  297MPD2    H7 4537   2.748   4.447  15.998 -1.3873 -3.8438 -3.1150
  298TMC3    C1 4538   2.510   4.383  15.981 -0.0984  0.2071 -0.7389
  298TMC3    C2 4539   2.553   4.408  15.859  1.1440 -0.2568 -0.6183
  298TMC3    C3 4540   2.474   4.486  15.776 -0.5953 -0.5464 -0.3555
  298TMC3    C4 4541   2.397   4.452  16.027  0.0142 -0.4285 -0.4551
  298TMC3    C5 4542   2.320   4.527  15.943 -0.7032 -0.0185  0.8217
  298TMC3    C6 4543   2.354   4.546  15.816  0.6324  0.3623  0.6658
  298TMC3     C 4544   2.599   4.330  16.087  0.3808 -0.3973  0.0670
  298TMC3     O 4545   2.544   4.267  16.178 -0.3303 -0.1424 -0.3509
  298TMC3     H 4546   2.650   4.370  15.828  0.6583 -0.8181 -1.4642
  298TMC3    H1 4547   2.362   4.436  16.129  1.3365 -0.3917 -0.0062
  298TMC3    H2 4548   2.292   4.611  15.755  1.7770  1.4641  0.6877
  298TMC3    C7 4549   2.222   4.609  15.999 -0.4959 -0.1878  0.3862
  298TMC3    C8 4550   2.497   4.478  15.629 -0.4648 -0.2620 -1.3831
  298TMC3    O1 4551   2.222   4.627  16.118  0.4732 -0.6485 -0.2450
  298TMC3    O2 4552   2.589   4.406  15.595  0.2954 -0.0116  0.1917
  299MPD2     C 4553   2.966   4.611  10.797  0.3889 -0.0355 -0.3009
  299MPD2    C1 4554   3.042   4.571  10.690  0.7734 -0.3466 -0.1084
  299MPD2    C2 4555   2.982   4.569  10.563  0.7276  0.1359 -0.4995
  299MPD2    C3 4556   2.848   4.601  10.548 -0.1252  0.0641  0.2665
  299MPD2    C4 4557   2.777   4.635  10.657  0.1954  0.8231 -0.3020
  299MPD2    C5 4558   2.839   4.643  10.780 -0.5083  0.4845 -0.0363
  299MPD2     H 4559   3.039   4.532  10.479 -0.4835  2.3900 -2.2853
  299MPD2    H1 4560   2.672   4.662  10.655 -0.2041 -0.5741  1.4481
  299MPD2    H2 4561   3.006   4.613  10.898  0.6717  3.4920 -0.4708
  299MPD2    H3 4562   2.775   4.672  10.863 -0.6299 -2.3787  0.8985
  299MPD2     N 4563   2.777   4.593  10.427  0.7817 -0.5056 -0.3377
  299MPD2    H5 4564   2.676   4.591  10.434  0.9203 -0.7174  1.6242
  299MPD2    N1 4565   3.175   4.519  10.707 -0.2038 -0.3237 -0.0245
  299MPD2    H7 4566   3.223   4.524  10.797  0.7291  0.7200 -0.5853
  300TMC3    C1 4567   2.728   4.554  10.204 -0.7958 -0.3679 -0.9077
  300TMC3    C2 4568   2.682   4.666  10.138 -0.7267  0.3143  0.2424
  300TMC3    C3 4569   2.554   4.680  10.084  0.6685  0.2966  0.2808
  300TMC3    C4 4570   2.635   4.458  10.229  0.3471 -0.2020 -0.5661
  300TMC3    C5 4571   2.517   4.465  10.166  0.0004  0.4477  0.0801
  300TMC3    C6 4572   2.474   4.573  10.094 -0.4838  0.0771 -0.1526
  300TMC3     C 4573   2.835   4.584  10.302 -0.7491  1.0138 -0.6271
  300TMC3     O 4574   2.946   4.577  10.253  0.1449 -0.0305  0.0460
  300TMC3     H 4575   2.755   0.006  10.122  0.1734 -0.4055  0.8416
  300TMC3    H1 4576   2.665   4.371  10.286  2.0151 -1.6888 -3.7031
  300TMC3    H2 4577   2.380   4.571  10.039  0.5114 -0.2890 -1.8487
  300TMC3    C7 4578   2.410   4.370  10.201  0.1637 -0.5410 -0.2366
  300TMC3    C8 4579   2.482   0.063  10.121  0.3984  0.1191 -0.3213
  300TMC3    O1 4580   2.321   4.344  10.121 -0.3952  0.4770  0.2992
  300TMC3    O2 4581   2.362   0.061  10.120 -0.0378  0.2857  0.3479
  301MPD2     C 4582   0.885   0.709   1.109 -0.2354  0.1904  0.0091
  301MPD2    C1 4583   0.849   0.677   0.978  0.1086 -0.1091  1.2462
  301MPD2    C2 4584   0.818   0.544   0.945 -0.3134 -0.9275 -0.8279
  301MPD2    C3 4585   0.838   0.442   1.039  0.1316 -0.2036  0.6648
  301MPD2    C4 4586   0.868   0.475   1.169  0.4786 -0.3419  0.1292
  301MPD2    C5 4587   0.891   0.607   1.198 -0.3361 -0.2306 -0.0491
  301MPD2     H 4588   0.798   0.518   0.842 -1.5499 -0.6014 -0.6723
  301MPD2    H1 4589   0.871   0.406   1.253  3.1277 -1.6294 -1.0327
  301MPD2    H2 4590   0.898   0.813   1.136  0.2100 -0.3137  1.7739
  301MPD2    H3 4591   0.895   0.636   1.303 -1.6511  0.2640 -0.1343
  301MPD2     N 4592   0.832   0.307   1.006  0.5197  0.6300 -0.5806
  301MPD2    H5 4593   0.851   0.249   1.087 -1.0942 -1.2825 -1.5980
  301MPD2    N1 4594   0.837   0.773   0.872  0.0977 -0.2559 -0.0919
  301MPD2    H7 4595   0.799   0.729   0.788 -1.2149 -1.4137  1.1127
  302TMC3    C1 4596   0.812   0.115   0.855 -0.4452 -0.0937  0.4569
  302TMC3    C2 4597   0.878   0.041   0.941 -0.0849  1.2069  0.5152
  302TMC3    C3 4598   0.929   4.659   0.905  1.3594 -0.9247 -0.5532
  302TMC3    C4 4599   0.762   0.064   0.734 -0.0658  0.2779 -0.2362
  302TMC3    C5 4600   0.805   4.674   0.706 -0.3780 -0.5084 -0.3706
  302TMC3    C6 4601   0.895   4.609   0.778 -0.1532  0.3799 -0.5763
  302TMC3     C 4602   0.787   0.258   0.887  0.3764 -0.4550  0.0888
  302TMC3     O 4603   0.719   0.317   0.802 -0.5226 -0.1704  0.8111
  302TMC3     H 4604   0.894   0.071   1.044  2.2109 -2.7678  1.2973
  302TMC3    H1 4605   0.696   0.132   0.681 -0.3510 -0.0971 -0.3669
  302TMC3    H2 4606   0.929   4.510   0.752  0.8206  0.2525  1.1559
  302TMC3    C7 4607   0.751   4.605   0.589  0.1213 -0.0930  0.6886
  302TMC3    C8 4608   0.945   4.565   1.011  0.0253  0.7923 -0.2206
  302TMC3    O1 4609   0.801   4.492   0.556  0.6504 -0.0885  0.3152
  302TMC3    O2 4610   1.034   4.485   1.001 -0.0814  0.1167 -0.2208
  303MPD2     C 4611   1.023   3.852  10.381 -1.0838 -0.0472 -0.5536
  303MPD2    C1 4612   1.031   3.720  10.367 -0.9777 -0.0934 -0.5035
  303MPD2    C2 4613   0.970   3.662  10.252 -0.3929 -0.4042 -0.0025
  303MPD2    C3 4614   0.930   3.741  10.145 -0.3476 -0.4909  0.1703
  303MPD2    C4 4615   0.935   3.873  10.159 -0.6639 -0.1444  0.0487
  303MPD2    C5 4616   0.981   3.935  10.276  0.5844  0.7004  0.6733
  303MPD2     H 4617   0.944   3.557  10.250  1.0694 -0.6952 -2.9966
  303MPD2    H1 4618   0.905   3.936  10.076  1.4903  0.8693  0.0345
  303MPD2    H2 4619   1.074   3.898  10.465  0.2502  1.8813 -2.4263
  303MPD2    H3 4620   0.968   4.043  10.275  0.1040  0.6401  0.1805
  303MPD2     N 4621   0.862   3.692  10.030  0.0575  0.3161  0.6625
  303MPD2    H5 4622   0.819   3.752   9.960  0.2815  0.9294  1.0480
  303MPD2    N1 4623   1.051   3.627  10.473 -0.0184 -0.5178  0.0785
  303MPD2    H7 4624   1.042   3.667  10.566  0.0126 -0.2366 -0.0394
  304TMC3    C1 4625   1.089   3.412  10.569 -0.2854  0.5180  0.0157
  304TMC3    C2 4626   0.980   3.416  10.651  0.4593 -0.3169 -0.7622
  304TMC3    C3 4627   0.964   3.307  10.731 -0.4592  0.2306  0.6465
  304TMC3    C4 4628   1.171   3.305  10.561 -0.3460  0.0022 -0.6560
  304TMC3    C5 4629   1.133   3.193  10.628  0.3071  0.5211 -0.7501
  304TMC3    C6 4630   1.034   3.188  10.720  0.9633  0.4618 -0.6509
  304TMC3     C 4631   1.100   3.503  10.456  0.7587  0.2896  0.9698
  304TMC3     O 4632   1.150   3.457  10.356  0.4041  0.0882 -0.3522
  304TMC3     H 4633   0.902   3.491  10.649 -1.0962 -1.9090  0.6720
  304TMC3    H1 4634   1.240   3.296  10.477 -1.0192  1.2227 -1.3302
  304TMC3    H2 4635   1.019   3.109  10.792  0.5244  2.8883  1.9634
  304TMC3    C7 4636   1.162   3.069  10.557 -0.3386 -0.1261 -0.1357
  304TMC3    C8 4637   0.821   3.275  10.751 -0.0122  0.5802 -0.0757
  304TMC3    O1 4638   1.248   3.055  10.474  0.2551  0.1130 -0.1540
  304TMC3    O2 4639   0.731   3.327  10.687  0.2670  0.1194  0.1395
  305MPD2     C 4640   4.224   1.306  13.950  0.1176  0.1593  0.2957
  305MPD2    C1 4641   4.319   1.203  13.977  0.6931  0.8846 -0.5189
  305MPD2    C2 4642   4.346   1.102  13.887 -0.1553 -0.2140 -0.1966
  305MPD2    C3 4643   4.269   1.098  13.771 -0.1418 -0.0578  0.4625
  305MPD2    C4 4644   4.157   1.186  13.757 -0.1535 -0.1197  0.4585
  305MPD2    C5 4645   4.140   1.285  13.846  0.2455  0.6515  0.0533
  305MPD2     H 4646   4.430   1.035  13.902 -0.2525  0.0888  1.7028
  305MPD2    H1 4647   4.095   1.191  13.669  1.2808  1.6631 -0.4317
  305MPD2    H2 4648   4.215   1.394  14.013 -1.6577 -0.3289  0.7049
  305MPD2    H3 4649   4.063   1.361  13.839  1.7921  2.3188  1.2508
  305MPD2     N 4650   4.290   1.011  13.664  0.8323  0.0464 -0.4042
  305MPD2    H5 4651   4.224   1.010  13.587 -1.2746 -0.6734  1.4372
  305MPD2    N1 4652   4.404   1.199  14.092  0.3324 -0.3011 -0.2658
  305MPD2    H7 4653   4.459   1.115  14.098  0.8501  0.1010  0.5463
  306TMC3    C1 4654   4.471   1.260  14.317  0.1057 -0.1921 -0.5188
  306TMC3    C2 4655   4.499   1.128  14.346 -0.5576 -0.3180 -0.4386
  306TMC3    C3 4656   4.523   1.093  14.475 -0.1736  0.5285 -0.7506
  306TMC3    C4 4657   4.478   1.352  14.419  0.0050  0.0582  0.7577
  306TMC3    C5 4658   4.486   1.314  14.546 -0.6361 -0.0644 -0.1131
  306TMC3    C6 4659   4.514   1.187  14.581 -0.1573 -1.1581  0.1952
  306TMC3     C 4660   4.414   1.300  14.187 -0.1380  0.2149  0.0439
  306TMC3     O 4661   4.380   1.418  14.174  0.2805 -0.0687  0.0494
  306TMC3     H 4662   4.485   1.041  14.282  2.0303 -2.1452  1.4924
  306TMC3    H1 4663   4.443   1.454  14.409  0.1917  0.0606  0.1091
  306TMC3    H2 4664   4.537   1.159  14.683 -0.0795  1.2304  0.8417
  306TMC3    C7 4665   4.518   1.426  14.640 -0.2887  0.0389 -0.7474
  306TMC3    C8 4666   4.585   0.961  14.489 -0.8917  0.5142  0.4141
  306TMC3    O1 4667   4.581   1.518  14.587  0.2454  0.2780 -0.7164
  306TMC3    O2 4668   4.648   0.917  14.397 -0.4025  0.5110  0.0758
  307MPD2     C 4669   2.190   4.610   0.261  0.8925  0.3598  1.2362
  307MPD2    C1 4670   2.097   4.679   0.333  0.0380 -0.4402  0.8123
  307MPD2    C2 4671   2.014   4.608   0.427  0.3602 -0.7874 -0.3693
  307MPD2    C3 4672   2.010   4.473   0.438  0.4846 -0.5834  0.0058
  307MPD2    C4 4673   2.101   4.406   0.362 -1.0540  0.0885 -0.4254
  307MPD2    C5 4674   2.191   4.472   0.279  0.4015 -0.1536  0.3840
  307MPD2     H 4675   1.942   4.674   0.475  2.4698  1.9817 -0.9590
  307MPD2    H1 4676   2.111   4.299   0.350 -0.1822  0.2843 -1.4269
  307MPD2    H2 4677   2.265   4.646   0.192  0.0958 -1.0509 -0.3768
  307MPD2    H3 4678   2.273   4.421   0.230  1.5604  0.6164  1.4965
  307MPD2     N 4679   1.926   4.403   0.522  0.3469 -0.3327  0.1066
  307MPD2    H5 4680   1.919   4.302   0.510  2.1418 -0.5195  0.6977
  307MPD2    N1 4681   2.076   0.078   0.331  0.2369 -0.4434 -0.2402
  307MPD2    H7 4682   1.995   0.120   0.376  0.8879  1.2364 -0.6532
  308TMC3    C1 4683   1.570   4.251   0.627  0.4533 -1.1736  0.2366
  308TMC3    C2 4684   1.499   4.316   0.721 -0.2409 -0.3643  0.4207
  308TMC3    C3 4685   1.565   4.403   0.808  0.0573  0.4732 -0.3532
  308TMC3    C4 4686   1.703   4.275   0.598 -0.1578 -0.0607 -0.0033
  308TMC3    C5 4687   1.761   4.370   0.678 -0.2705 -0.6352  0.4067
  308TMC3    C6 4688   1.696   4.447   0.776 -0.5832 -0.7901 -0.1714
  308TMC3     C 4689   1.522   4.135   0.563  0.0984  0.0122 -0.3411
  308TMC3     O 4690   1.600   4.040   0.570 -0.5083 -0.0278  0.5616
  308TMC3     H 4691   1.397   4.283   0.738 -0.0418 -1.8478 -1.2149
  308TMC3    H1 4692   1.761   4.220   0.524 -0.2313 -1.3265  0.8890
  308TMC3    H2 4693   1.741   4.520   0.843 -3.2231  1.2547 -0.6251
  308TMC3    C7 4694   1.864   4.457   0.622  0.2072 -0.1471 -0.2188
  308TMC3    C8 4695   1.484   4.512   0.854  0.0875  0.0809  0.0844
  308TMC3    O1 4696   1.872   4.570   0.672  0.1963  0.1730  0.4845
  308TMC3    O2 4697   1.520   4.575   0.954  1.0591 -0.2266 -0.4551
  309MPD2     C 4698   1.189   4.373  17.067  0.4454 -0.1607  1.0730
  309MPD2    C1 4699   1.134   4.413  16.945  0.0410 -0.0715 -0.6671
  309MPD2    C2 4700   0.998   4.409  16.926 -0.0696  0.2937 -0.2324
  309MPD2    C3 4701   0.910   4.363  17.028 -0.6955 -0.8347  0.0185
  309MPD2    C4 4702   0.969   4.339  17.149  0.1024 -0.0517  0.3191
  309MPD2    C5 4703   1.106   4.340  17.173 -0.4919  0.0485 -0.4012
  309MPD2     H 4704   0.955   4.434  16.830  0.4172  1.3839 -0.1733
  309MPD2    H1 4705   0.908   4.315  17.235  1.4551 -0.0308  1.2676
  309MPD2    H2 4706   1.296   4.374  17.084  0.5797 -0.1996  0.2432
  309MPD2    H3 4707   1.143   4.304  17.268 -1.0459 -2.1399 -1.0357
  309MPD2     N 4708   0.770   4.352  17.016 -0.8211 -0.0934 -0.6119
  309MPD2    H5 4709   0.718   4.326  17.099 -0.5939 -0.8420 -0.7035
  309MPD2    N1 4710   1.211   4.459  16.832  0.3822  0.4742 -0.7985
  309MPD2    H7 4711   1.152   4.491  16.756 -0.2828  1.2978  0.0792
  310TMC3    C1 4712   1.396   4.489  16.693 -0.7042  0.5756  0.4522
  310TMC3    C2 4713   1.327   4.570  16.613  0.3224 -0.4335 -0.8269
  310TMC3    C3 4714   1.362   4.581  16.479 -0.4602 -0.0644 -0.0148
  310TMC3    C4 4715   1.482   4.394  16.644  0.1817  0.2242  0.9414
  310TMC3    C5 4716   1.515   4.401  16.513 -0.0833  0.8071 -0.2280
  310TMC3    C6 4717   1.455   4.493  16.424 -0.5196  0.0590 -0.3946
  310TMC3     C 4718   1.347   4.460  16.827 -0.5828 -0.2846 -0.4977
  310TMC3     O 4719   1.435   4.420  16.905 -0.2244  0.3204  0.1831
  310TMC3     H 4720   1.253   4.636  16.658  1.0403 -0.6376  0.6464
  310TMC3    H1 4721   1.521   4.316  16.708  0.0225 -1.3130 -0.8399
  310TMC3    H2 4722   1.475   4.489  16.317  1.0293  3.0020 -0.2145
  310TMC3    C7 4723   1.604   4.307  16.452  0.1799 -0.0922 -0.2321
  310TMC3    C8 4724   1.278   4.672  16.397  0.5934 -0.3311 -0.3621
  310TMC3    O1 4725   1.582   4.275  16.336  0.1931  0.4515 -0.4720
  310TMC3    O2 4726   1.160   4.680  16.432 -0.2665  0.1274 -0.5602
  311MPD2     C 4727   2.874   1.101  12.570 -0.1368  0.4789  0.2783
  311MPD2    C1 4728   2.975   1.011  12.582 -0.4947  0.1765  0.5853
  311MPD2    C2 4729   2.938   0.880  12.613 -1.0311 -0.4636  0.6367
  311MPD2    C3 4730   2.811   0.844  12.631 -0.0618  0.1450 -0.3169
  311MPD2    C4 4731   2.710   0.935  12.619 -0.3809 -0.4911 -0.5377
  311MPD2    C5 4732   2.747   1.061  12.578  0.6350  0.0558  0.4039
  311MPD2     H 4733   3.010   0.801  12.626 -1.6482 -0.9839  0.8747
  311MPD2    H1 4734   2.605   0.914  12.635 -0.4594  0.5751  0.3080
  311MPD2    H2 4735   2.887   1.203  12.535  1.0418 -0.8693 -3.2551
  311MPD2    H3 4736   2.674   1.140  12.580  1.9841  1.3243 -0.8124
  311MPD2     N 4737   2.783   0.711  12.658 -0.0294 -0.2734  0.3551
  311MPD2    H5 4738   2.858   0.647  12.680  0.8213  0.3335 -0.8017
  311MPD2    N1 4739   3.099   1.048  12.554 -0.1580 -0.1650 -0.0629
  311MPD2    H7 4740   3.115   1.148  12.543  0.9651 -0.4341 -0.8838
  312TMC3    C1 4741   2.649   0.517  12.666 -0.4219  0.6409  0.3588
  312TMC3    C2 4742   2.537   0.449  12.629 -0.0763 -0.2080 -1.0016
  312TMC3    C3 4743   2.534   0.318  12.671  0.8085  0.1851 -0.0867
  312TMC3    C4 4744   2.745   0.462  12.753  0.7159  0.0700  0.8372
  312TMC3    C5 4745   2.728   0.334  12.794  0.2895  0.2408  0.1403
  312TMC3    C6 4746   2.635   0.252  12.741 -0.2742 -0.0001 -0.0533
  312TMC3     C 4747   2.658   0.654  12.627  0.2873  0.3824  0.3632
  312TMC3     O 4748   2.564   0.706  12.566 -0.3685  0.1113  0.4535
  312TMC3     H 4749   2.465   0.495  12.563 -0.0159 -0.0582 -0.9641
  312TMC3    H1 4750   2.829   0.514  12.798  1.2601 -0.2246  0.1719
  312TMC3    H2 4751   2.621   0.149  12.773 -0.2525 -0.5303 -1.7573
  312TMC3    C7 4752   2.829   0.271  12.866 -0.4395 -0.1764 -0.2638
  312TMC3    C8 4753   2.400   0.256  12.682 -0.4200  0.1700  0.5409
  312TMC3    O1 4754   2.850   0.151  12.852  0.8099 -0.4254  0.8136
  312TMC3    O2 4755   2.395   0.133  12.677  0.0711 -0.2478  0.3224
  313MPD2     C 4756   1.949   0.058  11.387  0.2963  0.4055 -0.3627
  313MPD2    C1 4757   1.894   0.151  11.301 -0.1254  0.1677  0.0012
  313MPD2    C2 4758   1.862   0.113  11.172  0.2585  0.2539 -0.2416
  313MPD2    C3 4759   1.898   4.732  11.125  0.0721  0.5681  0.2265
  313MPD2    C4 4760   1.962   4.641  11.209  0.2364 -0.1625 -0.5998
  313MPD2    C5 4761   1.990   4.672  11.340  0.4590 -0.2108  0.0268
  313MPD2     H 4762   1.830   0.192  11.106 -1.9189 -0.2246  0.2457
  313MPD2    H1 4763   1.984   4.539  11.179  2.7355  0.7208 -1.8235
  313MPD2    H2 4764   1.970   0.093  11.487  1.5561 -0.9044 -0.1730
  313MPD2    H3 4765   2.041   4.597  11.400  3.1217  1.8980  0.4015
  313MPD2     N 4766   1.882   4.706  10.988 -0.5396  0.1967 -0.1228
  313MPD2    H5 4767   1.831   0.037  10.934 -0.1774  0.9186  0.4578
  313MPD2    N1 4768   1.877   0.289  11.336 -0.0327 -0.8321 -0.3087
  313MPD2    H7 4769   1.821   0.349  11.276 -0.7620 -0.0647  1.1668
  314TMC3    C1 4770   1.933   0.498  11.430  0.5760 -0.0259 -0.2966
  314TMC3    C2 4771   2.045   0.562  11.491 -1.1514  0.3464  0.6870
  314TMC3    C3 4772   2.088   0.681  11.435  0.6731 -0.3884  0.4577
  314TMC3    C4 4773   1.868   0.551  11.327 -0.7138  0.5894  0.3069
  314TMC3    C5 4774   1.919   0.664  11.272 -0.2998  0.5839 -0.9769
  314TMC3    C6 4775   2.031   0.727  11.317  0.0070 -0.3399 -0.0624
  314TMC3     C 4776   1.937   0.354  11.437 -0.5065 -0.3528 -0.4911
  314TMC3     O 4777   2.019   0.308  11.512 -0.1247  0.0755 -0.1387
  314TMC3     H 4778   2.095   0.521  11.578 -1.9435 -1.8254  0.1209
  314TMC3    H1 4779   1.787   0.506  11.270  0.7851 -3.2503  1.2449
  314TMC3    H2 4780   2.073   0.817  11.274 -1.5321 -0.0840 -1.0442
  314TMC3    C7 4781   1.873   0.689  11.147 -0.4841 -0.8033 -0.3273
  314TMC3    C8 4782   2.214   0.732  11.468 -0.3706 -0.6411 -0.0714
  314TMC3    O1 4783   1.756   0.655  11.118  0.4649 -0.5120 -0.0842
  314TMC3    O2 4784   2.277   0.800  11.384 -0.4350  0.0473 -0.1183
  315MPD2     C 4785   1.862   3.651  16.980  0.4053  0.6827 -0.4715
  315MPD2    C1 4786   1.950   3.677  17.084 -0.0927  1.5614  0.0644
  315MPD2    C2 4787   1.974   3.804  17.125  0.0004  0.0141 -0.0362
  315MPD2    C3 4788   1.904   3.911  17.078  0.1758  0.7611 -0.2722
  315MPD2    C4 4789   1.824   3.893  16.966  0.3918  0.0705 -0.2025
  315MPD2    C5 4790   1.807   3.764  16.918  0.3783  0.3171 -0.2537
  315MPD2     H 4791   2.043   3.818  17.208  0.1813  0.2554 -0.2317
  315MPD2    H1 4792   1.787   3.979  16.912  0.2144 -1.1281 -1.9807
  315MPD2    H2 4793   1.859   3.558  16.925  0.0909  0.8702 -0.7643
  315MPD2    H3 4794   1.755   3.745  16.825  0.6361  0.3831 -0.4140
  315MPD2     N 4795   1.922   4.034  17.141 -0.1034  0.6320  0.5137
  315MPD2    H5 4796   1.988   4.033  17.219  2.1162  0.6286 -1.3592
  315MPD2    N1 4797   2.037   3.578  17.134  0.7823 -0.4993  0.8256
  315MPD2    H7 4798   2.089   3.604  17.217  2.5128 -0.6108 -0.2221
  316TMC3    C1 4799   1.891   4.248  17.235  0.5432  0.4829 -0.0806
  316TMC3    C2 4800   1.959   4.185  17.334 -0.2975 -0.3349  0.0284
  316TMC3    C3 4801   2.084   4.222  17.368 -0.6025  0.4360 -0.3738
  316TMC3    C4 4802   1.937   4.365  17.183  0.2231  0.2411  0.3229
  316TMC3    C5 4803   2.070   4.403  17.214  0.3892  0.3227  0.1359
  316TMC3    C6 4804   2.138   4.331  17.311 -0.0521  0.0664  0.0425
  316TMC3     C 4805   1.851   4.158  17.128  0.8659  0.1700 -0.2783
  316TMC3     O 4806   1.789   4.202  17.031  0.4191  0.2428 -0.6887
  316TMC3     H 4807   1.923   4.094  17.381 -2.6820  0.4854 -0.1917
  316TMC3    H1 4808   1.866   4.426  17.129 -1.4627 -0.0329  2.2218
  316TMC3    H2 4809   2.240   4.355  17.336 -0.3140 -1.1528  2.2855
  316TMC3    C7 4810   2.090   4.544  17.220  0.0804 -0.5530  0.1998
  316TMC3    C8 4811   2.171   4.110  17.392 -0.1144  0.0011 -0.2479
  316TMC3    O1 4812   2.154   4.578  17.317  0.0887  0.1742 -0.5811
  316TMC3    O2 4813   2.139   4.004  17.337  0.4731  0.1211  0.1262
  317MPD2     C 4814   4.317   2.435  12.070 -0.0880 -0.2857 -0.2809
  317MPD2    C1 4815   4.379   2.350  11.981  0.0961 -0.0678  0.2480
  317MPD2    C2 4816   4.498   2.296  12.017 -0.1539 -1.3968 -0.1682
  317MPD2    C3 4817   4.553   2.334  12.137 -0.2345  0.8147 -0.3257
  317MPD2    C4 4818   4.497   2.422  12.222  0.3499 -0.7672 -0.3499
  317MPD2    C5 4819   4.379   2.474  12.182 -0.6893  0.1788  0.2330
  317MPD2     H 4820   4.553   2.239  11.943 -0.9398  0.5747 -2.2551
  317MPD2    H1 4821   4.539   2.443  12.320 -2.3224  0.5248  0.5191
  317MPD2    H2 4822   4.214   2.465  12.055 -0.1938 -0.2504  0.5622
  317MPD2    H3 4823   4.321   2.537  12.249 -1.2899  0.7214 -0.8007
  317MPD2     N 4824   4.670   2.263  12.166 -0.0314 -0.4992  0.3721
  317MPD2    H5 4825   4.686   2.177  12.116  2.2333  1.8609 -2.9079
  317MPD2    N1 4826   4.338   2.324  11.848 -0.2035  0.6393  0.0177
  317MPD2    H7 4827   4.397   2.262  11.794  1.5790  1.7884  0.6415
  318TMC3    C1 4828   0.113   2.198  12.301  0.3657  0.0710  0.0738
  318TMC3    C2 4829   0.058   2.077  12.343  0.0451 -0.5739  0.1241
  318TMC3    C3 4830   0.142   1.987  12.402 -0.1624  0.5368 -0.2828
  318TMC3    C4 4831   0.241   2.228  12.336 -0.2282 -0.3854 -0.2917
  318TMC3    C5 4832   0.323   2.139  12.408  0.0939  0.3352 -0.2122
  318TMC3    C6 4833   0.273   2.014  12.440 -0.2580  0.5518  0.1415
  318TMC3     C 4834   0.020   2.301  12.256  0.1636 -1.0204  0.1600
  318TMC3     O 4835   0.031   2.418  12.291 -0.2100  0.1408  0.6508
  318TMC3     H 4836   4.693   2.058  12.317 -0.4373  0.0367  1.6141
  318TMC3    H1 4837   0.285   2.321  12.302  2.8479 -1.7651 -0.0234
  318TMC3    H2 4838   0.326   1.936  12.493  1.7038  1.3896 -0.5980
  318TMC3    C7 4839   0.459   2.177  12.439 -0.4631  0.8639 -0.9161
  318TMC3    C8 4840   0.080   1.861  12.442  0.1501  0.3724 -0.5605
  318TMC3    O1 4841   0.509   2.250  12.359  0.0120 -0.7653 -0.3901
  318TMC3    O2 4842   0.164   1.776  12.469  0.6141 -0.4937  0.0251
  319MPD2     C 4843   0.452   3.739  16.635  0.3332  0.5782 -0.2056
  319MPD2    C1 4844   0.408   3.624  16.695  0.9079 -0.1692  0.5396
  319MPD2    C2 4845   0.294   3.566  16.639 -0.2831 -1.0940 -0.2168
  319MPD2    C3 4846   0.232   3.616  16.529  0.2422 -0.2184  0.5180
  319MPD2    C4 4847   0.276   3.737  16.473  0.0559 -0.1518 -0.2523
  319MPD2    C5 4848   0.376   3.803  16.537  0.4016 -0.2652  0.1737
  319MPD2     H 4849   0.271   3.465  16.670 -0.2054 -0.7335  1.0010
  319MPD2    H1 4850   0.239   3.778  16.379 -0.1100  1.1131  0.3658
  319MPD2    H2 4851   0.534   3.799  16.674  1.0569 -1.5270  1.5562
  319MPD2    H3 4852   0.427   3.893  16.501 -1.7904  0.2642 -1.6432
  319MPD2     N 4853   0.133   3.548  16.457  0.1932 -0.3614  0.3641
  319MPD2    H5 4854   0.091   3.602  16.383  0.0481 -3.8643 -2.1512
  319MPD2    N1 4855   0.461   3.567  16.812  0.6136  0.0524 -0.4751
  319MPD2    H7 4856   0.420   3.481  16.850  0.0395  1.1787  1.4702
  320TMC3    C1 4857   0.001   3.376  16.373 -0.3512 -0.8316  0.2528
  320TMC3    C2 4858   4.676   3.469  16.294 -0.2852  0.3162 -0.1494
  320TMC3    C3 4859   4.580   3.420  16.212  0.5323 -0.5052 -0.1703
  320TMC3    C4 4860   4.709   3.245  16.377  0.3746 -0.1940  0.4476
  320TMC3    C5 4861   4.616   3.203  16.290 -0.3158  0.1547 -0.4051
  320TMC3    C6 4862   4.556   3.285  16.199  0.2937  0.3795 -0.0050
  320TMC3     C 4863   0.079   3.419  16.486  0.3872  0.5505  0.1660
  320TMC3     O 4864   0.112   3.345  16.575  0.0244 -0.4283 -0.1889
  320TMC3     H 4865   4.695   3.575  16.286 -0.5466  0.4263  0.7231
  320TMC3    H1 4866   0.029   3.184  16.446  1.6442  0.0577 -0.3930
  320TMC3    H2 4867   4.469   3.252  16.144 -0.5274  0.7493  1.0734
  320TMC3    C7 4868   4.608   3.062  16.249  0.1417  0.5085  0.3456
  320TMC3    C8 4869   4.522   3.508  16.114  0.4251 -0.1922  0.2165
  320TMC3    O1 4870   4.537   3.035  16.152 -0.1915 -0.3962 -0.0411
  320TMC3    O2 4871   4.520   3.630  16.140 -0.2247  0.8200  0.4393
  321TMC3    C1 4872   0.611   3.549  17.000  0.1895  0.7139 -0.4021
  321TMC3    C2 4873   0.556   3.430  17.034 -1.1461  0.6843 -0.1753
  321TMC3    C3 4874   0.562   3.388  17.162  0.4033 -0.2769  0.0868
  321TMC3    C4 4875   0.673   3.626  17.095  0.2934  0.1729 -0.6524
  321TMC3    C5 4876   0.673   3.595  17.225  0.2898 -0.1309  0.4749
  321TMC3    C6 4877   0.605   3.482  17.255 -0.2743 -0.7248 -0.2948
  321TMC3     C 4878   0.559   3.627  16.884 -0.5144 -1.1829  0.1122
  321TMC3     O 4879   0.610   3.737  16.881 -0.3079  0.2980  0.5250
  321TMC3     H 4880   0.526   3.356  16.961 -0.9286  1.0341 -0.6132
  321TMC3    H1 4881   0.708   3.726  17.072 -0.6536  0.1182 -2.3261
  321TMC3    H2 4882   0.605   3.450  17.359 -0.5125 -1.5129 -0.5378
  321TMC3    C7 4883   0.807   3.584  17.275  0.5114  0.0311 -0.3407
  321TMC3    C8 4884   0.585   3.250  17.186 -0.2365  0.1664 -1.1407
  321TMC3    O1 4885   0.827   3.484  17.340 -0.2637 -0.0356 -0.1932
  321TMC3    O2 4886   0.512   3.159  17.140  0.4785 -0.6074 -0.2525
  322MPD2     C 4887   3.755   0.045  13.744 -0.5081  0.3345 -0.0003
  322MPD2    C1 4888   3.864   0.103  13.692 -0.5988 -0.0410  0.8053
  322MPD2    C2 4889   3.915   0.057  13.571 -0.3011 -0.0882  0.2302
  322MPD2    C3 4890   3.869   4.679  13.512  0.1839  0.4379  0.5014
  322MPD2    C4 4891   3.760   4.619  13.572 -0.1175 -0.2676 -0.5832
  322MPD2    C5 4892   3.713   4.666  13.693 -0.1727  0.2432 -0.2253
  322MPD2     H 4893   4.000   0.105  13.524  0.2819 -1.4547 -0.1073
  322MPD2    H1 4894   3.712   4.527  13.542  0.8568 -0.5804 -1.2014
  322MPD2    H2 4895   3.700   0.072  13.834  0.1712  0.2517  0.4444
  322MPD2    H3 4896   3.647   4.598  13.745  1.7806 -2.3012 -1.0893
  322MPD2     N 4897   3.948   4.610  13.416 -0.4385  0.2785  0.0461
  322MPD2    H5 4898   4.041   4.644  13.395 -0.3387 -0.8647 -1.4050
  322MPD2    N1 4899   3.904   0.219  13.763 -0.1503  0.5664  0.4439
  322MPD2    H7 4900   3.863   0.237  13.854  1.6832  0.1116  1.3459
  323TMC3    C1 4901   4.062   0.385  13.824 -0.5728 -0.2457 -0.1046
  323TMC3    C2 4902   4.181   0.430  13.786 -0.0808 -0.3637 -0.1912
  323TMC3    C3 4903   4.273   0.469  13.884  0.6617  0.2258  1.0026
  323TMC3    C4 4904   4.037   0.362  13.958  0.0337  0.7290 -0.3862
  323TMC3    C5 4905   4.133   0.393  14.051 -0.0283  0.1875  0.5832
  323TMC3    C6 4906   4.254   0.445  14.016  0.8221 -0.6960  0.5670
  323TMC3     C 4907   3.995   0.306  13.719 -0.5662  0.2720  0.3460
  323TMC3     O 4908   4.039   0.317  13.604  0.2479  0.5598  0.0125
  323TMC3     H 4909   4.209   0.452  13.683  0.1291 -0.8935 -0.2488
  323TMC3    H1 4910   3.948   0.312  13.993 -0.7718  1.4275 -1.4127
  323TMC3    H2 4911   4.329   0.459  14.093  1.5001 -0.4311 -0.1459
  323TMC3    C7 4912   4.116   0.324  14.179  0.9293  0.1586 -0.1154
  323TMC3    C8 4913   4.414   0.487  13.857  0.4591 -0.7862 -0.1433
  323TMC3    O1 4914   4.036   0.234  14.187  0.1189 -0.1773  0.6965
  323TMC3    O2 4915   4.490   0.512  13.949 -0.0581  0.3348  0.0479
  324MPD2     C 4916   1.231   1.521  13.726 -0.2750 -1.0853  0.1661
  324MPD2    C1 4917   1.198   1.495  13.857  0.4094 -0.4902  0.0398
  324MPD2    C2 4918   1.072   1.512  13.906 -0.4506  0.3688  0.1040
  324MPD2    C3 4919   0.972   1.539  13.814  0.7034 -0.0761 -0.2941
  324MPD2    C4 4920   0.998   1.538  13.680 -0.2396 -0.4144 -0.2685
  324MPD2    C5 4921   1.132   1.535  13.639 -0.0764  0.3710  0.0545
  324MPD2     H 4922   1.054   1.492  14.011 -0.3455 -1.0919 -0.1547
  324MPD2    H1 4923   0.925   1.555  13.602  1.3760  1.2202 -1.4337
  324MPD2    H2 4924   1.331   1.500  13.689 -0.0125  0.7733 -0.1829
  324MPD2    H3 4925   1.156   1.530  13.533 -0.6086 -2.7539  0.0933
  324MPD2     N 4926   0.836   1.541  13.848 -0.5460 -0.4561 -0.1828
  324MPD2    H5 4927   0.770   1.517  13.775  0.5967 -0.6050 -1.1760
  324MPD2    N1 4928   1.289   1.450  13.955  0.6385  0.0206 -0.0146
  324MPD2    H7 4929   1.255   1.438  14.050 -0.5797 -0.2506 -0.4819
  325TMC3    C1 4930   0.655   1.593  13.993 -0.9201 -0.0498  0.9169
  325TMC3    C2 4931   0.579   1.490  13.938  0.4008  0.2346  0.0527
  325TMC3    C3 4932   0.446   1.494  13.952  0.1925 -0.0155 -0.5500
  325TMC3    C4 4933   0.590   1.697  14.057 -0.3258 -0.4466 -0.7143
  325TMC3    C5 4934   0.451   1.693  14.064 -0.0465  0.1601  0.2567
  325TMC3    C6 4935   0.378   1.590  14.019 -0.5217  0.1360 -0.0863
  325TMC3     C 4936   0.792   1.588  13.976 -0.0693 -0.1142 -0.6527
  325TMC3     O 4937   0.854   1.636  14.070  0.0357  0.4411 -0.1787
  325TMC3     H 4938   0.634   1.400  13.913  1.3705  0.8034  0.1551
  325TMC3    H1 4939   0.649   1.779  14.097  1.1832 -0.2105 -3.4907
  325TMC3    H2 4940   0.270   1.586  14.031 -0.2356  0.8545  2.7326
  325TMC3    C7 4941   0.394   1.781  14.160 -0.4710 -0.5570  0.1404
  325TMC3    C8 4942   0.385   1.376  13.895  0.6210  0.9012 -0.1435
  325TMC3    O1 4943   0.451   1.828  14.258 -0.8306 -0.4526  0.5820
  325TMC3    O2 4944   0.458   1.283  13.856 -0.0241  0.0275  0.3313
  326MPD2     C 4945   2.256   2.122  10.802 -0.6639  0.5994 -0.4577
  326MPD2    C1 4946   2.179   2.234  10.750 -0.1376  0.1330  0.6236
  326MPD2    C2 4947   2.226   2.359  10.790 -0.0646 -0.0434 -0.2772
  326MPD2    C3 4948   2.327   2.367  10.891 -0.8418 -0.2298 -0.8808
  326MPD2    C4 4949   2.394   2.256  10.929  0.1883 -0.0467  0.2654
  326MPD2    C5 4950   2.362   2.133  10.882 -0.1996  0.2967  0.2260
  326MPD2     H 4951   2.180   2.448  10.749  1.4618  0.0265 -1.8529
  326MPD2    H1 4952   2.481   2.264  10.993  0.4620 -1.0954  0.0147
  326MPD2    H2 4953   2.225   2.022  10.773  2.0581 -0.4503  0.2291
  326MPD2    H3 4954   2.421   2.047  10.912 -1.1200 -0.8966 -1.4356
  326MPD2     N 4955   2.380   2.488  10.938 -0.5703  0.0883  0.6708
  326MPD2    H5 4956   2.466   2.491  10.991 -1.2920 -0.9016  1.8848
  326MPD2    N1 4957   2.076   2.225  10.653 -0.0313 -0.0091 -0.3821
  326MPD2    H7 4958   2.039   2.312  10.617 -2.5124  0.4687  3.3328
  327TMC3    C1 4959   1.926   2.142  10.494  0.2722  0.2215  0.1360
  327TMC3    C2 4960   1.808   2.210  10.496 -0.2920 -0.1274 -0.2191
  327TMC3    C3 4961   1.775   2.285  10.383 -0.3796 -0.1869 -0.3644
  327TMC3    C4 4962   2.009   2.153  10.392  0.1079 -0.8925  0.6380
  327TMC3    C5 4963   1.975   2.228  10.280 -0.1608 -0.3744 -0.3457
  327TMC3    C6 4964   1.853   2.285  10.269 -0.2685 -0.1737  0.0993
  327TMC3     C 4965   2.004   2.116  10.611 -0.2376  1.1055  0.0845
  327TMC3     O 4966   2.010   1.998  10.649 -0.1982 -0.3107  0.4723
  327TMC3     H 4967   1.770   2.225  10.596  2.1050  1.0265  0.5142
  327TMC3    H1 4968   2.083   2.074  10.384  0.3570 -0.5316 -0.7582
  327TMC3    H2 4969   1.839   2.361  10.193 -2.2622 -1.5952 -0.9571
  327TMC3    C7 4970   2.087   2.312  10.238  0.5013  0.1242  0.2706
  327TMC3    C8 4971   1.708   2.414  10.410  0.4378  0.1553  0.1770
  327TMC3    O1 4972   2.064   2.411  10.168 -0.1134 -0.0805 -0.1404
  327TMC3    O2 4973   1.718   2.488  10.313 -0.1238  0.1864 -0.4644
  328MPD2     C 4974   4.451   2.678  17.115  0.4332  0.6627  0.0390
  328MPD2    C1 4975   4.338   2.603  17.153 -0.2435 -0.6506 -1.0025
  328MPD2    C2 4976   4.241   2.581  17.054  0.0198 -0.5663  0.2649
  328MPD2    C3 4977   4.265   2.613  16.922  0.3055 -0.1666  0.6328
  328MPD2    C4 4978   4.387   2.666  16.893  0.3472  1.2474  0.2873
  328MPD2    C5 4979   4.474   2.701  16.985 -0.6530  0.2231 -0.0707
  328MPD2     H 4980   4.148   2.539  17.091  0.8364 -0.9654  1.8524
  328MPD2    H1 4981   4.390   2.732  16.807 -0.5494 -1.5895 -1.9162
  328MPD2    H2 4982   4.522   2.717  17.186  1.4275  0.4174 -0.8249
  328MPD2    H3 4983   4.559   2.760  16.953  0.2489 -1.1959 -0.2823
  328MPD2     N 4984   4.169   2.611  16.821  0.0922 -0.4602  0.0860
  328MPD2    H5 4985   4.195   2.633  16.726 -0.0681  0.1816  0.1886
  328MPD2    N1 4986   4.324   2.557  17.283 -0.6541  0.7041  0.7020
  328MPD2    H7 4987   4.259   2.479  17.294 -0.3721  0.1201 -1.7210
  329TMC3    C1 4988   4.406   2.475  17.482  0.3643 -0.4354  0.1885
  329TMC3    C2 4989   4.413   2.513  17.615 -0.5731  0.5714  0.1675
  329TMC3    C3 4990   4.406   2.414  17.713 -0.1277  0.0040 -0.0258
  329TMC3    C4 4991   4.377   2.349  17.444  0.3521 -0.4607  0.3204
  329TMC3    C5 4992   4.372   2.250  17.545  0.2410  0.7177 -0.6161
  329TMC3    C6 4993   4.370   2.283  17.681  0.3729  0.1153  0.0345
  329TMC3     C 4994   4.414   2.576  17.382 -0.6230  0.3952  0.5361
  329TMC3     O 4995   4.465   2.684  17.412  0.7112  0.3992 -0.1134
  329TMC3     H 4996   4.452   2.609  17.645 -0.7639  0.6309  0.2280
  329TMC3    H1 4997   4.385   2.328  17.338  2.1659 -0.9389  0.5447
  329TMC3    H2 4998   4.395   2.205   0.002  0.4397 -0.8461 -1.0500
  329TMC3    C7 4999   4.292   2.133  17.523  0.2476 -0.0091 -0.4449
  329TMC3    C8 5000   4.391   2.448   0.103 -0.5640 -0.0417  0.3185
  329TMC3    O1 5001   4.254   2.067  17.621 -0.4108  0.1684 -0.3164
  329TMC3    O2 5002   4.394   2.356   0.185 -0.0241 -0.3009  0.0295
  330TMC3    C1 5003   2.355   1.326   9.605 -0.2218  0.2719  0.3300
  330TMC3    C2 5004   2.217   1.296   9.591 -0.1505  0.0812  0.2805
  330TMC3    C3 5005   2.146   1.219   9.683 -0.2571  0.6821  0.7269
  330TMC3    C4 5006   2.421   1.291   9.719 -0.0365  0.7313  0.3606
  330TMC3    C5 5007   2.343   1.219   9.814  0.0208  0.8318  0.2104
  330TMC3    C6 5008   2.214   1.176   9.795  0.4619  0.0245 -0.1915
  330TMC3     C 5009   2.417   1.435   9.524  0.7003  0.5335 -0.3554
  330TMC3     O 5010   2.539   1.452   9.536 -0.0987  0.2807  0.0651
  330TMC3     H 5011   2.164   1.333   9.503 -2.5581  0.1357  1.7441
  330TMC3    H1 5012   2.516   1.340   9.739  1.3720 -2.3236  1.0264
  330TMC3    H2 5013   2.182   1.103   9.868  0.5197 -0.9195 -1.1114
  330TMC3    C7 5014   2.414   1.165   9.933 -0.4172  0.9973  0.4531
  330TMC3    C8 5015   2.032   1.151   9.633 -0.1350 -0.6737  0.1741
  330TMC3    O1 5016   2.343   1.136  10.034 -0.7571  0.0309 -0.3678
  330TMC3    O2 5017   2.015   1.146   9.507  0.6332 -0.1834  0.0959
  331MPD2     C 5018   1.246   0.661  12.550  0.0447 -0.0445 -0.5318
  331MPD2    C1 5019   1.188   0.629  12.429  0.1351 -0.0372 -0.3060
  331MPD2    C2 5020   1.083   0.534  12.447  0.4477 -0.2059 -0.1343
  331MPD2    C3 5021   1.044   0.473  12.565  0.1721 -0.3335  0.0962
  331MPD2    C4 5022   1.116   0.505  12.681  0.1021 -0.1381  0.2422
  331MPD2    C5 5023   1.210   0.603  12.671 -0.1746  0.6244  0.9173
  331MPD2     H 5024   1.025   0.511  12.358  1.2482 -0.0958 -0.6839
  331MPD2    H1 5025   1.096   0.477  12.784 -0.6069 -1.0221 -0.1366
  331MPD2    H2 5026   1.320   0.740  12.550 -0.3332  0.3087  1.5854
  331MPD2    H3 5027   1.262   0.629  12.762 -2.1953  1.1711  1.9058
  331MPD2     N 5028   0.937   0.379  12.556  0.5939  0.2818  0.0053
  331MPD2    H5 5029   0.899   0.361  12.464 -2.3261  3.6677  0.5551
  331MPD2    N1 5030   1.218   0.704  12.313 -0.4767 -0.4214  0.3003
  331MPD2    H7 5031   1.274   0.786  12.331 -1.8474  0.3950  0.8488
  332TMC3    C1 5032   0.796   0.217  12.633 -0.3318  0.4821 -0.0418
  332TMC3    C2 5033   0.701   0.247  12.535  0.4528 -0.1094  0.4948
  332TMC3    C3 5034   0.647   0.139  12.476  0.3091  0.0878  0.1792
  332TMC3    C4 5035   0.832   0.092  12.686  0.1872 -0.5133 -0.0453
  332TMC3    C5 5036   0.763   4.728  12.624  0.1894  0.1624  0.2174
  332TMC3    C6 5037   0.671   0.007  12.526 -0.8832  0.2793 -0.0929
  332TMC3     C 5038   0.899   0.311  12.667  0.0502  0.5494 -0.3325
  332TMC3     O 5039   0.943   0.307  12.781  0.6097  0.0896 -0.4486
  332TMC3     H 5040   0.700   0.349  12.499  0.5360 -0.6563 -1.0605
  332TMC3    H1 5041   0.897   0.081  12.771  0.0005 -1.2858 -0.0027
  332TMC3    H2 5042   0.612   4.662  12.488  0.4294 -0.8044  0.2279
  332TMC3    C7 5043   0.781   4.594  12.670 -0.2884 -0.3062  0.1194
  332TMC3    C8 5044   0.602   0.153  12.341 -0.3533  0.7707  0.5857
  332TMC3    O1 5045   0.701   4.507  12.648 -0.5294 -0.1299  0.2771
  332TMC3    O2 5046   0.613   0.268  12.291 -0.8187 -0.0886 -0.2062
  333MPD2     C 5047   0.580   0.883  10.992  0.8437  0.5004  0.2913
  333MPD2    C1 5048   0.587   0.864  10.860 -0.4975 -0.0757  0.4685
  333MPD2    C2 5049   0.521   0.757  10.797 -0.2263 -0.1646  0.5145
  333MPD2    C3 5050   0.439   0.675  10.872 -0.3907 -0.4939  0.4637
  333MPD2    C4 5051   0.420   0.704  11.004 -0.5490  0.1588  0.7748
  333MPD2    C5 5052   0.497   0.805  11.060  0.4942  0.1649  0.1256
  333MPD2     H 5053   0.543   0.735  10.693  0.9250 -1.9893  1.1475
  333MPD2    H1 5054   0.342   0.660  11.066 -0.3273 -0.3556  0.6905
  333MPD2    H2 5055   0.642   0.961  11.036  1.5172  0.9270 -1.3880
  333MPD2    H3 5056   0.483   0.831  11.165  1.3167  1.6820 -0.1439
  333MPD2     N 5057   0.370   0.565  10.806 -0.0846  0.7178 -1.0008
  333MPD2    H5 5058   0.390   0.557  10.707 -0.1597  1.1691 -1.0501
  333MPD2    N1 5059   0.690   0.938  10.796  0.4381  0.1100 -0.1464
  333MPD2    H7 5060   0.746   1.005  10.849 -0.2433 -0.8423  1.7656
  334TMC3    C1 5061   0.842   1.000  10.624 -0.9533 -0.0598 -0.2783
  334TMC3    C2 5062   0.954   0.962  10.697  0.8555  0.3337 -0.6683
  334TMC3    C3 5063   1.074   1.004  10.640 -0.0298 -0.0883  0.4398
  334TMC3    C4 5064   0.853   1.060  10.500 -0.2677  0.3531 -0.4566
  334TMC3    C5 5065   0.970   1.097  10.449  0.2984  0.0297  0.1213
  334TMC3    C6 5066   1.086   1.067  10.518  0.0016 -0.0335  0.6499
  334TMC3     C 5067   0.705   0.946  10.651  0.8138  0.4764  0.1207
  334TMC3     O 5068   0.630   0.910  10.563  0.0556 -0.0365  0.1447
  334TMC3     H 5069   0.950   0.904  10.788 -1.8948  0.0308 -0.9846
  334TMC3    H1 5070   0.764   1.082  10.442 -0.2845  0.3694 -0.4245
  334TMC3    H2 5071   1.180   1.111  10.487 -1.0838  0.7298 -1.6029
  334TMC3    C7 5072   0.980   1.232  10.394  0.9478 -1.0143  0.0587
  334TMC3    C8 5073   1.176   1.024  10.743  0.1345  0.0661 -0.3143
  334TMC3    O1 5074   0.915   1.318  10.452 -0.3014  0.1625 -0.2385
  334TMC3    O2 5075   1.135   1.008  10.856  0.1657  0.3419 -0.0055
  335TMC3    C1 5076   0.345   2.770  17.485 -0.6646 -0.0174  0.2291
  335TMC3    C2 5077   0.228   2.730  17.431  0.5260 -0.4864  0.5970
  335TMC3    C3 5078   0.216   2.604  17.377 -0.4497  0.8873  0.0051
  335TMC3    C4 5079   0.457   2.684  17.484  0.3067  0.2931 -0.1941
  335TMC3    C5 5080   0.439   2.553  17.435 -0.1276  0.4064  0.0988
  335TMC3    C6 5081   0.317   2.512  17.380  0.7155 -0.0988 -0.4840
  335TMC3     C 5082   0.354   2.904  17.535  0.1013  0.4422  0.1169
  335TMC3     O 5083   0.434   2.920  17.625  0.6096 -0.0880 -0.4066
  335TMC3     H 5084   0.141   2.795  17.431  0.6016 -0.3849  0.7978
  335TMC3    H1 5085   0.548   2.722  17.532 -0.5978 -0.0226  1.7830
  335TMC3    H2 5086   0.309   2.413  17.335  3.2158 -0.7614  0.5457
  335TMC3    C7 5087   0.567   2.479  17.412  0.2732  0.7696 -0.0039
  335TMC3    C8 5088   0.080   2.567  17.326  0.1566  0.1423 -0.1274
  335TMC3    O1 5089   0.667   2.550  17.405 -0.3224 -0.0098  0.7771
  335TMC3    O2 5090   0.006   2.649  17.273  0.2672  0.0389  1.0257
  336MPD2     C 5091   0.377   0.283  15.993 -0.9670  0.0693  0.2838
  336MPD2    C1 5092   0.252   0.232  15.967 -0.0250  0.0922 -0.7214
  336MPD2    C2 5093   0.215   0.115  16.024 -0.3337  0.5725 -0.1342
  336MPD2    C3 5094   0.294   0.046  16.117 -0.2018  0.1943  0.1492
  336MPD2    C4 5095   0.423   0.091  16.129  0.7453 -0.1101  0.4494
  336MPD2    C5 5096   0.466   0.200  16.064 -0.7947 -0.4159  0.8372
  336MPD2     H 5097   0.123   0.072  15.985  0.5635 -0.0956 -1.5021
  336MPD2    H1 5098   0.495   0.030  16.183  2.5723  2.4245  0.9175
  336MPD2    H2 5099   0.416   0.364  15.933 -3.8493  3.0752  2.4257
  336MPD2    H3 5100   0.569   0.234  16.064 -1.8223  2.6478 -1.4065
  336MPD2     N 5101   0.259   4.667  16.192 -0.0712 -0.2968  0.5072
  336MPD2    H5 5102   0.336   4.623  16.241 -1.4948 -1.9633  1.3025
  336MPD2    N1 5103   0.161   0.285  15.869  0.3608 -0.2628 -0.2439
  336MPD2    H7 5104   0.072   0.238  15.856  0.6800 -1.1671  0.8574
  337TMC3    C1 5105   0.089   0.405  15.683  0.2377 -0.2935  0.3944
  337TMC3    C2 5106   4.727   0.311  15.668  0.5983  0.0639  0.4655
  337TMC3    C3 5107   4.623   0.346  15.590 -0.0510  0.3442  0.0038
  337TMC3    C4 5108   0.097   0.518  15.613  0.6104  0.6542  0.6934
  337TMC3    C5 5109   4.719   0.548  15.544 -0.3825 -0.0592  0.2119
  337TMC3    C6 5110   4.619   0.466  15.528  0.8036  0.1764 -0.7916
  337TMC3     C 5111   0.198   0.386  15.778  0.3034 -0.3349  0.7471
  337TMC3     O 5112   0.289   0.468  15.776  0.3029  0.0875 -0.0648
  337TMC3     H 5113   0.004   0.213  15.711  0.8866  1.0404  2.5585
  337TMC3    H1 5114   0.164   0.600  15.638 -0.3410  1.1347  1.7319
  337TMC3    H2 5115   4.523   0.499  15.492  1.0217  0.0153 -1.5247
  337TMC3    C7 5116   4.709   0.679  15.488  0.1126  0.3478 -0.1817
  337TMC3    C8 5117   4.529   0.245  15.560  0.1818  0.0554  0.1104
  337TMC3    O1 5118   0.044   0.763  15.546  0.0198 -0.7180 -0.3174
  337TMC3    O2 5119   4.542   0.154  15.639  0.3986  0.2336  0.1538
  338MPD2     C 5120   0.390   4.241   0.689  0.6786 -0.4508  0.2662
  338MPD2    C1 5121   0.356   4.302   0.569  0.5089 -0.0385  0.1390
  338MPD2    C2 5122   0.243   4.381   0.579 -0.8124 -0.8197  0.3154
  338MPD2    C3 5123   0.185   4.406   0.703  0.1265 -1.0769 -0.1849
  338MPD2    C4 5124   0.230   4.347   0.815  0.2144 -0.5778 -0.6143
  338MPD2    C5 5125   0.323   4.255   0.807  0.2941 -0.2898 -0.0139
  338MPD2     H 5126   0.204   4.432   0.491 -0.3640 -0.2219  0.4609
  338MPD2    H1 5127   0.188   4.365   0.913  1.1267  2.5242 -0.8018
  338MPD2    H2 5128   0.476   4.175   0.692  0.2859 -1.0731 -2.0337
  338MPD2    H3 5129   0.362   4.208   0.896 -0.5495 -2.5314 -0.8301
  338MPD2     N 5130   0.080   4.504   0.701  0.3392  0.3727  0.5731
  338MPD2    H5 5131   0.054   4.538   0.610 -0.0356 -1.5140 -0.0395
  338MPD2    N1 5132   0.424   4.295   0.451 -0.3153  0.0377  0.2388
  338MPD2    H7 5133   0.392   4.361   0.381  0.8868 -0.3204 -0.6601
  339TMC3    C1 5134   4.637   4.632   0.774  0.4800  0.3662 -0.2668
  339TMC3    C2 5135   4.527   4.566   0.826 -0.0125  0.1761 -0.1737
  339TMC3    C3 5136   4.422   4.537   0.739  0.4420  0.0880  0.1267
  339TMC3    C4 5137   4.646   4.672   0.643 -0.0976 -0.2443  0.3398
  339TMC3    C5 5138   4.541   4.648   0.564 -0.0626 -0.7336  0.9014
  339TMC3    C6 5139   4.435   4.573   0.609 -0.1745 -0.1273 -0.4851
  339TMC3     C 5140   0.014   4.551   0.809  0.2785  0.1434 -0.7699
  339TMC3     O 5141   0.039   4.520   0.928 -0.7733  0.5923  0.0754
  339TMC3     H 5142   4.528   4.519   0.924  0.5738 -0.9209 -0.7053
  339TMC3    H1 5143   4.733   4.729   0.615 -1.0670  0.8932 -0.3220
  339TMC3    H2 5144   4.357   4.538   0.542 -1.7122 -2.2280  2.4114
  339TMC3    C7 5145   4.575   4.673   0.429 -0.2175  0.2021 -0.3646
  339TMC3    C8 5146   4.302   4.472   0.780  0.0179 -0.3293 -0.3990
  339TMC3    O1 5147   4.634   0.038   0.402  0.0759  0.5533 -0.5715
  339TMC3    O2 5148   4.231   4.429   0.695 -0.0598 -0.4687 -0.2240
  340MPD2     C 5149   0.221   1.477  10.008  0.5543  0.0040 -0.3289
  340MPD2    C1 5150   0.349   1.488   9.960 -0.1609 -0.5095 -0.2513
  340MPD2    C2 5151   0.429   1.595  10.004 -0.5360 -0.3523 -0.3704
  340MPD2    C3 5152   0.379   1.687  10.099 -0.4001  0.0642 -0.3297
  340MPD2    C4 5153   0.250   1.675  10.147 -0.4298  0.7960  0.4984
  340MPD2    C5 5154   0.168   1.568  10.105 -0.3142 -0.2258 -0.3640
  340MPD2     H 5155   0.530   1.597   9.965 -0.8278  0.8580 -1.0512
  340MPD2    H1 5156   0.213   1.741  10.225  0.3655  3.2988 -1.2576
  340MPD2    H2 5157   0.159   1.392   9.984  1.1259 -0.9611  1.6299
  340MPD2    H3 5158   0.066   1.555  10.137 -0.3466 -2.1478 -1.1912
  340MPD2     N 5159   0.452   1.799  10.142  0.2881  0.1515  0.0646
  340MPD2    H5 5160   0.394   1.867  10.190  1.0346  0.1750  0.9123
  340MPD2    N1 5161   0.399   1.390   9.869 -0.2096  0.1366  0.1726
  340MPD2    H7 5162   0.329   1.322   9.839 -0.4220  1.5112 -2.4122
  341TMC3    C1 5163   0.529   1.264   9.717  0.1991  0.4486 -1.1424
  341TMC3    C2 5164   0.427   1.170   9.712  0.6193 -0.6116  0.1760
  341TMC3    C3 5165   0.434   1.083   9.605  0.2705 -0.3260 -0.3790
  341TMC3    C4 5166   0.633   1.273   9.632 -0.2499 -0.0230 -0.1938
  341TMC3    C5 5167   0.629   1.179   9.529 -0.8249 -0.4989  0.3591
  341TMC3    C6 5168   0.533   1.085   9.512 -0.1401  0.0877  0.0339
  341TMC3     C 5169   0.521   1.383   9.810  0.4915  0.2155 -0.3204
  341TMC3     O 5170   0.612   1.462   9.806 -0.1999  0.5143  0.5901
  341TMC3     H 5171   0.355   1.159   9.792 -0.7606  1.2020 -0.8190
  341TMC3    H1 5172   0.711   1.349   9.628 -0.1678 -0.0542  1.0056
  341TMC3    H2 5173   0.530   1.019   9.426 -1.8636  0.0891  0.0973
  341TMC3    C7 5174   0.751   1.165   9.447 -0.3428  0.4360 -0.7397
  341TMC3    C8 5175   0.328   0.978   9.595 -0.3509 -0.1020  0.3221
  341TMC3    O1 5176   0.827   1.260   9.462 -0.0005 -0.8461  0.3219
  341TMC3    O2 5177   0.354   0.891   9.517 -0.2260 -0.0232  0.0313
  342MPD2     C 5178   2.927   0.709  17.698  0.1715 -0.6546  0.3513
  342MPD2    C1 5179   3.029   0.705  17.606  0.7630  0.0634 -0.0685
  342MPD2    C2 5180   3.071   0.829  17.551 -0.5738  0.0802  0.1832
  342MPD2    C3 5181   3.021   0.948  17.602 -1.2289 -0.6043 -0.9240
  342MPD2    C4 5182   2.916   0.951  17.690  0.3048  0.6342  0.0379
  342MPD2    C5 5183   2.871   0.831  17.738 -0.5243 -0.2031 -0.4860
  342MPD2     H 5184   3.149   0.825  17.476 -1.4260  0.0225 -0.6977
  342MPD2    H1 5185   2.872   1.041  17.731 -0.1935  0.1765  0.5053
  342MPD2    H2 5186   2.886   0.616  17.735  0.1485 -0.4611  0.8140
  342MPD2    H3 5187   2.784   0.820   0.053 -0.6768 -0.1055 -0.6766
  342MPD2     N 5188   3.084   1.070  17.574  0.4857  0.4127 -0.4191
  342MPD2    H5 5189   3.047   1.157  17.613  0.5917 -0.6177  1.9559
  342MPD2    N1 5190   3.081   0.584  17.563  0.0020 -0.2663  0.3616
  342MPD2    H7 5191   3.162   0.592  17.502  0.0382 -1.9777  0.1941
  343TMC3    C1 5192   3.121   0.371  17.533 -0.2597  0.3342 -0.1755
  343TMC3    C2 5193   3.249   0.404  17.506 -0.6687  0.2416  0.1822
  343TMC3    C3 5194   3.316   0.320  17.418 -0.7450 -0.4585  0.3948
  343TMC3    C4 5195   3.065   0.260  17.481 -0.3559 -0.8078 -0.0911
  343TMC3    C5 5196   3.143   0.171  17.413  0.2623 -1.0307 -0.0830
  343TMC3    C6 5197   3.268   0.201  17.370  0.0013  0.0319 -0.4692
  343TMC3     C 5198   3.043   0.462  17.611 -0.3278  0.1507  0.2994
  343TMC3     O 5199   2.960   0.420  17.692  0.5082  0.2455  0.1783
  343TMC3     H 5200   3.299   0.496  17.531 -0.2268 -0.0895  0.5312
  343TMC3    H1 5201   2.960   0.233  17.491 -0.7046  0.2600 -0.8518
  343TMC3    H2 5202   3.329   0.124  17.324  0.5335  0.1047  0.1001
  343TMC3    C7 5203   3.092   0.044  17.376 -0.7427 -0.1895 -0.5321
  343TMC3    C8 5204   3.462   0.343  17.408 -0.2233 -0.1034  0.0750
  343TMC3    O1 5205   3.131   0.006  17.265 -0.4318 -0.6863  0.1913
  343TMC3    O2 5206   3.514   0.430  17.474 -0.2562  0.3592  0.0005
  344MPD2     C 5207   4.092   4.597  10.593 -0.1092 -0.4700 -0.5186
  344MPD2    C1 5208   3.970   4.645  10.563  0.8066  0.2431 -0.1894
  344MPD2    C2 5209   3.961   0.030  10.496 -0.2318 -0.1888  0.5583
  344MPD2    C3 5210   4.072   0.107  10.476  1.1499 -0.5516  0.1130
  344MPD2    C4 5211   4.191   0.050  10.507 -0.4528 -0.1296  0.3988
  344MPD2    C5 5212   4.202   4.662  10.554  0.2991 -0.3245  0.5249
  344MPD2     H 5213   3.863   0.060  10.460 -0.3992  0.7368  1.7711
  344MPD2    H1 5214   4.289   0.093  10.491  0.1125 -2.4485 -2.4324
  344MPD2    H2 5215   4.114   4.500  10.635  1.4041 -0.1796 -0.6379
  344MPD2    H3 5216   4.299   4.620  10.580  0.6165  0.1920  0.1738
  344MPD2     N 5217   4.077   0.241  10.428  0.6729  0.1559 -0.1032
  344MPD2    H5 5218   4.169   0.276  10.404 -0.4866  1.7660 -2.2075
  344MPD2    N1 5219   3.859   4.568  10.605  0.0277  0.2379  0.0406
  344MPD2    H7 5220   3.885   4.501  10.676  1.7169 -0.2110 -0.9926
  345TMC3    C1 5221   4.013   0.446  10.351  0.6007 -0.3913  0.2623
  345TMC3    C2 5222   4.111   0.501  10.419 -0.3321 -0.0492 -0.4920
  345TMC3    C3 5223   4.178   0.604  10.349 -0.7789 -0.0547  0.1154
  345TMC3    C4 5224   3.983   0.476  10.218 -0.0056  0.0937  0.4691
  345TMC3    C5 5225   4.054   0.568  10.155  0.2664  0.2907  0.3942
  345TMC3    C6 5226   4.154   0.632  10.220 -0.6827  0.8388 -0.3184
  345TMC3     C 5227   3.969   0.316  10.393  0.0501 -0.6787  1.1150
  345TMC3     O 5228   3.849   0.289  10.389 -0.1192 -0.2870 -0.0845
  345TMC3     H 5229   4.138   0.470  10.520 -0.6868  0.0044 -0.3827
  345TMC3    H1 5230   3.918   0.414  10.158 -0.8113  0.0518  1.3856
  345TMC3    H2 5231   4.202   0.715  10.171  1.8092 -0.5150 -0.2020
  345TMC3    C7 5232   4.004   0.626  10.031 -0.4442  0.2453  0.4136
  345TMC3    C8 5233   4.228   0.714  10.427  0.2059  0.0321  0.6800
  345TMC3    O1 5234   4.077   0.697   9.971  0.3545 -0.3654  0.1303
  345TMC3    O2 5235   4.243   0.810  10.351  0.2791 -0.5023  0.2522
  346MPD2     C 5236   4.393   1.631  13.191  0.4908 -0.2508 -0.5954
  346MPD2    C1 5237   4.490   1.730  13.203  0.0025  0.6804  0.3164
  346MPD2    C2 5238   4.483   1.821  13.314  0.2295  0.0372  0.6940
  346MPD2    C3 5239   4.375   1.814  13.404  0.1161 -0.3735  0.7656
  346MPD2    C4 5240   4.276   1.723  13.386  0.1636  0.3458 -0.4150
  346MPD2    C5 5241   4.295   1.625  13.286 -0.4903  0.0018 -0.4318
  346MPD2     H 5242   4.562   1.894  13.326 -0.7267  0.6169  3.4440
  346MPD2    H1 5243   4.188   1.710  13.448 -0.5152 -0.2080 -1.4840
  346MPD2    H2 5244   4.397   1.557  13.113 -0.6793 -1.2329  0.2646
  346MPD2    H3 5245   4.222   1.545  13.289  0.7147 -1.0566  0.6431
  346MPD2     N 5246   4.371   1.901  13.515  0.4499 -0.3960  0.3063
  346MPD2    H5 5247   4.442   1.974  13.519 -0.6966  0.7321  0.2484
  346MPD2    N1 5248   4.588   1.750  13.100 -0.4677  0.0859  0.3898
  346MPD2    H7 5249   4.650   1.828  13.116 -0.5688  0.3717 -0.6490
  347TMC3    C1 5250   4.307   1.995  13.726  0.1007  0.3865  0.0545
  347TMC3    C2 5251   4.436   2.028  13.760  0.5072  0.7784 -0.5699
  347TMC3    C3 5252   4.461   2.068  13.895 -0.6543 -0.8126 -0.4441
  347TMC3    C4 5253   4.215   1.999  13.825 -0.6526 -0.2307 -0.3008
  347TMC3    C5 5254   4.239   2.045  13.947  0.6307 -0.2800 -0.2526
  347TMC3    C6 5255   4.362   2.071  13.989 -0.1031  0.5320 -0.1474
  347TMC3     C 5256   4.275   1.905  13.617 -0.2215  0.2614  0.2635
  347TMC3     O 5257   4.163   1.856  13.622  0.2254 -0.1730 -0.1487
  347TMC3     H 5258   4.524   2.029  13.697  1.3661 -1.9549  0.5902
  347TMC3    H1 5259   4.110   1.988  13.798 -0.9542  0.4123  0.6034
  347TMC3    H2 5260   4.377   2.109  14.090 -1.5379 -0.4668  0.4400
  347TMC3    C7 5261   4.129   2.024  14.036  0.3439 -0.1620  0.0204
  347TMC3    C8 5262   4.587   2.048  13.947  0.1471  0.6361 -0.4888
  347TMC3    O1 5263   4.034   1.954  14.011  0.2775 -0.3992 -0.2479
  347TMC3    O2 5264   4.668   2.011  13.867  0.1428 -0.7445 -0.0321
  348MPD2     C 5265   3.121   1.401  12.090 -0.1287  0.9615 -0.0788
  348MPD2    C1 5266   3.005   1.364  12.032 -0.5004  0.1203  0.5652
  348MPD2    C2 5267   2.971   1.429  11.917 -0.5336 -0.0333  0.0760
  348MPD2    C3 5268   3.052   1.521  11.851  0.0743  0.2381 -0.3067
  348MPD2    C4 5269   3.161   1.567  11.917 -0.0962  0.3901 -0.3390
  348MPD2    C5 5270   3.200   1.503  12.034  0.8248  0.6239  0.4000
  348MPD2     H 5271   2.872   1.408  11.877 -0.0245 -0.1923 -1.1200
  348MPD2    H1 5272   3.225   1.647  11.883  0.2351  0.7055  1.0407
  348MPD2    H2 5273   3.158   1.356  12.182  1.0697 -1.0078 -1.5320
  348MPD2    H3 5274   3.286   1.530  12.095  1.1239 -1.0048  0.7118
  348MPD2     N 5275   3.000   1.580  11.736 -0.0009 -0.0597 -0.1898
  348MPD2    H5 5276   2.912   1.545  11.702  0.5819 -1.8340  0.1514
  348MPD2    N1 5277   2.912   1.267  12.083  0.2540 -0.0534 -0.2746
  348MPD2    H7 5278   2.818   1.266  12.045  0.5224 -2.0923 -0.8619
  349TMC3    C1 5279   2.832   1.082  12.213 -0.2130 -1.0704 -0.2454
  349TMC3    C2 5280   2.865   0.959  12.263 -0.7840  0.6113  0.0804
  349TMC3    C3 5281   2.773   0.853  12.246  0.1807  0.9134  0.3251
  349TMC3    C4 5282   2.717   1.104  12.132  0.6820  0.7939  0.6285
  349TMC3    C5 5283   2.641   0.992  12.102 -0.7636  0.7333  0.4466
  349TMC3    C6 5284   2.667   0.867  12.158  0.1588  0.6487 -0.3443
  349TMC3     C 5285   2.939   1.171  12.174 -0.1202 -0.3631  0.1998
  349TMC3     O 5286   3.051   1.150  12.214 -0.1913  0.3930  0.8919
  349TMC3     H 5287   2.952   0.947  12.326 -0.2261  2.9529 -0.2592
  349TMC3    H1 5288   2.682   1.198  12.090  1.8912  1.3465  0.8495
  349TMC3    H2 5289   2.607   0.780  12.132  0.1285 -0.0637  2.0256
  349TMC3    C7 5290   2.567   0.990  11.978 -0.7043  0.4655  0.0462
  349TMC3    C8 5291   2.808   0.717  12.275  0.0270  0.2686  0.7469
  349TMC3    O1 5292   2.453   0.946  11.987 -0.1113 -0.0053  0.0574
  349TMC3    O2 5293   2.740   0.632  12.223 -0.6658  0.0095  0.1132
  350MPD2     C 5294   1.309   4.539  10.227  0.1907  0.4127 -1.1960
  350MPD2    C1 5295   1.427   4.546  10.158 -0.1234 -0.3586  0.1607
  350MPD2    C2 5296   1.541   4.598  10.226  0.5170  0.4231 -0.2186
  350MPD2    C3 5297   1.541   4.646  10.356 -0.4328  0.4680 -0.9974
  350MPD2    C4 5298   1.413   4.653  10.413  0.2688  0.3363 -0.3523
  350MPD2    C5 5299   1.302   4.596  10.354  0.8578 -0.2897  0.1673
  350MPD2     H 5300   1.640   4.601  10.182  0.3368 -1.2994 -0.7490
  350MPD2    H1 5301   1.403   4.699  10.510 -0.5261  0.4035 -0.4708
  350MPD2    H2 5302   1.220   4.494  10.184 -0.1650 -1.4512  1.5115
  350MPD2    H3 5303   1.215   4.580  10.416  0.5480  1.5343  0.2111
  350MPD2     N 5304   1.661   4.677  10.426  0.2729  0.4667 -0.4710
  350MPD2    H5 5305   1.748   4.665  10.376  0.8217  2.4515 -0.0097
  350MPD2    N1 5306   1.452   4.489  10.028 -0.2885  0.0037 -0.0990
  350MPD2    H7 5307   1.550   4.494  10.002 -0.1648  2.2196  0.8168
  351TMC3    C1 5308   1.407   4.366   9.822  1.1956 -0.1069 -0.0016
  351TMC3    C2 5309   1.534   4.396   9.771  0.1869 -0.2101 -0.4293
  351TMC3    C3 5310   1.563   4.342   9.651  0.1873 -0.3911  0.0191
  351TMC3    C4 5311   1.321   4.278   9.755 -0.1542 -0.3815 -0.4355
  351TMC3    C5 5312   1.355   4.233   9.632  0.0645  0.1345 -0.7777
  351TMC3    C6 5313   1.474   4.274   9.575 -0.4409 -0.3217  0.5080
  351TMC3     C 5314   1.357   4.429   9.949  0.1698  0.4626  0.0921
  351TMC3     O 5315   1.234   4.438   9.953 -0.1153  0.5258 -0.2985
  351TMC3     H 5316   1.595   4.469   9.823 -0.6990  1.9338 -2.4012
  351TMC3    H1 5317   1.222   4.253   9.789 -0.3617 -1.0712 -1.5380
  351TMC3    H2 5318   1.486   4.267   9.467  0.3042 -1.0159  0.6405
  351TMC3    C7 5319   1.257   4.167   9.552 -0.3238 -0.1940 -0.0887
  351TMC3    C8 5320   1.686   4.381   9.584  0.8357 -0.4423 -0.2748
  351TMC3    O1 5321   1.138   4.182   9.581 -0.2445 -0.2300 -0.1711
  351TMC3    O2 5322   1.784   4.389   9.656 -0.0589 -0.3147 -0.1169
  352MPD2     C 5323   0.678   1.778   0.979 -0.5853  0.6038 -0.2562
  352MPD2    C1 5324   0.570   1.719   0.920  0.0909 -0.2358 -0.2588
  352MPD2    C2 5325   0.581   1.591   0.871  0.1937 -0.8621  0.6002
  352MPD2    C3 5326   0.701   1.521   0.887  1.2218 -0.9157 -0.1072
  352MPD2    C4 5327   0.805   1.583   0.949  0.1168 -0.0083 -0.0030
  352MPD2    C5 5328   0.795   1.706   0.999  0.1497 -0.1371 -0.2906
  352MPD2     H 5329   0.497   1.533   0.832 -1.0335  1.9672 -0.9288
  352MPD2    H1 5330   0.894   1.524   0.967  0.5367  1.1407  1.6909
  352MPD2    H2 5331   0.671   1.875   1.027 -1.9347 -0.0794  0.8907
  352MPD2    H3 5332   0.882   1.745   1.052  0.3880 -1.5256  0.3283
  352MPD2     N 5333   0.724   1.391   0.837 -0.2911  0.1520  0.0790
  352MPD2    H5 5334   0.809   1.349   0.874  0.2046  1.2626  0.2176
  352MPD2    N1 5335   0.451   1.795   0.915  0.0247 -0.2466 -0.1414
  352MPD2    H7 5336   0.459   1.895   0.932  1.4275 -0.3839  0.0231
  353TMC3    C1 5337   0.715   1.194   0.706 -1.0650  0.0702  0.8498
  353TMC3    C2 5338   0.779   1.126   0.802 -0.3903 -0.0144  0.1529
  353TMC3    C3 5339   0.810   0.993   0.773 -0.4694  0.6024  0.0376
  353TMC3    C4 5340   0.679   1.137   0.590 -0.5970 -0.1331 -0.7272
  353TMC3    C5 5341   0.710   1.009   0.560  0.1508 -0.3378  0.4099
  353TMC3    C6 5342   0.780   0.934   0.653 -0.7757  0.3519 -0.1471
  353TMC3     C 5343   0.652   1.322   0.740 -0.0959 -0.8544  0.0472
  353TMC3     O 5344   0.560   1.363   0.672 -0.8150 -0.6363 -0.6392
  353TMC3     H 5345   0.803   1.167   0.900  2.9768 -1.5079 -0.0576
  353TMC3    H1 5346   0.611   1.195   0.528  0.7773  0.6111 -1.5174
  353TMC3    H2 5347   0.800   0.831   0.629 -0.4734  0.6280 -1.0699
  353TMC3    C7 5348   0.647   0.937   0.449  0.0916  0.0848 -0.5811
  353TMC3    C8 5349   0.871   0.917   0.883  0.4110 -0.7848  0.1644
  353TMC3    O1 5350   0.640   0.815   0.460 -0.8124 -0.0731  0.4215
  353TMC3    O2 5351   0.938   0.966   0.975  0.2713 -0.0073 -0.5261
  354TMC3    C1 5352   2.050   2.591  13.488  0.5914  0.8468 -0.1533
  354TMC3    C2 5353   2.137   2.704  13.477  0.0895 -0.2204  0.2430
  354TMC3    C3 5354   2.205   2.710  13.358 -0.1505  0.1482 -0.0099
  354TMC3    C4 5355   2.029   2.500  13.389  0.2613 -0.3160  0.6159
  354TMC3    C5 5356   2.111   2.512  13.277  0.0898 -0.1699  0.1239
  354TMC3    C6 5357   2.205   2.613  13.262  0.7977 -0.3564  0.0823
  354TMC3     C 5358   2.023   2.540  13.622 -0.2594  0.3608 -0.0881
  354TMC3     O 5359   1.956   2.438  13.624  0.5417  0.3984 -0.8507
  354TMC3     H 5360   2.137   2.784  13.550 -1.5588  0.6716 -0.7376
  354TMC3    H1 5361   1.981   2.404  13.395  0.4255 -0.4379 -0.0156
  354TMC3    H2 5362   2.294   2.603  13.202  0.4271 -0.0042 -0.5278
  354TMC3    C7 5363   2.082   2.434  13.161  0.0851 -0.4891  0.5304
  354TMC3    C8 5364   2.321   2.803  13.359 -0.4007 -1.1714 -0.1803
  354TMC3    O1 5365   2.022   2.330  13.173  0.0728 -0.3913 -0.6047
  354TMC3    O2 5366   2.356   2.853  13.463 -0.1479  0.6063 -0.1228
  355MPD2     C 5367   2.145   3.304  11.945  0.1218 -0.0686  0.7890
  355MPD2    C1 5368   2.168   3.362  11.821  0.7260 -0.3117 -0.4303
  355MPD2    C2 5369   2.295   3.384  11.778  0.7789 -0.1683  0.3534
  355MPD2    C3 5370   2.402   3.358  11.854  0.3219 -0.4260 -0.2305
  355MPD2    C4 5371   2.382   3.300  11.977 -0.8995 -0.1993  0.5913
  355MPD2    C5 5372   2.253   3.281  12.023  0.8516 -0.7256  0.1504
  355MPD2     H 5373   2.305   3.422  11.677  0.3085  1.3716  0.8757
  355MPD2    H1 5374   2.458   3.242  12.028 -0.5585 -0.0660  0.2337
  355MPD2    H2 5375   2.045   3.283  11.980 -0.1521 -0.1246 -0.0329
  355MPD2    H3 5376   2.232   3.236  12.120  3.2675  0.2327  1.1071
  355MPD2     N 5377   2.533   3.354  11.802  0.2745  0.0943  0.4149
  355MPD2    H5 5378   2.601   3.325  11.872  1.3435 -0.4733 -0.8643
  355MPD2    N1 5379   2.053   3.405  11.747 -0.0729 -0.2692  0.2432
  355MPD2    H7 5380   1.969   3.354  11.770 -0.3523 -0.4794 -1.2377
  356TMC3    C1 5381   2.707   3.448  11.677 -0.9273 -0.1505 -0.1751
  356TMC3    C2 5382   2.742   3.535  11.575  0.5619 -0.3176  0.3833
  356TMC3    C3 5383   2.849   3.612  11.588 -0.0386  0.3074  0.1124
  356TMC3    C4 5384   2.785   3.440  11.794 -0.2642 -0.7547  0.0687
  356TMC3    C5 5385   2.895   3.519  11.804 -0.3318  0.0351 -0.6224
  356TMC3    C6 5386   2.927   3.599  11.693  0.9092  0.1864  0.3506
  356TMC3     C 5387   2.569   3.404  11.675  0.0500 -0.3024  0.4241
  356TMC3     O 5388   2.502   3.405  11.573  0.4457 -0.6537  0.3016
  356TMC3     H 5389   2.669   3.562  11.500 -0.4372 -3.5978  0.1755
  356TMC3    H1 5390   2.768   3.365  11.871  1.3766  0.8441  1.9915
  356TMC3    H2 5391   3.022   3.653  11.689  1.3123 -0.5760 -0.3934
  356TMC3    C7 5392   2.969   3.517  11.925  0.0180  0.3876  0.1231
  356TMC3    C8 5393   2.877   3.703  11.476  1.0890  0.0786  0.6503
  356TMC3    O1 5394   2.968   3.409  11.993 -0.3500  0.3877  0.8809
  356TMC3    O2 5395   2.807   3.680  11.374  0.4076 -0.7388  0.7288
  357MPD2     C 5396   2.243   3.628   0.551  0.5031  1.3280 -0.7199
  357MPD2    C1 5397   2.301   3.509   0.605 -0.6138 -0.0941 -0.6361
  357MPD2    C2 5398   2.253   3.391   0.547  0.5570 -0.0305  0.0094
  357MPD2    C3 5399   2.145   3.390   0.465 -0.0269  0.3763 -0.5403
  357MPD2    C4 5400   2.087   3.505   0.419  0.1701 -0.6206  0.2026
  357MPD2    C5 5401   2.142   3.621   0.462  0.4101 -0.3157 -0.3171
  357MPD2     H 5402   2.313   3.302   0.565 -0.0222 -0.1972  1.1284
  357MPD2    H1 5403   2.016   3.502   0.338 -1.5581  0.2690  1.6733
  357MPD2    H2 5404   2.277   3.727   0.579 -1.6295  1.2750  2.0711
  357MPD2    H3 5405   2.104   3.711   0.415  2.0050  0.5349  0.0525
  357MPD2     N 5406   2.084   3.269   0.421 -0.0452 -0.6454 -0.3010
  357MPD2    H5 5407   1.999   3.287   0.369 -1.2860 -4.2099  0.4651
  357MPD2    N1 5408   2.409   3.518   0.697  0.8684 -0.0097 -0.7527
  357MPD2    H7 5409   2.454   3.609   0.707  1.4894 -0.5206  1.0737
  358TMC3    C1 5410   2.401   3.304   0.808  0.3579  0.1562  0.4693
  358TMC3    C2 5411   2.475   3.190   0.793 -0.2391  0.3008 -0.0584
  358TMC3    C3 5412   2.419   3.071   0.819  0.5836 -0.0161  0.1437
  358TMC3    C4 5413   2.272   3.310   0.843 -0.4675 -0.3987 -0.7040
  358TMC3    C5 5414   2.213   3.183   0.842  0.0773  0.9746 -0.1083
  358TMC3    C6 5415   2.282   3.066   0.846  0.2736 -0.3999  0.2344
  358TMC3     C 5416   2.472   3.425   0.771 -0.1342 -0.0834  0.1943
  358TMC3     O 5417   2.580   3.436   0.824 -0.1275  0.1235  0.3503
  358TMC3     H 5418   2.579   3.201   0.763  0.0831 -0.6905  0.6946
  358TMC3    H1 5419   2.220   3.405   0.854  0.8380  0.2484 -0.0268
  358TMC3    H2 5420   2.224   2.987   0.799 -0.4947  0.0977  0.3448
  358TMC3    C7 5421   2.071   3.170   0.864 -0.2785 -0.9391  0.3339
  358TMC3    C8 5422   2.461   2.975   0.724  0.0040 -0.5808 -0.4432
  358TMC3    O1 5423   2.033   3.062   0.917  0.1075 -0.1359 -0.7797
  358TMC3    O2 5424   2.544   3.006   0.637 -0.4487 -0.1635  0.3589
  359MPD2     C 5425   1.715   1.792  11.776 -0.1899 -0.0121  0.3357
  359MPD2    C1 5426   1.810   1.706  11.823 -0.1511 -0.0857 -0.8112
  359MPD2    C2 5427   1.773   1.612  11.919  0.5936 -0.0127  0.4919
  359MPD2    C3 5428   1.646   1.608  11.975 -0.2277  0.1114 -0.5942
  359MPD2    C4 5429   1.554   1.701  11.929 -0.2307 -0.2634 -0.1748
  359MPD2    C5 5430   1.595   1.795  11.840 -0.8887 -0.2886 -0.6789
  359MPD2     H 5431   1.848   1.536  11.941  0.0611 -0.3576  1.0968
  359MPD2    H1 5432   1.453   1.725  11.961  0.7815 -1.0829  3.6773
  359MPD2    H2 5433   1.741   1.874  11.710 -1.4018  0.7796  0.8469
  359MPD2    H3 5434   1.521   1.870  11.816 -1.1535 -0.4631 -0.4068
  359MPD2     N 5435   1.594   1.503  12.056  0.4761 -0.1678  1.2474
  359MPD2    H5 5436   1.495   1.509  12.078 -0.3037 -0.1669 -2.2757
  359MPD2    N1 5437   1.946   1.710  11.783 -0.2530 -0.9131  0.3968
  359MPD2    H7 5438   2.008   1.649  11.835 -2.2203 -2.2325  1.1954
  360TMC3    C1 5439   2.153   1.739  11.668 -0.9597  0.8114  0.1686
  360TMC3    C2 5440   2.229   1.744  11.784  0.8431  0.3871 -0.2410
  360TMC3    C3 5441   2.361   1.768  11.764 -0.5281 -0.6560  0.1543
  360TMC3    C4 5442   2.206   1.749  11.536 -0.6017 -1.0948  0.4957
  360TMC3    C5 5443   2.342   1.762  11.529 -0.3280  0.3505 -0.1562
  360TMC3    C6 5444   2.418   1.786  11.641 -0.0870  0.5076  0.0123
  360TMC3     C 5445   2.008   1.767  11.676 -0.6408  0.0603 -0.3803
  360TMC3     O 5446   1.958   1.833  11.588  0.3179 -0.1743 -0.0857
  360TMC3     H 5447   2.175   1.759  11.876 -0.3547  2.2191 -1.2238
  360TMC3    H1 5448   2.138   1.744  11.452 -0.9142 -2.0174  0.8123
  360TMC3    H2 5449   2.525   1.780  11.624  0.0626 -0.5352  1.2627
  360TMC3    C7 5450   2.415   1.782  11.405 -0.5380  0.0736 -0.4726
  360TMC3    C8 5451   2.439   1.770  11.896 -0.0730 -0.6682  0.4148
  360TMC3    O1 5452   2.522   1.830  11.408  0.3238  0.0621 -0.4419
  360TMC3    O2 5453   2.374   1.715  11.985  1.0658 -0.2483  0.0217
  361MPD2     C 5454   3.920   0.750  16.791  0.4673 -0.0545 -0.7807
  361MPD2    C1 5455   3.991   0.860  16.824 -0.1538  0.2774 -0.4915
  361MPD2    C2 5456   4.128   0.860  16.825 -0.6636 -0.1026 -0.4290
  361MPD2    C3 5457   4.194   0.736  16.792 -1.0266  0.2011 -0.0649
  361MPD2    C4 5458   4.123   0.628  16.740 -0.2331  0.2755  0.3712
  361MPD2    C5 5459   3.988   0.641  16.736 -1.1008 -0.3598  0.6957
  361MPD2     H 5460   4.190   0.947  16.846  0.6878 -1.4534  1.2064
  361MPD2    H1 5461   4.165   0.542  16.691  0.8932  0.2477  1.3783
  361MPD2    H2 5462   3.812   0.739  16.793  0.4880  0.0030  0.6121
  361MPD2    H3 5463   3.936   0.558  16.689 -0.8468  0.1186 -0.4097
  361MPD2     N 5464   4.339   0.724  16.777  0.1392 -0.5264 -0.2920
  361MPD2    H5 5465   4.376   0.641  16.732  0.1857  0.5438 -2.2368
  361MPD2    N1 5466   3.930   0.987  16.840 -0.0652  0.1194  0.0805
  361MPD2    H7 5467   3.983   1.073  16.828 -3.5319  2.2005 -0.4609
  362TMC3    C1 5468   3.749   1.134  16.885 -0.4087 -0.4572  0.4020
  362TMC3    C2 5469   3.629   1.143  16.947 -0.3373  0.4156 -0.0450
  362TMC3    C3 5470   3.583   1.274  16.949  0.0082  1.2325 -0.4227
  362TMC3    C4 5471   3.815   1.236  16.822 -0.2690 -1.2329 -0.1406
  362TMC3    C5 5472   3.753   1.357  16.810 -0.1072 -0.6316  0.5517
  362TMC3    C6 5473   3.646   1.378  16.884 -0.0148 -0.2290  0.1728
  362TMC3     C 5474   3.802   0.994  16.885 -0.4982  0.3931 -0.2054
  362TMC3     O 5475   3.735   0.908  16.940  0.3999  0.5141  0.4035
  362TMC3     H 5476   3.578   1.062  16.999  0.3589  0.4311  0.6646
  362TMC3    H1 5477   3.906   1.223  16.763  0.4630  2.3133  0.1872
  362TMC3    H2 5478   3.592   1.468  16.854 -0.6089 -0.6193  0.0610
  362TMC3    C7 5479   3.770   1.447  16.696  0.2039  0.2186  0.0057
  362TMC3    C8 5480   3.448   1.289  16.987 -0.0131 -0.0702  0.4928
  362TMC3    O1 5481   3.670   1.514  16.665 -0.7808  0.3364 -0.3678
  362TMC3    O2 5482   3.391   1.192  17.041  0.0845  0.2160  0.6619
  363TMC3    C1 5483   2.720   3.944  10.116 -0.9140  0.3004  0.1686
  363TMC3    C2 5484   2.719   3.824  10.057 -0.5215  0.0170  0.6883
  363TMC3    C3 5485   2.638   3.801   9.946 -0.1859  0.0422 -0.0462
  363TMC3    C4 5486   2.643   4.047  10.069  0.4142  0.0953  0.5828
  363TMC3    C5 5487   2.561   4.022   9.960 -0.0815  1.1376 -0.3915
  363TMC3    C6 5488   2.549   3.895   9.905 -0.5140  0.4852  0.6450
  363TMC3     C 5489   2.822   3.972  10.219 -0.2707  0.3488 -0.6809
  363TMC3     O 5490   2.930   3.918  10.201  0.3522 -0.1085 -0.2065
  363TMC3     H 5491   2.786   3.757  10.108 -2.0376 -0.9148  1.4524
  363TMC3    H1 5492   2.644   4.141  10.123  0.0284 -0.7769  2.1175
  363TMC3    H2 5493   2.484   3.876   9.820 -1.6059  1.7382  1.1876
  363TMC3    C7 5494   2.500   4.130   9.885 -0.1888  0.5049 -0.4029
  363TMC3    C8 5495   2.620   3.659   9.907 -0.1874 -0.2678  0.6768
  363TMC3    O1 5496   2.405   4.107   9.811  0.4301  0.8184 -0.5111
  363TMC3    O2 5497   2.517   3.629   9.843 -0.2504 -0.1182 -0.0070
  364MPD2     C 5498   1.398   2.754  10.614  0.6006  0.0637  0.5795
  364MPD2    C1 5499   1.503   2.766  10.520 -0.3406  0.3061  0.7775
  364MPD2    C2 5500   1.569   2.656  10.480 -0.2884 -0.5938 -0.4632
  364MPD2    C3 5501   1.549   2.531  10.541 -0.1159 -0.1067 -0.4448
  364MPD2    C4 5502   1.459   2.523  10.648  0.7375  1.1436 -0.3204
  364MPD2    C5 5503   1.378   2.631  10.673  0.1269 -0.6757 -0.1432
  364MPD2     H 5504   1.646   2.680  10.407 -0.4435  0.1921 -0.3671
  364MPD2    H1 5505   1.439   2.431  10.702 -0.0057  2.0868  1.0361
  364MPD2    H2 5506   1.351   2.843  10.654 -1.1800  0.0648 -1.5379
  364MPD2    H3 5507   1.309   2.613  10.755  0.4410 -0.9694  0.0549
  364MPD2     N 5508   1.629   2.422  10.517  0.1201  0.3894  0.4207
  364MPD2    H5 5509   1.602   2.341  10.572  2.5284 -2.6294 -2.8470
  364MPD2    N1 5510   1.515   2.894  10.458 -0.7641  0.3175 -0.1667
  364MPD2    H7 5511   1.455   2.968  10.494 -0.5928  0.6549 -0.5713
  365TMC3    C1 5512   1.574   3.068  10.313  0.3162 -0.8410  0.9192
  365TMC3    C2 5513   1.644   3.111  10.194 -0.4523 -0.9469  0.1317
  365TMC3    C3 5514   1.663   3.240  10.166  0.2103  0.4304  0.3331
  365TMC3    C4 5515   1.525   3.158  10.404  0.0069  0.2403  0.1437
  365TMC3    C5 5516   1.559   3.290  10.376  0.7281 -0.4802 -0.3172
  365TMC3    C6 5517   1.623   3.337  10.262  0.0958  0.3602 -0.5901
  365TMC3     C 5518   1.590   2.931  10.350 -0.5301  0.0418  0.0491
  365TMC3     O 5519   1.652   2.855  10.277  0.4045  0.1700 -0.3554
  365TMC3     H 5520   1.683   3.033  10.129 -1.4843 -0.5002 -1.0167
  365TMC3    H1 5521   1.469   3.123  10.489  0.9871 -1.5825  0.0463
  365TMC3    H2 5522   1.645   3.443  10.261 -0.4448  0.4918  0.9361
  365TMC3    C7 5523   1.507   3.394  10.471  0.4041 -0.5573 -0.2692
  365TMC3    C8 5524   1.743   3.291  10.060 -0.4561 -0.3840 -0.5415
  365TMC3    O1 5525   1.514   3.511  10.435 -0.2344  0.1033  0.1197
  365TMC3    O2 5526   1.738   3.413  10.047 -0.1684  0.0601 -0.1348
  366MPD2     C 5527   4.506   3.989  15.505  0.5778  0.1388  0.5724
  366MPD2    C1 5528   4.565   4.081  15.424  0.1586  0.0207  0.3528
  366MPD2    C2 5529   4.672   4.039  15.348 -0.4830 -0.1867  0.6247
  366MPD2    C3 5530   0.002   3.922  15.354 -0.2048 -0.2279 -0.5071
  366MPD2    C4 5531   4.678   3.828  15.434 -0.0365  0.4205 -0.0346
  366MPD2    C5 5532   4.566   3.863  15.504  0.3899 -0.0105  0.9419
  366MPD2     H 5533   4.715   4.119  15.289 -2.7021  0.3887 -0.2064
  366MPD2    H1 5534   4.713   3.727  15.453  1.3999  0.9647  0.2012
  366MPD2    H2 5535   4.422   4.010  15.570 -1.4753 -1.4266 -1.5897
  366MPD2    H3 5536   4.521   3.786  15.566  0.7838  0.0282  1.2781
  366MPD2     N 5537   0.129   3.910  15.291 -0.1570 -0.3101 -0.2044
  366MPD2    H5 5538   0.149   3.993  15.234  2.7284  0.6091  2.1474
  366MPD2    N1 5539   4.533   4.218  15.414 -0.9873 -0.5985  0.0333
  366MPD2    H7 5540   4.594   4.282  15.364  1.0777 -4.2025 -2.0156
  367TMC3    C1 5541   4.440   4.420  15.413 -0.2956 -0.6213  0.2991
  367TMC3    C2 5542   4.554   4.476  15.456  0.3377  1.1513  0.2317
  367TMC3    C3 5543   4.582   4.605  15.409  0.1231  0.0772 -0.3336
  367TMC3    C4 5544   4.351   4.478  15.330 -0.4535  0.0554 -0.2189
  367TMC3    C5 5545   4.386   4.605  15.289 -0.8170  0.0755 -0.6969
  367TMC3    C6 5546   4.501   4.673  15.324 -0.5933  0.3549  0.0383
  367TMC3     C 5547   4.419   4.278  15.451  0.2836  0.4064  0.8976
  367TMC3     O 5548   4.305   4.237  15.473 -0.0495  0.1592 -0.3605
  367TMC3     H 5549   4.618   4.418  15.521 -0.8304 -1.7765 -1.2507
  367TMC3    H1 5550   4.252   4.436  15.315 -0.4607  0.5348 -1.4803
  367TMC3    H2 5551   4.521   0.037  15.292 -1.0961  0.8168  1.1859
  367TMC3    C7 5552   4.315   4.666  15.180 -0.4355 -0.1105  0.2661
  367TMC3    C8 5553   4.713   4.658  15.452  0.0581 -0.4948 -0.6104
  367TMC3    O1 5554   4.333   0.050  15.169 -0.0784 -0.3408 -0.3223
  367TMC3    O2 5555   0.037   4.577  15.521  0.0816 -0.0504 -0.2438
  368MPD2     C 5556   1.185   0.610  13.365  0.1199 -0.1427 -0.4739
  368MPD2    C1 5557   1.238   0.725  13.314  0.0661  0.2720  0.3198
  368MPD2    C2 5558   1.370   0.739  13.289  0.1382 -0.7425  0.6001
  368MPD2    C3 5559   1.463   0.642  13.319 -0.2159  0.3914 -0.0847
  368MPD2    C4 5560   1.413   0.529  13.377 -0.3036 -0.3062  0.1921
  368MPD2    C5 5561   1.275   0.517  13.397 -0.1909 -0.0533 -0.4441
  368MPD2     H 5562   1.408   0.829  13.242 -1.0120 -0.7978 -0.4291
  368MPD2    H1 5563   1.489   0.462  13.414 -0.3069 -0.8484 -0.7941
  368MPD2    H2 5564   1.078   0.598  13.382  0.3483 -1.3196  0.0936
  368MPD2    H3 5565   1.236   0.426  13.440  1.2340 -0.8951 -0.9095
  368MPD2     N 5566   1.598   0.648  13.289  0.4888  0.3413 -0.1589
  368MPD2    H5 5567   1.642   0.557  13.294  1.9864  1.0352 -0.7823
  368MPD2    N1 5568   1.141   0.816  13.260  0.3711 -0.4765  0.4526
  368MPD2    H7 5569   1.044   0.784  13.263  0.5548 -1.0571  0.2503
  369TMC3    C1 5570   1.040   0.991  13.141  0.8348 -0.7869 -0.3951
  369TMC3    C2 5571   1.053   1.114  13.092 -0.0163  0.0483 -0.6733
  369TMC3    C3 5572   0.950   1.173  13.031 -0.6879 -0.4270  0.0564
  369TMC3    C4 5573   0.932   0.916  13.120  0.1153 -0.5756  0.5117
  369TMC3    C5 5574   0.825   0.976  13.056  0.3243 -1.0777  0.5158
  369TMC3    C6 5575   0.829   1.112  13.020 -0.0818 -0.2449 -0.2316
  369TMC3     C 5576   1.162   0.924  13.175 -0.0235  0.1507 -0.7112
  369TMC3     O 5577   1.263   0.968  13.119  0.7574  0.6567  0.2690
  369TMC3     H 5578   1.150   1.161  13.109 -0.3282 -0.7108  3.1503
  369TMC3    H1 5579   0.921   0.814  13.153  0.7716 -0.5545  0.7981
  369TMC3    H2 5580   0.758   1.156  12.952  1.0175  1.0038 -0.5646
  369TMC3    C7 5581   0.711   0.891  13.014 -0.3851 -0.6485  0.6756
  369TMC3    C8 5582   0.969   1.289  12.943 -0.0945 -0.8059 -0.7217
  369TMC3    O1 5583   0.600   0.939  12.994  0.6128  0.5348  0.3560
  369TMC3    O2 5584   0.869   1.357  12.907 -0.2593  0.2863 -0.6234
  370TMC3    C1 5585   0.775   2.135  16.303  0.2723 -0.2921 -0.6802
  370TMC3    C2 5586   0.685   2.078  16.393 -0.6313  0.1176  0.7055
  370TMC3    C3 5587   0.608   1.982  16.335  0.5807  0.1927  0.9915
  370TMC3    C4 5588   0.787   2.104  16.171 -0.3134  0.2637  0.1145
  370TMC3    C5 5589   0.705   2.005  16.120 -0.1379 -0.2015  0.4218
  370TMC3    C6 5590   0.624   1.933  16.204 -1.0291  0.6395  0.5595
  370TMC3     C 5591   0.885   2.207  16.369  0.0280  0.0788 -0.1963
  370TMC3     O 5592   0.931   2.140  16.461 -0.4135 -0.0985  0.0154
  370TMC3     H 5593   0.688   2.104  16.498 -0.4157  1.0261  0.4703
  370TMC3    H1 5594   0.869   2.153  16.120  0.0114  0.8361  1.1913
  370TMC3    H2 5595   0.562   1.850  16.172  0.4709  0.3105 -1.5039
  370TMC3    C7 5596   0.751   1.947  15.997 -0.0194 -0.1204  0.3041
  370TMC3    C8 5597   0.560   1.875  16.413 -0.2909  0.1836 -0.2333
  370TMC3    O1 5598   0.798   2.025  15.912 -0.5366 -0.2568  0.3682
  370TMC3    O2 5599   0.589   1.762  16.376  0.1941 -0.2142  0.5868
  371TMC3    C1 5600   1.626   0.238  15.294 -0.0686 -0.0789  0.1260
  371TMC3    C2 5601   1.535   0.244  15.399  0.2315  0.0026  0.1797
  371TMC3    C3 5602   1.490   0.363  15.439  0.4933  0.1062  0.4726
  371TMC3    C4 5603   1.670   0.347  15.230 -0.4394 -0.1344  0.0605
  371TMC3    C5 5604   1.607   0.462  15.265 -0.1455 -0.4121  0.4159
  371TMC3    C6 5605   1.526   0.478  15.373 -0.6196 -0.3128  0.5460
  371TMC3     C 5606   1.708   0.122  15.273  0.3510 -0.4412  0.2345
  371TMC3     O 5607   1.792   0.132  15.186  0.4140  0.2252 -0.5822
  371TMC3     H 5608   1.493   0.158  15.450  2.7779 -1.5383 -0.2797
  371TMC3    H1 5609   1.722   0.341  15.135 -1.5526  0.9641 -0.6239
  371TMC3    H2 5610   1.492   0.575  15.406 -0.5908 -0.0527 -0.1832
  371TMC3    C7 5611   1.675   0.576  15.224 -0.3540 -0.2493 -0.0332
  371TMC3    C8 5612   1.494   0.367  15.584  0.1162  0.2167 -0.1284
  371TMC3    O1 5613   1.621   0.685  15.230 -0.3896  0.4774 -0.0493
  371TMC3    O2 5614   1.548   0.272  15.642 -0.6529 -0.3933  0.1832
  372MPD2     C 5615   1.364   1.213  13.536 -0.5826 -0.7649  0.1498
  372MPD2    C1 5616   1.413   1.100  13.474 -0.6127  0.3359  0.0388
  372MPD2    C2 5617   1.403   0.978  13.535  0.3284  0.6864 -0.5131
  372MPD2    C3 5618   1.335   0.965  13.650  0.2421 -0.0303 -0.6182
  372MPD2    C4 5619   1.278   1.078  13.705  0.7026 -0.4732  0.1774
  372MPD2    C5 5620   1.292   1.199  13.647  0.0992 -0.6934  0.2745
  372MPD2     H 5621   1.452   0.887  13.501 -2.2255 -0.3664 -1.3924
  372MPD2    H1 5622   1.216   1.062  13.793  1.6093 -0.6755  0.7735
  372MPD2    H2 5623   1.368   1.310  13.487 -1.1087 -0.5566  0.5115
  372MPD2    H3 5624   1.238   1.280  13.695  0.4016 -1.0652  1.2469
  372MPD2     N 5625   1.324   0.839  13.712 -0.6421 -0.5279  0.2982
  372MPD2    H5 5626   1.355   0.756  13.663 -1.5019 -1.4458  1.3049
  372MPD2    N1 5627   1.479   1.097  13.354 -0.3100  0.2060 -0.4821
  372MPD2    H7 5628   1.528   1.011  13.329 -0.6962 -0.1182 -0.1308
  373TMC3    C1 5629   1.267   0.665  13.854 -0.4470 -0.4837  0.4302
  373TMC3    C2 5630   1.170   0.623  13.938 -0.1033  0.6600  0.4498
  373TMC3    C3 5631   1.141   0.486  13.931 -0.8311  0.7161 -0.2406
  373TMC3    C4 5632   1.325   0.586  13.756 -0.0078  0.1134  0.1619
  373TMC3    C5 5633   1.293   0.450  13.754  0.2665 -1.0214 -0.0041
  373TMC3    C6 5634   1.200   0.396  13.837  0.4460  0.1561  0.5089
  373TMC3     C 5635   1.269   0.811  13.836  1.0593 -0.4425 -0.5381
  373TMC3     O 5636   1.197   0.879  13.904 -0.0125 -0.1282 -0.4091
  373TMC3     H 5637   1.131   0.692  14.012 -0.3354  2.0730 -1.0105
  373TMC3    H1 5638   1.421   0.609  13.712  0.6348  3.2724  3.2172
  373TMC3    H2 5639   1.155   0.299  13.819  0.8601  0.1109 -0.2994
  373TMC3    C7 5640   1.397   0.353  13.713 -0.5635  0.0634 -0.5430
  373TMC3    C8 5641   1.037   0.424  14.008  0.0912  0.4395  0.2204
  373TMC3    O1 5642   1.512   0.399  13.692 -0.1964 -0.1608  0.2930
  373TMC3    O2 5643   0.935   0.387  13.952 -0.1695 -0.0110 -0.3416
  374TMC3    C1 5644   1.685   1.302  10.050  0.5758 -0.2701  1.0062
  374TMC3    C2 5645   1.783   1.390  10.025  0.3041  0.6584  0.3535
  374TMC3    C3 5646   1.805   1.413   9.895  0.4282 -0.5108 -0.2227
  374TMC3    C4 5647   1.594   1.251   9.963 -0.3897 -0.0392  0.9152
  374TMC3    C5 5648   1.612   1.286   9.828 -0.5231 -0.0547 -0.3683
  374TMC3    C6 5649   1.722   1.365   9.798  0.0206  0.2868 -0.0052
  374TMC3     C 5650   1.641   1.296  10.188  0.2954 -0.3832  0.1852
  374TMC3     O 5651   1.590   1.196  10.228  0.2005 -0.7785 -0.6158
  374TMC3     H 5652   1.840   1.444  10.100 -1.8598  3.5836 -0.0941
  374TMC3    H1 5653   1.514   1.182   9.988 -0.1916  0.4986  3.0146
  374TMC3    H2 5654   1.741   1.383   9.693 -0.5962 -0.2262 -0.2054
  374TMC3    C7 5655   1.518   1.237   9.728 -0.6347 -0.3150 -0.6496
  374TMC3    C8 5656   1.920   1.483   9.847 -0.0860 -0.6488 -0.3686
  374TMC3    O1 5657   1.424   1.180   9.775  0.0750  0.1999  0.2770
  374TMC3    O2 5658   1.914   1.540   9.739 -0.5558 -0.9079 -0.2277
  375MPD2     C 5659   1.863   1.892  17.297 -0.5907 -0.2787  0.3650
  375MPD2    C1 5660   1.796   1.924  17.177  0.3922 -0.9279  0.1886
  375MPD2    C2 5661   1.859   1.890  17.057  0.5304  0.2350 -0.7710
  375MPD2    C3 5662   1.972   1.810  17.056  0.1288  0.4338  0.5066
  375MPD2    C4 5663   2.030   1.769  17.174 -0.2902  0.3660  0.3752
  375MPD2    C5 5664   1.976   1.814  17.291 -0.9579  0.5534  0.0186
  375MPD2     H 5665   1.815   1.927  16.965  1.3958 -0.1823 -1.3506
  375MPD2    H1 5666   2.118   1.706  17.172 -1.2228 -0.8695 -1.6060
  375MPD2    H2 5667   1.817   1.923  17.391  0.9153 -0.6006  1.2134
  375MPD2    H3 5668   2.026   1.792  17.385  0.4814  0.4936 -0.7676
  375MPD2     N 5669   2.024   1.754  16.933 -0.0105 -0.0798 -0.0685
  375MPD2    H5 5670   2.094   1.688  16.964 -1.9641 -1.8899  0.5008
  375MPD2    N1 5671   1.679   2.002  17.185 -0.2570  0.0071 -0.0022
  375MPD2    H7 5672   1.645   2.029  17.093  1.2685  0.1946 -0.4983
  376TMC3    C1 5673   2.085   1.731  16.698  0.2701  0.5073  0.4038
  376TMC3    C2 5674   2.224   1.734  16.716 -0.6394 -0.4971 -0.2934
  376TMC3    C3 5675   2.296   1.687  16.613 -0.7699 -0.1310  0.7445
  376TMC3    C4 5676   2.023   1.702  16.582  0.2676  0.9194  0.2820
  376TMC3    C5 5677   2.097   1.654  16.481 -0.2905 -0.4165  0.3303
  376TMC3    C6 5678   2.229   1.644  16.495  0.1107  0.5230 -0.1872
  376TMC3     C 5679   1.999   1.794  16.805  0.5452  0.1592  0.2761
  376TMC3     O 5680   1.884   1.835  16.771 -0.0634  0.5302 -0.5459
  376TMC3     H 5681   2.264   1.786  16.802  0.6273  0.9089 -1.7300
  376TMC3    H1 5682   1.915   1.700  16.570  0.1671  1.5983  1.0580
  376TMC3    H2 5683   2.293   1.605  16.417 -0.4901 -0.7370 -0.0408
  376TMC3    C7 5684   2.060   1.694  16.345 -0.5098  0.8714  0.0775
  376TMC3    C8 5685   2.445   1.703  16.604  0.3861  0.5222  0.1823
  376TMC3    O1 5686   1.970   1.769  16.332  0.0583 -0.4007  0.1447
  376TMC3    O2 5687   2.477   1.817  16.624 -0.0187  0.1055 -0.4243
  377MPD2     C 5688   0.818   0.944  12.466 -0.1118  0.4717 -0.4695
  377MPD2    C1 5689   0.787   1.078  12.457 -0.0998  0.5046  0.1269
  377MPD2    C2 5690   0.713   1.136  12.558 -0.1512 -0.5664 -0.3081
  377MPD2    C3 5691   0.663   1.057  12.660 -0.2087  0.3179  0.7384
  377MPD2    C4 5692   0.685   0.922  12.664 -0.2719  0.2290 -0.8873
  377MPD2    C5 5693   0.756   0.862  12.557  0.2604  0.2388 -0.2739
  377MPD2     H 5694   0.675   1.238  12.561  2.6367  0.4279  1.2767
  377MPD2    H1 5695   0.636   0.869  12.744  0.3698  1.9199  0.6269
  377MPD2    H2 5696   0.892   0.889  12.408  1.1488 -0.1852  1.7782
  377MPD2    H3 5697   0.759   0.754  12.557  0.1291  0.2343 -0.2953
  377MPD2     N 5698   0.586   1.104  12.768 -0.0911 -0.2799  0.1248
  377MPD2    H5 5699   0.563   1.035  12.839 -0.7982 -1.2541 -1.0412
  377MPD2    N1 5700   0.823   1.157  12.352  0.5639  0.2881  0.2245
  377MPD2    H7 5701   0.870   1.106  12.278  0.2045  1.2699 -0.6951
  378TMC3    C1 5702   0.783   1.418  11.995  0.1184 -0.2652 -0.1907
  378TMC3    C2 5703   0.760   1.398  12.123  0.1576  0.2575 -0.4740
  378TMC3    C3 5704   0.855   1.341  12.205 -0.4095  0.5706  0.0318
  378TMC3    C4 5705   0.908   1.383  11.940  0.8059  0.1480  0.1434
  378TMC3    C5 5706   1.005   1.339  12.023 -0.6448 -0.0180  0.0642
  378TMC3    C6 5707   0.979   1.310  12.157 -0.6185  0.6708  0.1543
  378TMC3     C 5708   0.667   1.413  11.904 -0.0869  0.5617 -0.2518
  378TMC3     O 5709   0.560   1.391  11.954 -0.0887  0.4536  0.0504
  378TMC3     H 5710   0.663   1.420  12.167  0.4213 -0.2073  0.3310
  378TMC3    H1 5711   0.932   1.398  11.835 -1.5362 -0.7445 -0.5031
  378TMC3    H2 5712   1.054   1.288  12.232  0.1838 -0.7532 -1.0890
  378TMC3    C7 5713   1.130   1.289  11.969  0.1864 -0.3028 -0.7230
  378TMC3    C8 5714   0.814   1.298  12.335  0.0377  0.3436 -0.8269
  378TMC3    O1 5715   1.214   1.260  12.053 -0.0843 -0.3721  0.4441
  378TMC3    O2 5716   0.776   1.383  12.416 -0.4901  0.7193 -0.2159
  379MPD2     C 5717   1.195   0.151  15.939 -0.2333  0.0840  0.1236
  379MPD2    C1 5718   1.109   0.085  16.020  0.0776 -0.2294 -0.2248
  379MPD2    C2 5719   1.154   0.038  16.144 -0.1703 -0.2802 -0.6323
  379MPD2    C3 5720   1.289   0.048  16.178  0.3330 -0.6258 -0.2603
  379MPD2    C4 5721   1.383   0.104  16.089 -0.5018 -0.1627  0.4513
  379MPD2    C5 5722   1.328   0.167  15.977 -0.2794  0.5045  0.5604
  379MPD2     H 5723   1.085   4.731  16.214 -0.9841 -1.0527 -1.9256
  379MPD2    H1 5724   1.489   0.113  16.113 -0.5394  0.2717  0.4576
  379MPD2    H2 5725   1.147   0.183  15.847  0.0875  0.9160  0.2491
  379MPD2    H3 5726   1.397   0.227  15.920 -0.7537  1.2325  0.7483
  379MPD2     N 5727   1.348   4.721  16.287 -0.5923 -0.0684  0.0872
  379MPD2    H5 5728   1.446   4.696  16.283 -0.3179  0.7697  1.7167
  379MPD2    N1 5729   0.976   0.056  15.964 -0.4740 -0.4097 -0.2270
  379MPD2    H7 5730   0.959   0.100  15.874  3.0520 -1.4603 -1.3809
  380TMC3    C1 5731   0.762   4.682  15.934  0.1907  0.1059 -0.5761
  380TMC3    C2 5732   0.738   4.551  15.912  0.4875 -0.2375 -0.7758
  380TMC3    C3 5733   0.641   4.522  15.818  1.1968  0.1080  0.1415
  380TMC3    C4 5734   0.692   0.044  15.881  0.2905  0.5767 -0.1167
  380TMC3    C5 5735   0.588   0.010  15.795  0.8095  0.3445 -0.8007
  380TMC3    C6 5736   0.554   4.617  15.772  0.5688 -0.2970  0.2003
  380TMC3     C 5737   0.889   4.697  16.011 -0.5901  0.4988  0.9633
  380TMC3     O 5738   0.914   4.608  16.088 -0.1448  0.1956  0.2026
  380TMC3     H 5739   0.812   4.479  15.946  1.7545  1.2845 -0.3281
  380TMC3    H1 5740   0.718   0.149  15.895 -0.3709  0.5401  1.3281
  380TMC3    H2 5741   0.491   4.598  15.686  1.9554 -1.5560 -0.5396
  380TMC3    C7 5742   0.522   0.117  15.709  0.0064 -0.4814  0.0083
  380TMC3    C8 5743   0.696   4.446  15.701 -0.4669 -0.2681 -0.1981
  380TMC3    O1 5744   0.587   0.221  15.698  0.0448  0.6329 -0.0914
  380TMC3    O2 5745   0.673   4.495  15.592  0.1787 -0.3926  0.0437
  381TMC3    C1 5746   0.422   1.379  16.191 -1.0063 -0.1279  0.0124
  381TMC3    C2 5747   0.555   1.403  16.171  0.7976 -0.2143  0.3966
  381TMC3    C3 5748   0.632   1.434  16.278 -0.2006 -0.4781  0.0486
  381TMC3    C4 5749   0.371   1.391  16.322 -0.4329 -0.5698  0.0379
  381TMC3    C5 5750   0.457   1.437  16.420 -0.4620  0.1940 -0.4361
  381TMC3    C6 5751   0.585   1.459  16.398  0.4912 -0.3752 -0.7262
  381TMC3     C 5752   0.328   1.372  16.084  0.3050 -0.9654  0.3956
  381TMC3     O 5753   0.209   1.382  16.119  0.8788 -0.0007  0.4122
  381TMC3     H 5754   0.600   1.393  16.073 -0.9477 -3.6328 -0.0711
  381TMC3    H1 5755   0.265   1.380  16.340 -0.1024 -1.1448  1.6611
  381TMC3    H2 5756   0.655   1.472  16.479 -3.3677  2.7795  2.1153
  381TMC3    C7 5757   0.452   1.371  16.545  0.7037  0.2980 -0.0567
  381TMC3    C8 5758   0.772   1.458  16.259  0.1254  0.5424  0.0833
  381TMC3    O1 5759   0.539   1.285  16.568 -0.0993  0.5985  0.4428
  381TMC3    O2 5760   0.837   1.388  16.185 -0.0970  0.4005 -0.6819
  382MPD2     C 5761   4.515   3.559  16.556  0.3117 -0.0116  0.0023
  382MPD2    C1 5762   4.580   3.540  16.673  0.3143  0.3083 -0.0179
  382MPD2    C2 5763   4.555   3.424  16.746  0.2696 -0.0462  0.2232
  382MPD2    C3 5764   4.461   3.331  16.700  0.2276  0.1393 -0.2645
  382MPD2    C4 5765   4.401   3.349  16.580  0.0374  0.5094  0.4262
  382MPD2    C5 5766   4.431   3.462  16.511  0.1598  0.5308  0.2911
  382MPD2     H 5767   4.625   3.402  16.825  0.4325 -0.6994 -0.1088
  382MPD2    H1 5768   4.339   3.273  16.533  0.5780  0.4506 -0.1964
  382MPD2    H2 5769   4.515   3.647  16.491 -0.9996 -0.0768 -0.0859
  382MPD2    H3 5770   4.386   3.462  16.413  1.0018  1.1670 -0.0933
  382MPD2     N 5771   4.426   3.217  16.778 -0.1178 -0.2563 -0.3946
  382MPD2    H5 5772   4.350   3.160  16.742  1.0435 -2.1094  0.0892
  382MPD2    N1 5773   4.678   3.632  16.721  0.1292 -0.3939 -0.4394
  382MPD2    H7 5774   4.710   3.610  16.815  1.3730 -1.7581 -1.1971
  383TMC3    C1 5775   4.443   3.067  16.969 -0.7391  0.6245  0.0480
  383TMC3    C2 5776   4.321   3.018  16.929 -0.7152 -0.6301 -0.4693
  383TMC3    C3 5777   4.236   2.970  17.025 -0.2458 -0.3595 -0.2299
  383TMC3    C4 5778   4.486   3.050  17.102 -0.0252 -0.6625  0.6691
  383TMC3    C5 5779   4.395   3.010  17.199  0.0788 -0.6786 -0.2024
  383TMC3    C6 5780   4.267   2.973  17.158  0.2970 -0.2263  0.3461
  383TMC3     C 5781   4.499   3.175  16.890 -0.2381  0.5912 -0.1093
  383TMC3     O 5782   4.606   3.205  16.928  0.2913  0.3555  0.5384
  383TMC3     H 5783   4.308   3.006  16.823 -0.5170  1.5659 -0.7409
  383TMC3    H1 5784   4.564   3.117  17.139 -0.7965  0.0921  0.9404
  383TMC3    H2 5785   4.203   2.943  17.240  0.3402  0.7233  0.7266
  383TMC3    C7 5786   4.401   3.055  17.338  0.2803 -0.0265 -0.7179
  383TMC3    C8 5787   4.106   2.913  16.986  0.5736 -0.7853  0.3755
  383TMC3    O1 5788   4.298   3.111  17.371 -0.0221 -0.1625 -0.0870
  383TMC3    O2 5789   4.071   2.943  16.871 -0.8113  0.1370  0.2719
  384MPD2     C 5790   1.274   4.256  11.892 -0.8400  0.3982 -0.2390
  384MPD2    C1 5791   1.324   4.224  12.015 -0.2710  0.6508 -0.7265
  384MPD2    C2 5792   1.446   4.161  12.022 -0.1400 -0.2804 -0.2148
  384MPD2    C3 5793   1.518   4.113  11.916  0.1202  0.5563  0.2617
  384MPD2    C4 5794   1.464   4.146  11.787 -0.0306 -1.2359 -0.2024
  384MPD2    C5 5795   1.352   4.225  11.779  0.9374 -0.3122 -0.6523
  384MPD2     H 5796   1.499   4.143  12.116  0.5513  0.8682 -0.3766
  384MPD2    H1 5797   1.516   4.120  11.696  1.9210 -1.1044  0.8612
  384MPD2    H2 5798   1.183   4.313  11.880 -1.1640  0.4543  2.4770
  384MPD2    H3 5799   1.314   4.253  11.682 -1.0389 -0.7723 -0.0023
  384MPD2     N 5800   1.624   4.031  11.932 -0.3676 -0.0762  0.5045
  384MPD2    H5 5801   1.645   4.004  12.027  0.9938  0.8568  0.4820
  384MPD2    N1 5802   1.257   4.263  12.135  0.0956  0.2727  0.1163
  384MPD2    H7 5803   1.171   4.314  12.118  0.5003  0.7170 -0.5570
  385TMC3    C1 5804   1.782   3.861  11.901 -0.6799 -0.1708  0.0886
  385TMC3    C2 5805   1.748   3.730  11.885  0.4941  0.1314  0.4223
  385TMC3    C3 5806   1.743   3.643  11.985  0.5451 -0.4002  0.1851
  385TMC3    C4 5807   1.807   3.894  12.027 -1.1915  0.5658  0.6491
  385TMC3    C5 5808   1.824   3.808  12.134 -0.1431  0.1609 -0.1310
  385TMC3    C6 5809   1.785   3.679  12.110 -0.4472  0.1489 -0.0299
  385TMC3     C 5810   1.692   3.950  11.832  1.2398  0.7950  0.4258
  385TMC3     O 5811   1.655   3.928  11.714  0.5677  0.5284  0.2794
  385TMC3     H 5812   1.716   3.697  11.787  0.4494 -0.2675  0.5712
  385TMC3    H1 5813   1.813   4.001  12.044  0.6617  0.3240  1.5407
  385TMC3    H2 5814   1.778   3.609  12.193  1.1899  2.1823  1.8294
  385TMC3    C7 5815   1.751   3.871  12.243 -0.1205  0.3335  0.3908
  385TMC3    C8 5816   1.747   3.501  11.954  0.4331  0.5086 -0.2228
  385TMC3    O1 5817   1.676   3.954  12.197 -0.2964 -0.3266 -0.6262
  385TMC3    O2 5818   1.840   3.437  12.003 -0.0155 -0.5198  0.7918
  386TMC3    C1 5819   1.568   1.538  11.474  0.5290  0.0481  0.2303
  386TMC3    C2 5820   1.555   1.595  11.356 -0.5189  0.5007  0.3948
  386TMC3    C3 5821   1.448   1.680  11.337 -0.9827  0.0350  0.0842
  386TMC3    C4 5822   1.479   1.553  11.573 -0.0205 -0.1845 -0.6633
  386TMC3    C5 5823   1.375   1.642  11.552  0.1642  0.7461  0.2122
  386TMC3    C6 5824   1.355   1.709  11.433 -0.8751 -0.1495  0.1889
  386TMC3     C 5825   1.702   1.486  11.503  1.1042 -0.7566 -0.0329
  386TMC3     O 5826   1.792   1.509  11.421  0.1359 -0.3159  0.1355
  386TMC3     H 5827   1.620   1.569  11.273  1.3307  2.9164  1.0701
  386TMC3    H1 5828   1.465   1.492  11.662  1.4728  0.8860  0.3019
  386TMC3    H2 5829   1.281   1.787  11.419 -0.9216 -0.7829 -3.2377
  386TMC3    C7 5830   1.303   1.698  11.662  0.4390  0.3058  0.0035
  386TMC3    C8 5831   1.453   1.777  11.234  0.8901 -0.2290 -0.5807
  386TMC3    O1 5832   1.247   1.620  11.747  0.7545 -0.1387  0.0378
  386TMC3    O2 5833   1.345   1.821  11.200  0.0708 -0.0243 -0.3158
  387MPD2     C 5834   3.848   2.167   9.879 -0.3992  0.3289 -0.5862
  387MPD2    C1 5835   3.923   2.095   9.966  0.6618 -0.0568 -0.4038
  387MPD2    C2 5836   3.899   1.961   9.977  0.1944 -0.3208 -0.0003
  387MPD2    C3 5837   3.810   1.898   9.895  1.0009 -0.1648 -1.0044
  387MPD2    C4 5838   3.732   1.968   9.806 -0.2019 -0.0384 -0.6730
  387MPD2    C5 5839   3.749   2.108   9.802 -0.4816 -0.1180  0.2614
  387MPD2     H 5840   3.963   1.899  10.039  1.0718 -2.0519 -2.6496
  387MPD2    H1 5841   3.654   1.924   9.746  0.5070 -1.2355 -0.7051
  387MPD2    H2 5842   3.862   2.274   9.870 -0.8662  0.4507  0.0741
  387MPD2    H3 5843   3.684   2.175   9.748 -0.4057 -0.2263  0.0374
  387MPD2     N 5844   3.811   1.758   9.892  0.2471 -0.3800 -0.1248
  387MPD2    H5 5845   3.853   1.710   9.971 -2.0291 -0.5346  0.9892
  387MPD2    N1 5846   4.035   2.141  10.043 -0.1193 -0.4018 -0.2961
  387MPD2    H7 5847   4.094   2.070  10.086 -0.2037  0.2713  0.9408
  388TMC3    C1 5848   4.206   2.258  10.116 -0.3134  0.6658  0.6221
  388TMC3    C2 5849   4.221   2.348  10.218 -0.1189  0.1912  0.2383
  388TMC3    C3 5850   4.313   2.315  10.312 -0.4100  0.2275 -0.2411
  388TMC3    C4 5851   4.287   2.151  10.094  1.0931  0.2009 -0.3046
  388TMC3    C5 5852   4.379   2.124  10.191  0.6844  0.4450 -0.2368
  388TMC3    C6 5853   4.387   2.203  10.303  0.3892  0.2208  0.3712
  388TMC3     C 5854   4.084   2.270  10.049 -0.1335  0.0296  0.7950
  388TMC3     O 5855   4.032   2.373  10.015 -0.2958  0.6126 -0.3785
  388TMC3     H 5856   4.140   2.419  10.231  0.6008  1.1938 -0.7485
  388TMC3    H1 5857   4.277   2.093  10.003 -2.1159 -1.9637  1.4043
  388TMC3    H2 5858   4.475   2.180  10.363  0.2309 -1.0589  0.1222
  388TMC3    C7 5859   4.440   1.993  10.196  0.5853 -0.0242 -0.0414
  388TMC3    C8 5860   4.313   2.374  10.441  0.1290 -0.1368 -0.2620
  388TMC3    O1 5861   4.492   1.963  10.304  0.4268 -0.4357 -0.0423
  388TMC3    O2 5862   4.348   2.309  10.541 -0.1708  0.1143 -0.2826
  389MPD2     C 5863   3.300   0.234  11.343 -0.4078  0.6247  0.0339
  389MPD2    C1 5864   3.179   0.191  11.304 -0.0411 -0.5760 -0.1950
  389MPD2    C2 5865   3.105   0.122  11.390 -0.3915 -0.0845  0.7215
  389MPD2    C3 5866   3.141   0.091  11.517 -0.4523  0.6382 -0.3735
  389MPD2    C4 5867   3.260   0.147  11.564 -0.0572 -0.1927  0.4893
  389MPD2    C5 5868   3.340   0.215  11.470  0.4865  0.6129 -0.4616
  389MPD2     H 5869   3.010   0.083  11.354  0.0718 -0.4328 -0.1181
  389MPD2    H1 5870   3.289   0.140  11.669  0.8291  1.3969  0.3476
  389MPD2    H2 5871   3.367   0.296  11.285 -1.0238  1.0534 -0.2127
  389MPD2    H3 5872   3.433   0.257  11.506 -0.1692 -0.3397  2.3207
  389MPD2     N 5873   3.077   0.006  11.609  0.2178  0.7212 -0.3583
  389MPD2    H5 5874   3.117   0.008  11.702  0.0272  0.1890 -0.2653
  389MPD2    N1 5875   3.142   0.214  11.169 -0.8071 -0.2377 -0.2185
  389MPD2    H7 5876   3.217   0.259  11.117  0.8782 -0.3933  2.0948
  390TMC3    C1 5877   2.938   4.567  11.677 -0.0852 -0.3136  0.5355
  390TMC3    C2 5878   2.958   4.433  11.669  0.0586 -0.3336 -0.1064
  390TMC3    C3 5879   2.935   4.360  11.779  0.2304 -0.8797  0.6137
  390TMC3    C4 5880   2.891   4.631  11.788 -0.0783  0.6831  0.0281
  390TMC3    C5 5881   2.862   4.551  11.897  0.3040 -0.4228  0.8534
  390TMC3    C6 5882   2.893   4.417  11.894  0.3937  0.3174 -0.0632
  390TMC3     C 5883   2.986   4.644  11.570 -0.6810  0.3555  0.2521
  390TMC3     O 5884   2.941   4.609  11.457 -0.4962 -0.3558 -0.2692
  390TMC3     H 5885   2.975   4.392  11.570 -1.4070 -1.2740  0.0168
  390TMC3    H1 5886   2.886   0.001  11.796 -1.6075  0.7225 -1.4954
  390TMC3    H2 5887   2.882   4.355  11.982  0.1057  2.6874  1.5758
  390TMC3    C7 5888   2.716   4.576  11.912 -0.9435 -0.2024  0.1286
  390TMC3    C8 5889   2.891   4.222  11.759 -0.4234  0.0620 -0.2247
  390TMC3    O1 5890   2.662   4.675  11.860 -0.4269 -0.0949 -0.1266
  390TMC3    O2 5891   2.836   4.199  11.651  0.5598 -0.3401  0.3472
  391MPD2     C 5892   2.568   1.378  11.149 -0.1516  0.4684  0.1960
  391MPD2    C1 5893   2.680   1.442  11.098 -0.3363  0.2318 -0.2589
  391MPD2    C2 5894   2.717   1.411  10.967  0.4953  0.3607 -0.6527
  391MPD2    C3 5895   2.635   1.350  10.880 -0.7703  0.0475 -0.6929
  391MPD2    C4 5896   2.518   1.294  10.930  0.7455  0.3139 -0.4511
  391MPD2    C5 5897   2.494   1.296  11.066  0.3040  0.4078  0.7570
  391MPD2     H 5898   2.810   1.460  10.941  0.2691 -0.8469 -3.7690
  391MPD2    H1 5899   2.447   1.258  10.857  0.6490 -0.5056  0.0510
  391MPD2    H2 5900   2.528   1.389  11.249  1.1893 -2.0042  1.0237
  391MPD2    H3 5901   2.403   1.252  11.104  1.3851 -1.6924  0.8921
  391MPD2     N 5902   2.676   1.358  10.744  0.0705 -0.3846 -0.3703
  391MPD2    H5 5903   2.775   1.366  10.727  0.1057  1.3613  0.5907
  391MPD2    N1 5904   2.755   1.528  11.185 -0.7045 -0.3220  0.3214
  391MPD2    H7 5905   2.832   1.582  11.146 -1.1305 -0.0380 -0.1291
  392TMC3    C1 5906   2.632   1.391  10.511  0.0829 -0.9304  0.7796
  392TMC3    C2 5907   2.541   1.380  10.409  0.4495 -0.3599 -0.0353
  392TMC3    C3 5908   2.575   1.422  10.286 -0.5435  0.4662  0.4655
  392TMC3    C4 5909   2.752   1.458  10.491  0.6712 -0.1757  0.5587
  392TMC3    C5 5910   2.780   1.507  10.366  0.7819 -0.9626  0.4785
  392TMC3    C6 5911   2.693   1.488  10.258 -0.1954  0.2547  0.3757
  392TMC3     C 5912   2.582   1.374  10.649 -0.8582  0.6933  0.6740
  392TMC3     O 5913   2.460   1.378  10.664 -0.0188  0.0609  0.1174
  392TMC3     H 5914   2.442   1.344  10.432 -0.3548  1.0818 -1.2477
  392TMC3    H1 5915   2.821   1.478  10.572 -1.2053 -0.4239  2.2150
  392TMC3    H2 5916   2.712   1.544  10.168  1.0510  1.6029  1.4926
  392TMC3    C7 5917   2.880   1.606  10.364  0.4418 -0.5030  0.4383
  392TMC3    C8 5918   2.451   1.458  10.209  0.4825 -0.5537  0.3634
  392TMC3    O1 5919   2.924   1.637  10.470  0.0590  0.1853 -0.0498
  392TMC3    O2 5920   2.345   1.468  10.267  0.1809 -0.2275  0.4081
  393TMC3    C1 5921   1.430   4.288  10.594 -0.1929 -0.2355  0.0956
  393TMC3    C2 5922   1.310   4.233  10.552  0.3152  0.8247  0.2115
  393TMC3    C3 5923   1.290   4.203  10.420  0.0688  0.1715 -0.4257
  393TMC3    C4 5924   1.533   4.306  10.507 -0.3858 -0.2831  0.1813
  393TMC3    C5 5925   1.513   4.257  10.379  0.0674  0.9079  0.4224
  393TMC3    C6 5926   1.390   4.219  10.330  0.6757  0.3495 -0.5601
  393TMC3     C 5927   1.406   4.393  10.693  0.1334  0.4143  0.1976
  393TMC3     O 5928   1.293   4.436  10.690  0.2424 -0.7297 -0.5924
  393TMC3     H 5929   1.230   4.221  10.624  0.3144 -0.4516  0.0037
  393TMC3    H1 5930   1.622   4.362  10.534 -0.6474  0.9712 -1.5231
  393TMC3    H2 5931   1.372   4.198  10.225 -0.2095 -0.3659 -0.2685
  393TMC3    C7 5932   1.620   4.270  10.278 -0.0604 -0.2016 -0.0945
  393TMC3    C8 5933   1.160   4.249  10.363 -0.2289  0.1170  0.6702
  393TMC3    O1 5934   1.612   4.223  10.165 -0.5673  0.2501  0.1967
  393TMC3    O2 5935   1.139   4.216  10.246  0.0258 -0.2669  0.2092
  394TMC3    C1 5936   3.001   0.257  10.989  0.0605 -0.1837 -0.0310
  394TMC3    C2 5937   2.876   0.265  10.940 -0.3429  0.6200 -0.0634
  394TMC3    C3 5938   2.849   0.300  10.812  0.0109  0.2676  0.8547
  394TMC3    C4 5939   3.101   0.271  10.896 -0.6561  0.0198 -0.1506
  394TMC3    C5 5940   3.075   0.321  10.765 -0.3154 -0.3747  0.1498
  394TMC3    C6 5941   2.948   0.337  10.717 -0.0666  0.3825  0.4576
  394TMC3     C 5942   3.017   0.184  11.115  0.3014 -0.2602  0.6851
  394TMC3     O 5943   2.916   0.139  11.169 -0.1119  0.2671 -0.2459
  394TMC3     H 5944   2.807   0.231  11.016 -0.5485  0.2759 -0.4097
  394TMC3    H1 5945   3.203   0.253  10.928  0.0180  2.4802 -0.9026
  394TMC3    H2 5946   2.929   0.361  10.613 -4.1189  0.7720  1.2781
  394TMC3    C7 5947   3.180   0.379  10.683  0.6955 -0.7136 -0.4135
  394TMC3    C8 5948   2.711   0.288  10.768  0.3851  0.0795 -0.2068
  394TMC3    O1 5949   3.156   0.404  10.566  0.1110 -0.1307  0.0572
  394TMC3    O2 5950   2.625   0.275  10.853  0.1424 -0.3779 -0.4880
  395TMC3    C1 5951   3.124   1.918  14.983 -0.0006  0.7844 -0.0679
  395TMC3    C2 5952   2.999   1.971  14.952  0.7847  0.0183 -0.1852
  395TMC3    C3 5953   2.981   2.026  14.826 -0.2710  0.1612  0.1702
  395TMC3    C4 5954   3.230   1.904  14.895 -0.4494  0.4613  0.3257
  395TMC3    C5 5955   3.209   1.966  14.773 -0.5738 -1.2012  0.3951
  395TMC3    C6 5956   3.093   2.036  14.750 -0.3954  0.6899 -0.0793
  395TMC3     C 5957   3.139   1.833  15.099  0.5560 -0.2571  0.0344
  395TMC3     O 5958   3.220   1.744  15.097  0.0211  0.0115 -0.3889
  395TMC3     H 5959   2.913   1.966  15.019 -1.0881  0.6098 -2.5626
  395TMC3    H1 5960   3.320   1.845  14.908 -1.1521 -0.1448  2.4964
  395TMC3    H2 5961   3.087   2.094  14.658  0.5429 -0.5529 -0.9333
  395TMC3    C7 5962   3.322   1.985  14.682  0.0541 -0.0479  0.4780
  395TMC3    C8 5963   2.860   2.089  14.796  0.8016  0.3022 -0.2836
  395TMC3    O1 5964   3.379   1.880  14.645  0.0284  0.2370 -0.3502
  395TMC3    O2 5965   2.865   2.181  14.711  0.2580  0.4316 -0.2699
  396MPD2     C 5966   2.676   3.062  16.917  0.8300 -0.5816 -0.6185
  396MPD2    C1 5967   2.727   3.159  17.004 -0.2395  0.2800  0.0048
  396MPD2    C2 5968   2.774   3.272  16.945 -0.3976 -0.2020 -0.3371
  396MPD2    C3 5969   2.802   3.287  16.810  0.0357  0.4907 -0.5414
  396MPD2    C4 5970   2.745   3.190  16.727  0.5555  0.2842  0.0102
  396MPD2    C5 5971   2.678   3.087  16.784 -0.0900  0.0966  0.1507
  396MPD2     H 5972   2.796   3.358  17.008  0.3987  0.0803 -1.0017
  396MPD2    H1 5973   2.751   3.193  16.619  2.1645  1.4308  0.1315
  396MPD2    H2 5974   2.636   2.965  16.943  0.8753 -0.3138  0.4704
  396MPD2    H3 5975   2.645   3.015  16.710 -1.3383  1.3029 -0.4557
  396MPD2     N 5976   2.865   3.399  16.756 -0.0777 -0.4403  0.5159
  396MPD2    H5 5977   2.871   3.479  16.817  1.8208  0.5338 -0.9325
  396MPD2    N1 5978   2.723   3.135  17.145 -0.3844  0.0985 -0.8083
  396MPD2    H7 5979   2.713   3.039  17.177  0.4301 -0.6076 -2.6261
  397TMC3    C1 5980   2.769   3.161  17.371  0.4331  0.2275 -0.0903
  397TMC3    C2 5981   2.882   3.169  17.445  0.3049 -0.7198 -0.5006
  397TMC3    C3 5982   2.944   3.057  17.490  0.5051  0.3243 -0.0288
  397TMC3    C4 5983   2.704   3.037  17.366 -0.1053  0.1357  0.0560
  397TMC3    C5 5984   2.753   2.932  17.440 -0.1075 -0.5693  0.0038
  397TMC3    C6 5985   2.873   2.935  17.500  0.1397  0.3456  0.6532
  397TMC3     C 5986   2.768   3.226  17.241  0.0873 -0.0557 -0.4504
  397TMC3     O 5987   2.827   3.331  17.242  0.6915 -0.9727 -0.2442
  397TMC3     H 5988   2.944   3.258  17.433 -2.6671  1.0378 -2.7285
  397TMC3    H1 5989   2.604   3.030  17.325 -0.6617 -0.9487  1.5745
  397TMC3    H2 5990   2.916   2.845  17.543 -0.0142  0.7571  1.6724
  397TMC3    C7 5991   2.655   2.834  17.487  0.3755  0.6953 -0.6530
  397TMC3    C8 5992   3.063   3.033  17.409 -0.6734 -0.2445  0.6224
  397TMC3    O1 5993   2.560   2.822  17.411  0.1717 -0.6730 -0.2988
  397TMC3    O2 5994   3.055   2.928  17.347 -0.2332  0.0380 -0.6054
  398MPD2     C 5995   0.836   4.214  17.531 -0.0268 -0.9485 -0.7332
  398MPD2    C1 5996   0.929   4.206  17.631 -0.4641  0.6587  0.1854
  398MPD2    C2 5997   0.952   4.317  17.718 -0.0494 -0.4243 -0.5080
  398MPD2    C3 5998   0.883   4.435  17.705  0.3226 -0.6884  0.3823
  398MPD2    C4 5999   0.780   4.435  17.609  0.5781 -0.7509  0.1738
  398MPD2    C5 6000   0.758   4.332  17.525 -0.6168  0.0061 -0.0644
  398MPD2     H 6001   1.035   4.316   0.038  0.5759  2.4168 -1.2231
  398MPD2    H1 6002   0.711   4.518  17.611  0.1388 -1.1138  0.1011
  398MPD2    H2 6003   0.815   4.131  17.465 -0.5682 -0.3313 -1.3390
  398MPD2    H3 6004   0.673   4.343  17.458 -1.5106  2.2081  1.4279
  398MPD2     N 6005   0.925   4.548   0.034  0.3075  0.2460  0.1809
  398MPD2    H5 6006   0.994   4.534   0.108  2.1139  0.3909 -1.4748
  398MPD2    N1 6007   1.003   4.096  17.649  0.5804 -0.2548 -0.9800
  398MPD2    H7 6008   1.082   4.095  17.713 -1.1347 -0.0602  1.1495
  399TMC3    C1 6009   1.062   3.866  17.657  0.2315  0.6694 -0.7308
  399TMC3    C2 6010   1.195   3.897  17.675 -0.9345 -0.0420 -0.6787
  399TMC3    C3 6011   1.276   3.802  17.720 -0.2280  0.8752 -0.3029
  399TMC3    C4 6012   1.014   3.739  17.674 -0.1650 -0.3317 -0.3983
  399TMC3    C5 6013   1.113   3.644  17.709  0.8661  0.4191  0.0257
  399TMC3    C6 6014   1.242   3.669  17.731 -0.3328 -0.4907 -0.1782
  399TMC3     C 6015   0.968   3.968  17.608  0.1528  0.1946 -0.0313
  399TMC3     O 6016   0.873   3.921  17.543 -0.5818  0.2854  0.1988
  399TMC3     H 6017   1.239   3.990  17.640 -2.4541  0.7824 -0.3755
  399TMC3    H1 6018   0.908   3.715  17.665 -0.3040  0.1053  0.1156
  399TMC3    H2 6019   1.306   3.593   0.025 -0.1637  0.2980  0.9785
  399TMC3    C7 6020   1.071   3.515   0.008  0.6563 -0.2867 -0.2142
  399TMC3    C8 6021   1.397   3.849   0.020 -0.3636 -0.7609 -0.6520
  399TMC3    O1 6022   1.131   3.472   0.107 -0.1848 -0.2800 -0.0003
  399TMC3    O2 6023   1.401   3.964   0.065 -1.0010  0.1301  0.3831
  400TMC3    C1 6024   3.949   2.599  16.733  0.0079 -0.2528 -0.6782
  400TMC3    C2 6025   3.833   2.534  16.704  0.4758  0.1638  0.1829
  400TMC3    C3 6026   3.746   2.597  16.624 -0.0895  0.1272 -0.6987
  400TMC3    C4 6027   3.982   2.725  16.677  0.4187 -1.1325 -1.1345
  400TMC3    C5 6028   3.887   2.785  16.596 -0.6423  0.4425  0.0358
  400TMC3    C6 6029   3.767   2.721  16.566  0.3375 -0.4874  0.8001
  400TMC3     C 6030   4.049   2.546  16.829 -0.0010 -0.2561 -0.2201
  400TMC3     O 6031   4.010   2.459  16.906  0.0113 -0.1696 -0.4379
  400TMC3     H 6032   3.799   2.457  16.772 -2.8214  0.3562 -1.2558
  400TMC3    H1 6033   4.069   2.783  16.706  0.5640 -1.0997 -1.6508
  400TMC3    H2 6034   3.705   2.761  16.486  2.0785  0.3378 -0.1361
  400TMC3    C7 6035   3.901   2.912  16.539  0.8731  0.8150 -0.0073
  400TMC3    C8 6036   3.611   2.548  16.625 -0.0291 -0.5435  0.1509
  400TMC3    O1 6037   3.840   2.932  16.437  0.1912  0.4211 -0.8977
  400TMC3    O2 6038   3.524   2.634  16.612  0.5813  0.4540 -0.0854
  401MPD2     C 6039   2.796   1.545   0.922  0.3611 -0.7611 -0.3478
  401MPD2    C1 6040   2.932   1.532   0.904 -0.2069  0.0053 -0.7994
  401MPD2    C2 6041   2.993   1.417   0.857  0.2058 -0.5294 -0.3185
  401MPD2    C3 6042   2.915   1.307   0.822 -0.5433 -0.2834 -0.0904
  401MPD2    C4 6043   2.778   1.327   0.832  0.8752 -0.3914  0.1942
  401MPD2    C5 6044   2.722   1.446   0.878 -0.5589 -0.1313  0.2096
  401MPD2     H 6045   3.097   1.413   0.826  0.3552 -2.9719  0.5266
  401MPD2    H1 6046   2.706   1.261   0.787 -1.5577  2.2445  0.2338
  401MPD2    H2 6047   2.739   1.628   0.961 -0.3698 -1.8865  0.9562
  401MPD2    H3 6048   2.616   1.464   0.885 -0.5992  0.3555 -1.6552
  401MPD2     N 6049   2.974   1.202   0.754 -0.5644 -0.2599 -0.0430
  401MPD2    H5 6050   3.075   1.198   0.762 -0.6651  0.8219  1.8488
  401MPD2    N1 6051   3.014   1.644   0.927 -0.6132  0.2298  0.2365
  401MPD2    H7 6052   3.110   1.619   0.904 -0.2959  1.9776 -0.4000
  402TMC3    C1 6053   3.018   1.010   0.636 -0.0393 -0.5144  0.2933
  402TMC3    C2 6054   3.088   0.950   0.735  0.2834  0.5246 -0.4063
  402TMC3    C3 6055   3.181   0.853   0.700 -0.4228  0.9850  0.0412
  402TMC3    C4 6056   3.035   0.975   0.502 -0.2464  0.1481  0.6231
  402TMC3    C5 6057   3.115   0.871   0.469 -0.5778  0.2164  0.6544
  402TMC3    C6 6058   3.187   0.806   0.570  0.2604  0.3064  0.6004
  402TMC3     C 6059   2.918   1.110   0.674 -0.5670 -0.1481 -0.3906
  402TMC3     O 6060   2.811   1.116   0.610  0.0829 -0.9861  0.6071
  402TMC3     H 6061   3.077   0.983   0.838  0.6921 -3.6932  0.9843
  402TMC3    H1 6062   2.976   1.026   0.427  0.4581  0.1832  0.0917
  402TMC3    H2 6063   3.255   0.724   0.550  0.1927  0.1010  1.2291
  402TMC3    C7 6064   3.145   0.852   0.327 -0.2503  0.1034  0.7230
  402TMC3    C8 6065   3.222   0.757   0.798  0.4237  0.4519  0.0083
  402TMC3    O1 6066   3.139   0.955   0.258 -0.4586 -0.6156  0.5242
  402TMC3    O2 6067   3.211   0.640   0.761 -0.1178 -0.0754  0.5067
  403MPD2     C 6068   0.804   4.238  13.283  0.0359 -0.3878  0.6004
  403MPD2    C1 6069   0.742   4.191  13.395  0.0318  0.2948  0.1058
  403MPD2    C2 6070   0.789   4.233  13.523 -0.5878  0.3536 -0.1009
  403MPD2    C3 6071   0.885   4.331  13.534  0.2277 -0.6379  0.0458
  403MPD2    C4 6072   0.947   4.387  13.420 -0.1150 -0.2576 -0.1834
  403MPD2    C5 6073   0.899   4.344  13.299 -0.0042  0.6264 -0.2458
  403MPD2     H 6074   0.758   4.183  13.615 -0.0364  0.2111  0.0028
  403MPD2    H1 6075   1.029   4.457  13.417 -1.2988  1.1174 -0.1466
  403MPD2    H2 6076   0.776   4.218  13.181 -2.4767  0.6340  1.1054
  403MPD2    H3 6077   0.925   4.395  13.207  0.9036  0.8535  0.1344
  403MPD2     N 6078   0.925   4.370  13.663 -0.0287 -0.4221  0.3264
  403MPD2    H5 6079   0.873   4.327  13.739 -1.2706  0.0782 -0.2392
  403MPD2    N1 6080   0.645   4.087  13.371  1.0950  0.4899 -0.0874
  403MPD2    H7 6081   0.638   4.064  13.272 -1.7218  0.0136  0.2261
  404TMC3    C1 6082   0.500   3.909  13.407 -0.9962 -0.0808 -0.4746
  404TMC3    C2 6083   0.477   3.805  13.493 -0.4607 -0.4902  0.4081
  404TMC3    C3 6084   0.470   3.686  13.433  0.0260  0.4017 -0.2769
  404TMC3    C4 6085   0.501   3.906  13.272  0.2528 -0.3610  0.0296
  404TMC3    C5 6086   0.477   3.779  13.222 -0.4214 -0.1486 -0.7688
  404TMC3    C6 6087   0.464   3.662  13.296 -0.4732  0.0050 -0.3435
  404TMC3     C 6088   0.571   4.018  13.466  0.1433 -0.0832  0.0042
  404TMC3     O 6089   0.576   4.021  13.587  0.3418  0.1439 -0.1016
  404TMC3     H 6090   0.480   3.816  13.600 -0.7868 -1.5328  0.5186
  404TMC3    H1 6091   0.501   3.995  13.210  0.3196 -0.9044 -0.7447
  404TMC3    H2 6092   0.449   3.563  13.255 -0.8314  0.1123 -0.4676
  404TMC3    C7 6093   0.484   3.781  13.080 -0.4045  0.3907 -0.2206
  404TMC3    C8 6094   0.527   3.575  13.501  0.7649  0.2173  0.4918
  404TMC3    O1 6095   0.518   3.883  13.023  0.5778 -0.1021  0.4522
  404TMC3    O2 6096   0.573   3.486  13.430 -0.1982  0.2912  0.3177
  405MPD2     C 6097   1.338   0.096  14.701 -0.4047  0.3095 -0.8689
  405MPD2    C1 6098   1.281   0.009  14.614 -0.0184  0.2360  0.8048
  405MPD2    C2 6099   1.161   0.054  14.554 -0.2414  0.0824  0.5569
  405MPD2    C3 6100   1.104   0.173  14.582 -0.2078 -0.2939  0.2144
  405MPD2    C4 6101   1.164   0.254  14.674  1.1153  0.2632  0.3360
  405MPD2    C5 6102   1.278   0.214  14.730 -0.0904 -0.4374 -0.0362
  405MPD2     H 6103   1.118   4.736  14.471 -0.8428 -2.4189  2.5771
  405MPD2    H1 6104   1.121   0.347  14.710  1.3178  0.7039 -0.5758
  405MPD2    H2 6105   1.434   0.073  14.746  0.9743  2.1068 -2.8931
  405MPD2    H3 6106   1.330   0.290  14.788 -1.3639 -0.5447  1.2522
  405MPD2     N 6107   0.981   0.195  14.517  0.1974  0.3037 -0.5010
  405MPD2    H5 6108   0.951   0.136  14.441 -0.5305  1.9815 -1.5293
  405MPD2    N1 6109   1.346   4.630  14.589 -0.0536 -0.4204 -0.2614
  405MPD2    H7 6110   1.414   4.594  14.654  0.0438 -2.7724 -1.6488
  406TMC3    C1 6111   0.572   0.339  14.380  0.4231  0.4827 -0.4262
  406TMC3    C2 6112   0.558   0.221  14.310 -0.3336 -0.1231  0.4307
  406TMC3    C3 6113   0.653   0.124  14.329  0.0617 -1.0007  0.8652
  406TMC3    C4 6114   0.679   0.361  14.462  0.5130 -0.5682 -0.4715
  406TMC3    C5 6115   0.777   0.264  14.474  0.4911  0.3782  0.3193
  406TMC3    C6 6116   0.758   0.143  14.415 -0.3416  0.5102 -0.0563
  406TMC3     C 6117   0.475   0.448  14.351  0.0195  0.3868 -0.0256
  406TMC3     O 6118   0.507   0.561  14.374  0.0484 -0.1271  0.3136
  406TMC3     H 6119   0.481   0.204  14.235  1.1561 -0.4514 -1.0475
  406TMC3    H1 6120   0.702   0.449  14.522  2.2876 -2.8308  2.1379
  406TMC3    H2 6121   0.804   0.058  14.464 -0.8938  0.2524  0.0173
  406TMC3    C7 6122   0.891   0.284  14.560 -0.3968  0.1597 -0.2520
  406TMC3    C8 6123   0.638   4.726  14.263  0.1922  0.2348 -0.4164
  406TMC3    O1 6124   0.890   0.367  14.649 -0.3047 -0.1036  0.2921
  406TMC3    O2 6125   0.530   4.686  14.230 -0.1898  0.3694 -0.2601
  407MPD2     C 6126   3.366   1.535  10.016 -0.6767 -0.5233  1.1725
  407MPD2    C1 6127   3.432   1.632   9.943 -0.3876  0.3782  0.4191
  407MPD2    C2 6128   3.492   1.733  10.008  0.1659 -0.6074 -0.4561
  407MPD2    C3 6129   3.487   1.748  10.142  0.1798  0.1682  0.0616
  407MPD2    C4 6130   3.439   1.652  10.221 -0.5072  0.6080 -0.3959
  407MPD2    C5 6131   3.362   1.552  10.154  0.5217 -0.3508  0.5293
  407MPD2     H 6132   3.548   1.805   9.949 -3.1947  1.6721 -0.8871
  407MPD2    H1 6133   3.429   1.669  10.327 -0.2838 -0.8693 -0.1278
  407MPD2    H2 6134   3.303   1.463   9.964 -0.0694 -0.7492  0.7554
  407MPD2    H3 6135   3.312   1.478  10.215  0.1773 -0.2266  0.3936
  407MPD2     N 6136   3.553   1.853  10.206 -0.3286  0.7502 -0.4914
  407MPD2    H5 6137   3.592   1.835  10.298 -2.0585  0.2280  0.1453
  407MPD2    N1 6138   3.440   1.620   9.804  0.1799 -0.3028 -0.2865
  407MPD2    H7 6139   3.474   1.703   9.757 -0.3771  1.0696  1.7238
  408TMC3    C1 6140   3.412   1.542   9.587 -0.0602  0.5284  0.0664
  408TMC3    C2 6141   3.493   1.443   9.534 -0.1489  0.2910 -0.4607
  408TMC3    C3 6142   3.585   1.478   9.435  0.3834  0.5536 -0.2987
  408TMC3    C4 6143   3.432   1.675   9.556  0.0508  0.6060  0.1383
  408TMC3    C5 6144   3.519   1.703   9.450 -0.1229 -0.4047  0.0601
  408TMC3    C6 6145   3.594   1.603   9.386 -1.1709  0.3911 -0.4380
  408TMC3     C 6146   3.390   1.519   9.727 -0.4372 -0.3370 -0.1202
  408TMC3     O 6147   3.368   1.404   9.757  0.4522 -0.0218 -0.5725
  408TMC3     H 6148   3.501   1.340   9.565  1.7556 -0.0543 -2.0880
  408TMC3    H1 6149   3.354   1.742   9.591 -1.5433 -0.7903 -0.7257
  408TMC3    H2 6150   3.658   1.624   9.302  2.0901  1.3921  2.3208
  408TMC3    C7 6151   3.577   1.837   9.428 -0.8530  0.1551 -0.1237
  408TMC3    C8 6152   3.692   1.379   9.409 -0.6614  0.6179 -0.1966
  408TMC3    O1 6153   3.677   1.841   9.357 -0.0440  0.0177  0.4438
  408TMC3    O2 6154   3.654   1.264   9.397 -0.5638 -0.2653  0.1160
  409MPD2     C 6155   2.905   2.361  16.615 -0.2468  0.3120  0.3429
  409MPD2    C1 6156   2.995   2.387  16.715  0.2528  0.2851  0.2078
  409MPD2    C2 6157   3.073   2.499  16.706 -0.3232 -0.0096 -0.0490
  409MPD2    C3 6158   3.058   2.587  16.603  0.4407  0.0304 -0.5515
  409MPD2    C4 6159   2.964   2.567  16.511  0.8761 -0.7787  0.2015
  409MPD2    C5 6160   2.888   2.452  16.521  0.1227  0.2327 -0.3121
  409MPD2     H 6161   3.153   2.500  16.780 -0.8241  0.8084  0.4865
  409MPD2    H1 6162   2.944   2.643  16.435  0.9179 -1.3946 -0.4224
  409MPD2    H2 6163   2.838   2.277  16.605 -0.6238  0.7521 -0.9075
  409MPD2    H3 6164   2.828   2.433  16.433  0.3753  0.1202 -0.4574
  409MPD2     N 6165   3.145   2.702  16.576  0.1304  0.0326  0.0320
  409MPD2    H5 6166   3.136   2.759  16.492  2.0580  0.6975  0.2689
  409MPD2    N1 6167   3.011   2.304  16.829 -0.0543 -0.0255  0.1280
  409MPD2    H7 6168   3.075   2.333  16.902  0.7955  0.2957 -0.7423
  410TMC3    C1 6169   3.306   2.874  16.641  0.0685 -0.0849  0.3353
  410TMC3    C2 6170   3.391   2.899  16.744 -0.4100 -0.4657  0.1678
  410TMC3    C3 6171   3.498   2.977  16.715 -0.1591 -0.1123  0.4238
  410TMC3    C4 6172   3.338   2.891  16.501 -0.6830 -0.1683 -0.1696
  410TMC3    C5 6173   3.455   2.961  16.477  0.3719  0.1280 -0.5161
  410TMC3    C6 6174   3.528   3.015  16.579  0.0213  0.1159 -0.4241
  410TMC3     C 6175   3.226   2.754  16.675  0.1077 -0.3890  0.0547
  410TMC3     O 6176   3.204   2.731  16.793  0.1781 -0.3605  0.1376
  410TMC3     H 6177   3.366   2.888  16.849  1.3845  0.2684  0.6849
  410TMC3    H1 6178   3.294   2.832  16.422  2.5728  0.2954 -2.3235
  410TMC3    H2 6179   3.623   3.060  16.556  0.4586 -0.9541 -0.7171
  410TMC3    C7 6180   3.485   2.987  16.338 -1.0705  0.0454 -0.0562
  410TMC3    C8 6181   3.611   2.969  16.798 -0.0349 -0.1019 -0.4851
  410TMC3    O1 6182   3.411   2.924  16.261  0.2371  0.2922  0.2263
  410TMC3    O2 6183   3.701   3.048  16.791 -0.4341 -0.4683  0.0003
  411MPD2     C 6184   3.699   2.815  14.440 -0.2868 -0.0670 -0.8388
  411MPD2    C1 6185   3.571   2.847  14.492  0.0031  0.3857  0.0413
  411MPD2    C2 6186   3.476   2.748  14.499 -0.4565 -0.1232  0.1614
  411MPD2    C3 6187   3.496   2.633  14.431  0.9220  0.4243 -0.6807
  411MPD2    C4 6188   3.619   2.601  14.375 -0.5411  0.2876 -0.1553
  411MPD2    C5 6189   3.723   2.688  14.390  0.0052 -0.2805 -0.1345
  411MPD2     H 6190   3.377   2.778  14.533  0.1878  0.2986  1.6494
  411MPD2    H1 6191   3.633   2.499  14.343 -2.0190 -0.3181  1.1264
  411MPD2    H2 6192   3.779   2.887  14.453  0.6036 -1.6141  2.2560
  411MPD2    H3 6193   3.823   2.667  14.355 -0.2441  1.5147 -1.9463
  411MPD2     N 6194   3.403   2.527  14.423 -0.1903 -0.0363  0.1718
  411MPD2    H5 6195   3.426   2.453  14.357  1.2962 -0.3282  1.0245
  411MPD2    N1 6196   3.551   2.965  14.554 -0.3809  0.3847  0.1845
  411MPD2    H7 6197   3.601   3.044  14.515  0.8679  0.2216  1.4642
  412TMC3    C1 6198   3.181   2.450  14.426  0.1327 -0.1229  0.5461
  412TMC3    C2 6199   3.056   2.455  14.468 -0.1874  0.3251  0.5900
  412TMC3    C3 6200   2.958   2.397  14.405 -0.0717  0.0359  0.0913
  412TMC3    C4 6201   3.208   2.390  14.303  0.3583  0.2932 -0.7780
  412TMC3    C5 6202   3.108   2.318  14.240 -0.1190 -0.1319  0.1006
  412TMC3    C6 6203   2.982   2.316  14.292 -0.2007  0.5102  1.1126
  412TMC3     C 6204   3.277   2.534  14.487 -0.9229  0.3946  0.9601
  412TMC3     O 6205   3.241   2.606  14.580 -0.2392 -0.2888  0.0588
  412TMC3     H 6206   3.028   2.529  14.541 -0.4050 -0.5254  1.3736
  412TMC3    H1 6207   3.302   2.408  14.251 -0.3242 -0.3661 -2.2460
  412TMC3    H2 6208   2.898   2.272  14.239  0.3780  1.5286 -0.6386
  412TMC3    C7 6209   3.092   2.351  14.104 -0.1948 -1.1264  0.2934
  412TMC3    C8 6210   2.838   2.482  14.388  0.3154  0.7976  0.4551
  412TMC3    O1 6211   2.977   2.389  14.076 -0.1177  0.3592 -0.1618
  412TMC3    O2 6212   2.804   2.558  14.480  0.0145 -0.5835  0.2745
  413MPD2     C 6213   0.359   1.022  15.735 -0.7581  0.3056  0.1232
  413MPD2    C1 6214   0.290   1.052  15.619  0.0295  0.0118 -0.2525
  413MPD2    C2 6215   0.339   1.027  15.490  0.7297 -0.0613  0.0640
  413MPD2    C3 6216   0.464   0.971  15.481 -0.3404 -0.2306 -0.1558
  413MPD2    C4 6217   0.531   0.934  15.596 -0.0003 -0.6781  0.4163
  413MPD2    C5 6218   0.484   0.972  15.720 -0.1572 -0.6659  0.1112
  413MPD2     H 6219   0.287   1.052  15.399  1.6127  1.8573  0.0841
  413MPD2    H1 6220   0.626   0.883  15.591  1.0453  1.4495 -1.3022
  413MPD2    H2 6221   0.318   1.045  15.833 -1.0116 -0.0569  0.1012
  413MPD2    H3 6222   0.547   0.945  15.804 -0.0571 -1.7754 -0.3179
  413MPD2     N 6223   0.517   0.963  15.351 -0.3790  0.7308 -0.6967
  413MPD2    H5 6224   0.453   0.986  15.275 -0.3607 -0.1469 -0.9776
  413MPD2    N1 6225   0.159   1.114  15.643  0.4167  0.4765 -0.1775
  413MPD2    H7 6226   0.118   1.117  15.736  0.8346 -1.3307  0.0694
  414TMC3    C1 6227   0.682   0.926  15.186  0.8999 -0.0630  0.1129
  414TMC3    C2 6228   0.771   0.830  15.145 -0.9890 -0.3370  0.5267
  414TMC3    C3 6229   0.766   0.802  15.012  1.0650  0.8639  0.8475
  414TMC3    C4 6230   0.611   1.001  15.094  0.2298 -0.0841 -0.0520
  414TMC3    C5 6231   0.625   0.975  14.959  0.8068  0.0152 -0.0226
  414TMC3    C6 6232   0.696   0.863  14.917 -0.4497 -0.6098 -0.1674
  414TMC3     C 6233   0.655   0.944  15.324  0.2032  0.8308  0.2996
  414TMC3     O 6234   0.746   0.908  15.395 -0.0395  0.1477 -0.2368
  414TMC3     H 6235   0.826   0.774  15.219  1.4789 -0.2584 -1.2256
  414TMC3    H1 6236   0.536   1.070  15.132 -0.9642 -2.4131  1.7559
  414TMC3    H2 6237   0.713   0.843  14.812  1.3667 -1.8569  0.3592
  414TMC3    C7 6238   0.550   1.052  14.862  0.3725 -0.3018  0.3647
  414TMC3    C8 6239   0.857   0.696  14.955 -0.5434 -0.5220  0.1918
  414TMC3    O1 6240   0.435   1.080  14.892 -0.1115 -0.1188 -0.2485
  414TMC3    O2 6241   0.812   0.619  14.870  0.0835  0.0891 -0.2251
  415TMC3    C1 6242   0.770   3.539   9.872 -0.3831 -0.3934  0.7374
  415TMC3    C2 6243   0.760   3.641   9.783 -0.0058  0.2176 -1.2049
  415TMC3    C3 6244   0.687   3.613   9.670 -0.3454 -0.0921 -0.6601
  415TMC3    C4 6245   0.714   3.411   9.861  0.3374 -0.0348 -0.3670
  415TMC3    C5 6246   0.647   3.392   9.744 -0.7885 -0.1229 -0.5227
  415TMC3    C6 6247   0.634   3.489   9.644  0.1843 -0.6929 -0.5012
  415TMC3     C 6248   0.852   3.559   9.992  0.6016 -0.2665  0.8303
  415TMC3     O 6249   0.920   3.462  10.025 -0.1315 -0.3748 -0.1730
  415TMC3     H 6250   0.791   3.742   9.807  1.1411  0.1411 -2.3296
  415TMC3    H1 6251   0.735   3.339   9.939  1.5851  1.0592  0.3000
  415TMC3    H2 6252   0.574   3.473   9.555 -2.2335  0.9541  0.8356
  415TMC3    C7 6253   0.552   3.279   9.735 -0.1225 -0.1783  0.1876
  415TMC3    C8 6254   0.661   3.716   9.572  0.3357 -0.0263  0.1403
  415TMC3    O1 6255   0.487   3.263   9.629 -0.0897  0.2436  0.6909
  415TMC3    O2 6256   0.558   3.694   9.503  0.9105  0.4300 -0.1030
  416MPD2     C 6257   2.708   2.991  11.041  0.9392  0.2566  0.6939
  416MPD2    C1 6258   2.680   2.890  11.130 -0.0422 -0.1406 -0.1429
  416MPD2    C2 6259   2.701   2.760  11.095  0.6879  0.2502 -0.1386
  416MPD2    C3 6260   2.768   2.726  10.974  0.1298  0.1739 -0.3969
  416MPD2    C4 6261   2.818   2.832  10.905  0.0760 -0.1834 -0.5488
  416MPD2    C5 6262   2.773   2.959  10.926 -0.0090  0.7015 -0.3638
  416MPD2     H 6263   2.667   2.681  11.162 -2.9225  0.1927 -2.0146
  416MPD2    H1 6264   2.869   2.810  10.812  1.9122  1.5340  0.0486
  416MPD2    H2 6265   2.691   3.097  11.057  0.0663  0.0328  1.2540
  416MPD2    H3 6266   2.796   3.040  10.858  1.7610 -1.5792 -2.4684
  416MPD2     N 6267   2.788   2.597  10.923  1.0763  0.0969  0.4353
  416MPD2    H5 6268   2.831   2.584  10.832 -2.7187 -1.1270 -1.2041
  416MPD2    N1 6269   2.631   2.940  11.257  0.1047 -0.0973  0.3872
  416MPD2    H7 6270   2.618   3.041  11.266  1.0087 -0.0942  1.5592
  417TMC3    C1 6271   2.544   2.955  11.468  0.8878  0.1924  0.4535
  417TMC3    C2 6272   2.551   2.903  11.593  0.2767  0.6228 -0.2412
  417TMC3    C3 6273   2.473   2.961  11.686 -0.0151 -0.2762 -0.4065
  417TMC3    C4 6274   2.458   3.057  11.431  0.5197 -0.0788  0.5972
  417TMC3    C5 6275   2.380   3.105  11.529  0.8787 -0.4289 -0.2242
  417TMC3    C6 6276   2.382   3.065  11.660 -0.7220  0.5537 -0.5858
  417TMC3     C 6277   2.599   2.869  11.365 -0.3598 -0.2235 -0.3226
  417TMC3     O 6278   2.600   2.747  11.385 -0.0937  0.3277  0.1599
  417TMC3     H 6279   2.617   2.821  11.617  0.3662  0.8286  0.2072
  417TMC3    H1 6280   2.429   3.083  11.330 -0.3209  0.7890  1.0637
  417TMC3    H2 6281   2.320   3.108  11.737 -0.4906  0.3997 -0.3107
  417TMC3    C7 6282   2.251   3.173  11.491  0.0862  0.4449  0.0405
  417TMC3    C8 6283   2.466   2.907  11.820 -0.1978 -0.2160  0.0140
  417TMC3    O1 6284   2.248   3.231  11.384  0.2868 -0.4205 -0.0022
  417TMC3    O2 6285   2.385   2.958  11.895  0.4145  0.3880  0.0426
  418TMC3    C1 6286   1.022   0.232   0.151  0.2131  0.3173  0.3881
  418TMC3    C2 6287   0.954   0.150   0.062 -0.7288 -0.0354  0.2213
  418TMC3    C3 6288   0.912   0.035   0.115  0.0343 -0.1818 -0.1731
  418TMC3    C4 6289   1.045   0.203   0.280  0.5669  0.8171  0.2075
  418TMC3    C5 6290   0.998   0.081   0.325 -0.3174 -0.3328  0.4716
  418TMC3    C6 6291   0.944   4.729   0.243 -0.0457  0.4945  0.2912
  418TMC3     C 6292   1.119   0.319   0.082 -0.1976  0.5622  0.2801
  418TMC3     O 6293   1.097   0.344  17.713 -0.0917  0.0748  0.3176
  418TMC3     H 6294   0.919   0.191  17.718  0.1579 -0.4864 -0.3048
  418TMC3    H1 6295   1.084   0.280   0.345 -0.2631  0.8029  0.7207
  418TMC3    H2 6296   0.913   4.634   0.283  0.6890  0.5400  0.9665
  418TMC3    C7 6297   1.064   0.027   0.441 -0.8451 -1.0667 -0.1042
  418TMC3    C8 6298   0.883   4.674   0.016  0.0968  0.2491  0.0384
  418TMC3    O1 6299   1.072   4.640   0.441 -0.6625  0.4351 -0.3892
  418TMC3    O2 6300   0.819   4.717  17.670  0.0734  0.1875 -0.2887
  419MPD2     C 6301   0.394   2.957  11.950  0.6016 -0.0299 -0.2253
  419MPD2    C1 6302   0.302   2.858  11.985  0.2679 -0.5500 -0.0166
  419MPD2    C2 6303   0.238   2.861  12.114 -0.5738  0.3741  0.5653
  419MPD2    C3 6304   0.268   2.953  12.214  0.6421  0.5159 -0.1717
  419MPD2    C4 6305   0.349   3.050  12.174 -0.2354 -0.0541  0.3312
  419MPD2    C5 6306   0.417   3.049  12.053  0.0157  0.5408 -0.4635
  419MPD2     H 6307   0.163   2.786  12.136 -2.0437  1.8875  0.7451
  419MPD2    H1 6308   0.392   3.121  12.244  2.9626 -1.3640 -0.2852
  419MPD2    H2 6309   0.449   2.970  11.858  0.2136 -0.8541 -0.5671
  419MPD2    H3 6310   0.482   3.133  12.037 -0.4330  0.5865 -2.0224
  419MPD2     N 6311   0.211   2.940  12.343 -0.6422 -0.4481 -0.0727
  419MPD2    H5 6312   0.170   2.849  12.358  0.5392 -0.8679  0.5840
  419MPD2    N1 6313   0.260   2.751  11.893  0.0970  0.0839 -0.2303
  419MPD2    H7 6314   0.177   2.695  11.907  1.8781 -2.1103  1.4331
  420TMC3    C1 6315   0.144   2.997  12.553  0.2855 -0.8336  0.9916
  420TMC3    C2 6316   0.041   2.910  12.549 -0.2617 -0.0425  0.4888
  420TMC3    C3 6317   4.688   2.898  12.650  0.1193  0.0514 -0.6069
  420TMC3    C4 6318   0.162   3.064  12.668  0.1111 -0.0213  0.6912
  420TMC3    C5 6319   0.070   3.063  12.769 -0.4182 -0.8233 -0.2661
  420TMC3    C6 6320   4.701   2.977  12.757  0.2968 -0.1022 -0.0287
  420TMC3     C 6321   0.214   3.042  12.437 -0.6202 -0.2091 -0.1175
  420TMC3     O 6322   0.277   3.148  12.450  0.0772  0.5938  0.3392
  420TMC3     H 6323   0.016   2.847  12.464  1.1078  1.7027 -1.2080
  420TMC3    H1 6324   0.243   3.136  12.677  0.9638 -1.0681  1.4711
  420TMC3    H2 6325   4.640   2.962  12.845  0.2072  0.0262 -0.0706
  420TMC3    C7 6326   0.110   3.077  12.911  0.1359 -0.1946  0.0820
  420TMC3    C8 6327   4.627   2.775  12.667 -0.7413  0.8945  0.1302
  420TMC3    O1 6328   0.201   3.007  12.950 -0.1120  0.3612  0.2223
  420TMC3    O2 6329   4.526   2.776  12.734  0.3061 -0.2821  0.3814
  421TMC3    C1 6330   1.025   4.492  13.838 -0.0995  0.2043  0.1347
  421TMC3    C2 6331   1.059   4.616  13.877 -0.5825 -0.5015 -0.5012
  421TMC3    C3 6332   1.125   4.629  13.997  0.5130 -0.5863 -0.5015
  421TMC3    C4 6333   1.050   4.374  13.913  0.3141 -0.3060  0.3013
  421TMC3    C5 6334   1.118   4.389  14.032 -0.6434 -0.0938 -0.0482
  421TMC3    C6 6335   1.148   4.520  14.078  0.3220 -0.0368  0.1786
  421TMC3     C 6336   1.001   4.478  13.694  0.7908 -0.2180  0.0224
  421TMC3     O 6337   1.062   4.554  13.623 -0.5446 -0.5707  0.1807
  421TMC3     H 6338   1.041   4.706  13.820 -1.2921 -0.6001 -0.4344
  421TMC3    H1 6339   1.052   4.277  13.864  2.1407 -0.5321  0.8391
  421TMC3    H2 6340   1.206   4.527  14.169 -0.9083  1.5899  0.8391
  421TMC3    C7 6341   1.230   4.296  14.048 -0.2276 -0.4853 -0.4682
  421TMC3    C8 6342   1.216   0.003  14.010  0.2175  0.0748  0.3485
  421TMC3    O1 6343   1.331   4.334  14.107 -0.0074 -0.3154 -0.0218
  421TMC3    O2 6344   1.239   0.070  13.912 -0.1544  0.2502  1.3526
  422TMC3    C1 6345   3.519   1.005  12.365  0.2480  0.1178  0.3310
  422TMC3    C2 6346   3.581   1.100  12.442  0.2488  0.5231 -0.0950
  422TMC3    C3 6347   3.503   1.150  12.544 -0.7481 -0.4289  0.6141
  422TMC3    C4 6348   3.390   0.968  12.372  0.1277 -0.2000  0.0981
  422TMC3    C5 6349   3.316   1.021  12.473  0.0852  0.6705 -0.6831
  422TMC3    C6 6350   3.371   1.113  12.563  0.7436  0.2306  0.0447
  422TMC3     C 6351   3.594   0.944  12.259  0.2744 -0.0104 -0.3675
  422TMC3     O 6352   3.708   0.906  12.289 -0.2806  0.1919  0.1409
  422TMC3     H 6353   3.685   1.129  12.428  0.1351  0.7758 -0.4258
  422TMC3    H1 6354   3.337   0.904  12.303  1.1891  2.8064 -3.5250
  422TMC3    H2 6355   3.313   1.162  12.641  0.3501 -1.0000  0.5254
  422TMC3    C7 6356   3.187   0.961  12.495 -0.1544  0.5779 -0.4273
  422TMC3    C8 6357   3.547   1.274  12.605  0.6819  0.5346 -0.1335
  422TMC3    O1 6358   3.156   0.864  12.431  0.3501  0.5543  0.5448
  422TMC3    O2 6359   3.658   1.305  12.577 -0.0325  0.0416  0.0716
  423MPD2     C 6360   4.597   1.996   0.445 -0.6471  0.2739  0.0034
  423MPD2    C1 6361   4.641   1.870   0.498 -0.0644 -1.1654  0.3867
  423MPD2    C2 6362   4.673   1.769   0.407 -0.1591  0.0577 -0.0041
  423MPD2    C3 6363   4.667   1.794   0.270 -0.4567  0.7688 -0.0092
  423MPD2    C4 6364   4.621   1.915   0.229 -0.1611  0.0579  0.1555
  423MPD2    C5 6365   4.576   2.017   0.312  0.6170 -0.2954 -0.1811
  423MPD2     H 6366   4.699   1.669   0.440  1.5858  1.5438  3.0528
  423MPD2    H1 6367   4.614   1.929   0.122  2.1840 -0.9893 -0.1304
  423MPD2    H2 6368   4.572   2.078   0.511 -0.3175 -0.4060  0.9824
  423MPD2    H3 6369   4.551   2.112   0.268  0.9696 -0.6502 -1.1340
  423MPD2     N 6370   4.711   1.702   0.168  0.3778 -0.4441 -0.7484
  423MPD2    H5 6371   4.711   1.746   0.076  0.3509 -5.1167 -2.9806
  423MPD2    N1 6372   4.657   1.843   0.636 -0.8026 -0.1574  0.8604
  423MPD2    H7 6373   4.674   1.747   0.665 -1.4361 -1.6644 -3.7507
  424TMC3    C1 6374   4.734   1.893   0.850  0.0003  0.3080 -0.1605
  424TMC3    C2 6375   0.099   1.809   0.834  0.0087 -0.6966  0.2428
  424TMC3    C3 6376   0.212   1.826   0.910 -0.7567  0.7226 -0.1385
  424TMC3    C4 6377   4.736   1.994   0.947  0.1282 -0.4089  0.9432
  424TMC3    C5 6378   0.116   1.994   1.025 -0.2784 -0.6608 -0.4819
  424TMC3    C6 6379   0.230   1.924   1.006  0.2638  0.0387 -0.4679
  424TMC3     C 6380   4.657   1.938   0.733  0.2590  0.1134 -0.2039
  424TMC3     O 6381   4.635   2.058   0.728  0.6008 -0.1392  0.0036
  424TMC3     H 6382   0.099   1.731   0.759 -0.8893  0.6159 -1.1120
  424TMC3    H1 6383   4.643   2.036   0.984 -0.5070 -0.2222 -0.8696
  424TMC3    H2 6384   0.298   1.903   1.088  0.8317  0.1674 -0.8992
  424TMC3    C7 6385   0.138   2.098   1.120  0.3519 -0.2539 -0.1011
  424TMC3    C8 6386   0.326   1.747   0.877 -1.0443  0.3935  0.0462
  424TMC3    O1 6387   0.234   2.106   1.198  0.5423 -0.3744  0.8378
  424TMC3    O2 6388   0.297   1.641   0.823 -0.2871  0.4858  0.5675
  425MPD2     C 6389   3.971   1.242  17.180  0.8928  0.2738 -0.5598
  425MPD2    C1 6390   3.898   1.140  17.237  0.1436  0.5211 -0.0932
  425MPD2    C2 6391   3.777   1.166  17.290  0.0349 -0.3168  0.6017
  425MPD2    C3 6392   3.722   1.293  17.287  0.2521  0.0526 -0.2901
  425MPD2    C4 6393   3.790   1.393  17.219 -0.0495 -0.5853 -0.5813
  425MPD2    C5 6394   3.915   1.365  17.164 -0.0326 -0.2027 -0.7294
  425MPD2     H 6395   3.723   1.089  17.345 -0.0038  0.0123  1.0273
  425MPD2    H1 6396   3.740   1.488  17.205  0.3054 -0.4866 -1.1898
  425MPD2    H2 6397   4.060   1.229  17.120  1.9473 -0.3306  1.1457
  425MPD2    H3 6398   3.975   1.441  17.116 -0.0033  0.1497 -0.1422
  425MPD2     N 6399   3.597   1.304  17.348  0.5721  0.1896 -0.3292
  425MPD2    H5 6400   3.581   1.228  17.413 -1.6026  0.5458 -0.4374
  425MPD2    N1 6401   3.951   1.007  17.237  0.1397 -0.0936 -0.0823
  425MPD2    H7 6402   4.027   0.989  17.173  0.8828  2.2208  0.1436
  426TMC3    C1 6403   3.977   0.791  17.306 -1.0898  0.1633 -0.6375
  426TMC3    C2 6404   3.961   0.736  17.180 -0.9918 -0.3154 -0.0876
  426TMC3    C3 6405   4.034   0.623  17.149  0.2816 -0.4339 -0.2885
  426TMC3    C4 6406   4.037   0.724  17.409 -0.4998  0.5129  0.4337
  426TMC3    C5 6407   4.099   0.606  17.379 -0.4125  0.1716  0.8895
  426TMC3    C6 6408   4.104   0.563  17.246 -0.4334 -0.6827 -0.3486
  426TMC3     C 6409   3.920   0.921  17.337  0.0961  0.1235 -0.6815
  426TMC3     O 6410   3.887   0.949  17.449 -0.1360  0.4308 -0.1980
  426TMC3     H 6411   3.922   0.788  17.093 -0.1566 -0.4206 -0.5202
  426TMC3    H1 6412   4.039   0.762  17.510  0.6519 -0.5470  0.8196
  426TMC3    H2 6413   4.165   0.475  17.230  0.9763  0.1531  0.3203
  426TMC3    C7 6414   4.131   0.503  17.478 -0.3718  0.1705  0.5279
  426TMC3    C8 6415   3.977   0.525  17.066 -0.4923 -0.0938 -0.2848
  426TMC3    O1 6416   4.190   0.400  17.456 -0.5269 -0.0104 -0.7388
  426TMC3    O2 6417   4.050   0.434  17.029  0.0310  0.8085 -0.9433
  427MPD2     C 6418   2.453   3.327  15.337 -0.9113 -0.3207 -0.2105
  427MPD2    C1 6419   2.400   3.197  15.342 -0.7715 -0.0364 -0.5016
  427MPD2    C2 6420   2.270   3.177  15.298 -0.0269 -0.2654 -0.0053
  427MPD2    C3 6421   2.188   3.283  15.268 -0.0030  0.4931  0.1909
  427MPD2    C4 6422   2.244   3.410  15.263 -0.2031  0.0527  0.3048
  427MPD2    C5 6423   2.371   3.431  15.300 -0.6490  0.5610  1.2265
  427MPD2     H 6424   2.234   3.075  15.287  0.7021 -0.3144 -2.1007
  427MPD2    H1 6425   2.189   3.496  15.228 -0.7071 -0.4378 -0.1003
  427MPD2    H2 6426   2.555   3.355  15.359 -1.3084  1.1071 -0.1509
  427MPD2    H3 6427   2.407   3.533  15.291 -1.2398  0.6484 -0.3248
  427MPD2     N 6428   2.054   3.268  15.215  0.3459  0.1091  0.0284
  427MPD2    H5 6429   1.995   3.345  15.186 -0.4084  0.1860  1.7673
  427MPD2    N1 6430   2.474   3.084  15.386  0.3004 -0.5130 -0.0185
  427MPD2    H7 6431   2.422   2.997  15.383 -1.7264  0.6431  1.9265
  428TMC3    C1 6432   2.653   2.949  15.453 -0.7798  0.2852 -0.1679
  428TMC3    C2 6433   2.588   2.846  15.523 -0.1845  1.1123  0.0394
  428TMC3    C3 6434   2.657   2.749  15.590 -0.7138  0.4921 -0.5379
  428TMC3    C4 6435   2.791   2.938  15.450 -0.1668 -0.1968  0.4617
  428TMC3    C5 6436   2.858   2.844  15.525 -0.1439 -0.2305 -0.4912
  428TMC3    C6 6437   2.791   2.748  15.595  0.6940 -0.2789 -0.7979
  428TMC3     C 6438   2.604   3.082  15.425  0.7370  0.3291  0.1049
  428TMC3     O 6439   2.686   3.173  15.427 -0.3207  0.3863  0.0861
  428TMC3     H 6440   2.485   2.852  15.555 -0.0599  0.0272  0.6656
  428TMC3    H1 6441   2.841   2.996  15.374  2.1363  0.0272  2.1444
  428TMC3    H2 6442   2.841   2.664  15.643 -2.5823 -0.5780  2.1019
  428TMC3    C7 6443   2.996   2.818  15.495 -0.5171  0.0600 -0.0867
  428TMC3    C8 6444   2.585   2.620  15.624  0.0316  0.5469 -0.3564
  428TMC3    O1 6445   3.062   2.756  15.580 -0.4392 -0.5819  1.4069
  428TMC3    O2 6446   2.653   2.536  15.681 -0.8821 -0.3281 -0.2529
  429MPD2     C 6447   3.646   3.439  17.556  0.1295 -0.1362 -0.7464
  429MPD2    C1 6448   3.696   3.339  17.473  0.1189  0.0542  0.0911
  429MPD2    C2 6449   3.753   3.384  17.354 -0.2226 -0.0233  0.5319
  429MPD2    C3 6450   3.774   3.516  17.320  0.2805 -0.2368 -0.2378
  429MPD2    C4 6451   3.725   3.610  17.410 -0.5096 -0.2725  0.5197
  429MPD2    C5 6452   3.670   3.570  17.528 -1.1102 -0.4859 -0.0563
  429MPD2     H 6453   3.790   3.312  17.282 -1.0166  0.7879 -0.6822
  429MPD2    H1 6454   3.738   3.716  17.392 -0.8039 -0.4613 -0.8104
  429MPD2    H2 6455   3.582   3.406  17.637 -0.4607  1.3072 -0.6295
  429MPD2    H3 6456   3.618   3.642  17.591  0.3954  0.7179 -0.1937
  429MPD2     N 6457   3.844   3.543  17.202 -0.1579  0.8259 -0.0117
  429MPD2    H5 6458   3.894   3.469  17.154 -1.3995 -1.0546  1.6205
  429MPD2    N1 6459   3.694   3.202  17.504 -0.0277  0.2095  0.2794
  429MPD2    H7 6460   3.720   3.137  17.431 -0.7588 -2.4008  2.3787
  430TMC3    C1 6461   3.997   3.649  17.069  0.1291  0.1126 -0.6217
  430TMC3    C2 6462   4.046   3.770  17.023  0.3728 -0.1656  0.8242
  430TMC3    C3 6463   4.134   3.764  16.918 -0.4710 -0.4638 -0.6270
  430TMC3    C4 6464   4.068   3.529  17.051 -0.8931 -0.7717 -0.3438
  430TMC3    C5 6465   4.167   3.527  16.955 -0.3258  0.6967  1.0530
  430TMC3    C6 6466   4.192   3.646  16.882  0.3444  0.0501 -0.0840
  430TMC3     C 6467   3.884   3.671  17.161  0.6683 -0.4203 -0.3679
  430TMC3     O 6468   3.864   3.783  17.210  0.1584 -0.7073  0.3895
  430TMC3     H 6469   3.994   3.863  17.044 -0.2975 -0.4067  0.2501
  430TMC3    H1 6470   4.047   3.438  17.106 -0.1593 -0.2945  0.7450
  430TMC3    H2 6471   4.270   3.647  16.806  0.8903  1.2886  0.4754
  430TMC3    C7 6472   4.151   3.411  16.869  0.0049  0.1400  0.0522
  430TMC3    C8 6473   4.093   3.825  16.797  0.5304 -0.1865  0.3907
  430TMC3    O1 6474   4.124   3.307  16.927 -0.2617 -0.2674 -0.1400
  430TMC3    O2 6475   4.128   3.769  16.691 -0.1729 -0.2125  0.2402
  431MPD2     C 6476   4.551   2.917  12.286 -0.0760 -0.0754 -0.6545
  431MPD2    C1 6477   4.592   3.018  12.204 -0.1934 -0.0738  0.6657
  431MPD2    C2 6478   4.620   3.000  12.069 -0.0711  0.3556  0.5156
  431MPD2    C3 6479   4.616   2.867  12.015  0.1582  0.0112  0.0202
  431MPD2    C4 6480   4.562   2.769  12.096  0.8755  0.1914  0.4214
  431MPD2    C5 6481   4.531   2.796  12.230 -0.1420 -0.4497 -0.6087
  431MPD2     H 6482   4.662   3.081  12.010 -1.3361 -0.6061 -1.7466
  431MPD2    H1 6483   4.561   2.666  12.064  0.8906 -0.8798  3.8723
  431MPD2    H2 6484   4.537   2.927  12.393  3.8750 -2.2528  0.0677
  431MPD2    H3 6485   4.503   2.711  12.291 -1.4287  0.8654  0.6089
  431MPD2     N 6486   4.657   2.825  11.885  0.0350 -0.4227 -0.6818
  431MPD2    H5 6487   4.647   2.728  11.859  0.5802 -0.4753 -0.7021
  431MPD2    N1 6488   4.627   3.142  12.259  0.3299 -0.1924 -0.1974
  431MPD2    H7 6489   4.672   3.208  12.197  0.4748 -2.1064 -2.1094
  432TMC3    C1 6490   0.049   2.844  11.682 -0.6104  0.4873  0.0122
  432TMC3    C2 6491   0.104   2.930  11.593 -0.5459  0.2673  0.2484
  432TMC3    C3 6492   0.223   2.897  11.530  0.7235 -0.0431  0.2975
  432TMC3    C4 6493   0.104   2.725  11.716  0.6423  0.6157  0.2051
  432TMC3    C5 6494   0.234   2.703  11.668 -0.0709 -0.8093 -0.0717
  432TMC3    C6 6495   0.284   2.779  11.561  0.3991 -0.3120 -0.1730
  432TMC3     C 6496   4.709   2.906  11.793  0.1358  0.4042 -0.2335
  432TMC3     O 6497   4.713   3.029  11.787 -0.1115  0.4621 -0.5284
  432TMC3     H 6498   0.062   3.029  11.584 -0.2024  0.4083  0.2083
  432TMC3    H1 6499   0.063   2.657  11.790  0.2402  3.1706  2.3465
  432TMC3    H2 6500   0.372   2.741  11.511  0.5618 -1.2252  0.8015
  432TMC3    C7 6501   0.328   2.729  11.774 -0.7181 -0.5460 -0.7068
  432TMC3    C8 6502   0.312   3.004  11.490  0.1890 -0.3542  0.3149
  432TMC3    O1 6503   0.436   2.769  11.741  0.3138 -0.0864 -0.3579
  432TMC3    O2 6504   0.266   3.111  11.449  0.6655  0.0501 -0.2970
  433MPD2     C 6505   3.436   2.133  11.079  0.5698  0.7703  0.1705
  433MPD2    C1 6506   3.406   2.009  11.126 -0.5245 -0.2580 -0.0622
  433MPD2    C2 6507   3.392   1.986  11.258  0.5231 -0.3761 -0.0129
  433MPD2    C3 6508   3.386   2.081  11.351  0.1708  0.6358  0.6096
  433MPD2    C4 6509   3.400   2.206  11.303 -0.3896 -0.0788 -0.5129
  433MPD2    C5 6510   3.434   2.236  11.173  0.4533  0.4576 -0.6153
  433MPD2     H 6511   3.395   1.889  11.306 -0.2203 -0.3047  0.1669
  433MPD2    H1 6512   3.396   2.297  11.362 -0.3793  0.3431 -1.1534
  433MPD2    H2 6513   3.456   2.154  10.975  0.0694  0.7847  0.0748
  433MPD2    H3 6514   3.450   2.338  11.141  1.1257  0.8199  0.8665
  433MPD2     N 6515   3.373   2.048  11.489  0.2000  0.2270  0.1932
  433MPD2    H5 6516   3.372   1.951  11.516  1.2455  0.1497 -0.0169
  433MPD2    N1 6517   3.395   1.906  11.029 -0.7146 -0.1988  0.0113
  433MPD2    H7 6518   3.420   1.932  10.934  0.8940 -0.8141  0.2719
  434TMC3    C1 6519   3.343   1.694  10.957 -0.4538 -0.5404 -0.3508
  434TMC3    C2 6520   3.415   1.581  11.002 -0.6032  0.6301  0.2347
  434TMC3    C3 6521   3.495   1.513  10.923 -0.0499 -0.4327  0.5704
  434TMC3    C4 6522   3.363   1.736  10.834  0.1155  0.6422 -0.2065
  434TMC3    C5 6523   3.452   1.675  10.752 -0.3815 -0.2980 -0.1959
  434TMC3    C6 6524   3.524   1.559  10.795 -0.4613 -0.8220  0.4362
  434TMC3     C 6525   3.333   1.787  11.065 -0.4268  0.4470 -0.4642
  434TMC3     O 6526   3.288   1.740  11.169  0.4641 -0.0636  0.4091
  434TMC3     H 6527   3.416   1.558  11.108 -1.2318 -0.1558  0.0704
  434TMC3    H1 6528   3.309   1.827  10.808 -1.3446 -0.6260 -1.6402
  434TMC3    H2 6529   3.595   1.504  10.735  1.2926  2.2307 -0.2592
  434TMC3    C7 6530   3.378   1.649  10.628  0.4580 -0.5331 -0.2676
  434TMC3    C8 6531   3.549   1.393  10.981 -0.1257 -0.4515 -0.3074
  434TMC3    O1 6532   3.287   1.721  10.595  0.0256 -0.1860 -0.3741
  434TMC3    O2 6533   3.491   1.349  11.079 -0.0298 -0.5155  0.2946
  435MPD2     C 6534   1.090   1.966  15.414  0.4551 -0.0887 -0.3794
  435MPD2    C1 6535   1.089   2.013  15.541  0.3649 -0.0180  0.0336
  435MPD2    C2 6536   1.157   1.946  15.640 -0.5539  0.2210 -0.0522
  435MPD2    C3 6537   1.238   1.840  15.605  0.1503 -0.0596 -0.8275
  435MPD2    C4 6538   1.238   1.789  15.474  0.1763  0.9216  0.5762
  435MPD2    C5 6539   1.166   1.854  15.382 -0.4338  0.7417 -0.4195
  435MPD2     H 6540   1.158   1.978  15.743 -2.0945  0.2154 -0.0414
  435MPD2    H1 6541   1.300   1.704  15.446 -0.8397  0.0349  1.0237
  435MPD2    H2 6542   1.035   2.007  15.330  0.1249  0.2751  0.0112
  435MPD2    H3 6543   1.171   1.824  15.278 -0.9840  0.8134 -0.4666
  435MPD2     N 6544   1.301   1.767  15.715 -0.2603  0.3988  0.2441
  435MPD2    H5 6545   1.276   1.802  15.807  0.4527 -1.3488  1.1018
  435MPD2    N1 6546   0.997   2.118  15.575  0.4885  0.1319 -0.2979
  435MPD2    H7 6547   0.928   2.139  15.504 -0.1619  2.6573  1.0863
  436TMC3    C1 6548   0.733   2.406  15.852 -0.2791 -0.3919 -0.5973
  436TMC3    C2 6549   0.848   2.343  15.824  0.1535  0.2359 -0.8250
  436TMC3    C3 6550   0.873   2.284  15.703 -0.2717 -0.7397 -1.3163
  436TMC3    C4 6551   0.643   2.419  15.748 -0.2500 -0.0361  0.0374
  436TMC3    C5 6552   0.668   2.363  15.632 -0.1801 -0.4203  0.0722
  436TMC3    C6 6553   0.781   2.295  15.599 -0.2903  0.3898  0.1634
  436TMC3     C 6554   0.699   2.406  15.998  0.9431 -0.2425 -0.0781
  436TMC3     O 6555   0.795   2.412  16.072 -0.1186  0.3511  0.4900
  436TMC3     H 6556   0.926   2.325  15.898 -1.6147 -0.7536  0.7878
  436TMC3    H1 6557   0.550   2.471  15.769 -0.8130 -0.6045 -1.0158
  436TMC3    H2 6558   0.792   2.269  15.495 -0.4228  1.7013 -0.1823
  436TMC3    C7 6559   0.551   2.346  15.544  0.3857  0.7322 -0.1551
  436TMC3    C8 6560   0.988   2.184  15.694 -0.5067 -0.5338  0.3524
  436TMC3    O1 6561   0.460   2.425  15.566  0.1306 -0.2759  0.5599
  436TMC3    O2 6562   1.059   2.191  15.788  0.2792  0.3140  0.4475
  437TMC3    C1 6563   3.864   3.718  12.385 -0.0873  0.8724  0.2643
  437TMC3    C2 6564   3.752   3.787  12.330  0.4749 -0.3430 -0.7052
  437TMC3    C3 6565   3.780   3.883  12.229  0.6627 -0.2973  0.1260
  437TMC3    C4 6566   3.988   3.755  12.355  0.3848  0.2239 -0.0389
  437TMC3    C5 6567   4.010   3.853  12.264 -0.6833 -0.3806 -0.2536
  437TMC3    C6 6568   3.909   3.927  12.198 -0.0051 -0.3192 -1.1425
  437TMC3     C 6569   3.851   3.590  12.453  0.1525 -0.0783  0.0013
  437TMC3     O 6570   3.950   3.522  12.464 -0.5863 -0.2697  0.3693
  437TMC3     H 6571   3.655   3.743  12.348 -0.6991  2.7226  0.4793
  437TMC3    H1 6572   4.068   3.687  12.385  0.3087  0.3214  0.3916
  437TMC3    H2 6573   3.942   4.004  12.129 -3.5501  2.7267  0.5686
  437TMC3    C7 6574   4.131   3.850  12.182 -0.4194 -1.0963  0.6565
  437TMC3    C8 6575   3.668   3.916  12.148  0.3116  0.5529 -0.3667
  437TMC3    O1 6576   4.116   3.867  12.063  0.0046 -0.0538  0.3519
  437TMC3    O2 6577   3.574   3.836  12.156  0.0785  0.4326 -0.0773
  438MPD2     C 6578   1.593   0.114  16.491  0.1000  0.1148 -0.0921
  438MPD2    C1 6579   1.666   0.011  16.544 -0.6842 -0.2394 -0.8994
  438MPD2    C2 6580   1.669   4.737  16.682 -0.2402  0.4968 -0.8892
  438MPD2    C3 6581   1.593   0.072  16.765 -0.0040 -0.4575  0.0319
  438MPD2    C4 6582   1.521   0.179  16.720 -0.1781 -0.9777  0.8595
  438MPD2    C5 6583   1.526   0.194  16.579 -0.6192  0.1946  0.5844
  438MPD2     H 6584   1.736   4.662  16.722 -0.5902  1.0706  0.7702
  438MPD2    H1 6585   1.464   0.241  16.789 -0.9130 -0.4181 -0.2498
  438MPD2    H2 6586   1.574   0.139  16.388  0.5790 -2.3612 -0.7691
  438MPD2    H3 6587   1.470   0.278  16.541  1.7799  2.0021  1.0347
  438MPD2     N 6588   1.599   0.058  16.903  0.3100 -0.3916 -0.2048
  438MPD2    H5 6589   1.539   0.119  16.958 -1.8735 -2.0054 -0.8024
  438MPD2    N1 6590   1.749   4.659  16.467 -0.4347 -0.0948 -0.5095
  438MPD2    H7 6591   1.808   4.592  16.515  1.4220  1.2347 -0.9158
  439TMC3    C1 6592   1.866   4.576  16.276  0.2631  0.3898 -0.0252
  439TMC3    C2 6593   1.833   4.457  16.221  0.5759 -0.2970 -0.2885
  439TMC3    C3 6594   1.906   4.344  16.238  0.2836 -0.0229  0.1942
  439TMC3    C4 6595   1.982   4.589  16.346  0.0758  0.2797  0.4824
  439TMC3    C5 6596   2.057   4.473  16.361  0.6484  0.3617 -0.6140
  439TMC3    C6 6597   2.025   4.353  16.311  0.0725 -0.5024 -0.1791
  439TMC3     C 6598   1.760   4.662  16.326 -0.8493 -0.5367  0.0354
  439TMC3     O 6599   1.668   4.699  16.257 -0.0652 -0.0643  0.8429
  439TMC3     H 6600   1.737   4.444  16.174  0.7394  3.5711 -1.6998
  439TMC3    H1 6601   2.018   4.687  16.378  1.6032  0.0625 -0.5944
  439TMC3    H2 6602   2.085   4.265  16.334 -0.1598 -0.5838  0.1066
  439TMC3    C7 6603   2.189   4.479  16.422  0.2439  0.1184 -0.0849
  439TMC3    C8 6604   1.949   4.278  16.115 -0.5022  0.1739  0.2336
  439TMC3    O1 6605   2.256   4.381  16.435  0.1360 -0.0429 -0.4964
  439TMC3    O2 6606   2.011   4.172  16.125 -0.4553  0.1580 -0.2260
  440MPD2     C 6607   0.447   0.069  14.596  0.0298 -0.0358  0.0670
  440MPD2    C1 6608   0.515   0.143  14.694 -0.6316 -0.1982  0.0643
  440MPD2    C2 6609   0.621   0.093  14.765  0.4979  0.0587 -0.2946
  440MPD2    C3 6610   0.661   4.697  14.742  0.0213 -0.0106 -0.4282
  440MPD2    C4 6611   0.588   4.618  14.660 -0.7244 -0.0719  0.4110
  440MPD2    C5 6612   0.483   4.673  14.576  0.0271 -0.5884  0.5622
  440MPD2     H 6613   0.667   0.141  14.850 -0.4237  3.8750 -1.9491
  440MPD2    H1 6614   0.615   4.515  14.639  2.6575  1.1848 -1.4378
  440MPD2    H2 6615   0.370   0.111  14.532 -0.0873  0.1873  0.3586
  440MPD2    H3 6616   0.418   4.606  14.520 -2.0046  1.4942  0.3965
  440MPD2     N 6617   0.770   4.648  14.813  0.3582  0.0155  0.5194
  440MPD2    H5 6618   0.782   4.547  14.820  3.3081  0.3019 -0.5296
  440MPD2    N1 6619   0.483   0.277  14.719 -0.3047 -0.3205 -0.1201
  440MPD2    H7 6620   0.541   0.324  14.788  0.8633  1.7573 -2.5107
  441TMC3    C1 6621   0.977   4.660  14.934 -0.3907  0.1886  0.1361
  441TMC3    C2 6622   1.087   0.001  14.946 -0.3253 -0.2030 -0.6556
  441TMC3    C3 6623   1.146   0.010  15.070 -0.2963 -0.0282  0.1418
  441TMC3    C4 6624   0.932   4.587  15.046 -0.0715 -0.5617  0.2761
  441TMC3    C5 6625   1.011   4.586  15.156  0.3466  0.3762 -0.5479
  441TMC3    C6 6626   1.123   4.659  15.172 -0.2735 -1.3535  0.6012
  441TMC3     C 6627   0.874   4.728  14.860 -0.4454  0.2425 -0.1859
  441TMC3     O 6628   0.882   0.116  14.864 -0.1506  0.2551 -0.8861
  441TMC3     H 6629   1.099   0.072  14.865 -0.5079  0.2707 -0.2670
  441TMC3    H1 6630   0.848   4.519  15.032 -1.6037  0.7670  2.9847
  441TMC3    H2 6631   1.155   4.680  15.273  0.4442 -1.3478  0.3743
  441TMC3    C7 6632   0.961   4.504  15.262  0.2430 -0.0972 -0.9677
  441TMC3    C8 6633   1.193   0.143  15.093  0.7331  0.9921  0.3828
  441TMC3    O1 6634   0.851   4.466  15.268  0.4503  0.4002 -0.0338
  441TMC3    O2 6635   1.273   0.145  15.186  0.1590 -0.0335 -0.0789
  442MPD2     C 6636   3.802   0.675  16.423 -0.2716 -0.5227  0.0244
  442MPD2    C1 6637   3.685   0.644  16.479  0.0627 -0.3918 -0.1363
  442MPD2    C2 6638   3.631   0.515  16.459  0.6084  0.3929  0.1545
  442MPD2    C3 6639   3.686   0.427  16.366 -0.0555  0.0225  0.4283
  442MPD2    C4 6640   3.800   0.465  16.300 -0.6048  0.1075  0.1683
  442MPD2    C5 6641   3.846   0.591  16.330 -1.2662 -0.7650  0.1266
  442MPD2     H 6642   3.536   0.497  16.507  0.6197  0.0024  0.0304
  442MPD2    H1 6643   3.849   0.393  16.236 -1.3944  0.2012 -0.5401
  442MPD2    H2 6644   3.856   0.768  16.440  1.0771 -1.6260  1.8264
  442MPD2    H3 6645   3.940   0.617  16.283 -1.6485  0.3581 -0.0073
  442MPD2     N 6646   3.636   0.295  16.336  0.0739  0.1592  0.1996
  442MPD2    H5 6647   3.687   0.232  16.274  3.2439  1.3045  1.6362
  442MPD2    N1 6648   3.610   0.730  16.560  0.5932 -0.0729  0.0892
  442MPD2    H7 6649   3.521   0.696  16.595  0.4895  1.4906  1.3299
  443TMC3    C1 6650   3.537   0.923  16.660  0.5443  0.2277 -0.2469
  443TMC3    C2 6651   3.493   1.036  16.612 -0.5025  0.5214  0.1785
  443TMC3    C3 6652   3.370   1.081  16.669  0.5848  0.3640  0.9358
  443TMC3    C4 6653   3.491   0.867  16.776  0.0832  0.2359  0.1347
  443TMC3    C5 6654   3.387   0.922  16.842 -0.2700 -0.1474  0.8328
  443TMC3    C6 6655   3.324   1.033  16.791 -0.8136 -0.4541  0.7365
  443TMC3     C 6656   3.642   0.858  16.585  0.0736  0.6871 -0.7300
  443TMC3     O 6657   3.721   0.926  16.520  0.8028 -0.0419  0.3842
  443TMC3     H 6658   3.541   1.089  16.531  0.6439  0.2652  0.6917
  443TMC3    H1 6659   3.537   0.778  16.817 -2.3466  0.1226  2.6486
  443TMC3    H2 6660   3.232   1.067  16.838 -1.4861  0.3349 -1.1255
  443TMC3    C7 6661   3.316   0.839  16.936  0.2967 -0.1920 -0.7101
  443TMC3    C8 6662   3.269   1.090  16.564  0.4499 -0.2839 -0.2712
  443TMC3    O1 6663   3.351   0.724  16.950  0.0300 -0.0993  0.1778
  443TMC3    O2 6664   3.166   1.027  16.583 -0.0480  0.3645  0.2974
  444MPD2     C 6665   3.755   0.292  17.365  0.0826 -0.3006 -0.4364
  444MPD2    C1 6666   3.659   0.219  17.302  0.3419  0.4505  0.4944
  444MPD2    C2 6667   3.689   0.113  17.220 -0.0721  0.2890 -0.0915
  444MPD2    C3 6668   3.821   0.105  17.182  0.1281 -0.1191  0.1222
  444MPD2    C4 6669   3.922   0.182  17.244  0.2129 -0.0092  0.0137
  444MPD2    C5 6670   3.881   0.266  17.341 -0.6218 -0.3248 -0.2646
  444MPD2     H 6671   3.612   0.045  17.183 -1.4814  1.9273 -0.1873
  444MPD2    H1 6672   4.028   0.186  17.222  0.1697  2.1801  0.1556
  444MPD2    H2 6673   3.731   0.379  17.425  1.2448  0.8090 -1.5704
  444MPD2    H3 6674   3.961   0.323  17.387  0.5013 -1.7794 -0.3912
  444MPD2     N 6675   3.844   0.028  17.068 -0.3836  0.2455  1.1015
  444MPD2    H5 6676   3.766   4.711  17.033  0.9930 -0.2735 -1.1586
  444MPD2    N1 6677   3.522   0.239  17.330  0.0770 -0.3230  0.1417
  444MPD2    H7 6678   3.459   0.177  17.280  0.4381 -2.0475  1.8304
  445TMC3    C1 6679   3.961   4.640  16.907 -0.0747  0.4717 -0.9692
  445TMC3    C2 6680   3.839   4.584  16.862  0.0455  0.0637  0.4897
  445TMC3    C3 6681   3.844   4.484  16.774 -0.7025 -0.7303  0.1646
  445TMC3    C4 6682   4.079   4.592  16.856 -0.2260 -0.2935 -0.4929
  445TMC3    C5 6683   4.071   4.486  16.766 -0.1604 -0.1881  0.0157
  445TMC3    C6 6684   3.954   4.419  16.738  0.1854  0.2386  0.2837
  445TMC3     C 6685   3.971   4.738  17.013 -0.5673 -0.5687 -0.2967
  445TMC3     O 6686   4.084   0.021  17.056 -0.0176 -0.3944  0.3916
  445TMC3     H 6687   3.746   4.607  16.914  0.3877  0.0698  1.0917
  445TMC3    H1 6688   4.179   4.619  16.889 -1.2207  2.1180  0.5743
  445TMC3    H2 6689   3.940   4.343  16.662  1.2040  0.2936  0.0364
  445TMC3    C7 6690   4.197   4.435  16.704  0.2666  0.2246  0.3723
  445TMC3    C8 6691   3.720   4.432  16.720 -0.4036  0.0347 -0.1765
  445TMC3    O1 6692   4.288   4.512  16.707  0.2546  0.3083 -0.2131
  445TMC3    O2 6693   3.629   4.407  16.797  0.3648 -0.3662  0.3090
  446MPD2     C 6694   3.224   1.324  11.570 -1.0680  0.5708  0.3612
  446MPD2    C1 6695   3.245   1.280  11.446 -0.1060  0.2596 -1.0085
  446MPD2    C2 6696   3.357   1.310  11.382 -0.5127  0.5792 -0.0350
  446MPD2    C3 6697   3.446   1.401  11.428 -0.1684  0.8276 -0.2835
  446MPD2    C4 6698   3.430   1.456  11.551 -0.2685  0.4046 -0.2161
  446MPD2    C5 6699   3.320   1.412  11.624  0.1264  0.3110  0.0203
  446MPD2     H 6700   3.368   1.260  11.287  0.7537 -1.6924  1.3133
  446MPD2    H1 6701   3.501   1.517  11.606  1.2095 -1.7640  0.2816
  446MPD2    H2 6702   3.139   1.298  11.632 -1.5617  2.2213  0.3744
  446MPD2    H3 6703   3.318   1.444  11.727  0.5667  1.6238 -0.3783
  446MPD2     N 6704   3.558   1.435  11.342  0.4596 -0.3266 -0.2409
  446MPD2    H5 6705   3.567   1.377  11.259  0.9960 -0.9769  0.2734
  446MPD2    N1 6706   3.157   1.198  11.378  0.1317 -0.1372 -0.5165
  446MPD2    H7 6707   3.174   1.164  11.284  0.6839 -1.6029  0.1171
  447TMC3    C1 6708   3.750   1.538  11.265  0.4807  0.5958  0.5052
  447TMC3    C2 6709   3.766   1.630  11.165 -0.2850 -0.2102 -0.1384
  447TMC3    C3 6710   3.872   1.631  11.087  0.2047  0.7262 -0.2436
  447TMC3    C4 6711   3.842   1.447  11.295  0.4150 -0.4493  0.8638
  447TMC3    C5 6712   3.957   1.451  11.215 -0.9581  1.3858  0.4345
  447TMC3    C6 6713   3.974   1.543  11.120 -0.2618  0.4770  0.2590
  447TMC3     C 6714   3.646   1.534  11.360  0.6054 -0.0916 -0.2952
  447TMC3     O 6715   3.664   1.604  11.460  0.4344  0.6589 -0.3485
  447TMC3     H 6716   3.687   1.703  11.151 -0.6049 -0.2076  1.6893
  447TMC3    H1 6717   3.825   1.377  11.376  1.4362 -1.8643 -0.1560
  447TMC3    H2 6718   4.064   1.533  11.060  0.5693  0.7043  1.4660
  447TMC3    C7 6719   4.072   1.382  11.270 -0.0423 -0.0788 -0.0684
  447TMC3    C8 6720   3.872   1.712  10.966 -0.0069  0.5049 -0.1361
  447TMC3    O1 6721   4.150   1.342  11.181  0.4851  0.0504 -0.5215
  447TMC3    O2 6722   3.766   1.748  10.922  0.2075  0.2606  0.3814
  448TMC3    C1 6723   1.514   1.279  17.149 -0.9851  0.7348  0.3222
  448TMC3    C2 6724   1.536   1.238  17.024  0.3500 -0.4345  0.0567
  448TMC3    C3 6725   1.636   1.146  17.015  0.9705  0.1129 -0.6138
  448TMC3    C4 6726   1.579   1.238  17.260 -0.0631 -0.1553  0.4617
  448TMC3    C5 6727   1.678   1.150  17.246  0.4671  0.3957  0.4291
  448TMC3    C6 6728   1.708   1.104  17.127 -0.0186  0.2065  0.1490
  448TMC3     C 6729   1.430   1.395  17.165 -0.5360 -0.4452  0.2253
  448TMC3     O 6730   1.379   1.399  17.273 -0.1106 -0.2423 -0.2068
  448TMC3     H 6731   1.464   1.275  16.952 -0.1033  0.1453  0.8006
  448TMC3    H1 6732   1.556   1.279  17.358  0.3823 -1.7774  1.2571
  448TMC3    H2 6733   1.790   1.033  17.118 -0.5304 -0.3647 -0.0671
  448TMC3    C7 6734   1.767   1.110  17.351 -0.0758 -0.1239  0.4847
  448TMC3    C8 6735   1.664   1.069  16.897  0.4772 -0.5872  0.6706
  448TMC3    O1 6736   1.878   1.081  17.313  0.0922  0.0539  0.3731
  448TMC3    O2 6737   1.749   0.980  16.893 -0.1986  0.4050  0.0939
  449MPD2     C 6738   3.434   4.010  13.852 -0.0038  0.2761  0.4874
  449MPD2    C1 6739   3.318   4.029  13.778 -0.1895 -0.0635 -0.2941
  449MPD2    C2 6740   3.198   4.031  13.842  0.8683 -0.2104  0.3634
  449MPD2    C3 6741   3.193   4.013  13.982  0.1890 -0.0884 -0.3428
  449MPD2    C4 6742   3.308   4.006  14.055  0.1164  0.4819  0.1668
  449MPD2    C5 6743   3.429   4.008  13.990 -0.2118  0.0517 -1.3028
  449MPD2     H 6744   3.107   4.049  13.787  0.0149  2.4749  2.6652
  449MPD2    H1 6745   3.304   3.999  14.163  1.7452 -1.4011  0.0965
  449MPD2    H2 6746   3.529   4.010  13.799  0.3476 -0.7046  1.1249
  449MPD2    H3 6747   3.520   4.000  14.049 -0.7117  0.1424 -0.5178
  449MPD2     N 6748   3.064   4.012  14.038  0.4080 -0.3752 -0.2888
  449MPD2    H5 6749   2.995   4.029  13.965 -1.4065  1.4336  1.8642
  449MPD2    N1 6750   3.321   4.047  13.636 -0.1258 -0.2872  0.2488
  449MPD2    H7 6751   3.232   4.063  13.591 -0.6922 -0.8389  1.1796
  450TMC3    C1 6752   3.384   4.103  13.422 -0.7258  0.2744  0.2828
  450TMC3    C2 6753   3.411   4.008  13.322 -0.6026  0.6820 -0.2299
  450TMC3    C3 6754   3.315   3.999  13.224 -0.3036  0.4350 -0.7337
  450TMC3    C4 6755   3.272   4.176  13.421  0.0761  0.1929 -0.1739
  450TMC3    C5 6756   3.177   4.166  13.325  0.7383 -0.0076  0.0126
  450TMC3    C6 6757   3.201   4.067  13.231  0.1096  0.2712  0.1286
  450TMC3     C 6758   3.432   4.064  13.557  0.1440  0.1677 -0.4050
  450TMC3     O 6759   3.550   4.051  13.570 -0.1158  0.2012 -0.6341
  450TMC3     H 6760   3.500   3.947  13.315 -1.4956 -0.5634 -0.7306
  450TMC3    H1 6761   3.269   4.251  13.500 -1.5145  0.2516 -0.2961
  450TMC3    H2 6762   3.141   4.045  13.144  4.0770  1.0330 -2.7921
  450TMC3    C7 6763   3.047   4.143  13.394  0.0649  0.9387  0.4808
  450TMC3    C8 6764   3.316   3.884  13.149  0.1121  0.0381  0.5722
  450TMC3    O1 6765   3.045   4.052  13.477  0.5422 -0.3671  0.9209
  450TMC3    O2 6766   3.210   3.820  13.145 -0.1947  0.2220  0.0317
  451MPD2     C 6767   4.616   2.864   0.514  0.7307 -0.0914 -0.0398
  451MPD2    C1 6768   4.592   2.946   0.626 -0.0515 -0.2967  0.1515
  451MPD2    C2 6769   4.669   2.918   0.735  0.1983  0.1594  0.6557
  451MPD2    C3 6770   0.021   2.817   0.749  0.0485  0.3509 -0.6117
  451MPD2    C4 6771   0.034   2.731   0.643  0.5236  0.0828 -0.3817
  451MPD2    C5 6772   4.711   2.766   0.521  0.5362  0.1894 -0.1611
  451MPD2     H 6773   4.652   2.983   0.821 -3.0506  1.1348 -0.7076
  451MPD2    H1 6774   0.110   2.655   0.636  1.3306  0.8817 -0.2928
  451MPD2    H2 6775   4.557   2.872   0.423  1.3635  2.4122 -0.2294
  451MPD2    H3 6776   4.722   2.701   0.435 -0.1655 -0.0935 -0.0360
  451MPD2     N 6777   0.099   2.796   0.863 -0.0312  0.2444  0.6187
  451MPD2    H5 6778   0.163   2.717   0.866  0.9542  1.0539  1.1041
  451MPD2    N1 6779   4.498   3.047   0.618  0.0046 -0.7950 -0.0323
  451MPD2    H7 6780   4.450   3.045   0.529 -0.7287  1.8205  0.2946
  452TMC3    C1 6781   0.223   2.837   1.054  0.5351 -0.2236 -0.6538
  452TMC3    C2 6782   0.222   2.865   1.181 -0.7650  0.4682  0.2537
  452TMC3    C3 6783   0.341   2.852   1.246  0.1643  0.1263  0.1930
  452TMC3    C4 6784   0.339   2.806   0.984  0.4997  0.1131  1.2080
  452TMC3    C5 6785   0.459   2.804   1.055  0.1084 -0.4190 -0.2824
  452TMC3    C6 6786   0.457   2.802   1.183  0.1395  0.0573 -0.6429
  452TMC3     C 6787   0.098   2.867   0.979  0.8068 -0.3180 -0.0709
  452TMC3     O 6788   0.015   2.947   1.025  0.0733 -0.6716  0.8380
  452TMC3     H 6789   0.132   2.885   1.238 -1.1998  0.9714 -0.6212
  452TMC3    H1 6790   0.340   2.801   0.876  1.4911  1.0154  1.1830
  452TMC3    H2 6791   0.547   2.803   1.243 -0.3344 -2.3041  0.1064
  452TMC3    C7 6792   0.577   2.781   0.974  0.5251 -0.1381  0.4251
  452TMC3    C8 6793   0.338   2.861   1.383 -0.3861 -0.5455 -0.3231
  452TMC3    O1 6794   0.563   2.828   0.859  0.0549  0.0886 -0.7289
  452TMC3    O2 6795   0.419   2.798   1.446 -0.2798  0.4978  0.4367
  453TMC3    C1 6796   0.743   0.166  11.846  0.2926  0.2058 -0.6968
  453TMC3    C2 6797   0.684   0.053  11.797  0.9926 -0.1495  0.6727
  453TMC3    C3 6798   0.636   0.054  11.669  0.0436  0.3349 -0.4109
  453TMC3    C4 6799   0.768   0.272  11.761  0.1015 -0.8326 -0.1061
  453TMC3    C5 6800   0.719   0.261  11.634 -0.5567 -0.2113 -0.4053
  453TMC3    C6 6801   0.644   0.161  11.582 -0.6555  0.2460  0.8267
  453TMC3     C 6802   0.803   0.177  11.975  0.1652  0.0819  0.8481
  453TMC3     O 6803   0.869   0.273  12.007 -0.2001 -0.3030 -0.1138
  453TMC3     H 6804   0.639   4.723  11.868  0.5199 -0.7601 -0.2083
  453TMC3    H1 6805   0.809   0.368  11.789  1.6975 -1.1747 -1.2607
  453TMC3    H2 6806   0.626   0.140  11.477  0.3950 -0.8353  0.8515
  453TMC3    C7 6807   0.768   0.363  11.551  0.0097 -0.1080  0.2755
  453TMC3    C8 6808   0.565   4.674  11.633  0.1038 -0.1247 -0.0120
  453TMC3    O1 6809   0.879   0.399  11.577  0.7804 -0.1767 -0.3238
  453TMC3    O2 6810   0.459   4.687  11.569 -0.2867  0.1338 -0.3747
  454MPD2     C 6811   4.417   4.464  16.256 -0.1179  0.4961  0.5133
  454MPD2    C1 6812   4.363   4.522  16.144  0.3830 -0.5818 -0.2388
  454MPD2    C2 6813   4.302   4.647  16.156  0.3136  0.4776  0.0126
  454MPD2    C3 6814   4.294   4.710  16.279  0.5858 -0.6884 -0.4766
  454MPD2    C4 6815   4.360   4.658  16.385  0.8192 -0.1521  0.1744
  454MPD2    C5 6816   4.410   4.531  16.374  0.2387 -1.0917  1.1348
  454MPD2     H 6817   4.269   4.688  16.062 -1.4789  1.5445  1.1072
  454MPD2    H1 6818   4.366   4.693  16.487  2.0446 -0.7840  0.3241
  454MPD2    H2 6819   4.464   4.367  16.250  0.6880  0.8609  0.8573
  454MPD2    H3 6820   4.439   4.480  16.465 -1.6603 -0.3529  2.1390
  454MPD2     N 6821   4.221   0.097  16.298  0.0269  0.0533 -0.0824
  454MPD2    H5 6822   4.204   0.111  16.397  1.5028  0.3855  0.1111
  454MPD2    N1 6823   4.353   4.458  16.020  0.1564 -0.0468  0.0469
  454MPD2    H7 6824   4.301   4.505  15.946 -1.1083 -1.7663 -0.1512
  455TMC3    C1 6825   4.008   0.163  16.281 -0.3257 -0.0271  0.1044
  455TMC3    C2 6826   4.014   0.211  16.407 -0.2493 -0.4593  0.4918
  455TMC3    C3 6827   3.926   0.162  16.498  0.1152  0.0293  0.0764
  455TMC3    C4 6828   3.930   0.056  16.251 -0.1878 -0.0930 -0.6918
  455TMC3    C5 6829   3.861   4.730  16.351  0.6324 -0.0615  0.1296
  455TMC3    C6 6830   3.848   0.050  16.476  0.0012 -0.6994 -0.9712
  455TMC3     C 6831   4.132   0.146  16.211 -0.3637 -1.1382 -0.0339
  455TMC3     O 6832   4.148   0.154  16.090 -0.4026  0.6865 -0.5971
  455TMC3     H 6833   4.078   0.296  16.429 -2.6458  1.1933  0.9763
  455TMC3    H1 6834   3.956   0.016  16.153 -1.5284  0.4093 -1.2621
  455TMC3    H2 6835   3.784   0.005  16.552 -2.9917  1.7194 -2.0270
  455TMC3    C7 6836   3.907   4.597  16.362 -0.7315 -0.1298 -0.0912
  455TMC3    C8 6837   3.901   0.250  16.614 -0.3479 -0.4462  0.4068
  455TMC3    O1 6838   3.935   4.557  16.474  0.2496 -0.4830  0.1874
  455TMC3    O2 6839   3.990   0.331  16.625 -0.7003 -0.0871 -0.0240
  456MPD2     C 6840   1.941   0.062  15.839  0.8725  0.9683  0.6234
  456MPD2    C1 6841   2.029   0.022  15.940  0.0686  0.4524 -0.0980
  456MPD2    C2 6842   2.002   0.079  16.061  1.2417 -0.1661 -0.5631
  456MPD2    C3 6843   1.915   0.178  16.084  1.1179 -0.4796  0.4735
  456MPD2    C4 6844   1.831   0.220  15.981  0.4477  0.1650 -0.5335
  456MPD2    C5 6845   1.843   0.156  15.859 -0.2016 -0.2177 -0.0993
  456MPD2     H 6846   2.053   0.046  16.151 -2.3373 -1.0700  1.1757
  456MPD2    H1 6847   1.760   0.300  15.999  0.1904 -0.1125 -0.3123
  456MPD2    H2 6848   1.942   0.020  15.740  0.5704  1.8899  0.2304
  456MPD2    H3 6849   1.775   0.179  15.778 -0.6770 -1.4704 -0.0650
  456MPD2     N 6850   1.926   0.242  16.209 -0.4425 -0.3270  0.0721
  456MPD2    H5 6851   1.998   0.207  16.272  1.0457  0.0619 -1.4303
  456MPD2    N1 6852   2.122   4.658  15.910  0.1312  0.4470 -0.0003
  456MPD2    H7 6853   2.123   4.627  15.813 -0.6510  1.1605 -0.2385
  457TMC3    C1 6854   1.869   0.377  16.395 -0.7374 -0.9366 -0.4293
  457TMC3    C2 6855   1.806   0.494  16.432 -0.1073 -0.4937 -0.0025
  457TMC3    C3 6856   1.766   0.504  16.559  0.2933  0.4117 -0.5813
  457TMC3    C4 6857   1.911   0.282  16.482  0.0440 -0.7795  1.0866
  457TMC3    C5 6858   1.879   0.296  16.618  0.1999 -0.0319  0.8342
  457TMC3    C6 6859   1.809   0.415  16.661 -0.1260 -0.8768  0.7173
  457TMC3     C 6860   1.847   0.344  16.252  0.2192 -0.4478 -0.4902
  457TMC3     O 6861   1.763   0.411  16.193 -0.2061 -0.5055 -0.8164
  457TMC3     H 6862   1.779   0.574  16.363  1.4792 -0.0519 -0.1239
  457TMC3    H1 6863   1.958   0.189  16.450  0.0818 -0.1933 -0.5704
  457TMC3    H2 6864   1.780   0.427  16.764 -0.4001  0.4208  0.4861
  457TMC3    C7 6865   1.932   0.209  16.725  0.5027  0.0575  0.1159
  457TMC3    C8 6866   1.711   0.623  16.610 -0.6205  0.5230  0.5004
  457TMC3    O1 6867   1.990   0.104  16.690  0.4704  0.1104  0.1611
  457TMC3    O2 6868   1.736   0.643  16.726  0.3456 -0.2199  0.1073
  458MPD2     C 6869   4.627   3.844  12.125 -0.3449 -0.0554  0.4534
  458MPD2    C1 6870   4.605   3.839  12.257 -0.3546 -0.0406 -1.1103
  458MPD2    C2 6871   4.474   3.840  12.306 -0.6508  0.1610 -0.3460
  458MPD2    C3 6872   4.371   3.849  12.207  0.1629  1.6007  0.3403
  458MPD2    C4 6873   4.397   3.865  12.075  0.8828  0.4195 -0.0565
  458MPD2    C5 6874   4.529   3.858  12.027  0.0265  0.1282 -0.2710
  458MPD2     H 6875   4.456   3.843  12.412 -1.5667 -1.3629 -0.4665
  458MPD2    H1 6876   4.319   3.866  12.000  0.0980  0.5512  0.7589
  458MPD2    H2 6877   4.728   3.858  12.088 -0.7156  1.3664 -0.0197
  458MPD2    H3 6878   4.558   3.868  11.923  1.5359  1.8772  0.3116
  458MPD2     N 6879   4.242   3.847  12.253 -0.0392 -0.6150 -0.9306
  458MPD2    H5 6880   4.230   3.850  12.354  1.9145  2.8572 -0.7858
  458MPD2    N1 6881   4.718   3.837  12.344 -0.0622 -0.6327  0.0426
  458MPD2    H7 6882   0.074   3.842  12.306 -0.4706  1.0777 -0.7457
  459TMC3    C1 6883   0.087   3.810  12.556  0.2873 -0.1357  0.3170
  459TMC3    C2 6884   0.191   3.883  12.503 -0.8861  0.0956  1.1133
  459TMC3    C3 6885   0.265   3.950  12.596 -0.3892 -0.2659  0.3588
  459TMC3    C4 6886   0.059   3.804  12.686  0.0224  0.3715  0.0632
  459TMC3    C5 6887   0.125   3.883  12.774  0.0160 -0.3751  0.4117
  459TMC3    C6 6888   0.234   3.946  12.730  0.5347  0.0418  0.1817
  459TMC3     C 6889   4.711   3.782  12.467  0.0444 -0.0698 -0.3123
  459TMC3     O 6890   4.620   3.713  12.516 -0.2778 -1.0770 -0.3710
  459TMC3     H 6891   0.205   3.888  12.395  1.4871 -0.7748  1.3875
  459TMC3    H1 6892   4.713   3.749  12.727 -1.2460  3.5373  1.6716
  459TMC3    H2 6893   0.297   4.003  12.797 -0.1537 -1.3152  2.0000
  459TMC3    C7 6894   0.093   3.870  12.909  0.8005  0.1505  0.5061
  459TMC3    C8 6895   0.391   4.003  12.560 -0.2639 -0.0447 -0.3330
  459TMC3    O1 6896   4.725   3.810  12.935 -0.2229  0.4911 -0.2275
  459TMC3    O2 6897   0.481   4.007  12.644  0.5204 -0.6035 -0.0621
  460MPD2     C 6898   4.192   1.817  10.799  0.1255  0.0026  0.6336
  460MPD2    C1 6899   4.051   1.804  10.811 -0.4714 -0.4716  0.4950
  460MPD2    C2 6900   3.974   1.868  10.711  0.6931  0.4350  0.1494
  460MPD2    C3 6901   4.024   1.928  10.600 -0.5506 -0.0890 -1.1396
  460MPD2    C4 6902   4.159   1.942  10.593  0.4663 -0.2688 -0.0101
  460MPD2    C5 6903   4.235   1.889  10.694 -0.2021  0.2326 -0.1476
  460MPD2     H 6904   3.867   1.873  10.732  0.5115  0.3862 -0.7292
  460MPD2    H1 6905   4.215   1.991  10.515 -1.2572  0.8717 -0.5329
  460MPD2    H2 6906   4.263   1.770  10.866 -0.1894 -2.6329 -0.8759
  460MPD2    H3 6907   4.341   1.902  10.676 -0.1902  0.3754  0.0284
  460MPD2     N 6908   3.938   1.992  10.514  0.0025  0.0718  0.2638
  460MPD2    H5 6909   3.839   1.972  10.528  0.1286 -1.4601 -1.0271
  460MPD2    N1 6910   4.002   1.730  10.926 -0.3877  0.3311 -0.4400
  460MPD2    H7 6911   4.078   1.693  10.983  0.7994  1.0603 -1.5279
  461TMC3    C1 6912   3.851   2.114  10.342 -0.2552 -0.0827 -0.2518
  461TMC3    C2 6913   3.754   2.022  10.307  0.0771  0.7414  0.3401
  461TMC3    C3 6914   3.645   2.069  10.226  0.6040  0.2047 -0.5603
  461TMC3    C4 6915   3.849   2.245  10.297  0.0075  0.1291  0.0149
  461TMC3    C5 6916   3.748   2.282  10.212 -0.1297 -0.4348  0.9231
  461TMC3    C6 6917   3.643   2.200  10.189 -0.8550  0.0361 -0.3219
  461TMC3     C 6918   3.970   2.076  10.415 -0.1926 -0.1587 -0.3784
  461TMC3     O 6919   4.071   2.133  10.384  0.4175  0.3446  0.6399
  461TMC3     H 6920   3.771   1.915  10.317 -1.5337 -0.0240 -4.9402
  461TMC3    H1 6921   3.921   2.316  10.337  1.0105  0.4430 -2.3787
  461TMC3    H2 6922   3.557   2.236  10.134 -0.8799  1.1249  0.4447
  461TMC3    C7 6923   3.727   2.426  10.180  0.1838  0.6737 -0.1215
  461TMC3    C8 6924   3.568   1.980  10.147  0.0863  0.1365  0.6888
  461TMC3    O1 6925   3.608   2.455  10.187 -0.3349 -0.2545  0.1022
  461TMC3    O2 6926   3.518   2.019  10.042  0.3047 -0.1503 -0.6418
  462TMC3    C1 6927   3.790   3.203   0.546  0.0399  0.2982 -0.4365
  462TMC3    C2 6928   3.909   3.132   0.559  0.0379 -0.0772 -0.5543
  462TMC3    C3 6929   3.928   3.020   0.484  0.9659 -0.0322 -0.1333
  462TMC3    C4 6930   3.689   3.157   0.469  0.5232 -0.2427  0.6943
  462TMC3    C5 6931   3.714   3.043   0.390  0.5503 -0.2462 -0.1672
  462TMC3    C6 6932   3.831   2.980   0.393 -0.4328 -0.3005  0.7851
  462TMC3     C 6933   3.771   3.331   0.614 -0.2094  0.3683 -0.0396
  462TMC3     O 6934   3.848   3.365   0.704  0.0502  0.3278  0.2599
  462TMC3     H 6935   3.988   3.169   0.624  1.2215 -1.5536 -1.1532
  462TMC3    H1 6936   3.584   3.181   0.479  0.4622 -0.3624  0.3346
  462TMC3    H2 6937   3.845   2.886   0.340  0.7430  0.1214  0.3291
  462TMC3    C7 6938   3.602   2.965   0.341  0.3304 -0.2429 -0.6416
  462TMC3    C8 6939   4.058   2.956   0.492 -0.0190  0.1662  0.1904
  462TMC3    O1 6940   3.592   2.846   0.355  0.5618  0.1190  0.0871
  462TMC3    O2 6941   4.133   2.992   0.580 -0.0907  0.0361  0.5607
  463MPD2     C 6942   0.022   1.785   2.272  0.5407  0.0982 -0.7245
  463MPD2    C1 6943   0.044   1.767   2.138 -0.2050 -0.3513  0.1196
  463MPD2    C2 6944   0.136   1.841   2.062  0.6656  0.3857 -0.5630
  463MPD2    C3 6945   0.222   1.926   2.132  0.0692  0.3041 -0.4294
  463MPD2    C4 6946   0.198   1.949   2.264  0.2787  0.1562 -0.9132
  463MPD2    C5 6947   0.104   1.878   2.331 -0.1317  0.2849  0.4443
  463MPD2     H 6948   0.142   1.819   1.956  3.1716  1.1708 -0.5810
  463MPD2    H1 6949   0.260   2.018   2.321 -0.6398  1.0821 -1.0300
  463MPD2    H2 6950   4.694   1.727   2.335  0.2345  2.2909  0.9736
  463MPD2    H3 6951   0.096   1.883   2.439  0.2298 -1.5346  0.5596
  463MPD2     N 6952   0.331   1.999   2.078 -0.3331 -0.3017  0.0582
  463MPD2    H5 6953   0.382   2.070   2.129 -0.6149 -0.0137 -0.0654
  463MPD2    N1 6954   4.694   1.681   2.059  0.4337 -0.1450 -0.0011
  463MPD2    H7 6955   4.708   1.704   1.961  0.2689  0.3364  0.0921
  464TMC3    C1 6956   4.535   1.511   1.991  0.0182 -0.5634 -0.6710
  464TMC3    C2 6957   4.522   1.577   1.875  0.6760  0.4939 -0.6476
  464TMC3    C3 6958   4.443   1.522   1.778 -0.0434  0.4742  0.2435
  464TMC3    C4 6959   4.458   1.401   2.024  0.5183 -0.1246  0.2800
  464TMC3    C5 6960   4.392   1.341   1.917  0.2112  0.3590  0.3748
  464TMC3    C6 6961   4.376   1.403   1.796 -0.5841  0.3097 -0.0965
  464TMC3     C 6962   4.606   1.584   2.100 -0.4099 -0.5971  0.0451
  464TMC3     O 6963   4.598   1.541   2.210 -0.1334 -0.1897 -0.7920
  464TMC3     H 6964   4.572   1.670   1.852  0.6828 -0.1754 -3.3351
  464TMC3    H1 6965   4.463   1.353   2.120 -1.7554 -1.4534 -0.2665
  464TMC3    H2 6966   4.322   1.360   1.713  0.3670 -1.0004 -0.0435
  464TMC3    C7 6967   4.305   1.222   1.933 -0.2143 -0.3898  0.6790
  464TMC3    C8 6968   4.397   1.600   1.664 -0.2727 -0.1189  0.1926
  464TMC3    O1 6969   4.291   1.191   2.049  0.1830 -0.0477  0.2824
  464TMC3    O2 6970   4.342   1.542   1.570  0.2804 -0.1713 -0.2661
  465MPD2     C 6971   1.275   0.481  16.716  0.3032 -0.4139 -0.0783
  465MPD2    C1 6972   1.208   0.366  16.677 -0.8924  0.7407  0.8614
  465MPD2    C2 6973   1.167   0.352  16.547  0.0417 -0.1760 -0.5714
  465MPD2    C3 6974   1.205   0.447  16.452  0.3484  0.1297  0.7132
  465MPD2    C4 6975   1.293   0.550  16.487 -0.7275  0.5329  0.5403
  465MPD2    C5 6976   1.320   0.571  16.620  0.1055 -0.1035  0.1735
  465MPD2     H 6977   1.124   0.257  16.517  2.1663 -1.1861 -0.4392
  465MPD2    H1 6978   1.351   0.604  16.413 -1.5507 -1.0065 -1.2373
  465MPD2    H2 6979   1.303   0.504  16.818 -0.3512 -0.7830  0.1838
  465MPD2    H3 6980   1.385   0.652  16.649  1.4079 -1.2438  0.4240
  465MPD2     N 6981   1.177   0.418  16.317 -0.0526 -0.0627 -0.2181
  465MPD2    H5 6982   1.097   0.357  16.305  1.8689 -2.9624  1.8226
  465MPD2    N1 6983   1.168   0.270  16.771  0.1951 -0.0830 -0.0456
  465MPD2    H7 6984   1.101   0.202  16.737 -0.0934  0.3073 -0.2560
  466TMC3    C1 6985   0.919   0.440  15.999  0.3933 -0.5805  0.0085
  466TMC3    C2 6986   0.906   0.550  15.927 -0.5526  0.5517 -0.5174
  466TMC3    C3 6987   0.981   0.660  15.959 -0.4592 -0.5082 -0.0909
  466TMC3    C4 6988   1.026   0.420  16.082  0.4822 -0.0397 -0.0862
  466TMC3    C5 6989   1.108   0.520  16.111 -0.2065 -0.3205 -0.8521
  466TMC3    C6 6990   1.083   0.643  16.054  0.2887 -0.5135  0.3954
  466TMC3     C 6991   0.796   0.398  16.059  0.2284 -0.2045 -0.1540
  466TMC3     O 6992   0.793   0.285  16.113  0.2863 -0.0228 -0.1984
  466TMC3     H 6993   0.826   0.559  15.854 -0.4555 -2.0835 -0.9446
  466TMC3    H1 6994   1.043   0.322  16.126  0.0320 -1.0963 -2.3087
  466TMC3    H2 6995   1.143   0.730  16.079 -1.4928  0.2915  1.8529
  466TMC3    C7 6996   1.205   0.506  16.214  0.3965 -0.0377 -0.7219
  466TMC3    C8 6997   0.903   0.781  15.959 -0.3978  0.3454  0.6684
  466TMC3    O1 6998   1.287   0.597  16.206  0.0272  0.2080  0.6931
  466TMC3    O2 6999   0.812   0.784  15.877  0.2373 -0.0322 -0.5487
  467TMC3    C1 7000   1.824   3.370  13.531  0.4687  0.3570 -0.5106
  467TMC3    C2 7001   1.820   3.494  13.464  0.8825  0.1924  0.1440
  467TMC3    C3 7002   1.802   3.489  13.327  0.3300 -0.4382  0.0574
  467TMC3    C4 7003   1.767   3.271  13.477 -0.1577 -0.1265  0.3795
  467TMC3    C5 7004   1.703   3.280  13.357  0.5479 -0.8447 -0.3973
  467TMC3    C6 7005   1.737   3.381  13.277 -0.2594 -0.4899  0.3497
  467TMC3     C 7006   1.962   3.348  13.577 -0.1130 -0.6473  0.4941
  467TMC3     O 7007   1.994   3.415  13.676 -0.5766 -0.1339  0.5799
  467TMC3     H 7008   1.887   3.569  13.504  1.2595 -1.0543  1.8338
  467TMC3    H1 7009   1.768   3.178  13.531 -0.9294  0.5215  1.5140
  467TMC3    H2 7010   1.694   3.392  13.178  2.4044 -0.3095 -0.7866
  467TMC3    C7 7011   1.595   3.192  13.323  0.1820  0.4408  0.4492
  467TMC3    C8 7012   1.921   3.528  13.256 -0.1647  0.5713 -0.0532
  467TMC3    O1 7013   1.576   3.171  13.202  0.3057  0.5481  0.1556
  467TMC3    O2 7014   1.965   3.642  13.287  0.0095  0.4615 -0.1668
  468MPD2     C 7015   1.274   1.592  10.168 -0.6053  0.0643  0.5268
  468MPD2    C1 7016   1.185   1.597  10.277 -0.3516  0.0245  0.0002
  468MPD2    C2 7017   1.112   1.486  10.318  0.2009  0.0634 -0.5596
  468MPD2    C3 7018   1.137   1.364  10.258  0.7170  0.6841  0.3849
  468MPD2    C4 7019   1.233   1.359  10.162  0.4375  0.1675  0.2518
  468MPD2    C5 7020   1.293   1.469  10.113 -0.7750  0.0390  0.3405
  468MPD2     H 7021   1.035   1.505  10.392 -0.5680 -2.0788 -0.8010
  468MPD2    H1 7022   1.275   1.267  10.121  2.4418  0.1445  2.3478
  468MPD2    H2 7023   1.339   1.673  10.138 -1.4033  0.2920 -0.5495
  468MPD2    H3 7024   1.370   1.461  10.037 -0.4613  2.4379  0.3915
  468MPD2     N 7025   1.079   1.242  10.299 -0.1340  0.5180 -0.7730
  468MPD2    H5 7026   1.103   1.156  10.250 -1.5932  0.6824 -1.7790
  468MPD2    N1 7027   1.160   1.717  10.348  0.4283 -0.4884  0.5703
  468MPD2    H7 7028   1.098   1.705  10.427 -0.2077 -0.0838  0.1309
  469TMC3    C1 7029   1.193   1.928  10.434  0.0920  1.0323 -0.5604
  469TMC3    C2 7030   1.301   2.004  10.478  0.5164  0.0406  0.0860
  469TMC3    C3 7031   1.297   2.084  10.586 -0.2004  0.2326  0.4130
  469TMC3    C4 7032   1.073   1.926  10.506  0.1503 -0.2173  0.2481
  469TMC3    C5 7033   1.076   1.997  10.625 -0.6161 -0.1144 -0.5305
  469TMC3    C6 7034   1.180   2.082  10.664  0.3920 -0.0869 -0.2223
  469TMC3     C 7035   1.233   1.832  10.337 -0.1220 -0.0174 -0.7041
  469TMC3     O 7036   1.328   1.857  10.269 -0.3934  0.2057  0.3633
  469TMC3     H 7037   1.401   2.004  10.437  0.7979  1.9204  0.7916
  469TMC3    H1 7038   0.986   1.869  10.476  0.2871 -0.1885 -0.2050
  469TMC3    H2 7039   1.181   2.128  10.762  1.9359 -2.5332  0.9123
  469TMC3    C7 7040   0.953   2.008  10.696 -0.0224  0.2060  0.0645
  469TMC3    C8 7041   1.420   2.100  10.657  0.1111 -0.6001 -0.6210
  469TMC3    O1 7042   0.863   1.977  10.626 -0.7707  0.9604  0.5239
  469TMC3    O2 7043   1.514   2.162  10.614  0.5615  0.0452  0.1336
  470TMC3    C1 7044   3.211   2.574   0.462  0.3443 -0.2862  0.0687
  470TMC3    C2 7045   3.292   2.685   0.463  1.0416 -0.3559  0.5328
  470TMC3    C3 7046   3.322   2.745   0.584  0.0647 -0.0068 -0.6722
  470TMC3    C4 7047   3.171   2.511   0.579 -0.1671 -0.1151  0.1392
  470TMC3    C5 7048   3.197   2.576   0.697  0.1350  0.5523 -0.2439
  470TMC3    C6 7049   3.266   2.695   0.696 -0.1945 -0.2335  0.1240
  470TMC3     C 7050   3.173   2.521   0.331  0.6093  0.1989 -0.5758
  470TMC3     O 7051   3.198   2.595   0.238  0.2329 -0.5857  0.7574
  470TMC3     H 7052   3.343   2.729   0.378 -1.7962 -2.0105 -1.9876
  470TMC3    H1 7053   3.112   2.421   0.578  0.4012 -0.4981  1.2099
  470TMC3    H2 7054   3.281   2.760   0.782 -0.6999 -0.3789  0.3238
  470TMC3    C7 7055   3.095   2.550   0.800  0.5194  0.1037  0.1220
  470TMC3    C8 7056   3.347   2.886   0.592 -0.4681  0.2976 -0.3462
  470TMC3    O1 7057   3.018   2.455   0.786 -0.4755 -0.1390 -0.1599
  470TMC3    O2 7058   3.378   2.933   0.700  0.1835  0.4865  0.4833
  471MPD2     C 7059   3.704   4.069  16.568  0.1756 -0.1216  0.0541
  471MPD2    C1 7060   3.809   3.999  16.514  0.4486 -0.1703 -0.8109
  471MPD2    C2 7061   3.905   3.940  16.590  0.2439  0.5110 -0.4228
  471MPD2    C3 7062   3.914   3.975  16.724  0.0016  0.3540  0.0770
  471MPD2    C4 7063   3.817   4.066  16.778  0.1266 -0.2678  0.5654
  471MPD2    C5 7064   3.715   4.112  16.702 -0.2087 -0.6155  0.3768
  471MPD2     H 7065   3.978   3.866  16.558 -1.1771 -1.1487  0.1461
  471MPD2    H1 7066   3.816   4.099  16.881 -0.4304  1.2069  0.0964
  471MPD2    H2 7067   3.632   4.122  16.508  0.4448  1.1614  0.8718
  471MPD2    H3 7068   3.640   4.181  16.740 -0.0345 -0.6249  0.7421
  471MPD2     N 7069   4.003   3.924  16.820  0.2828  0.3327 -0.0595
  471MPD2    H5 7070   3.999   3.959  16.915 -0.8821 -1.1079  0.4052
  471MPD2    N1 7071   3.809   3.959  16.379  0.3671 -0.0563  0.8877
  471MPD2    H7 7072   3.897   3.915  16.354  0.3574 -0.0109  0.7729
  472TMC3    C1 7073   3.708   3.872  16.183  0.9142  0.2796 -0.0944
  472TMC3    C2 7074   3.605   3.886  16.096  0.3524 -0.6308 -0.3686
  472TMC3    C3 7075   3.575   3.770  16.022 -0.0691  0.1818  0.2956
  472TMC3    C4 7076   3.780   3.758  16.193  0.2635 -0.1416  0.0754
  472TMC3    C5 7077   3.759   3.656  16.109 -0.1160 -0.0924 -0.3170
  472TMC3    C6 7078   3.657   3.666  16.011  0.9862  0.5326  0.3989
  472TMC3     C 7079   3.697   3.965  16.294 -0.8199 -0.3689 -0.8316
  472TMC3     O 7080   3.589   4.015  16.304 -0.2223 -0.0940 -0.3241
  472TMC3     H 7081   3.529   3.962  16.082 -1.0069 -2.1933 -1.4207
  472TMC3    H1 7082   3.852   3.739  16.271 -1.2170 -1.2233  1.1590
  472TMC3    H2 7083   3.613   3.584  15.956  0.5613  1.5528 -0.7858
  472TMC3    C7 7084   3.794   3.521  16.149  0.8246  0.3687 -0.4094
  472TMC3    C8 7085   3.434   3.743  16.013  0.2499 -0.3935 -0.0114
  472TMC3    O1 7086   3.812   3.500  16.268  0.4480  0.2056  0.1134
  472TMC3    O2 7087   3.364   3.769  15.914  0.2933  0.0628  0.0531
  473MPD2     C 7088   4.064   0.763  13.905 -0.1457 -0.1288  0.4460
  473MPD2    C1 7089   3.950   0.833  13.900 -0.0291 -0.4664 -0.3779
  473MPD2    C2 7090   3.921   0.926  13.999 -0.3735  0.1925  0.1817
  473MPD2    C3 7091   4.021   0.956  14.090 -0.3102 -0.5311  0.6709
  473MPD2    C4 7092   4.138   0.883  14.095 -0.1876  0.0497 -0.2189
  473MPD2    C5 7093   4.159   0.785  14.006  0.1461  0.0950 -1.0107
  473MPD2     H 7094   3.825   0.975  13.987 -0.5643 -0.2319 -0.0184
  473MPD2    H1 7095   4.217   0.897  14.168  0.2904  0.8781 -0.9012
  473MPD2    H2 7096   4.094   0.694  13.827  0.2894  0.0889  0.4168
  473MPD2    H3 7097   4.249   0.725  14.001 -0.7476 -1.3044 -0.4162
  473MPD2     N 7098   4.011   1.064  14.186  0.5830 -0.2898  0.2659
  473MPD2    H5 7099   4.094   1.084  14.240  0.7388 -0.0627 -0.0548
  473MPD2    N1 7100   3.859   0.818  13.797 -0.7618  0.1569 -0.0469
  473MPD2    H7 7101   3.771   0.868  13.790 -1.8389 -1.7836 -0.4873
  474TMC3    C1 7102   3.914   1.240  14.316 -0.2432  0.8145 -0.4699
  474TMC3    C2 7103   3.808   1.323  14.301  0.2860 -0.1479  0.3340
  474TMC3    C3 7104   3.828   1.452  14.282  0.0192  0.7405 -0.6845
  474TMC3    C4 7105   4.041   1.288  14.328  0.4204 -0.0392 -0.2296
  474TMC3    C5 7106   4.045   1.426  14.342  0.0624 -0.2468  0.5562
  474TMC3    C6 7107   3.946   1.511  14.306  0.2283 -0.4922 -0.1005
  474TMC3     C 7108   3.901   1.118  14.231 -0.4687  0.7380 -0.3735
  474TMC3     O 7109   3.789   1.073  14.224  0.0505  0.1162 -0.3268
  474TMC3     H 7110   3.712   1.278  14.279  0.8090 -0.5373 -1.1790
  474TMC3    H1 7111   4.121   1.220  14.354  0.3091  0.2524  0.8784
  474TMC3    H2 7112   3.952   1.618  14.326 -0.4679 -0.4047 -0.3715
  474TMC3    C7 7113   4.140   1.473  14.440  0.8176  0.5502  0.2670
  474TMC3    C8 7114   3.710   1.533  14.278  0.2136 -0.1837 -0.3541
  474TMC3    O1 7115   4.168   1.400  14.532 -0.1675  0.5702 -0.2866
  474TMC3    O2 7116   3.607   1.471  14.303 -0.8085  0.2201 -0.4047
  475MPD2     C 7117   2.027   4.564  10.143  0.1641 -0.6067 -0.0398
  475MPD2    C1 7118   2.032   4.529  10.272 -0.2578  0.5816 -0.6774
  475MPD2    C2 7119   1.943   4.444  10.327 -0.2485 -0.0804 -0.7962
  475MPD2    C3 7120   1.835   4.397  10.256  0.2457 -0.4916  0.3410
  475MPD2    C4 7121   1.829   4.431  10.125  0.2781  0.0032 -0.8798
  475MPD2    C5 7122   1.928   4.507  10.069 -0.0460 -1.0510  0.0747
  475MPD2     H 7123   1.949   4.420  10.433 -1.1356 -1.8573 -1.1585
  475MPD2    H1 7124   1.747   4.393  10.066  1.0613 -0.2432 -1.8098
  475MPD2    H2 7125   2.106   4.620  10.095 -1.1356 -0.0883 -1.6086
  475MPD2    H3 7126   1.926   4.523   9.962 -1.3496 -2.6411 -0.1383
  475MPD2     N 7127   1.732   4.333  10.332  0.2737  0.4536 -0.4243
  475MPD2    H5 7128   1.742   4.331  10.433  4.0516  1.0386 -0.7906
  475MPD2    N1 7129   2.126   4.585  10.356 -0.1968 -0.2439 -0.8017
  475MPD2    H7 7130   2.205   4.624  10.305 -1.1093  1.4204 -0.9415
  476TMC3    C1 7131   2.020   4.628  10.572 -0.6969 -0.7704 -0.2590
  476TMC3    C2 7132   1.906   4.688  10.521  0.5986 -0.0681  0.6488
  476TMC3    C3 7133   1.803   4.713  10.602  0.2875  0.6007 -0.4011
  476TMC3    C4 7134   2.029   4.581  10.701  0.5063 -0.0243 -0.3065
  476TMC3    C5 7135   1.922   4.595  10.780  0.0391 -0.0409  0.1576
  476TMC3    C6 7136   1.807   4.663  10.735  0.2807 -0.1811 -0.2937
  476TMC3     C 7137   2.141   4.599  10.493 -0.3449 -0.0624 -0.6295
  476TMC3     O 7138   2.240   4.612  10.557  0.1552  0.0184  0.0297
  476TMC3     H 7139   1.921   0.007  10.430 -0.4449  0.4966  0.8275
  476TMC3    H1 7140   2.120   4.529  10.731  0.3223 -0.3449 -0.3127
  476TMC3    H2 7141   1.721   4.676  10.799  1.5939 -1.4507  1.7391
  476TMC3    C7 7142   1.948   4.606  10.918 -0.0826 -0.2758  0.0220
  476TMC3    C8 7143   1.672   4.731  10.551  0.4761 -0.2696  0.5447
  476TMC3    O1 7144   2.041   4.532  10.958  0.0042 -0.2598  0.2208
  476TMC3    O2 7145   1.584   0.009  10.633 -0.3031 -0.3362 -0.1070
  477MPD2     C 7146   4.068   0.650  12.014  0.4058  0.1671  0.2002
  477MPD2    C1 7147   4.087   0.654  11.879  0.1702 -0.2334  0.3312
  477MPD2    C2 7148   4.173   0.555  11.822  0.3242  0.0732 -0.2176
  477MPD2    C3 7149   4.241   0.463  11.899  0.0061  0.8664  0.2094
  477MPD2    C4 7150   4.207   0.454  12.040  0.4417  0.0444 -0.0489
  477MPD2    C5 7151   4.128   0.555  12.093  1.0635 -0.4631 -0.0478
  477MPD2     H 7152   4.190   0.555  11.715  2.2601 -2.3897  0.0913
  477MPD2    H1 7153   4.249   0.384  12.111 -0.3561 -0.7421 -0.3549
  477MPD2    H2 7154   4.010   0.721  12.072  1.0598  0.2058  0.8093
  477MPD2    H3 7155   4.109   0.557  12.199 -0.2728 -1.0598 -0.2677
  477MPD2     N 7156   4.332   0.366  11.846 -0.6973  0.2372  0.9520
  477MPD2    H5 7157   4.347   0.377  11.746  1.8711 -0.4775  1.2486
  477MPD2    N1 7158   4.024   0.749  11.810 -0.8090 -0.0806 -0.4271
  477MPD2    H7 7159   3.962   0.809  11.863 -0.0564 -0.0044  0.3614
  478TMC3    C1 7160   3.938   0.900  11.646 -0.2777  0.3013 -0.0894
  478TMC3    C2 7161   3.892   0.970  11.754 -0.2535  0.2411 -0.6388
  478TMC3    C3 7162   3.814   1.082  11.736 -0.0345 -0.2333  0.2800
  478TMC3    C4 7163   3.898   0.928  11.517 -0.9350  0.5349  0.0305
  478TMC3    C5 7164   3.813   1.042  11.505 -0.2550  0.1940  0.3080
  478TMC3    C6 7165   3.773   1.120  11.613  0.3720 -0.2365 -0.1023
  478TMC3     C 7166   4.009   0.777  11.672  0.6984 -0.2393 -0.3266
  478TMC3     O 7167   4.057   0.722  11.575 -0.1261  0.2905 -0.6911
  478TMC3     H 7168   3.931   0.959  11.854  1.5626 -0.3661 -1.4114
  478TMC3    H1 7169   3.943   0.866  11.439  1.6941  0.7636  1.3617
  478TMC3    H2 7170   3.705   1.203  11.598 -0.1159 -0.3411  1.4962
  478TMC3    C7 7171   3.766   1.081  11.368  0.7889  0.5214  0.8484
  478TMC3    C8 7172   3.779   1.163  11.854  0.1325 -0.3267 -0.4632
  478TMC3    O1 7173   3.651   1.116  11.350  0.4922 -0.1468 -0.5745
  478TMC3    O2 7174   3.831   1.124  11.957  0.1177 -0.6223  0.0984
  479MPD2     C 7175   3.185   2.918  15.193 -0.4858 -0.0191  0.5254
  479MPD2    C1 7176   3.166   2.877  15.323 -0.0837  0.6554 -0.0591
  479MPD2    C2 7177   3.277   2.853  15.403  0.3795 -0.2108 -0.1353
  479MPD2    C3 7178   3.401   2.883  15.350  0.6503  0.2569 -0.0676
  479MPD2    C4 7179   3.416   2.929  15.224  0.6026 -0.1151  0.0509
  479MPD2    C5 7180   3.308   2.939  15.143 -0.3407  0.3868  0.0595
  479MPD2     H 7181   3.264   2.811  15.502 -0.7441 -0.4287 -0.3841
  479MPD2    H1 7182   3.518   2.940  15.187  0.6652  1.1547  0.5794
  479MPD2    H2 7183   3.099   2.956  15.140  2.2121  3.9583 -0.9776
  479MPD2    H3 7184   3.310   2.959  15.036 -1.6570  3.1447  0.5471
  479MPD2     N 7185   3.524   2.848  15.419  0.1456 -0.4025 -0.0637
  479MPD2    H5 7186   3.593   2.805  15.359 -0.3256  1.1549 -1.7362
  479MPD2    N1 7187   3.033   2.862  15.371 -0.3054 -0.6835 -1.1204
  479MPD2    H7 7188   2.962   2.901  15.309 -0.3556  1.2001  0.1074
  480TMC3    C1 7189   3.295   2.866  15.804  0.1663  0.3642  0.1217
  480TMC3    C2 7190   3.244   2.996  15.785 -0.6301  0.5054 -0.3083
  480TMC3    C3 7191   3.295   3.067  15.677  0.0685 -0.0273  0.2691
  480TMC3    C4 7192   3.411   2.838  15.742 -0.2575 -0.4031 -0.0099
  480TMC3    C5 7193   3.467   2.910  15.650 -0.2243  0.3694  0.0247
  480TMC3    C6 7194   3.414   3.029  15.617  0.3836  1.0720  0.2587
  480TMC3     C 7195   3.237   2.772  15.900 -0.4028  0.4083  0.0350
  480TMC3     O 7196   3.304   2.679  15.937 -0.2465  1.0054  0.0509
  480TMC3     H 7197   3.146   3.024  15.822 -0.9812  1.7975 -2.2131
  480TMC3    H1 7198   3.455   2.739  15.743 -2.0563 -1.1979 -0.0173
  480TMC3    H2 7199   3.458   3.079  15.532  1.4508  1.1494  0.8459
  480TMC3    C7 7200   3.548   2.831  15.550  0.3093  0.1667  0.1645
  480TMC3    C8 7201   3.196   3.150  15.612 -0.3809 -0.4316  0.8655
  480TMC3    O1 7202   3.660   2.801  15.591 -0.1749  0.3592  0.2812
  480TMC3    O2 7203   3.087   3.161  15.667 -0.5473  0.1294 -0.3418
  481MPD2     C 7204   0.284   2.215  13.972 -0.1778  0.5906 -0.8564
  481MPD2    C1 7205   0.186   2.310  13.972 -0.3322 -0.5433 -0.7937
  481MPD2    C2 7206   0.137   2.360  14.091  0.5295  0.1035  0.3686
  481MPD2    C3 7207   0.199   2.326  14.209  0.0718 -0.4072 -0.4794
  481MPD2    C4 7208   0.308   2.241  14.208  0.4558 -0.1382  0.2865
  481MPD2    C5 7209   0.348   2.183  14.090  0.3525  0.7191 -0.3648
  481MPD2     H 7210   0.057   2.433  14.095 -0.7680 -1.1322 -3.1221
  481MPD2    H1 7211   0.349   2.217  14.305  1.1614 -1.5552 -0.3626
  481MPD2    H2 7212   0.316   2.171  13.878  2.0774  1.2563 -0.4050
  481MPD2    H3 7213   0.427   2.111  14.077 -0.5083 -0.4212  0.6928
  481MPD2     N 7214   0.142   2.367  14.333  0.6806  0.0364  0.0421
  481MPD2    H5 7215   0.197   2.341  14.415 -0.4560 -0.8462  0.5285
  481MPD2    N1 7216   0.141   2.367  13.850  0.4274  0.2273 -0.1997
  481MPD2    H7 7217   0.174   2.320  13.766  1.1945  0.0979  0.1690
  482TMC3    C1 7218   0.053   2.512  13.685 -0.7474 -0.3306  0.1105
  482TMC3    C2 7219   0.105   2.434  13.583 -0.4519  0.3208  0.7149
  482TMC3    C3 7220   0.115   2.483  13.450  0.1167  0.5529 -0.9918
  482TMC3    C4 7221   0.027   2.641  13.653 -0.1139 -0.6057 -0.2590
  482TMC3    C5 7222   0.042   2.693  13.531  0.0924 -0.3779  0.1294
  482TMC3    C6 7223   0.092   2.615  13.427  0.2039  0.0813  0.3197
  482TMC3     C 7224   0.074   2.483  13.829  0.0036  0.0626 -0.4209
  482TMC3     O 7225   0.037   2.569  13.909 -0.2738 -0.2340  0.1676
  482TMC3     H 7226   0.110   2.326  13.595  1.6417  0.3216  0.0336
  482TMC3    H1 7227   4.733   2.707  13.734  0.8725  1.5366 -1.6212
  482TMC3    H2 7228   0.098   2.661  13.328 -0.2294 -0.8378 -0.1366
  482TMC3    C7 7229   0.003   2.833  13.518 -0.0049  0.2595 -0.1829
  482TMC3    C8 7230   0.155   2.388  13.348  0.2126  0.1503  0.1234
  482TMC3    O1 7231   4.684   2.892  13.610  0.6442  0.4715 -1.1327
  482TMC3    O2 7232   0.177   2.272  13.380  0.1919 -0.4401  0.5563
  483TMC3    C1 7233   3.085   1.863   0.984  0.8089 -0.3718 -0.0403
  483TMC3    C2 7234   3.115   1.957   0.893  0.2126 -0.6944 -0.2954
  483TMC3    C3 7235   3.233   2.017   0.889  1.1806 -0.3679 -1.1333
  483TMC3    C4 7236   3.189   1.794   1.048 -0.0932 -0.7082  0.6964
  483TMC3    C5 7237   3.307   1.866   1.057  0.6022  0.2050  0.5551
  483TMC3    C6 7238   3.334   1.979   0.977 -0.8095  0.4095 -0.8059
  483TMC3     C 7239   2.974   1.775   0.949 -0.0012  0.3072  0.0368
  483TMC3     O 7240   2.864   1.826   0.937  0.2374 -0.0591 -0.2154
  483TMC3     H 7241   3.047   1.980   0.811  1.5617  3.1063 -0.3203
  483TMC3    H1 7242   3.180   1.706   1.110 -0.8786  0.1171  1.7571
  483TMC3    H2 7243   3.433   2.023   0.969 -2.0292  3.4133  0.4165
  483TMC3    C7 7244   3.411   1.814   1.140 -0.2130  0.0963  0.1271
  483TMC3    C8 7245   3.271   2.073   0.765 -0.2294  0.5988 -0.3777
  483TMC3    O1 7246   3.407   1.691   1.154  0.1255 -0.4483  0.5263
  483TMC3    O2 7247   3.215   2.033   0.662 -0.6284 -0.5863  0.3061
  484MPD2     C 7248   0.451   4.178  12.241  0.0716 -0.3394 -0.7691
  484MPD2    C1 7249   0.489   4.115  12.354  0.1610 -0.0149 -0.3559
  484MPD2    C2 7250   0.619   4.127  12.391  0.2950  0.3971  0.0703
  484MPD2    C3 7251   0.715   4.200  12.328  0.0335  0.5263 -0.1729
  484MPD2    C4 7252   0.676   4.269  12.217  0.3215 -0.5048  0.1760
  484MPD2    C5 7253   0.546   4.251  12.170 -0.2355 -0.1691 -0.4665
  484MPD2     H 7254   0.646   4.075  12.482 -0.6824  0.1782  0.2378
  484MPD2    H1 7255   0.739   4.327  12.150  0.7852 -0.3650  0.7342
  484MPD2    H2 7256   0.348   4.177  12.207  0.3374  0.4618 -1.5792
  484MPD2    H3 7257   0.523   4.316  12.086 -0.8921 -0.5321 -0.5668
  484MPD2     N 7258   0.843   4.216  12.381 -0.3712  0.6389  0.5434
  484MPD2    H5 7259   0.910   4.270  12.328  1.0725  1.2101  3.0015
  484MPD2    N1 7260   0.384   4.040  12.424  0.1381 -0.1883 -0.0276
  484MPD2    H7 7261   0.291   4.043  12.385  0.5243  0.5457 -0.9096
  485TMC3    C1 7262   1.046   4.153  12.469 -0.2352  0.8230  0.6343
  485TMC3    C2 7263   1.104   4.168  12.587 -0.3929 -0.3872  0.1434
  485TMC3    C3 7264   1.232   4.217  12.585 -0.2356  1.1108 -0.1621
  485TMC3    C4 7265   1.098   4.215  12.360  0.5268  0.5170  0.1468
  485TMC3    C5 7266   1.216   4.281  12.368  0.4202 -0.3998 -0.3718
  485TMC3    C6 7267   1.278   4.290  12.485 -0.5354  0.0583  0.5194
  485TMC3     C 7268   0.897   4.136  12.476 -0.1302  0.8044  0.6730
  485TMC3     O 7269   0.843   4.081  12.571  0.1448  0.5266  0.6666
  485TMC3     H 7270   1.077   4.129  12.685  1.4218 -0.3243  0.6756
  485TMC3    H1 7271   1.060   4.179  12.265  0.1721 -1.0062  0.8605
  485TMC3    H2 7272   1.373   4.342  12.492 -1.3446  1.5300  0.6184
  485TMC3    C7 7273   1.300   4.239  12.261 -0.0104 -0.7630 -0.4801
  485TMC3    C8 7274   1.327   4.130  12.651  0.2622 -1.2241 -0.4671
  485TMC3    O1 7275   1.405   4.189  12.301  0.4182 -0.0908 -0.6006
  485TMC3    O2 7276   1.292   4.074  12.754  0.6959 -0.1865 -0.0783
  486MPD2     C 7277   2.941   2.796  12.946 -0.1706  0.5042 -0.5082
  486MPD2    C1 7278   2.923   2.817  12.807 -0.6675  0.3049 -0.2158
  486MPD2    C2 7279   2.949   2.945  12.758 -0.6458  1.0804 -1.4282
  486MPD2    C3 7280   2.970   3.052  12.841  0.1835  0.3344 -0.1262
  486MPD2    C4 7281   2.992   3.026  12.975  0.2958  0.0648 -0.5420
  486MPD2    C5 7282   2.967   2.902  13.029 -0.0338  0.6811 -0.3403
  486MPD2     H 7283   2.934   2.967  12.653 -0.9814 -1.3260 -1.8889
  486MPD2    H1 7284   2.997   3.101  13.053  1.6246  0.2856 -0.8446
  486MPD2    H2 7285   2.924   2.697  12.988  0.7971  1.1453  1.3932
  486MPD2    H3 7286   2.982   2.886  13.135  3.6168  1.1826 -0.7668
  486MPD2     N 7287   2.965   3.184  12.795 -0.6996  0.2011  0.1578
  486MPD2    H5 7288   2.956   3.202  12.696 -0.8376  1.8448  0.4828
  486MPD2    N1 7289   2.876   2.709  12.726  0.0813  0.0879 -0.1528
  486MPD2    H7 7290   2.869   2.617  12.768 -0.8086 -0.2925 -1.1098
  487TMC3    C1 7291   2.760   2.597  12.554  0.3923 -0.3782 -0.0279
  487TMC3    C2 7292   2.620   2.600  12.524  1.1514  0.2531  0.8041
  487TMC3    C3 7293   2.543   2.488  12.527  0.2357 -0.8236  0.4507
  487TMC3    C4 7294   2.806   2.479  12.600 -0.6307 -0.4854 -0.1733
  487TMC3    C5 7295   2.720   2.378  12.628 -0.0430  0.2243 -0.5379
  487TMC3    C6 7296   2.601   2.369  12.563 -0.3636 -0.1963 -0.6772
  487TMC3     C 7297   2.818   2.722  12.600 -0.0031  0.0103 -0.0648
  487TMC3     O 7298   2.771   2.821  12.540 -0.1648 -0.3644 -0.4179
  487TMC3     H 7299   2.572   2.697  12.518  0.0902 -0.2942  0.5364
  487TMC3    H1 7300   2.908   2.472  12.636 -0.3196 -1.5219 -1.2429
  487TMC3    H2 7301   2.546   2.278  12.585  1.2492 -0.6729  1.3670
  487TMC3    C7 7302   2.700   2.378  12.773 -0.2027 -0.3633 -0.1771
  487TMC3    C8 7303   2.435   2.523  12.610  0.2819  0.1730  0.7699
  487TMC3    O1 7304   2.777   2.435  12.846 -0.2745 -0.5715  0.8655
  487TMC3    O2 7305   2.457   2.621  12.686 -0.6008  0.2571 -0.3571
  488MPD2     C 7306   2.913   0.045  16.384  0.1290 -0.0315 -0.4826
  488MPD2    C1 7307   2.973   0.155  16.434 -0.2938 -0.5772  0.4989
  488MPD2    C2 7308   2.964   0.172  16.577  0.0485 -0.3756  0.1678
  488MPD2    C3 7309   2.890   0.090  16.658 -0.5064  0.0282  0.2301
  488MPD2    C4 7310   2.818   4.724  16.602  1.0019 -0.3416  0.6541
  488MPD2    C5 7311   2.838   4.706  16.469 -0.8720  0.3255  0.1685
  488MPD2     H 7312   3.017   0.257  16.619  2.8315 -1.8646 -0.3153
  488MPD2    H1 7313   2.760   4.655  16.662 -0.7090  0.9100  0.4420
  488MPD2    H2 7314   2.917   0.020  16.278 -2.1689  2.8981 -1.2576
  488MPD2    H3 7315   2.783   4.617  16.443  0.1214 -0.4469  0.7294
  488MPD2     N 7316   2.895   0.123  16.793  0.0126 -0.0821 -0.3807
  488MPD2    H5 7317   2.936   0.214  16.809  2.1708 -0.9492 -0.9183
  488MPD2    N1 7318   3.045   0.242  16.347  0.1711  0.1500  0.3239
  488MPD2    H7 7319   3.074   0.327  16.394 -1.4686  0.1550  1.3136
  489TMC3    C1 7320   2.868   0.128  17.025 -0.0634 -0.1208 -0.4440
  489TMC3    C2 7321   2.924   0.249  17.029 -0.3192 -0.4028 -1.1017
  489TMC3    C3 7322   2.914   0.321  17.140  0.4526 -0.4812 -0.2488
  489TMC3    C4 7323   2.793   0.075  17.133 -0.3512  0.4693 -0.8338
  489TMC3    C5 7324   2.776   0.168  17.236 -0.1904  0.1892  0.2042
  489TMC3    C6 7325   2.837   0.288  17.241 -0.9490 -0.0979 -0.1839
  489TMC3     C 7326   2.835   0.066  16.896  0.4006  0.3716  0.2035
  489TMC3     O 7327   2.769   4.698  16.897  0.3876 -0.6883  0.3998
  489TMC3     H 7328   2.979   0.289  16.945  2.4183 -1.3042  0.2443
  489TMC3    H1 7329   2.765   4.708  17.139 -1.5969  0.8696  0.4673
  489TMC3    H2 7330   2.826   0.359  17.322 -1.8996 -1.2120  0.6611
  489TMC3    C7 7331   2.705   0.130  17.354 -0.1229 -0.1768 -0.3185
  489TMC3    C8 7332   2.998   0.438  17.138 -0.1880 -0.1009  0.2749
  489TMC3    O1 7333   2.707   0.197  17.456  0.3558  0.3731 -0.0139
  489TMC3    O2 7334   3.099   0.427  17.069 -0.4534 -0.0996 -0.1130
  490MPD2     C 7335   3.832   4.428  17.159  0.3364  0.0490 -0.7193
  490MPD2    C1 7336   3.778   4.445  17.288  0.1271  0.6544 -0.5984
  490MPD2    C2 7337   3.843   4.415  17.406  0.5114 -0.4324 -0.7532
  490MPD2    C3 7338   3.975   4.374  17.392  0.1996 -0.9158  0.0485
  490MPD2    C4 7339   4.037   4.365  17.267  0.5562 -0.5116  0.5838
  490MPD2    C5 7340   3.965   4.401  17.152  0.0026 -0.2375 -0.4212
  490MPD2     H 7341   3.800   4.431  17.504  3.9599  1.3537  0.4798
  490MPD2    H1 7342   4.139   4.330  17.251  0.9481  0.2073  1.4937
  490MPD2    H2 7343   3.773   4.448  17.071  0.3423  0.6778 -0.5774
  490MPD2    H3 7344   4.023   4.388  17.061 -0.0889 -1.7364 -0.2487
  490MPD2     N 7345   4.059   4.350  17.506  0.0643  0.0845 -0.3804
  490MPD2    H5 7346   4.158   4.331  17.491  0.2950 -0.5539  1.8812
  490MPD2    N1 7347   3.642   4.476  17.301  0.6272  0.3500  0.5755
  490MPD2    H7 7348   3.598   4.459  17.391 -0.9050 -2.3790 -0.6916
  491TMC3    C1 7349   3.422   4.483  17.239 -0.3132  0.9278  0.5169
  491TMC3    C2 7350   3.404   4.497  17.375 -0.0632 -0.1016 -0.2691
  491TMC3    C3 7351   3.304   4.424  17.426  1.0155  0.2748 -0.5166
  491TMC3    C4 7352   3.346   4.404  17.159 -0.2820 -0.0287 -0.6183
  491TMC3    C5 7353   3.250   4.320  17.217  0.4948  0.1965  0.6335
  491TMC3    C6 7354   3.239   4.321  17.352 -0.1219  0.2881  0.3584
  491TMC3     C 7355   3.557   4.512  17.195  0.5657 -0.3662  0.2226
  491TMC3     O 7356   3.576   4.551  17.081  0.4300  0.1277  0.1687
  491TMC3     H 7357   3.469   4.564  17.430 -0.5449  0.5046 -0.4388
  491TMC3    H1 7358   3.363   4.394  17.052 -0.6850 -2.5611 -0.4611
  491TMC3    H2 7359   3.151   4.267  17.387  0.0602 -0.2426  0.0022
  491TMC3    C7 7360   3.214   4.201  17.141  0.0060 -0.4108 -0.6644
  491TMC3    C8 7361   3.278   4.419  17.566 -0.8346  0.1908 -0.1884
  491TMC3    O1 7362   3.234   4.195  17.020  0.1358  0.4639  0.8294
  491TMC3    O2 7363   3.218   4.317  17.600  0.7289  0.0604 -0.1386
  492MPD2     C 7364   3.897   4.383  11.160 -0.3848 -0.2216  0.7786
  492MPD2    C1 7365   3.768   4.338  11.130  0.2535 -0.2706  0.4778
  492MPD2    C2 7366   3.707   4.236  11.203  0.5300  0.1242 -0.4706
  492MPD2    C3 7367   3.771   4.183  11.313 -0.3052  0.5161 -0.0823
  492MPD2    C4 7368   3.906   4.217  11.322  0.3188  0.4847 -0.8705
  492MPD2    C5 7369   3.968   4.323  11.260 -0.7311 -0.2389  0.0962
  492MPD2     H 7370   3.610   4.195  11.175  0.0598  1.7474 -1.2214
  492MPD2    H1 7371   3.962   4.172  11.403  0.6313  0.2733 -1.2051
  492MPD2    H2 7372   3.938   4.463  11.099 -2.4218  1.6867  1.8952
  492MPD2    H3 7373   4.066   4.362  11.283 -0.7000  0.7335 -1.7087
  492MPD2     N 7374   3.723   4.087  11.394 -0.5996  0.3064  0.1014
  492MPD2    H5 7375   3.788   4.050  11.463 -0.3206  1.7699  0.6303
  492MPD2    N1 7376   3.718   4.393  11.009  0.3428 -0.5477  0.1167
  492MPD2    H7 7377   3.776   4.458  10.958  1.1534 -0.5144  1.0805
  493TMC3    C1 7378   3.561   4.438  10.840 -0.1061  0.0469 -0.7108
  493TMC3    C2 7379   3.663   4.468  10.759 -0.8528  0.7515 -0.2122
  493TMC3    C3 7380   3.637   4.500  10.631 -0.2300  0.1304  0.1831
  493TMC3    C4 7381   3.426   4.440  10.791 -0.1740 -0.2685 -0.3691
  493TMC3    C5 7382   3.405   4.460  10.661  0.2678 -0.3257 -0.0947
  493TMC3    C6 7383   3.512   4.495  10.578 -0.1976 -0.8537 -0.3702
  493TMC3     C 7384   3.586   4.378  10.972  0.5509 -0.7460  0.4676
  493TMC3     O 7385   3.487   4.332  11.028 -0.4182 -0.5108  0.8674
  493TMC3     H 7386   3.765   4.473  10.795 -0.6137 -2.1059 -0.4887
  493TMC3    H1 7387   3.344   4.408  10.855 -0.2369  0.2147 -0.2059
  493TMC3    H2 7388   3.486   4.539  10.482 -2.3621  0.0041  0.6108
  493TMC3    C7 7389   3.271   4.507  10.610 -0.2121  0.1628 -0.6384
  493TMC3    C8 7390   3.736   4.581  10.554  0.8082 -0.1037 -0.2997
  493TMC3    O1 7391   3.261   4.550  10.497  0.3270 -0.2906 -0.0265
  493TMC3    O2 7392   3.711   4.648  10.460  0.0795 -0.1727  0.3248
  494TMC3    C1 7393   4.180   1.176   0.481  0.2512 -0.3743  0.1673
  494TMC3    C2 7394   4.256   1.058   0.484 -0.2192  0.4163 -0.6743
  494TMC3    C3 7395   4.347   1.043   0.378 -0.4843  0.5663  0.0444
  494TMC3    C4 7396   4.189   1.271   0.381  1.1501  0.8391 -0.2918
  494TMC3    C5 7397   4.278   1.240   0.277 -0.5201  0.1007 -0.0880
  494TMC3    C6 7398   4.349   1.123   0.265 -0.1532 -0.2120 -0.3026
  494TMC3     C 7399   4.112   1.224   0.592 -0.5136  0.4806  0.1125
  494TMC3     O 7400   4.023   1.307   0.576 -0.1268 -0.4527 -0.0350
  494TMC3     H 7401   4.218   0.973   0.539  0.3125  0.9601  0.5517
  494TMC3    H1 7402   4.133   1.362   0.397 -0.3709 -0.2475  0.4570
  494TMC3    H2 7403   4.424   1.117   0.188  1.5406  0.3692  1.3057
  494TMC3    C7 7404   4.315   1.337   0.178  0.2099 -0.3593  0.1811
  494TMC3    C8 7405   4.434   0.936   0.380 -0.6974  0.0771 -0.2040
  494TMC3    O1 7406   4.363   1.298   0.072  0.1693  0.1616 -0.0578
  494TMC3    O2 7407   4.491   0.917   0.269 -0.4754  0.3029 -0.3585
  495TMC3    C1 7408   3.448   3.118  14.692  0.3728  0.3398  0.2491
  495TMC3    C2 7409   3.378   3.169  14.589 -0.7240 -0.0669  0.3122
  495TMC3    C3 7410   3.279   3.262  14.621 -0.5053 -0.0513 -0.2655
  495TMC3    C4 7411   3.412   3.150  14.823 -0.2680 -0.0539 -0.0510
  495TMC3    C5 7412   3.321   3.246  14.849 -0.3233 -0.0737 -0.0635
  495TMC3    C6 7413   3.246   3.298  14.750 -0.2682 -0.3125  0.3930
  495TMC3     C 7414   3.475   2.980  14.668  0.2535 -0.2590 -0.0754
  495TMC3     O 7415   3.430   2.897  14.740 -1.1615  0.5179 -0.3121
  495TMC3     H 7416   3.395   3.142  14.485  2.0035  0.9654  0.5035
  495TMC3    H1 7417   3.468   3.106  14.904  2.9946  1.3726 -1.5156
  495TMC3    H2 7418   3.173   3.373  14.777  0.2028  0.1145  0.4635
  495TMC3    C7 7419   3.306   3.271  14.986  0.4824 -0.1346  0.9517
  495TMC3    C8 7420   3.175   3.299  14.519 -0.2485 -0.3028  0.2465
  495TMC3    O1 7421   3.412   3.279  15.053  0.1668 -0.0807  0.4760
  495TMC3    O2 7422   3.082   3.373  14.561 -0.1751 -0.1965 -0.6330
  496MPD2     C 7423   0.297   3.676  14.903  0.0815  0.2652 -0.1066
  496MPD2    C1 7424   0.342   3.603  15.011 -0.7004 -0.0003 -1.0016
  496MPD2    C2 7425   0.248   3.555  15.096  0.2500  0.7564  0.4889
  496MPD2    C3 7426   0.112   3.575  15.083  0.4860  1.1523  0.5206
  496MPD2    C4 7427   0.071   3.652  14.972  0.3508  0.1496  0.7601
  496MPD2    C5 7428   0.163   3.697  14.883  0.4252 -0.2771  0.3154
  496MPD2     H 7429   0.291   3.486  15.167  2.0183 -0.0154 -1.3257
  496MPD2    H1 7430   4.704   3.653  14.945  0.9957  2.8493 -1.6104
  496MPD2    H2 7431   0.357   3.722  14.825  1.9058 -0.3439  0.9419
  496MPD2    H3 7432   0.121   3.738  14.791  0.5865 -2.0062 -0.5363
  496MPD2     N 7433   0.012   3.520  15.168  0.3987 -0.2358  0.0272
  496MPD2    H5 7434   4.660   3.554  15.136  1.8817  0.9629 -2.9447
  496MPD2    N1 7435   0.476   3.571  15.041  0.0041  0.0518 -0.1295
  496MPD2    H7 7436   0.494   3.515  15.124 -1.9067 -0.1067  0.1614
  497TMC3    C1 7437   4.655   3.408  15.356 -0.9457 -0.0356 -0.3914
  497TMC3    C2 7438   4.553   3.362  15.283  0.0478  0.2204 -0.2164
  497TMC3    C3 7439   4.479   3.262  15.332  0.7057  0.2347 -0.1213
  497TMC3    C4 7440   4.667   3.375  15.492  0.2014 -0.1793 -0.5774
  497TMC3    C5 7441   4.571   3.295  15.546 -0.5119  0.3753 -0.3066
  497TMC3    C6 7442   4.489   3.231  15.461 -0.3263  0.1309  0.3626
  497TMC3     C 7443   0.033   3.444  15.278  0.1787 -0.6283 -1.0145
  497TMC3     O 7444   0.137   3.401  15.330 -0.0357 -0.2741 -0.0912
  497TMC3     H 7445   4.547   3.382  15.176 -0.5302  1.6857  0.0904
  497TMC3    H1 7446   0.005   3.426  15.551  1.0338 -1.1723 -0.7978
  497TMC3    H2 7447   4.445   3.142  15.506 -0.7650  0.1103 -0.1144
  497TMC3    C7 7448   4.612   3.228  15.671  0.1792 -0.3725 -0.3183
  497TMC3    C8 7449   4.466   3.156  15.240  0.8756  0.4890 -0.1295
  497TMC3    O1 7450   4.566   3.115  15.688  0.2913  0.4889 -0.3224
  497TMC3    O2 7451   4.366   3.144  15.171 -0.7392 -0.1557  0.8476
  498MPD2     C 7452   0.660   4.238   9.478  0.3474 -0.8484  0.0884
  498MPD2    C1 7453   0.781   4.198   9.527 -0.0061  0.1448  0.4372
  498MPD2    C2 7454   0.799   4.064   9.557  0.3055 -0.4631 -0.2896
  498MPD2    C3 7455   0.705   3.966   9.534  0.4055  0.2734  1.2545
  498MPD2    C4 7456   0.576   4.006   9.503  0.1819 -0.0646 -0.3420
  498MPD2    C5 7457   0.561   4.141   9.472 -0.3460  0.3676 -0.5514
  498MPD2     H 7458   0.899   4.031   9.583  0.1499 -1.1028 -0.4960
  498MPD2    H1 7459   0.491   3.940   9.488 -0.7893  0.8336  1.2378
  498MPD2    H2 7460   0.639   4.337   9.438 -0.6474 -1.5654 -1.1621
  498MPD2    H3 7461   0.468   4.176   9.429 -1.0365 -1.7125 -0.7704
  498MPD2     N 7462   0.732   3.833   9.583  0.6603  0.8543  0.5323
  498MPD2    H5 7463   0.821   3.817   9.629  0.6778 -2.3668 -0.6213
  498MPD2    N1 7464   0.893   4.283   9.517  0.0483 -0.2604  0.2741
  498MPD2    H7 7465   0.977   4.250   9.564  0.8422  1.2053 -0.0969
  499TMC3    C1 7466   1.020   4.468   9.454 -0.7742  0.1573 -0.3100
  499TMC3    C2 7467   1.097   4.400   9.366 -0.3817 -0.0091 -0.5018
  499TMC3    C3 7468   1.208   4.466   9.311  0.1803 -0.4615 -0.0298
  499TMC3    C4 7469   1.045   4.600   9.491  0.1557 -0.4245  0.0726
  499TMC3    C5 7470   1.167   4.650   9.448 -0.0897  0.6670  0.4443
  499TMC3    C6 7471   1.250   4.588   9.356 -0.3959  0.2855  0.2669
  499TMC3     C 7472   0.890   4.411   9.469  0.3410 -0.2638 -0.0154
  499TMC3     O 7473   0.792   4.476   9.434  0.8882 -0.3134 -0.4189
  499TMC3     H 7474   1.092   4.294   9.346  0.0554 -0.2647  0.7005
  499TMC3    H1 7475   0.995   4.653   9.572  1.2166 -0.2314  0.6167
  499TMC3    H2 7476   1.343   4.634   9.323  0.7584 -1.0005  1.7677
  499TMC3    C7 7477   1.221   0.014   9.532  0.0861 -0.3234  0.1988
  499TMC3    C8 7478   1.310   4.385   9.251  0.1765 -0.2845  0.3094
  499TMC3    O1 7479   1.301   0.083   9.467  0.4323  0.4145 -0.4348
  499TMC3    O2 7480   1.427   4.417   9.277  0.5018 -0.1864  0.2143
  500MPD2     C 7481   3.008   0.647  11.003  0.0334  0.5399 -0.3452
  500MPD2    C1 7482   3.033   0.683  10.874  0.0713 -0.0777  0.3810
  500MPD2    C2 7483   2.931   0.672  10.779 -0.4569  0.1693 -0.8682
  500MPD2    C3 7484   2.803   0.634  10.812 -0.4224 -0.2262 -0.0299
  500MPD2    C4 7485   2.786   0.599  10.945 -0.5132 -0.1738  0.1904
  500MPD2    C5 7486   2.885   0.598  11.034  0.6928 -0.4722  0.1118
  500MPD2     H 7487   2.968   0.694  10.679  2.6688 -2.0129 -0.1796
  500MPD2    H1 7488   2.696   0.546  10.973 -0.9115  1.3110  1.7568
  500MPD2    H2 7489   3.090   0.648  11.074 -2.3215  1.7024  2.3727
  500MPD2    H3 7490   2.873   0.558  11.134  1.1844 -0.1624  0.2993
  500MPD2     N 7491   2.690   0.627  10.720  0.1261 -0.7020 -0.4905
  500MPD2    H5 7492   2.595   0.640  10.754 -0.9945 -2.0523 -3.1195
  500MPD2    N1 7493   3.161   0.735  10.837 -0.1785 -0.1507  0.2847
  500MPD2    H7 7494   3.173   0.762  10.740 -0.1584  2.9070  1.1683
  501TMC3    C1 7495   3.379   0.814  10.840  0.2671 -0.6000 -0.6109
  501TMC3    C2 7496   3.342   0.876  10.727 -0.5815  0.2642  1.1012
  501TMC3    C3 7497   3.447   0.905  10.641 -0.0718  0.5711 -1.2696
  501TMC3    C4 7498   3.506   0.809  10.891 -0.5047 -0.1180  0.6214
  501TMC3    C5 7499   3.604   0.857  10.810  0.4746  0.1033 -1.0099
  501TMC3    C6 7500   3.574   0.883  10.680 -0.1400  0.6786  0.0797
  501TMC3     C 7501   3.278   0.748  10.916  0.3009  0.0701  0.2158
  501TMC3     O 7502   3.302   0.711  11.033 -0.1410  0.3668 -0.5328
  501TMC3     H 7503   3.238   0.895  10.702 -0.0005  0.1870 -1.3608
  501TMC3    H1 7504   3.523   0.762  10.987 -1.1576  0.6688  1.1267
  501TMC3    H2 7505   3.661   0.919  10.627  0.3154  1.8456  1.6215
  501TMC3    C7 7506   3.739   0.823  10.844 -0.4870  0.4363 -0.3001
  501TMC3    C8 7507   3.435   1.012  10.548 -0.2060 -0.6307 -0.2138
  501TMC3    O1 7508   3.821   0.823  10.752 -0.3705  0.4053 -0.4203
  501TMC3    O2 7509   3.539   1.063  10.509  0.0059  0.2665 -0.0503
  502TMC3    C1 7510   2.537   3.592  14.802  0.6760 -0.1947  0.0052
  502TMC3    C2 7511   2.564   3.683  14.704  0.2724  0.3093 -0.6945
  502TMC3    C3 7512   2.473   3.788  14.693  0.3232 -0.1556  0.4107
  502TMC3    C4 7513   2.418   3.601  14.873  0.1600  0.3923  0.3740
  502TMC3    C5 7514   2.323   3.706  14.856  0.4325 -0.9010 -0.5095
  502TMC3    C6 7515   2.358   3.801  14.764 -0.1755 -0.0750 -0.2793
  502TMC3     C 7516   2.651   3.569  14.881  0.0040  1.1429  0.1692
  502TMC3     O 7517   2.751   3.562  14.819 -0.4655  0.1476 -0.1251
  502TMC3     H 7518   2.667   3.697  14.673  0.6619 -0.4213  0.2762
  502TMC3    H1 7519   2.397   3.539  14.959 -0.7835  0.4705  0.1999
  502TMC3    H2 7520   2.299   3.892  14.762  0.8694  0.6332  1.3783
  502TMC3    C7 7521   2.290   3.756  14.980  0.7098 -0.4033 -0.5807
  502TMC3    C8 7522   2.537   3.914  14.688 -0.4426 -0.0843  0.4543
  502TMC3    O1 7523   2.376   3.757  15.067  0.8750 -0.0535  0.1678
  502TMC3    O2 7524   2.506   3.982  14.785 -0.1242  0.1119 -0.2171
  503MPD2     C 7525   0.052   0.232  16.533 -0.0433  0.0497  0.5934
  503MPD2    C1 7526   0.066   0.248  16.674 -0.7524 -0.3562  0.6990
  503MPD2    C2 7527   0.103   0.139  16.752 -0.7969  0.3623  0.4197
  503MPD2    C3 7528   0.149   0.023  16.692 -0.1337 -0.1354 -0.4191
  503MPD2    C4 7529   0.146   0.013  16.552  0.9332  0.4185 -0.0278
  503MPD2    C5 7530   0.089   0.107  16.476  0.4274 -0.0583  0.0178
  503MPD2     H 7531   0.097   0.153  16.859 -0.7380 -0.7384  0.5626
  503MPD2    H1 7532   0.190   4.665  16.504 -0.4516 -0.4910  0.3099
  503MPD2    H2 7533   0.009   0.305  16.465  0.5328 -0.9185 -0.8233
  503MPD2    H3 7534   0.078   0.087  16.370 -0.5928 -2.0792  0.4967
  503MPD2     N 7535   0.217   4.657  16.774 -0.3827 -0.2062 -0.4456
  503MPD2    H5 7536   0.211   4.671  16.874 -0.5196  0.0716 -0.4950
  503MPD2    N1 7537   0.045   0.382  16.735 -0.8147  0.2630 -0.6672
  503MPD2    H7 7538   0.071   0.390  16.833  0.0844  0.9378 -0.9558
  504TMC3    C1 7539   0.364   4.484  16.828  0.1471  0.2139  0.4412
  504TMC3    C2 7540   0.288   4.426  16.930  0.2650 -0.1993  0.5247
  504TMC3    C3 7541   0.353   4.345  17.019  0.1077  0.0294  0.0574
  504TMC3    C4 7542   0.499   4.459  16.814  0.2176  0.7550 -0.0074
  504TMC3    C5 7543   0.564   4.379  16.911  0.0262 -1.2551  0.0462
  504TMC3    C6 7544   0.493   4.322  17.016 -0.1639  0.4665  0.1502
  504TMC3     C 7545   0.308   4.565  16.724 -0.6413 -0.1224  0.0215
  504TMC3     O 7546   0.328   4.527  16.609  0.1653 -0.0460  0.2179
  504TMC3     H 7547   0.182   4.447  16.932  0.0925 -0.9943 -0.4353
  504TMC3    H1 7548   0.554   4.511  16.736  0.5480  0.1178 -0.1962
  504TMC3    H2 7549   0.546   4.247  17.073  0.2199  1.4499  1.0899
  504TMC3    C7 7550   0.703   4.367  16.896  0.4630  1.2023  0.7772
  504TMC3    C8 7551   0.275   4.314  17.140 -0.0488 -0.5945  0.2487
  504TMC3    O1 7552   0.745   4.367  16.779  0.1586 -0.0444 -0.4864
  504TMC3    O2 7553   0.159   4.358  17.135  0.3576 -0.2272 -0.2877
  505MPD2     C 7554   0.522   2.951  10.998  0.1042 -0.3558 -0.7417
  505MPD2    C1 7555   0.517   2.991  10.863  0.0767  0.8722  0.9466
  505MPD2    C2 7556   0.610   3.078  10.818  0.0778  0.5467  0.0251
  505MPD2    C3 7557   0.695   3.131  10.907 -0.1614  0.6730  0.2459
  505MPD2    C4 7558   0.707   3.091  11.041  0.8179 -0.2543 -0.3543
  505MPD2    C5 7559   0.613   3.005  11.087  0.4908 -0.7145 -0.0024
  505MPD2     H 7560   0.612   3.101  10.712  1.0305  2.3381  0.4329
  505MPD2    H1 7561   0.777   3.125  11.116 -0.7870 -1.4660  1.7229
  505MPD2    H2 7562   0.452   2.871  11.017  0.1532 -0.7442 -2.2336
  505MPD2    H3 7563   0.603   2.969  11.189 -1.4743 -0.3744 -0.0716
  505MPD2     N 7564   0.805   3.208  10.865  0.0119 -0.1688  0.6247
  505MPD2    H5 7565   0.884   3.200  10.928  0.9253  1.9814 -0.2402
  505MPD2    N1 7566   0.452   2.912  10.766 -0.3746  0.5229 -0.0296
  505MPD2    H7 7567   0.415   2.825  10.803 -1.8491  0.6912 -1.0793
  506TMC3    C1 7568   0.403   2.809  10.568  0.4530  0.0978 -0.8461
  506TMC3    C2 7569   0.365   2.829  10.441 -0.5382  0.0136  0.8839
  506TMC3    C3 7570   0.360   2.724  10.355  0.0558 -0.5029  0.3668
  506TMC3    C4 7571   0.475   2.699  10.608 -0.2921  0.3826 -0.5044
  506TMC3    C5 7572   0.494   2.608  10.508 -0.1432 -0.2002  0.1147
  506TMC3    C6 7573   0.421   2.610  10.392 -0.1641 -0.3476 -0.3816
  506TMC3     C 7574   0.440   2.933  10.634 -0.1497  0.1813 -0.7902
  506TMC3     O 7575   0.457   3.032  10.566 -0.0933  0.7451  0.1044
  506TMC3     H 7576   0.321   2.924  10.413 -2.7036 -0.2466  3.4397
  506TMC3    H1 7577   0.526   2.697  10.704  0.9594 -0.9979 -1.1997
  506TMC3    H2 7578   0.444   2.544  10.310  1.8290  2.5292 -2.1316
  506TMC3    C7 7579   0.636   2.585  10.474  0.4627 -0.4789  0.1315
  506TMC3    C8 7580   0.354   2.749  10.216  0.1376  0.5721  0.7496
  506TMC3    O1 7581   0.663   2.497  10.391 -0.4884  0.1907 -0.2943
  506TMC3    O2 7582   0.326   2.651  10.146 -0.6604 -0.2112 -0.7471
  507TMC3    C1 7583   1.222   4.263  14.708 -0.1937 -0.4725 -0.1807
  507TMC3    C2 7584   1.208   4.161  14.622 -0.1548 -0.2351 -0.1820
  507TMC3    C3 7585   1.215   4.200  14.487  0.3189 -0.5797 -0.6153
  507TMC3    C4 7586   1.280   4.384  14.671  0.5436 -0.0635 -0.1478
  507TMC3    C5 7587   1.326   4.406  14.542 -0.7460  0.8546 -0.1990
  507TMC3    C6 7588   1.285   4.318  14.452  0.6783  0.0207  0.5453
  507TMC3     C 7589   1.114   4.286  14.795  0.5559 -0.5016  0.0582
  507TMC3     O 7590   1.127   4.364  14.890 -0.0294  0.1491  0.6182
  507TMC3     H 7591   1.155   4.072  14.655  0.5912  0.0811  1.8359
  507TMC3    H1 7592   1.288   4.458  14.750  0.3402 -1.8705  1.5656
  507TMC3    H2 7593   1.308   4.329  14.346 -2.8027  0.3977 -0.1889
  507TMC3    C7 7594   1.318   4.541  14.492 -0.2606 -0.4643  1.2306
  507TMC3    C8 7595   1.082   4.194  14.435 -0.1766  0.1881  0.0596
  507TMC3    O1 7596   1.253   4.559  14.392  0.2610 -0.2544  1.3968
  507TMC3    O2 7597   1.009   4.099  14.462 -0.3832 -0.6418  0.5179
  508MPD2     C 7598   2.156   1.549  16.018  0.0106  0.4779 -0.4736
  508MPD2    C1 7599   2.114   1.648  16.106 -0.1207 -0.2764 -0.5016
  508MPD2    C2 7600   2.078   1.768  16.052  0.4294 -0.2523  0.2202
  508MPD2    C3 7601   2.064   1.795  15.916  0.4175 -0.3432  0.4276
  508MPD2    C4 7602   2.113   1.697  15.830  0.7651 -0.2751 -0.8461
  508MPD2    C5 7603   2.163   1.581  15.886 -0.4308 -0.4163 -0.7385
  508MPD2     H 7604   2.055   1.848  16.122  2.8351 -0.1457  0.9066
  508MPD2    H1 7605   2.125   1.703  15.723  0.7689  0.8088 -0.7889
  508MPD2    H2 7606   2.189   1.449  16.041 -1.5448 -0.2531 -1.4038
  508MPD2    H3 7607   2.194   1.498  15.823 -1.6407  0.0653 -1.9732
  508MPD2     N 7608   2.025   1.926  15.875 -0.4106 -0.2131  0.1562
  508MPD2    H5 7609   1.987   1.993  15.940  0.4373  0.8180 -0.4165
  508MPD2    N1 7610   2.127   1.620  16.244 -0.4159  0.5214 -0.0402
  508MPD2    H7 7611   2.176   1.536  16.274 -0.1260  1.0381  0.9275
  509TMC3    C1 7612   1.907   2.309  15.661  0.4018 -0.4503  0.0443
  509TMC3    C2 7613   1.984   2.392  15.745  0.7456 -0.3668 -0.4064
  509TMC3    C3 7614   2.069   2.329  15.834 -0.4533 -0.2973  0.1849
  509TMC3    C4 7615   1.909   2.175  15.669 -1.1780  0.4535 -0.3036
  509TMC3    C5 7616   1.996   2.118  15.756  0.1405 -0.3176  0.5875
  509TMC3    C6 7617   2.084   2.194  15.832  0.3404 -0.4136  0.0549
  509TMC3     C 7618   1.794   2.367  15.580  0.5150 -0.5467 -0.4201
  509TMC3     O 7619   1.728   2.283  15.519  0.3706  0.3101 -0.0992
  509TMC3     H 7620   1.963   2.498  15.746 -0.3121 -0.5778 -0.3250
  509TMC3    H1 7621   1.848   2.113  15.603 -0.7244  1.1706 -1.3895
  509TMC3    H2 7622   2.152   2.141  15.897  1.1422  0.6930  0.1043
  509TMC3    C7 7623   2.022   1.974  15.750  0.0718 -0.6005  0.3484
  509TMC3    C8 7624   2.185   2.400  15.884  0.2084 -0.1809 -0.2235
  509TMC3    O1 7625   2.049   1.920  15.643  0.4622 -0.0375 -0.0919
  509TMC3    O2 7626   2.250   2.334  15.963  0.1501 -0.2952  0.1406
  510MPD2     C 7627   4.565   3.670  14.586  0.2216 -0.7722 -0.4685
  510MPD2    C1 7628   4.617   3.581  14.670  0.2235  0.3019  0.5125
  510MPD2    C2 7629   0.012   3.552  14.659  0.1713  0.3908 -0.2580
  510MPD2    C3 7630   0.094   3.630  14.573  0.3951 -0.3038 -0.5532
  510MPD2    C4 7631   0.040   3.730  14.496  0.3601  0.5199  0.3619
  510MPD2    C5 7632   4.644   3.752  14.505 -0.2420 -0.3036  0.2161
  510MPD2     H 7633   0.059   3.482  14.726 -0.8730 -0.3483 -0.2931
  510MPD2    H1 7634   0.099   3.786  14.425  0.0208 -2.6946 -2.3934
  510MPD2    H2 7635   4.458   3.691  14.592  0.8990  1.5499  3.3103
  510MPD2    H3 7636   4.597   3.826  14.442 -0.4059 -0.4373  0.1806
  510MPD2     N 7637   0.231   3.594  14.571  0.2057  0.1829 -0.4567
  510MPD2    H5 7638   0.257   3.527  14.642  1.6906  1.9544  0.6841
  510MPD2    N1 7639   4.535   3.508  14.761  0.5685 -0.0582 -0.6350
  510MPD2    H7 7640   4.571   3.422  14.801  0.3038  0.5178  0.8367
  511TMC3    C1 7641   4.330   3.445  14.868  0.3699 -0.1996  0.8709
  511TMC3    C2 7642   4.222   3.486  14.946  0.2734  0.1456  0.4876
  511TMC3    C3 7643   4.144   3.386  14.993  0.0926 -0.2652 -0.1623
  511TMC3    C4 7644   4.342   3.317  14.818  0.1433 -0.2110  0.4803
  511TMC3    C5 7645   4.257   3.223  14.867 -0.2089 -0.7005 -0.3585
  511TMC3    C6 7646   4.158   3.253  14.958  0.2425 -0.2323  0.3410
  511TMC3     C 7647   4.407   3.546  14.799 -0.4752  0.1418 -0.1875
  511TMC3     O 7648   4.343   3.650  14.778 -0.1504 -0.0368 -0.1649
  511TMC3     H 7649   4.217   3.591  14.972 -0.7265  0.2105  0.0320
  511TMC3    H1 7650   4.422   3.289  14.751 -0.6573 -0.8945 -0.1988
  511TMC3    H2 7651   4.079   3.180  14.969 -0.9258  0.8122 -0.9869
  511TMC3    C7 7652   4.279   3.088  14.827 -0.6866 -0.2438 -0.0130
  511TMC3    C8 7653   4.087   3.426  15.120  0.7045 -0.0136 -0.3532
  511TMC3    O1 7654   4.348   3.070  14.728  0.2801  0.1684  0.7170
  511TMC3    O2 7655   4.065   3.546  15.136 -0.5592  0.1589  1.0377
  512TMC3    C1 7656   3.657   2.710  13.633  0.3731  0.1492  0.7865
  512TMC3    C2 7657   3.700   2.805  13.724 -0.3086 -0.0648  0.2525
  512TMC3    C3 7658   3.824   2.778  13.780 -0.0594  0.0205 -0.6712
  512TMC3    C4 7659   3.734   2.605  13.589  0.6116 -0.0003  0.2393
  512TMC3    C5 7660   3.860   2.602  13.641  0.0325 -0.5330 -0.1138
  512TMC3    C6 7661   3.907   2.680  13.744 -0.1674 -0.1065  0.3914
  512TMC3     C 7662   3.523   2.722  13.578 -0.1611  0.1774 -0.7501
  512TMC3     O 7663   3.478   2.622  13.526 -0.0431  0.3082 -0.2999
  512TMC3     H 7664   3.638   2.891  13.747  0.3157  0.7352 -1.0865
  512TMC3    H1 7665   3.704   2.558  13.496  0.8478 -0.1499  0.2398
  512TMC3    H2 7666   4.009   2.674  13.782 -0.7839  0.8726  2.2072
  512TMC3    C7 7667   3.964   2.568  13.550 -0.0991 -0.0136 -0.0470
  512TMC3    C8 7668   3.881   2.858  13.890  0.3510 -0.2186 -0.5519
  512TMC3    O1 7669   4.041   2.666  13.538 -0.2879  0.4517 -0.2518
  512TMC3    O2 7670   3.969   2.818  13.964 -0.2217 -0.2137 -0.7763
  513MPD2     C 7671   0.511   2.181  13.328  0.0297 -0.1770  0.0271
  513MPD2    C1 7672   0.524   2.306  13.275  0.3697  0.2592  0.8726
  513MPD2    C2 7673   0.510   2.413  13.360  0.0569 -0.2817 -0.0042
  513MPD2    C3 7674   0.480   2.402  13.491  0.4556 -0.4047 -0.1836
  513MPD2    C4 7675   0.466   2.274  13.539  0.8010 -1.0634  0.1619
  513MPD2    C5 7676   0.468   2.165  13.456 -0.2040  0.2268  0.3307
  513MPD2     H 7677   0.530   2.509  13.314  0.3733 -0.6567 -0.6451
  513MPD2    H1 7678   0.430   2.250  13.639  2.0838 -1.7499  0.4713
  513MPD2    H2 7679   0.527   2.091  13.270 -1.8711  0.1996 -1.0809
  513MPD2    H3 7680   0.454   2.061  13.483 -2.3363  0.1521 -1.0155
  513MPD2     N 7681   0.468   2.517  13.568 -0.3015 -0.1924 -0.5322
  513MPD2    H5 7682   0.476   2.603  13.514  1.6979  0.8449  1.4192
  513MPD2    N1 7683   0.573   2.306  13.138  0.5788  0.2490  0.2077
  513MPD2    H7 7684   0.572   2.214  13.095  1.1462 -0.1100  0.9652
  514TMC3    C1 7685   0.701   2.378  12.966 -0.1422 -0.0831  0.1308
  514TMC3    C2 7686   0.645   2.378  12.845  0.1680 -0.0599  0.9647
  514TMC3    C3 7687   0.699   2.461  12.749  0.0291 -0.5729  0.3241
  514TMC3    C4 7688   0.819   2.446  12.995  0.7299  0.0792 -0.2801
  514TMC3    C5 7689   0.874   2.520  12.899 -0.9032 -0.6433 -0.4687
  514TMC3    C6 7690   0.825   2.524  12.768 -0.6085  0.2409 -0.5741
  514TMC3     C 7691   0.611   2.415  13.066 -0.0756  0.7907  0.0919
  514TMC3     O 7692   0.598   2.538  13.088  0.5004  0.4886  0.2051
  514TMC3     H 7693   0.557   2.315  12.839 -0.0838  0.5857 -1.9907
  514TMC3    H1 7694   0.855   2.428  13.095 -0.6239 -3.2529 -0.3889
  514TMC3    H2 7695   0.845   2.617  12.716  0.5386 -0.6338 -1.7010
  514TMC3    C7 7696   0.909   2.651  12.948  0.5251 -0.2038  0.1201
  514TMC3    C8 7697   0.620   2.496  12.626  0.0312  0.2374  0.0328
  514TMC3    O1 7698   0.994   2.709  12.878  0.3589 -0.8095 -0.0075
  514TMC3    O2 7699   0.498   2.477  12.623  0.2632  0.1319 -0.4008
  515MPD2     C 7700   3.140   0.138  14.773 -0.3713 -0.0653  0.0854
  515MPD2    C1 7701   3.247   0.065  14.730  0.3759  0.2110  0.6664
  515MPD2    C2 7702   3.376   0.114  14.743  0.3110 -0.1662  0.3403
  515MPD2    C3 7703   3.403   0.237  14.813 -0.1114  0.5150  0.4186
  515MPD2    C4 7704   3.293   0.307  14.845 -0.2221  0.3173 -0.9360
  515MPD2    C5 7705   3.162   0.263  14.825 -0.4428 -0.0605 -1.1157
  515MPD2     H 7706   3.462   0.058  14.707  1.0968  1.5628 -0.4679
  515MPD2    H1 7707   3.306   0.404  14.892  2.0333 -1.2827  1.7128
  515MPD2    H2 7708   3.037   0.113  14.748 -0.8125  1.5563  0.3090
  515MPD2    H3 7709   3.080   0.323  14.865 -0.4759 -0.5705 -0.4269
  515MPD2     N 7710   3.527   0.301  14.833 -0.1058 -0.0476  0.4728
  515MPD2    H5 7711   3.536   0.392  14.876  3.3904  1.1903 -2.8667
  515MPD2    N1 7712   3.224   4.677  14.664 -0.1716 -0.3777  0.5275
  515MPD2    H7 7713   3.126   4.661  14.646  0.1775 -1.0459 -0.7935
  516TMC3    C1 7714   3.283   4.470  14.570 -0.0233  0.6292 -0.2880
  516TMC3    C2 7715   3.193   4.487  14.471  0.0407 -0.5823 -0.3199
  516TMC3    C3 7716   3.191   4.390  14.378 -0.2074 -0.5598  0.1906
  516TMC3    C4 7717   3.376   4.368  14.577 -0.1349  0.1812  0.1375
  516TMC3    C5 7718   3.361   4.267  14.488 -0.4952  0.2102 -0.4330
  516TMC3    C6 7719   3.272   4.273  14.382  0.1420 -0.2952 -0.1303
  516TMC3     C 7720   3.321   4.585  14.656 -0.0534 -0.1632  0.4776
  516TMC3     O 7721   3.439   4.573  14.695 -0.7257  0.0147 -0.0560
  516TMC3     H 7722   3.138   4.579  14.458 -1.4015 -1.2833  0.8474
  516TMC3    H1 7723   3.446   4.358  14.659 -1.0819  0.4223  0.9888
  516TMC3    H2 7724   3.281   4.207  14.297  0.3105 -0.3547 -0.0642
  516TMC3    C7 7725   3.394   4.142  14.544 -0.4636  0.0102  0.1403
  516TMC3    C8 7726   3.121   4.425  14.254 -0.6165  0.4436  0.1672
  516TMC3    O1 7727   3.472   4.139  14.637  0.3526  0.5340 -0.6378
  516TMC3    O2 7728   3.013   4.477  14.260  0.2821 -0.8032  0.2173
  517MPD2     C 7729   2.923   1.804  17.381 -0.1162  0.7514 -0.1365
  517MPD2    C1 7730   3.045   1.788  17.444 -0.3291  0.3740  0.3177
  517MPD2    C2 7731   3.102   1.897  17.509  0.7766 -0.2065 -0.0195
  517MPD2    C3 7732   3.035   2.022  17.519  0.7554 -0.0444  0.0254
  517MPD2    C4 7733   2.908   2.035  17.473  0.3574  0.3832  0.2534
  517MPD2    C5 7734   2.858   1.928  17.397  0.2047 -0.2173 -0.6065
  517MPD2     H 7735   3.204   1.898  17.545 -0.1559 -0.1183  2.6282
  517MPD2    H1 7736   2.841   2.121  17.476 -1.8689 -1.3572  0.7476
  517MPD2    H2 7737   2.879   1.726  17.320 -1.8411  0.1871  1.7952
  517MPD2    H3 7738   2.759   1.946  17.356  0.3299 -1.0345 -1.2730
  517MPD2     N 7739   3.099   2.132  17.577  0.1992  0.1025 -0.2632
  517MPD2    H5 7740   3.064   2.225  17.558 -2.1847 -0.5065  1.0653
  517MPD2    N1 7741   3.116   1.665  17.439 -0.2385 -0.0705  0.1066
  517MPD2    H7 7742   3.216   1.662  17.452  0.0417 -0.9121 -2.3857
  518TMC3    C1 7743   3.153   1.435  17.400 -0.0594  0.1724 -0.6275
  518TMC3    C2 7744   3.111   1.312  17.446  0.0934  0.4434 -0.5900
  518TMC3    C3 7745   3.221   1.222  17.466  0.0431  0.1228 -0.5276
  518TMC3    C4 7746   3.282   1.474  17.376 -0.0261  0.1151 -0.5936
  518TMC3    C5 7747   3.377   1.381  17.392  1.0618 -0.3353  0.9653
  518TMC3    C6 7748   3.348   1.255  17.426  0.6322  0.0748  0.4581
  518TMC3     C 7749   3.056   1.544  17.417 -0.6786  0.0319  0.4116
  518TMC3     O 7750   2.937   1.513  17.425  0.0214  0.6162  0.7767
  518TMC3     H 7751   3.011   1.281  17.472 -0.2691  2.6946  0.7562
  518TMC3    H1 7752   3.308   1.573  17.341  0.5996 -0.3475 -1.4376
  518TMC3    H2 7753   3.421   1.175  17.429  0.1687 -0.3652  0.0306
  518TMC3    C7 7754   3.506   1.408  17.330 -0.5048  0.2872 -0.5650
  518TMC3    C8 7755   3.194   1.084  17.499 -0.4706 -0.0954  0.8775
  518TMC3    O1 7756   3.525   1.518  17.273  0.1447  0.1187  0.2536
  518TMC3    O2 7757   3.278   1.005  17.459  0.5064 -0.5388 -0.2042
  519MPD2     C 7758   4.428   4.193  14.319  0.7023  0.1174  0.0478
  519MPD2    C1 7759   4.474   4.297  14.244  0.0482  0.1582 -0.0855
  519MPD2    C2 7760   4.589   4.286  14.177 -0.0495 -0.0273  0.2501
  519MPD2    C3 7761   4.672   4.181  14.201  0.0654 -0.1921  0.0071
  519MPD2    C4 7762   4.632   4.076  14.286 -0.4381  0.2654 -0.6096
  519MPD2    C5 7763   4.505   4.091  14.342  0.0510 -0.3503 -0.8302
  519MPD2     H 7764   4.608   4.364  14.103 -0.3545  0.2781  0.4913
  519MPD2    H1 7765   4.687   3.984  14.300 -0.6041 -0.0533 -2.0614
  519MPD2    H2 7766   4.342   4.199  14.385  0.1473  1.3385 -0.7848
  519MPD2    H3 7767   4.464   4.016  14.408 -3.1839  2.1242 -0.0043
  519MPD2     N 7768   0.048   4.167  14.113  0.7835  0.1249 -0.7641
  519MPD2    H5 7769   0.068   4.244  14.050 -2.4682 -0.1627 -2.1394
  519MPD2    N1 7770   4.388   4.409  14.230 -0.2083  0.1027 -0.5345
  519MPD2    H7 7771   4.288   4.392  14.224 -0.5430  1.0439  2.1213
  520TMC3    C1 7772   0.240   4.078  14.020  0.2595  0.1122  0.2836
  520TMC3    C2 7773   0.201   4.128  13.900  0.1407  0.5411  0.7422
  520TMC3    C3 7774   0.298   4.154  13.808  0.8716 -0.5485 -0.2409
  520TMC3    C4 7775   0.368   4.034  14.044 -0.3630  0.0076 -0.0872
  520TMC3    C5 7776   0.470   4.061  13.948  0.1557  0.3321  0.0781
  520TMC3    C6 7777   0.433   4.129  13.839  0.5627  0.0001  0.3513
  520TMC3     C 7778   0.145   4.067  14.122 -0.1927 -0.1231 -0.2752
  520TMC3     O 7779   0.143   3.966  14.187  0.1948 -0.0419 -0.5265
  520TMC3     H 7780   0.102   4.167  13.880  0.7175  1.5284 -0.2145
  520TMC3    H1 7781   0.397   3.990  14.139  2.7348  1.6194 -0.2896
  520TMC3    H2 7782   0.506   4.160  13.765  0.2603  0.3078  0.1812
  520TMC3    C7 7783   0.599   4.007  13.963 -0.7847 -0.4434 -0.0983
  520TMC3    C8 7784   0.283   4.221  13.683  0.5001 -0.2797  0.8014
  520TMC3    O1 7785   0.641   3.999  14.080 -0.0778  0.0781 -0.0286
  520TMC3    O2 7786   0.376   4.295  13.648 -0.0208  0.3875  0.3105
  521MPD2     C 7787   0.617   2.117  17.457 -0.5561  0.6922  0.0785
  521MPD2    C1 7788   0.657   2.245  17.420 -1.1492 -0.6852 -0.0205
  521MPD2    C2 7789   0.785   2.270  17.383 -0.3808 -0.3521  0.2150
  521MPD2    C3 7790   0.883   2.169  17.391  0.0305 -0.3280 -0.1952
  521MPD2    C4 7791   0.844   2.042  17.427 -0.4955  0.3899  0.1764
  521MPD2    C5 7792   0.712   2.018  17.465  0.0394  0.2379 -0.6888
  521MPD2     H 7793   0.809   2.369  17.345  0.3429 -0.8466 -0.6114
  521MPD2    H1 7794   0.910   1.956  17.430 -0.5262  0.4343  2.3762
  521MPD2    H2 7795   0.514   2.089  17.478 -0.2332 -0.0665  0.6648
  521MPD2    H3 7796   0.683   1.917  17.492 -0.6339  0.5253 -0.3174
  521MPD2     N 7797   1.018   2.202  17.359  0.6169  0.3370 -0.5091
  521MPD2    H5 7798   1.045   2.293  17.323 -1.6226  0.0346 -2.9751
  521MPD2    N1 7799   0.557   2.342  17.430  0.1651 -1.1152  0.5073
  521MPD2    H7 7800   0.464   2.314  17.460 -0.2869  0.3128  0.4393
  522TMC3    C1 7801   1.265   2.160  17.332 -0.6205  0.4710  0.1386
  522TMC3    C2 7802   1.369   2.071  17.335  0.0079  0.2491  0.1383
  522TMC3    C3 7803   1.475   2.086  17.256 -0.4957 -0.8051  0.3576
  522TMC3    C4 7804   1.274   2.272  17.254  0.2466 -0.2102 -0.7711
  522TMC3    C5 7805   1.383   2.279  17.171  0.3890 -0.0178  0.8045
  522TMC3    C6 7806   1.494   2.195  17.177 -0.4030 -0.0308  0.5193
  522TMC3     C 7807   1.131   2.116  17.382 -0.4162  0.4507 -0.0411
  522TMC3     O 7808   1.128   2.008  17.436  0.4757  0.1673  0.3562
  522TMC3     H 7809   1.374   1.998  17.415  0.1053 -1.4728 -1.4428
  522TMC3    H1 7810   1.202   2.351  17.241  0.3799 -0.6505 -4.2272
  522TMC3    H2 7811   1.589   2.203  17.127 -0.1800  0.8998  1.1049
  522TMC3    C7 7812   1.401   2.396  17.083  0.4606 -0.1401  0.1275
  522TMC3    C8 7813   1.593   2.013  17.292  0.7912  0.1283  0.1198
  522TMC3    O1 7814   1.517   2.406  17.041 -1.0567  0.4502 -0.1121
  522TMC3    O2 7815   1.591   1.932  17.385 -0.1255  0.3408  0.2705
  523MPD2     C 7816   3.937   2.714  10.246  0.0285 -0.3703 -0.2736
  523MPD2    C1 7817   3.831   2.645  10.205 -0.8033 -0.1071 -0.5034
  523MPD2    C2 7818   3.715   2.724  10.181 -0.2694  0.1384 -0.1233
  523MPD2    C3 7819   3.701   2.856  10.221  0.2668  0.1055 -0.2268
  523MPD2    C4 7820   3.811   2.924  10.276  0.2449  0.3359  0.2024
  523MPD2    C5 7821   3.923   2.847  10.281  1.1022 -0.0005  0.3562
  523MPD2     H 7822   3.632   2.677  10.130  0.2711  1.9266 -2.6099
  523MPD2    H1 7823   3.819   3.031  10.292 -1.9280  0.5391 -0.0411
  523MPD2    H2 7824   4.036   2.670  10.256 -0.6485 -1.3337  2.0877
  523MPD2    H3 7825   4.016   2.898  10.305  0.6750  1.2035 -0.5444
  523MPD2     N 7826   3.581   2.929  10.211  0.9274  0.2501 -0.2045
  523MPD2    H5 7827   3.580   3.011  10.272  1.5472  1.9087 -2.4176
  523MPD2    N1 7828   3.843   2.505  10.191 -0.5756 -0.6189 -0.1183
  523MPD2    H7 7829   3.933   2.459  10.190 -0.2494  0.0327 -0.9016
  524TMC3    C1 7830   3.352   2.955  10.158  0.0075  0.2818  0.4550
  524TMC3    C2 7831   3.355   3.018  10.283  0.0924 -0.0833 -0.0955
  524TMC3    C3 7832   3.241   3.091  10.318 -1.2108 -0.0343 -0.0288
  524TMC3    C4 7833   3.258   2.974  10.064  0.0726  0.0831 -0.0160
  524TMC3    C5 7834   3.145   3.048  10.108 -0.5846 -0.2746  0.1269
  524TMC3    C6 7835   3.134   3.108  10.232 -0.8109 -0.0684 -0.5865
  524TMC3     C 7836   3.485   2.895  10.124  0.0155 -0.8211  0.1644
  524TMC3     O 7837   3.506   2.846  10.013  0.4299  0.3421  0.0610
  524TMC3     H 7838   3.406   2.972  10.367  3.3283  1.3994 -1.2591
  524TMC3    H1 7839   3.262   2.924   9.968 -2.4116 -2.3698  1.1802
  524TMC3    H2 7840   3.039   3.150  10.262  0.8344  3.7247 -0.6786
  524TMC3    C7 7841   3.036   3.064  10.011  0.6150  0.1886 -0.7437
  524TMC3    C8 7842   3.252   3.152  10.455 -0.3000 -0.7471 -0.2452
  524TMC3    O1 7843   3.034   2.985   9.919 -0.1329  0.1587 -0.0606
  524TMC3    O2 7844   3.347   3.121  10.517 -0.1059  0.0874 -0.0014
  525MPD2     C 7845   1.430   3.880  14.481 -0.7912 -0.5408 -0.0942
  525MPD2    C1 7846   1.547   3.878  14.552 -0.1428  0.1798  0.1648
  525MPD2    C2 7847   1.643   3.970  14.507  0.4695  0.1652  0.1882
  525MPD2    C3 7848   1.621   4.047  14.397  0.7634  0.2139 -0.5983
  525MPD2    C4 7849   1.501   4.035  14.327  0.0466 -0.3876 -0.6070
  525MPD2    C5 7850   1.407   3.946  14.363  0.1422  0.7141 -0.4542
  525MPD2     H 7851   1.740   3.967  14.557  1.1396 -4.1302 -1.3415
  525MPD2    H1 7852   1.474   4.103  14.246 -0.7305 -0.4397 -0.3871
  525MPD2    H2 7853   1.349   3.819  14.519 -1.0195  0.3454  0.8436
  525MPD2    H3 7854   1.315   3.924  14.311 -1.0538 -0.1403  2.0289
  525MPD2     N 7855   1.707   4.149  14.355 -0.1108 -0.6202 -0.0427
  525MPD2    H5 7856   1.680   4.211  14.279 -0.1174 -0.1056  0.3793
  525MPD2    N1 7857   1.577   3.803  14.665 -0.1377 -0.5835  0.2336
  525MPD2    H7 7858   1.666   3.823  14.711  0.5003 -2.2402 -0.3139
  526TMC3    C1 7859   1.538   3.649  14.836  0.0884  0.2377  0.1928
  526TMC3    C2 7860   1.455   3.628  14.938 -0.1959  0.4791 -0.0059
  526TMC3    C3 7861   1.515   3.606  15.058  0.2721 -0.1398  0.2005
  526TMC3    C4 7862   1.677   3.638  14.839  0.5913  0.3250 -0.0373
  526TMC3    C5 7863   1.725   3.599  14.966  0.7270 -0.0214 -0.3407
  526TMC3    C6 7864   1.651   3.582  15.075  0.3939  0.5224  0.2682
  526TMC3     C 7865   1.483   3.711  14.717 -0.0308 -0.7840 -0.6578
  526TMC3     O 7866   1.367   3.687  14.683 -0.4802  0.2361 -0.0792
  526TMC3     H 7867   1.350   3.649  14.922 -0.8752 -0.8390  2.7609
  526TMC3    H1 7868   1.739   3.655  14.752  2.0425 -0.2820  0.8854
  526TMC3    H2 7869   1.700   3.578  15.171  1.6700 -0.4590 -0.4249
  526TMC3    C7 7870   1.870   3.557  14.976 -0.2055 -0.4945  0.3278
  526TMC3    C8 7871   1.452   3.646  15.184  0.1901  0.2488  0.3176
  526TMC3    O1 7872   1.895   3.513  15.088 -0.4894  0.5404  0.0232
  526TMC3    O2 7873   1.508   3.616  15.287 -0.3943  0.6908 -0.0595
  527MPD2     C 7874   0.044   2.588   1.272 -0.3106  0.2121 -0.5348
  527MPD2    C1 7875   4.698   2.551   1.169 -0.1815  0.3408  0.2732
  527MPD2    C2 7876   4.710   2.424   1.112  0.3104 -0.0727  0.1204
  527MPD2    C3 7877   0.062   2.330   1.154  0.2315  0.0816  0.0302
  527MPD2    C4 7878   0.144   2.367   1.262  0.1132 -0.7077  0.2038
  527MPD2    C5 7879   0.123   2.489   1.317  0.5443 -0.7831  0.7661
  527MPD2     H 7880   4.634   2.393   1.041  1.1395  0.0775 -0.8418
  527MPD2    H1 7881   0.205   2.293   1.312 -1.1015 -0.6047  1.8313
  527MPD2    H2 7882   0.029   2.676   1.334 -2.2473  1.1628 -2.3484
  527MPD2    H3 7883   0.181   2.515   1.405  0.6162  0.4722  0.3514
  527MPD2     N 7884   0.050   2.206   1.089 -0.2393  0.2326 -0.2841
  527MPD2    H5 7885   4.721   2.193   1.014  0.1948 -2.1877 -0.2625
  527MPD2    N1 7886   4.594   2.643   1.128 -0.2523  0.0203  0.1864
  527MPD2    H7 7887   4.548   2.613   1.043 -0.9104  1.8781 -0.1194
  528TMC3    C1 7888   4.447   2.826   1.112 -0.1724 -0.1440 -0.2517
  528TMC3    C2 7889   4.426   2.960   1.118  0.0761 -0.5022  0.6804
  528TMC3    C3 7890   4.352   3.014   1.017  0.0543 -0.7275 -0.0403
  528TMC3    C4 7891   4.372   2.744   1.032  0.1850  0.2999 -0.2271
  528TMC3    C5 7892   4.292   2.811   0.939 -0.6891 -0.3760  0.4178
  528TMC3    C6 7893   4.285   2.941   0.920 -0.5578 -0.3602 -0.3961
  528TMC3     C 7894   4.554   2.766   1.183 -0.0352 -0.0219  0.3036
  528TMC3     O 7895   4.599   2.832   1.280  0.3800  0.2014  0.8220
  528TMC3     H 7896   4.491   3.020   1.181 -2.4742  0.4916  2.3607
  528TMC3    H1 7897   4.367   2.636   1.040 -1.4326  0.5280  1.9089
  528TMC3    H2 7898   4.236   2.993   0.839 -1.2247  0.7146  0.6860
  528TMC3    C7 7899   4.183   2.735   0.884  0.7137 -0.1278 -0.4349
  528TMC3    C8 7900   4.297   3.147   1.038 -0.2876 -0.7012 -0.0449
  528TMC3    O1 7901   4.179   2.612   0.895  0.1830  0.3577  0.2832
  528TMC3    O2 7902   4.187   3.175   0.993 -0.3799 -0.2035  0.2400
  529MPD2     C 7903   1.286   0.391   1.062 -0.6924  0.3893  0.2873
  529MPD2    C1 7904   1.403   0.375   0.993 -0.1797 -0.7573  0.0331
  529MPD2    C2 7905   1.419   0.461   0.878  0.2472  0.4428  0.0078
  529MPD2    C3 7906   1.331   0.568   0.849 -0.1645 -0.3873 -0.1774
  529MPD2    C4 7907   1.222   0.575   0.928  0.3032  0.2832  0.0649
  529MPD2    C5 7908   1.197   0.485   1.031 -0.4632  0.2879  0.5546
  529MPD2     H 7909   1.508   0.436   0.822 -0.6877 -0.0229 -1.2602
  529MPD2    H1 7910   1.151   0.653   0.904 -1.3793 -1.1351  0.4607
  529MPD2    H2 7911   1.263   0.336   1.153 -0.5649  1.6280  1.0712
  529MPD2    H3 7912   1.107   0.498   1.090 -0.9959  0.4351 -0.2863
  529MPD2     N 7913   1.346   0.645   0.731 -0.2462  0.0103  0.2517
  529MPD2    H5 7914   1.265   0.696   0.698 -0.4540 -1.3460 -1.3551
  529MPD2    N1 7915   1.507   0.290   1.032 -0.4067 -0.4738  0.5871
  529MPD2    H7 7916   1.591   0.303   0.977 -0.0760 -0.8833  0.9868
  530TMC3    C1 7917   1.625   0.129   1.155  0.0947 -0.4388  0.6508
  530TMC3    C2 7918   1.739   0.203   1.150  0.5688 -0.2452 -0.9421
  530TMC3    C3 7919   1.858   0.140   1.173 -0.4106 -0.2993  0.0109
  530TMC3    C4 7920   1.625   4.737   1.178 -0.1258 -0.2725  0.0979
  530TMC3    C5 7921   1.741   4.686   1.215 -0.2393 -0.5886 -0.1417
  530TMC3    C6 7922   1.862   0.013   1.207 -0.1671 -0.0878 -0.3858
  530TMC3     C 7923   1.498   0.191   1.123 -0.4276 -0.2748  0.8026
  530TMC3     O 7924   1.401   0.148   1.183 -0.4083 -0.2460  0.3756
  530TMC3     H 7925   1.735   0.311   1.145  0.7967 -0.0739  2.1008
  530TMC3    H1 7926   1.537   4.674   1.186 -0.0523 -0.6010 -1.6149
  530TMC3    H2 7927   1.952   4.700   1.240  0.2425 -0.0204 -1.4062
  530TMC3    C7 7928   1.747   4.544   1.267 -0.2080  0.0014 -0.4262
  530TMC3    C8 7929   1.975   0.198   1.109 -0.2294 -0.3377  0.1429
  530TMC3    O1 7930   1.839   4.521   1.342 -0.6014  0.0828  0.7100
  530TMC3    O2 7931   1.982   0.320   1.098  0.6439 -1.0230  0.3674
  531MPD2     C 7932   0.794   3.050  13.273 -0.1973 -0.1885 -0.5341
  531MPD2    C1 7933   0.717   2.937  13.304  0.0508 -0.1168  0.2096
  531MPD2    C2 7934   0.738   2.824  13.225 -0.0790  0.0868  0.2692
  531MPD2    C3 7935   0.836   2.812  13.127 -0.8046 -0.7596  1.1012
  531MPD2    C4 7936   0.913   2.923  13.099  0.1116 -0.0681 -0.7160
  531MPD2    C5 7937   0.889   3.034  13.166 -0.4367  0.7193  1.0074
  531MPD2     H 7938   0.688   2.730  13.246 -0.6046 -0.3485 -2.9483
  531MPD2    H1 7939   0.989   2.924  13.021 -0.0538 -0.3530 -0.8812
  531MPD2    H2 7940   0.785   3.150  13.314  0.3354 -0.5215  0.3885
  531MPD2    H3 7941   0.959   3.115  13.148  1.0188 -0.2088  2.5447
  531MPD2     N 7942   0.837   2.692  13.054 -0.1463  0.1884  0.1006
  531MPD2    H5 7943   0.777   2.614  13.080 -0.3178  0.5559  0.8109
  531MPD2    N1 7944   0.643   2.943  13.425 -0.4271  0.2274 -0.1029
  531MPD2    H7 7945   0.668   3.024  13.482  0.9007  0.4922 -1.0503
  532TMC3    C1 7946   0.535   2.857  13.623  0.2339  0.4670 -0.2576
  532TMC3    C2 7947   0.441   2.757  13.647 -0.4045 -0.8240  0.3093
  532TMC3    C3 7948   0.463   2.661  13.746 -0.1619 -0.1206  0.0895
  532TMC3    C4 7949   0.642   2.864  13.710  0.5767 -0.4941 -0.3649
  532TMC3    C5 7950   0.656   2.776  13.817 -0.2157 -0.1642 -0.2435
  532TMC3    C6 7951   0.564   2.678  13.841  0.1491  0.2418 -0.6701
  532TMC3     C 7952   0.560   2.843  13.475  0.4720 -0.2636  1.1626
  532TMC3     O 7953   0.514   2.746  13.416  0.4517  0.5600 -0.4420
  532TMC3     H 7954   0.360   2.727  13.581  0.7855  0.8756 -1.9057
  532TMC3    H1 7955   0.708   2.947  13.689  1.4697 -1.1476 -0.1284
  532TMC3    H2 7956   0.580   2.604  13.919 -0.6769  0.5980 -0.1680
  532TMC3    C7 7957   0.787   2.746  13.873 -0.1644 -0.4838 -0.8674
  532TMC3    C8 7958   0.458   2.525  13.699 -0.0991 -0.5612 -0.2743
  532TMC3    O1 7959   0.806   2.696  13.985  0.0839 -0.1711 -0.8775
  532TMC3    O2 7960   0.458   2.439  13.786 -0.1234 -0.1058 -0.4583
  533TMC3    C1 7961   1.849   4.333  14.384 -0.1576  0.1688  0.5309
  533TMC3    C2 7962   1.978   4.379  14.416 -0.3460 -0.1654  0.1898
  533TMC3    C3 7963   1.982   4.499  14.478 -0.2672 -0.3308 -0.6640
  533TMC3    C4 7964   1.734   4.408  14.407 -0.7335 -0.4689 -0.3449
  533TMC3    C5 7965   1.750   4.516  14.489  0.1090  0.0240  0.1226
  533TMC3    C6 7966   1.870   4.571  14.515  0.2756 -0.3149  0.5646
  533TMC3     C 7967   1.830   4.191  14.410  0.1885  0.1890 -0.0634
  533TMC3     O 7968   1.901   4.137  14.490 -0.6714 -0.0801  0.0019
  533TMC3     H 7969   2.070   4.323  14.409  0.0498  0.7368 -1.8004
  533TMC3    H1 7970   1.637   4.385  14.365 -1.0229 -2.7302  1.5507
  533TMC3    H2 7971   1.870   4.665  14.569 -2.5356  0.4015 -0.6666
  533TMC3    C7 7972   1.674   4.505  14.603  0.3672 -0.4516  0.2190
  533TMC3    C8 7973   2.106   4.536  14.537  0.0595  0.2214  0.2509
  533TMC3    O1 7974   1.615   4.406  14.623  0.5702 -0.6719  0.1625
  533TMC3    O2 7975   2.164   4.448  14.596 -0.8652 -0.0173 -0.3602
  534MPD2     C 7976   4.182   0.952   1.926 -0.4646  1.1118  0.7153
  534MPD2    C1 7977   4.228   1.019   1.817 -0.1744  0.6383 -0.1879
  534MPD2    C2 7978   4.224   0.958   1.692  0.6680  0.1946 -0.6324
  534MPD2    C3 7979   4.170   0.831   1.674  1.2264  0.2493 -0.6867
  534MPD2    C4 7980   4.134   0.762   1.795  0.5410 -0.1208 -0.7726
  534MPD2    C5 7981   4.138   0.825   1.917  0.3656 -0.1242  0.6715
  534MPD2     H 7982   4.263   1.007   1.604  0.6177 -0.3903 -0.9843
  534MPD2    H1 7983   4.087   0.664   1.795  1.5781 -0.6142 -2.5409
  534MPD2    H2 7984   4.175   1.000   2.023 -0.1540  1.9231  0.3387
  534MPD2    H3 7985   4.100   0.773   2.005  0.5922  0.7598  1.2859
  534MPD2     N 7986   4.153   0.769   1.544 -0.5293  0.3957  0.5308
  534MPD2    H5 7987   4.130   0.670   1.542 -1.9852  0.7304  0.7278
  534MPD2    N1 7988   4.285   1.149   1.815 -0.8337  0.3164  0.1776
  534MPD2    H7 7989   4.301   1.194   1.726  1.8405 -0.2975  0.3515
  535TMC3    C1 7990   4.167   0.757   1.310 -0.3965  0.0273  0.1077
  535TMC3    C2 7991   4.178   0.621   1.323  0.7192 -0.1332 -0.1491
  535TMC3    C3 7992   4.197   0.549   1.205  0.0895  0.5106  0.4140
  535TMC3    C4 7993   4.165   0.818   1.187  0.1237  0.2444  0.0597
  535TMC3    C5 7994   4.178   0.741   1.080 -0.2575 -0.0803  0.5388
  535TMC3    C6 7995   4.205   0.608   1.084 -0.1611  0.4839 -0.0009
  535TMC3     C 7996   4.161   0.840   1.425  0.3649  0.5244  0.8286
  535TMC3     O 7997   4.145   0.960   1.403  0.1055  0.1778 -0.2191
  535TMC3     H 7998   4.193   0.574   1.420  0.7283 -0.1700 -0.1681
  535TMC3    H1 7999   4.151   0.925   1.185 -4.3964 -0.3441 -1.5062
  535TMC3    H2 8000   4.216   0.552   0.992 -0.7831 -2.6853  1.8328
  535TMC3    C7 8001   4.160   0.795   0.944  0.0272 -0.3065  0.4264
  535TMC3    C8 8002   4.117   0.421   1.197 -0.0003  0.5326 -1.2249
  535TMC3    O1 8003   4.234   0.763   0.851 -0.0213 -0.3251 -0.0175
  535TMC3    O2 8004   4.064   0.395   1.089  0.2725  0.0464 -0.2898
  536MPD2     C 8005   3.206   4.012  16.126  0.5749 -0.1657 -0.6779
  536MPD2    C1 8006   3.093   3.948  16.172 -0.3678  0.2564  0.0942
  536MPD2    C2 8007   2.982   3.943  16.087 -0.8284  0.5640 -0.1536
  536MPD2    C3 8008   2.987   4.002  15.965  0.2773  0.4054 -0.0617
  536MPD2    C4 8009   3.093   4.069  15.922 -0.6258 -0.1991 -0.3090
  536MPD2    C5 8010   3.205   4.071  15.999 -0.3947  0.0488  0.5255
  536MPD2     H 8011   2.898   3.885  16.124 -0.3171 -0.8210 -1.1206
  536MPD2    H1 8012   3.092   4.120  15.826  0.8553  1.0851  0.3649
  536MPD2    H2 8013   3.296   4.021  16.186 -1.8468  0.5877  2.8266
  536MPD2    H3 8014   3.294   4.126  15.968 -0.6511  0.0464 -0.2277
  536MPD2     N 8015   2.873   3.992  15.877 -0.0552 -0.2145  0.0489
  536MPD2    H5 8016   2.897   4.022  15.783  0.1955 -0.2443  0.1030
  536MPD2    N1 8017   3.106   3.870  16.291  0.0709 -0.2468  0.1914
  536MPD2    H7 8018   3.194   3.874  16.340  0.0597  2.4472 -0.0062
  537TMC3    C1 8019   3.035   3.722  16.461  0.1442  0.2109  0.4205
  537TMC3    C2 8020   3.115   3.775  16.559  0.0260  0.1672 -0.0017
  537TMC3    C3 8021   3.126   3.703  16.679  0.1078  0.1371  0.3436
  537TMC3    C4 8022   2.958   3.609  16.483  1.0664 -0.7467  0.0690
  537TMC3    C5 8023   2.956   3.553  16.611 -0.6723  1.0721 -0.1887
  537TMC3    C6 8024   3.052   3.587  16.704 -0.2041 -0.2321  0.3778
  537TMC3     C 8025   2.994   3.801  16.349  0.2338 -0.2998 -0.1246
  537TMC3     O 8026   2.879   3.785  16.312  0.1372 -0.0303  0.0879
  537TMC3     H 8027   3.186   3.852  16.531 -0.0290 -0.2247 -1.2307
  537TMC3    H1 8028   2.887   3.571  16.411 -0.8539 -0.4458  1.7994
  537TMC3    H2 8029   3.073   3.523  16.789 -5.2116 -1.3459  0.7176
  537TMC3    C7 8030   2.897   3.422  16.623 -0.1883  0.7010 -0.1391
  537TMC3    C8 8031   3.166   3.792  16.788 -0.0345  0.0118  0.4192
  537TMC3    O1 8032   2.879   3.353  16.522  0.4760 -0.0738  0.0496
  537TMC3    O2 8033   3.189   3.909  16.762 -0.1015  0.8153  0.3425
  538TMC3    C1 8034   4.179   2.073  11.042 -0.4824 -0.8103 -0.1904
  538TMC3    C2 8035   4.308   2.111  11.030 -0.1875  0.4714 -0.4194
  538TMC3    C3 8036   4.342   2.183  10.922 -0.3111  0.0786 -0.5959
  538TMC3    C4 8037   4.090   2.114  10.951  0.7647  0.4910  0.1351
  538TMC3    C5 8038   4.126   2.204  10.855  0.0363  0.0262 -0.3555
  538TMC3    C6 8039   4.253   2.240  10.832  0.0617 -0.0761  0.5997
  538TMC3     C 8040   4.125   1.987  11.150  0.7390  0.0412 -0.5408
  538TMC3     O 8041   4.004   1.991  11.167 -0.1463  0.0715  0.0515
  538TMC3     H 8042   4.381   2.075  11.102 -1.4490 -0.8209  0.2322
  538TMC3    H1 8043   3.985   2.091  10.964  0.3005  2.8216  0.3852
  538TMC3    H2 8044   4.274   2.327  10.771 -0.6379 -1.2311 -1.2848
  538TMC3    C7 8045   4.019   2.244  10.758  0.2320 -0.1393  0.5775
  538TMC3    C8 8046   4.474   2.243  10.921 -0.0002  0.1591 -0.6248
  538TMC3    O1 8047   3.910   2.189  10.782  0.1115 -0.1289 -0.4273
  538TMC3    O2 8048   4.538   2.236  11.026  0.0982  0.3511 -0.5276
  539MPD2     C 8049   3.669   1.337  12.073 -0.7906 -0.5957 -0.1516
  539MPD2    C1 8050   3.667   1.374  11.940 -0.1383  0.2133 -0.2453
  539MPD2    C2 8051   3.605   1.492  11.909  0.3968 -0.0111  0.2463
  539MPD2    C3 8052   3.559   1.582  12.005 -0.3292 -0.2034  0.6813
  539MPD2    C4 8053   3.563   1.536  12.135 -0.0305  0.0457 -0.0390
  539MPD2    C5 8054   3.624   1.419  12.167 -0.3367  0.0238  0.4582
  539MPD2     H 8055   3.607   1.515  11.803  1.7993 -0.0762  0.2578
  539MPD2    H1 8056   3.537   1.593  12.223 -1.8201 -0.8673  0.0174
  539MPD2    H2 8057   3.689   1.234  12.099  0.4880 -0.3668 -0.2277
  539MPD2    H3 8058   3.619   1.390  12.271 -1.3198  0.8970  0.6548
  539MPD2     N 8059   3.513   1.709  11.982 -0.0676 -0.1093  0.1227
  539MPD2    H5 8060   3.484   1.758  12.066  1.4525  0.6147  0.2148
  539MPD2    N1 8061   3.707   1.283  11.828 -0.3895 -0.4277 -0.4608
  539MPD2    H7 8062   3.681   1.312  11.734  0.2272  0.6698 -0.2975
  540TMC3    C1 8063   3.421   1.897  11.856 -0.0566 -0.6526  0.4389
  540TMC3    C2 8064   3.447   1.975  11.749  0.3418 -0.1724  0.0205
  540TMC3    C3 8065   3.365   2.086  11.723 -0.0904  0.5376  0.4586
  540TMC3    C4 8066   3.306   1.912  11.940 -0.4339  0.0805  0.3350
  540TMC3    C5 8067   3.215   2.003  11.891  0.1111  0.5435  0.5049
  540TMC3    C6 8068   3.246   2.101  11.794  0.6733 -0.2045  1.0277
  540TMC3     C 8069   3.486   1.772  11.858  0.6816 -0.0315 -0.4536
  540TMC3     O 8070   3.523   1.727  11.748 -0.2877  0.5817 -0.2774
  540TMC3     H 8071   3.533   1.961  11.683  0.6699 -2.7577  0.9680
  540TMC3    H1 8072   3.294   1.835  12.016 -1.1290 -1.3839 -1.2463
  540TMC3    H2 8073   3.175   2.179  11.766 -0.6410 -0.8493  2.5612
  540TMC3    C7 8074   3.076   1.983  11.903 -0.1974  0.6575 -0.5779
  540TMC3    C8 8075   3.366   2.144  11.590  0.3862  0.0117  0.5534
  540TMC3    O1 8076   2.996   2.035  11.821  0.3010 -0.6112 -0.0890
  540TMC3    O2 8077   3.348   2.264  11.587 -0.1157 -0.3285 -0.4714
  541MPD2     C 8078   2.567   2.965  13.304  0.0689 -0.1718  0.1347
  541MPD2    C1 8079   2.478   2.920  13.208  0.1304 -0.2978 -0.2470
  541MPD2    C2 8080   2.486   2.966  13.076 -0.3793  0.1521  0.4556
  541MPD2    C3 8081   2.593   3.055  13.050 -0.7046  0.7715 -0.4603
  541MPD2    C4 8082   2.682   3.092  13.149  0.2401 -0.1800 -0.0237
  541MPD2    C5 8083   2.670   3.054  13.275 -0.1658  0.9321 -0.0777
  541MPD2     H 8084   2.416   2.939  12.998 -1.2652  0.9777  0.9625
  541MPD2    H1 8085   2.763   3.162  13.133  0.9099 -0.4227  2.2837
  541MPD2    H2 8086   2.555   2.933  13.407  2.1153 -1.4021 -0.0145
  541MPD2    H3 8087   2.739   3.085  13.353  0.5529 -1.1849  0.1240
  541MPD2     N 8088   2.614   3.107  12.922  0.1303 -0.1826 -0.7885
  541MPD2    H5 8089   2.682   3.183  12.924 -0.2058  0.0875  0.7909
  541MPD2    N1 8090   2.371   2.835  13.233  0.4628 -0.2151 -0.5627
  541MPD2    H7 8091   2.317   2.805  13.152 -0.1696  0.6178 -0.4461
  542TMC3    C1 8092   2.622   3.130  12.676 -0.5089  0.2740 -0.7676
  542TMC3    C2 8093   2.595   3.053  12.571  0.4909 -0.0571  0.6467
  542TMC3    C3 8094   2.582   3.125  12.458 -0.1495 -0.3482  0.0235
  542TMC3    C4 8095   2.640   3.268  12.687  0.3625 -0.3664  1.2638
  542TMC3    C5 8096   2.605   3.328  12.568 -0.4458  0.3754  0.0413
  542TMC3    C6 8097   2.583   3.258  12.449 -0.9863  0.3607 -0.6242
  542TMC3     C 8098   2.574   3.060  12.798  0.1712 -0.1260 -0.7866
  542TMC3     O 8099   2.509   2.958  12.780  0.4608  0.0054 -0.3232
  542TMC3     H 8100   2.566   2.949  12.572  1.7075 -0.4066 -1.7934
  542TMC3    H1 8101   2.650   3.323  12.779  1.4254  0.2627  0.7777
  542TMC3    H2 8102   2.569   3.307  12.354 -0.8260  1.7754  0.0763
  542TMC3    C7 8103   2.529   3.448  12.583 -0.3489  0.1791  0.4306
  542TMC3    C8 8104   2.568   3.059  12.329 -0.4326 -0.4033 -0.0415
  542TMC3    O1 8105   2.569   3.517  12.673 -0.0377 -0.1708  0.2943
  542TMC3    O2 8106   2.482   3.107  12.257  0.1377 -0.9356 -0.0756
  543TMC3    C1 8107   1.607   4.685  17.100 -0.0125 -0.8025 -0.2570
  543TMC3    C2 8108   1.568   4.564  17.159  0.5340  0.3405 -0.1673
  543TMC3    C3 8109   1.587   4.537  17.290  0.0867  0.3063  0.7501
  543TMC3    C4 8110   1.670   0.037  17.172  0.5475 -0.5847  0.4135
  543TMC3    C5 8111   1.684   0.009  17.306 -0.0995  0.1382  0.0581
  543TMC3    C6 8112   1.639   4.634  17.370 -0.6373 -0.0433  0.3616
  543TMC3     C 8113   1.650   4.687  16.967  0.3771  0.5779  0.2837
  543TMC3     O 8114   1.707   4.589  16.923  0.1824 -0.4916 -0.2597
  543TMC3     H 8115   1.518   4.484  17.105  2.3951 -2.0491  1.6346
  543TMC3    H1 8116   1.720   0.116  17.118 -2.1262 -1.1812 -2.9091
  543TMC3    H2 8117   1.619   4.649  17.476  0.2223  1.3281  0.3159
  543TMC3    C7 8118   1.720   0.116  17.394  0.7132 -0.6251  0.1359
  543TMC3    C8 8119   1.582   4.403  17.330 -0.1616 -0.3253  0.3097
  543TMC3    O1 8120   1.749   0.083  17.504 -0.4299  0.0542 -0.2600
  543TMC3    O2 8121   1.518   4.326  17.257 -0.0749  0.3043  0.1383
  544MPD2     C 8122   1.699   4.003  17.621  0.3858  0.1027  0.5039
  544MPD2    C1 8123   1.675   4.009  17.486 -0.1986  0.4616  0.2412
  544MPD2    C2 8124   1.661   4.133  17.431  0.9498 -0.1966 -0.6201
  544MPD2    C3 8125   1.665   4.257  17.507 -0.3973  0.1936  0.7091
  544MPD2    C4 8126   1.701   4.250  17.641 -0.3450 -0.0800  0.2309
  544MPD2    C5 8127   1.716   4.124  17.695 -0.2684 -0.3405  0.9939
  544MPD2     H 8128   1.640   4.140  17.325 -0.1776 -2.2285 -0.5437
  544MPD2    H1 8129   1.724   4.340  17.697 -1.5374  1.2880 -1.4641
  544MPD2    H2 8130   1.723   3.913  17.676  2.1371  1.6940  2.3375
  544MPD2    H3 8131   1.742   4.123   0.050 -0.8841  1.6931  1.1559
  544MPD2     N 8132   1.646   4.380  17.449 -0.6283  0.3268 -0.1713
  544MPD2    H5 8133   1.679   4.460  17.502 -0.7231  1.5258 -1.9292
  544MPD2    N1 8134   1.677   3.891  17.414 -0.0446 -0.6659  0.2561
  544MPD2    H7 8135   1.717   3.812  17.463  2.2250  1.8877  2.5038
  545TMC3    C1 8136   1.633   3.731  17.239 -0.1956  0.4077 -0.3005
  545TMC3    C2 8137   1.533   3.686  17.154 -0.2597 -0.2381 -0.8083
  545TMC3    C3 8138   1.503   3.554  17.140 -0.1933  0.2439 -0.0271
  545TMC3    C4 8139   1.702   3.637  17.314 -0.3372 -0.1010  0.1075
  545TMC3    C5 8140   1.664   3.502  17.300 -0.2124  0.4044  0.0279
  545TMC3    C6 8141   1.571   3.453  17.210  0.1040 -0.2715  0.1752
  545TMC3     C 8142   1.611   3.862  17.302 -0.4188 -0.2528 -0.2813
  545TMC3     O 8143   1.527   3.934  17.249 -0.0076  0.1098 -0.2954
  545TMC3     H 8144   1.481   3.763  17.099  2.1078  1.9827  0.0196
  545TMC3    H1 8145   1.778   3.661  17.387 -0.1864 -3.7459  1.1570
  545TMC3    H2 8146   1.532   3.354  17.191  2.5584 -0.5883 -3.0880
  545TMC3    C7 8147   1.749   3.404  17.357  0.6842 -0.7929  0.0447
  545TMC3    C8 8148   1.393   3.505  17.052  1.5331  0.1357 -0.5682
  545TMC3    O1 8149   1.816   3.439  17.452 -0.2390  0.2328 -0.0718
  545TMC3    O2 8150   1.377   3.384  17.042  0.2104  0.8393  0.1571
  546MPD2     C 8151   2.857   4.334  17.463 -0.4895 -0.6535 -0.4902
  546MPD2    C1 8152   2.890   4.388  17.339 -0.2628 -0.6248  0.0039
  546MPD2    C2 8153   2.949   4.516  17.342 -0.6316 -0.5641 -0.8889
  546MPD2    C3 8154   2.962   4.584  17.460 -0.0279 -0.4921  0.0601
  546MPD2    C4 8155   2.911   4.529  17.572 -0.5286  0.3890 -0.3997
  546MPD2    C5 8156   2.864   4.403  17.576  0.1340  0.5640 -0.2637
  546MPD2     H 8157   2.987   4.558  17.249 -1.1967 -0.6531 -1.1567
  546MPD2    H1 8158   2.916   4.576  17.670  0.3232  2.0718 -1.2390
  546MPD2    H2 8159   2.815   4.235  17.477 -1.5570 -0.2464 -0.7735
  546MPD2    H3 8160   2.834   4.367  17.673  1.0102 -1.4558 -0.7142
  546MPD2     N 8161   3.017   4.713  17.475  0.5451 -0.3431  0.1992
  546MPD2    H5 8162   3.000   0.020  17.565 -1.4363  2.3579 -1.5404
  546MPD2    N1 8163   2.860   4.318  17.217  0.0259 -0.6739  0.3179
  546MPD2    H7 8164   2.797   4.240  17.233 -0.7204 -0.0453  0.4298
  547TMC3    C1 8165   2.852   4.272  16.983  0.6821 -0.4219  0.0031
  547TMC3    C2 8166   2.813   4.344  16.870 -0.2411 -0.8145 -0.4898
  547TMC3    C3 8167   2.725   4.277  16.788  0.0775 -0.2010  0.6565
  547TMC3    C4 8168   2.823   4.141  17.012 -0.4644  0.3317  0.4236
  547TMC3    C5 8169   2.749   4.077  16.919 -0.1381  0.3362 -0.2451
  547TMC3    C6 8170   2.705   4.135  16.805  0.0333 -0.1079 -0.1299
  547TMC3     C 8171   2.898   4.358  17.091 -0.5343 -0.0460 -0.5968
  547TMC3     O 8172   2.959   4.457  17.049 -0.1309  0.2030  0.3125
  547TMC3     H 8173   2.833   4.450  16.863  2.5891 -1.3857 -0.8354
  547TMC3    H1 8174   2.867   4.093  17.099 -0.9218 -0.8380 -0.0021
  547TMC3    H2 8175   2.639   4.082  16.737  0.7356  0.3377 -1.1462
  547TMC3    C7 8176   2.693   3.942  16.941 -0.4743 -0.1197 -0.5653
  547TMC3    C8 8177   2.629   4.346  16.709 -0.4087 -0.6004  0.6097
  547TMC3    O1 8178   2.677   3.905  17.055  0.4134  0.6928 -0.9009
  547TMC3    O2 8179   2.550   4.268  16.655 -0.1567  0.3533 -0.4364
  548MPD2     C 8180   2.722   0.082  12.275 -0.7097  0.6377  0.5620
  548MPD2    C1 8181   2.718   4.706  12.347  0.5083  0.1601  0.0041
  548MPD2    C2 8182   2.841   4.634  12.355 -0.2396  0.3420 -0.1467
  548MPD2    C3 8183   2.944   4.661  12.267 -0.7053  0.0781  0.1394
  548MPD2    C4 8184   2.942   0.037  12.197  0.5099  0.8797  0.3854
  548MPD2    C5 8185   2.829   0.116  12.201  0.6046  0.3902 -0.6310
  548MPD2     H 8186   2.851   4.543  12.412 -0.7536 -0.3996 -1.2404
  548MPD2    H1 8187   3.023   0.064  12.130  0.7989  0.2637  0.4802
  548MPD2    H2 8188   2.635   0.146  12.280 -0.1705  1.3775  0.4631
  548MPD2    H3 8189   2.827   0.214  12.156  1.1820  0.1758 -1.1299
  548MPD2     N 8190   3.048   4.561  12.253  0.3831 -0.0009 -0.0895
  548MPD2    H5 8191   3.036   4.477  12.309 -0.6796 -1.0343 -1.8905
  548MPD2    N1 8192   2.599   4.669  12.420 -0.6296 -0.1329  0.7775
  548MPD2    H7 8193   2.514   4.721  12.400  1.1503  1.6315 -2.1383
  549TMC3    C1 8194   2.477   4.517  12.577 -0.7596  0.1945  0.0360
  549TMC3    C2 8195   2.364   4.581  12.539  0.1738  0.5725 -0.1358
  549TMC3    C3 8196   2.241   4.542  12.595  0.5016  0.0003  0.1217
  549TMC3    C4 8197   2.473   4.403  12.661 -0.3112 -0.2165 -0.2734
  549TMC3    C5 8198   2.348   4.362  12.703  0.3874 -0.2179  0.1119
  549TMC3    C6 8199   2.235   4.434  12.677  0.3617  0.2214  0.7150
  549TMC3     C 8200   2.599   4.564  12.515 -0.5174  0.1166 -0.3985
  549TMC3     O 8201   2.697   4.515  12.568 -0.0202 -0.1528  0.1914
  549TMC3     H 8202   2.374   4.670  12.478  2.3587 -0.9113 -1.9418
  549TMC3    H1 8203   2.565   4.358  12.696 -0.4625 -1.2028 -1.1214
  549TMC3    H2 8204   2.143   4.402  12.726 -0.2704  0.0140 -0.6109
  549TMC3    C7 8205   2.339   4.247  12.791 -0.4097 -0.3291 -0.5249
  549TMC3    C8 8206   2.119   4.620  12.570  0.6043  0.3905 -0.3823
  549TMC3    O1 8207   2.240   4.236  12.860 -0.3108 -0.2481  0.1669
  549TMC3    O2 8208   2.035   4.617  12.660  0.9944 -0.0591  0.5405
  550TMC3    C1 8209   1.599   2.322  12.531 -0.0187  1.0063 -0.0020
  550TMC3    C2 8210   1.658   2.303  12.654 -0.1042 -0.1578  0.1650
  550TMC3    C3 8211   1.742   2.396  12.696  0.9318  0.3790  0.4300
  550TMC3    C4 8212   1.643   2.422  12.446 -0.2654  0.8465  0.2168
  550TMC3    C5 8213   1.736   2.508  12.491 -0.2782 -0.0435  0.4674
  550TMC3    C6 8214   1.795   2.491  12.614  0.1572 -0.4761  0.7012
  550TMC3     C 8215   1.493   2.226  12.503 -1.2216  0.5691 -0.1373
  550TMC3     O 8216   1.513   2.116  12.553 -0.1927 -0.0880 -0.3420
  550TMC3     H 8217   1.608   2.247  12.732 -1.2832  1.0059  0.2297
  550TMC3    H1 8218   1.588   2.432  12.353 -0.7260 -0.2945  0.3639
  550TMC3    H2 8219   1.861   2.561  12.663  0.4849 -1.8519  2.2125
  550TMC3    C7 8220   1.761   2.638  12.433 -0.4372  0.3023 -0.5355
  550TMC3    C8 8221   1.725   2.439  12.833  0.6404  0.2642 -0.0428
  550TMC3    O1 8222   1.831   2.717  12.493  0.4825  0.0863  0.1803
  550TMC3    O2 8223   1.733   2.356  12.924 -0.3358 -0.2585  0.0908
  551TMC3    C1 8224   4.221   0.709  13.414  1.0022 -0.3664  0.2839
  551TMC3    C2 8225   4.324   0.640  13.356 -0.0926  0.1713 -0.6434
  551TMC3    C3 8226   4.451   0.673  13.391 -0.8713 -0.1894 -0.0642
  551TMC3    C4 8227   4.242   0.809  13.498  0.1563  0.0826  0.2145
  551TMC3    C5 8228   4.371   0.836  13.539 -0.4534  0.0753 -0.0387
  551TMC3    C6 8229   4.476   0.769  13.484 -0.3016 -0.1452 -0.1060
  551TMC3     C 8230   4.091   0.683  13.346 -0.2156  0.4468 -0.0803
  551TMC3     O 8231   4.076   0.577  13.286 -0.0899 -0.7899 -0.1840
  551TMC3     H 8232   4.313   0.569  13.274 -2.0725 -1.2617  0.8816
  551TMC3    H1 8233   4.154   0.857  13.541 -0.1365 -1.0382  0.8791
  551TMC3    H2 8234   4.575   0.767  13.529 -0.5266 -2.4460  0.2985
  551TMC3    C7 8235   4.395   0.917  13.656  0.7796  0.0409 -0.4014
  551TMC3    C8 8236   4.557   0.621  13.315  0.3889  0.8163  0.7964
  551TMC3    O1 8237   4.485   0.884  13.733  0.3075  0.1746 -0.0680
  551TMC3    O2 8238   4.544   0.513  13.258  0.1486 -0.1403  0.2062
  552MPD2     C 8239   1.170   2.421  13.733  0.1330  0.1736 -0.2540
  552MPD2    C1 8240   1.119   2.414  13.862 -0.9274  0.1066  0.5072
  552MPD2    C2 8241   1.200   2.427  13.976  0.2708  0.6209 -0.4267
  552MPD2    C3 8242   1.333   2.448  13.962 -0.6774  0.3805 -0.4090
  552MPD2    C4 8243   1.386   2.428  13.834  0.5990  0.1813  0.4520
  552MPD2    C5 8244   1.309   2.416  13.728  0.2101 -1.1439  0.2375
  552MPD2     H 8245   1.154   2.427  14.075 -0.0160 -1.7353 -0.5435
  552MPD2    H1 8246   1.489   2.418  13.801  0.6017  1.5911 -0.0029
  552MPD2    H2 8247   1.114   2.410  13.641  0.4372  0.0607 -0.4279
  552MPD2    H3 8248   1.357   2.376  13.639 -2.6213 -1.5436 -1.0838
  552MPD2     N 8249   1.407   2.513  14.066  0.0676  0.3637  0.6519
  552MPD2    H5 8250   1.354   2.555  14.141 -0.5495 -0.5518  0.7281
  552MPD2    N1 8251   0.978   2.412  13.874 -0.3819 -0.6840 -0.7749
  552MPD2    H7 8252   0.937   2.430  13.783  1.2079 -2.8978 -1.9359
  553TMC3    C1 8253   0.767   2.334  13.923  0.1325 -1.2536 -0.3735
  553TMC3    C2 8254   0.751   2.369  13.798  1.1109  0.2307 -0.1404
  553TMC3    C3 8255   0.747   2.279  13.698 -0.2949 -0.1733 -0.4236
  553TMC3    C4 8256   0.751   2.202  13.956  0.0814 -0.5388 -0.5379
  553TMC3    C5 8257   0.755   2.110  13.854  0.0214 -0.7199 -0.2361
  553TMC3    C6 8258   0.743   2.147  13.720 -0.0878 -0.2594  0.1660
  553TMC3     C 8259   0.894   2.373  13.980 -0.2662  0.4683  0.2070
  553TMC3     O 8260   0.928   2.320  14.086 -0.1896  0.3865  0.3281
  553TMC3     H 8261   0.776   2.472  13.775 -1.9357  0.8321 -0.7882
  553TMC3    H1 8262   0.767   2.166  14.057  1.3527 -0.9480 -0.8739
  553TMC3    H2 8263   0.754   2.073  13.641  0.6837 -0.3828  0.3857
  553TMC3    C7 8264   0.853   2.007  13.873  0.3310 -0.4972  0.2877
  553TMC3    C8 8265   0.822   2.318  13.582  0.4812 -0.4779 -0.3495
  553TMC3    O1 8266   0.840   1.905  13.803  0.4537 -0.1558 -0.5155
  553TMC3    O2 8267   0.889   2.422  13.589  0.2096 -0.5452  0.0428
  554TMC3    C1 8268   2.960   1.713  11.544 -0.0640 -0.6133  0.5559
  554TMC3    C2 8269   2.862   1.626  11.508 -0.2642  1.0116 -0.2576
  554TMC3    C3 8270   2.819   1.641  11.377 -0.1143 -0.0995 -0.2233
  554TMC3    C4 8271   2.997   1.825  11.468 -0.3105 -0.1689 -0.0296
  554TMC3    C5 8272   2.943   1.835  11.345  0.7238  0.2666  0.6514
  554TMC3    C6 8273   2.850   1.746  11.296  0.3667 -0.2101 -0.3291
  554TMC3     C 8274   3.052   1.679  11.651  0.3158 -0.1991  0.2807
  554TMC3     O 8275   3.158   1.738  11.649 -0.0513 -0.5199 -0.1795
  554TMC3     H 8276   2.849   1.531  11.558  0.5119  0.4252 -1.1685
  554TMC3    H1 8277   3.067   1.896  11.509 -0.3533  0.6573 -1.3829
  554TMC3    H2 8278   2.795   1.780  11.208 -1.5301 -2.2357  0.0896
  554TMC3    C7 8279   2.988   1.937  11.258  0.2026 -0.0212  0.4402
  554TMC3    C8 8280   2.741   1.527  11.320  0.8421 -0.5823  0.5440
  554TMC3    O1 8281   2.979   1.908  11.141 -0.0164 -0.5136 -0.1841
  554TMC3    O2 8282   2.696   1.441  11.396 -0.1567 -1.1089  0.0468
  555TMC3    C1 8283   1.825   1.431  15.088 -0.3805  0.0651 -0.1826
  555TMC3    C2 8284   1.884   1.490  15.197  0.0062  0.6109  0.7053
  555TMC3    C3 8285   1.957   1.414  15.282  0.0177 -0.3465 -0.1060
  555TMC3    C4 8286   1.827   1.293  15.077 -0.2007 -0.7732  0.5197
  555TMC3    C5 8287   1.892   1.223  15.173 -0.0001  0.5133  0.0042
  555TMC3    C6 8288   1.957   1.282  15.275 -0.0587 -0.1831  0.2800
  555TMC3     C 8289   1.787   1.524  14.976  0.5308  0.6162 -0.4143
  555TMC3     O 8290   1.791   1.641  15.006  0.1937 -0.3514 -0.1631
  555TMC3     H 8291   1.879   1.596  15.214 -0.3427  0.6865  0.1235
  555TMC3    H1 8292   1.767   1.234  15.008  0.9092  1.7860 -2.5987
  555TMC3    H2 8293   2.009   1.218  15.345 -0.2324 -0.2662  0.3324
  555TMC3    C7 8294   1.889   1.078  15.167 -0.1822 -0.1770 -0.4207
  555TMC3    C8 8295   2.047   1.493  15.371  0.2149 -0.2696 -0.5220
  555TMC3    O1 8296   1.785   1.029  15.124  0.0288  0.1144  0.5153
  555TMC3    O2 8297   2.044   1.618  15.359  0.2115  0.5100  0.1931
  556MPD2     C 8298   0.160   3.228  10.356 -0.2261 -0.2591  0.2642
  556MPD2    C1 8299   0.109   3.138  10.452  0.0927  0.4360  0.3630
  556MPD2    C2 8300   0.036   3.033  10.414 -0.0566  0.1232 -0.6691
  556MPD2    C3 8301   0.011   3.001  10.278  0.4249 -0.3877  0.2289
  556MPD2    C4 8302   0.073   3.081  10.179 -0.2627 -0.1829  0.4503
  556MPD2    C5 8303   0.150   3.191  10.221 -0.2277 -0.0113  0.8159
  556MPD2     H 8304   4.735   2.975  10.497 -2.6484  0.9720 -1.3143
  556MPD2    H1 8305   0.062   3.067  10.072 -3.7472  0.3550  0.7311
  556MPD2    H2 8306   0.215   3.319  10.378 -0.9166  0.0156  0.8525
  556MPD2    H3 8307   0.202   3.234  10.137  1.3186 -1.5237  0.9809
  556MPD2     N 8308   4.690   2.876  10.257  0.3446 -0.2783 -0.0196
  556MPD2    H5 8309   4.662   2.825  10.340 -0.5927  2.2305  1.1860
  556MPD2    N1 8310   0.123   3.155  10.589 -0.1022  0.2911 -0.1232
  556MPD2    H7 8311   0.069   3.099  10.654  1.1637 -1.5687 -0.6976
  557TMC3    C1 8312   4.667   2.672  10.145  0.0862  0.5947  0.4192
  557TMC3    C2 8313   4.586   2.613  10.049 -0.1678  0.4040  0.4131
  557TMC3    C3 8314   4.594   2.477  10.037  1.1658 -0.3580 -0.0435
  557TMC3    C4 8315   0.003   2.600  10.237  0.4707  0.7192 -0.1463
  557TMC3    C5 8316   4.736   2.464  10.230 -0.3649 -0.4534  0.3188
  557TMC3    C6 8317   4.668   2.398  10.123 -0.7425  0.1311  0.2277
  557TMC3     C 8318   4.687   2.814  10.135 -0.2994 -0.2681  0.2076
  557TMC3     O 8319   4.697   2.859  10.020 -0.5347  0.1311  0.3818
  557TMC3     H 8320   4.536   2.672   9.974 -0.6591 -2.8387 -1.8055
  557TMC3    H1 8321   0.052   2.653  10.317 -1.1429  2.3716 -0.2580
  557TMC3    H2 8322   4.668   2.290  10.126 -1.6828  0.1366  0.4869
  557TMC3    C7 8323   0.002   2.384  10.350  0.0278 -0.4848 -0.0590
  557TMC3    C8 8324   4.490   2.419   9.944  0.0022  0.1004  0.0752
  557TMC3    O1 8325   4.691   2.272  10.341  0.1404 -0.3865 -0.2995
  557TMC3    O2 8326   4.398   2.489   9.918 -0.1676  0.1784  0.5070
  558TMC3    C1 8327   2.582   0.614  10.519 -0.4532 -0.0330 -0.1832
  558TMC3    C2 8328   2.466   0.669  10.572  0.1723  0.6183  0.1479
  558TMC3    C3 8329   2.361   0.675  10.482 -0.2653 -0.2535  0.6834
  558TMC3    C4 8330   2.596   0.575  10.389  0.1579  0.2258  0.1351
  558TMC3    C5 8331   2.490   0.590  10.303 -0.5335  0.0103  0.4511
  558TMC3    C6 8332   2.369   0.638  10.350  0.0183  0.1929 -0.4198
  558TMC3     C 8333   2.707   0.614  10.593  0.1804  0.7129  0.6160
  558TMC3     O 8334   2.811   0.605  10.533  0.4290  0.3170 -0.2708
  558TMC3     H 8335   2.464   0.737  10.656  0.0962  0.4466  0.2868
  558TMC3    H1 8336   2.686   0.540  10.340 -0.3458  0.6392 -1.1006
  558TMC3    H2 8337   2.289   0.661  10.280  0.7746 -1.2978 -1.7630
  558TMC3    C7 8338   2.508   0.535  10.163  0.0236  0.0875 -0.3276
  558TMC3    C8 8339   2.230   0.716  10.524 -0.2107 -1.2781  0.2884
  558TMC3    O1 8340   2.619   0.525  10.116  0.0463 -0.2670  0.1432
  558TMC3    O2 8341   2.151   0.748  10.437  0.1694  0.0597 -0.1886
  559MPD2     C 8342   2.636   1.013  10.536  0.1395  0.2078 -0.1206
  559MPD2    C1 8343   2.549   1.011  10.639 -0.6116 -0.3974  0.2170
  559MPD2    C2 8344   2.601   0.984  10.766 -0.9459 -0.0423 -0.2674
  559MPD2    C3 8345   2.737   0.990  10.790  0.5488 -0.0540 -0.6437
  559MPD2    C4 8346   2.824   0.997  10.681  0.1607 -0.2280  0.0352
  559MPD2    C5 8347   2.768   0.993  10.558  0.5267  0.0636 -0.4802
  559MPD2     H 8348   2.533   0.982  10.850 -0.5725  1.4009  0.0672
  559MPD2    H1 8349   2.932   1.000  10.689 -0.1965 -1.4618  5.3781
  559MPD2    H2 8350   2.613   1.025  10.431 -2.4575 -0.8791  0.3436
  559MPD2    H3 8351   2.834   0.994  10.472  1.0031  1.5489 -0.1027
  559MPD2     N 8352   2.774   0.981  10.926  0.1666 -0.0277 -0.4180
  559MPD2    H5 8353   2.700   0.966  10.994  2.2239 -1.5496  1.5070
  559MPD2    N1 8354   2.414   1.026  10.629  0.4550  0.1228 -0.0360
  559MPD2    H7 8355   2.367   1.034  10.719  0.9688 -2.2038  0.4381
  560TMC3    C1 8356   2.893   1.000  11.126 -0.5895 -0.5657  0.2550
  560TMC3    C2 8357   2.829   0.893  11.184  0.0132 -0.0843  0.1949
  560TMC3    C3 8358   2.819   0.875  11.316  0.3356  0.7093  0.0565
  560TMC3    C4 8359   2.972   1.081  11.203 -0.0470 -0.3307 -0.2499
  560TMC3    C5 8360   2.965   1.061  11.341 -0.0706  0.2714 -0.5999
  560TMC3    C6 8361   2.881   0.964  11.402 -0.3726  0.2089 -0.1302
  560TMC3     C 8362   2.903   1.012  10.978  0.2493  0.1542 -0.2643
  560TMC3     O 8363   3.000   1.056  10.922 -0.4789  0.1459  0.3809
  560TMC3     H 8364   2.773   0.829  11.117  1.2885  0.1999 -1.1544
  560TMC3    H1 8365   3.016   1.166  11.153 -1.2457  0.4327  0.0005
  560TMC3    H2 8366   2.871   0.953  11.510 -1.5989  2.0254 -0.0640
  560TMC3    C7 8367   3.049   1.139  11.438 -0.0902  0.1983 -0.1715
  560TMC3    C8 8368   2.721   0.785  11.367 -0.6037 -0.0494 -0.1267
  560TMC3    O1 8369   3.008   1.124  11.556 -0.3831 -0.0127 -0.0931
  560TMC3    O2 8370   2.636   0.748  11.290  0.1204  0.5646  0.4338
  561TMC3    C1 8371   0.510   0.191  10.784 -0.5547 -0.3201  0.1028
  561TMC3    C2 8372   0.436   0.083  10.820  0.9731 -0.0045 -0.1817
  561TMC3    C3 8373   0.309   0.106  10.861 -0.2697 -0.4091 -0.4607
  561TMC3    C4 8374   0.452   0.314  10.767  0.0295  0.1025  0.7362
  561TMC3    C5 8375   0.326   0.339  10.807 -0.6442 -0.5633 -0.2826
  561TMC3    C6 8376   0.253   0.232  10.860  0.1551 -0.3448  0.1928
  561TMC3     C 8377   0.644   0.178  10.736  0.5504 -0.5285  0.3190
  561TMC3     O 8378   0.688   0.285  10.687 -0.1168  0.1880  0.6034
  561TMC3     H 8379   0.482   4.723  10.806 -0.6218 -0.7487 -0.1843
  561TMC3    H1 8380   0.505   0.399  10.726  0.2734 -0.3005  0.2009
  561TMC3    H2 8381   0.152   0.252  10.894 -0.2339 -0.4424 -0.9181
  561TMC3    C7 8382   0.303   0.464  10.871  0.9023 -0.4098 -0.2621
  561TMC3    C8 8383   0.225   0.000  10.910 -0.1012 -0.2057 -0.4298
  561TMC3    O1 8384   0.262   0.472  10.985  0.5982 -0.5829 -0.2137
  561TMC3    O2 8385   0.201   4.644  10.835 -0.1620 -0.2470 -0.2437
  562TMC3    C1 8386   1.771   1.564  15.995  0.0425 -0.3975  0.7703
  562TMC3    C2 8387   1.736   1.674  15.917 -0.2742  0.4690  0.3977
  562TMC3    C3 8388   1.767   1.672  15.783  0.7750  0.4537 -0.3527
  562TMC3    C4 8389   1.814   1.445  15.937  0.5301  0.7736  0.0804
  562TMC3    C5 8390   1.839   1.456  15.800  0.7198 -0.0486 -0.3714
  562TMC3    C6 8391   1.814   1.565  15.719  0.4028 -0.0522  0.2042
  562TMC3     C 8392   1.724   1.571  16.134 -0.7334  0.3702 -0.3394
  562TMC3     O 8393   1.633   1.651  16.162  0.7120 -0.3660 -0.4191
  562TMC3     H 8394   1.683   1.753  15.969 -0.7468 -0.1166  0.8144
  562TMC3    H1 8395   1.804   1.347  15.982 -2.4515  0.8640 -0.4138
  562TMC3    H2 8396   1.827   1.567  15.612  0.3401  2.3367  0.2460
  562TMC3    C7 8397   1.893   1.340  15.729  0.7996  0.2368  0.2175
  562TMC3    C8 8398   1.716   1.776  15.692  0.1053  1.0429  0.0680
  562TMC3    O1 8399   1.878   1.341  15.611  0.4734  0.3531 -0.1679
  562TMC3    O2 8400   1.752   1.776  15.575 -0.1187  0.1844  0.6733
  563MPD2     C 8401   4.179   2.901  15.491 -1.0026  0.4500 -0.2936
  563MPD2    C1 8402   4.198   2.898  15.630  0.7518 -0.3335 -0.6269
  563MPD2    C2 8403   4.321   2.871  15.679  0.4211  0.1322 -0.2430
  563MPD2    C3 8404   4.431   2.849  15.598 -0.2590  0.7435 -0.3466
  563MPD2    C4 8405   4.415   2.863  15.462 -0.1933 -0.0326  0.0296
  563MPD2    C5 8406   4.289   2.884  15.410  0.7595  0.2117 -0.0271
  563MPD2     H 8407   4.337   2.851  15.784 -0.1465  0.8378 -0.0239
  563MPD2    H1 8408   4.494   2.845  15.389  1.3687  2.9896  0.9798
  563MPD2    H2 8409   4.084   2.913  15.440  0.5568  0.6429 -3.1339
  563MPD2    H3 8410   4.278   2.901  15.304 -1.0119  0.5712  0.2212
  563MPD2     N 8411   4.552   2.801  15.662  0.2644 -0.0542  0.1470
  563MPD2    H5 8412   4.546   2.778  15.761  1.6134  1.0506  0.4825
  563MPD2    N1 8413   4.086   2.900  15.710  0.0844 -0.2352 -0.3389
  563MPD2    H7 8414   3.994   2.906  15.666  0.3936  1.0528 -0.7992
  564TMC3    C1 8415   3.954   2.887  15.905 -0.0575 -0.3821  0.1213
  564TMC3    C2 8416   3.873   2.795  15.845  0.6628  0.1914 -0.6140
  564TMC3    C3 8417   3.765   2.750  15.925 -0.2277 -0.4516 -0.4929
  564TMC3    C4 8418   3.957   2.916  16.038  0.5755 -0.4652 -0.2605
  564TMC3    C5 8419   3.872   2.849  16.121  0.0760  0.5534  1.0976
  564TMC3    C6 8420   3.770   2.777  16.062  0.3990  0.0297 -0.7986
  564TMC3     C 8421   4.084   2.921  15.843  0.3184 -0.6522  0.8969
  564TMC3     O 8422   4.179   2.944  15.914 -0.1081  0.5562 -0.1848
  564TMC3     H 8423   3.892   2.760  15.745  1.3835 -1.4927  0.1068
  564TMC3    H1 8424   4.021   2.992  16.083  2.6668 -2.4371  0.0813
  564TMC3    H2 8425   3.695   2.733  16.127  2.0996 -0.2827  0.9322
  564TMC3    C7 8426   3.945   2.770  16.221  0.3424  0.2538  0.0697
  564TMC3    C8 8427   3.706   2.617  15.886  0.0878 -0.3674  0.1643
  564TMC3    O1 8428   4.063   2.808  16.244 -0.2782  0.1577  0.3195
  564TMC3    O2 8429   3.659   2.553  15.980 -0.0161  0.0937  0.2454
  565TMC3    C1 8430   4.147   4.302  10.274 -0.1245  0.0889 -0.4226
  565TMC3    C2 8431   4.255   4.256  10.336 -0.2088 -0.0312  0.1164
  565TMC3    C3 8432   4.237   4.210  10.463  0.7544  0.3753 -0.4043
  565TMC3    C4 8433   4.022   4.301  10.333  0.0362  0.4822  0.4158
  565TMC3    C5 8434   4.007   4.246  10.459  0.5756  0.0741  0.4300
  565TMC3    C6 8435   4.116   4.218  10.536  0.9604 -0.4098 -0.3327
  565TMC3     C 8436   4.172   4.357  10.144  0.4752 -0.2816  1.1327
  565TMC3     O 8437   4.144   4.474  10.125 -0.0978 -0.1093  0.3537
  565TMC3     H 8438   4.353   4.273  10.293  1.0060 -2.2062  1.9711
  565TMC3    H1 8439   3.936   4.335  10.275  0.5497  3.1858  1.2074
  565TMC3    H2 8440   4.102   4.156  10.624 -1.8678 -2.1278 -1.9792
  565TMC3    C7 8441   3.872   4.220  10.503  0.2454  0.8686 -0.8782
  565TMC3    C8 8442   4.348   4.154  10.525  0.7732  0.5410  0.0309
  565TMC3    O1 8443   3.780   4.250  10.427 -0.2111 -0.0060  0.1073
  565TMC3    O2 8444   4.332   4.124  10.643  0.5691  0.5090  0.3537
  566MPD2     C 8445   1.343   0.530  14.430 -0.1399 -0.1356 -0.4824
  566MPD2    C1 8446   1.379   0.519  14.298  0.3858  0.0520 -0.4101
  566MPD2    C2 8447   1.291   0.481  14.203 -0.1147 -0.2347 -0.6142
  566MPD2    C3 8448   1.154   0.470  14.234  0.5795  0.0819  0.3523
  566MPD2    C4 8449   1.120   0.489  14.364  0.2541  0.0746  0.0321
  566MPD2    C5 8450   1.210   0.520  14.462  0.6739  0.4570 -0.0230
  566MPD2     H 8451   1.317   0.465  14.099  0.3668 -0.6559 -0.4326
  566MPD2    H1 8452   1.017   0.472  14.391  0.9092 -0.5059  2.1801
  566MPD2    H2 8453   1.407   0.558  14.512 -0.3999 -2.1447  0.4183
  566MPD2    H3 8454   1.173   0.538  14.562 -0.1946 -0.4363 -0.1870
  566MPD2     N 8455   1.044   0.449  14.148 -0.0897 -0.4418 -0.4407
  566MPD2    H5 8456   0.952   0.458  14.190  0.0231  2.8306 -0.9224
  566MPD2    N1 8457   1.510   0.557  14.265 -0.1364  0.0858 -0.4134
  566MPD2    H7 8458   1.561   0.582  14.349 -0.6174 -1.7532  0.4277
  567TMC3    C1 8459   1.692   0.637  14.128 -0.2849 -0.4538  0.0080
  567TMC3    C2 8460   1.730   0.694  14.009 -0.3806  0.3980  0.0468
  567TMC3    C3 8461   1.857   0.747  14.002 -0.2847  0.1955  0.0609
  567TMC3    C4 8462   1.776   0.638  14.240 -0.0387 -0.5667  0.1402
  567TMC3    C5 8463   1.899   0.701  14.230  0.5298  0.1282 -0.1669
  567TMC3    C6 8464   1.945   0.755  14.110 -0.2699 -0.5947 -0.2299
  567TMC3     C 8465   1.562   0.574  14.132  0.0277 -0.3291 -0.1324
  567TMC3     O 8466   1.508   0.561  14.018 -0.3447 -0.0502  0.3112
  567TMC3     H 8467   1.661   0.703  13.926 -1.3128 -1.2782  0.6390
  567TMC3    H1 8468   1.750   0.592  14.334 -0.8003 -0.1342  0.1432
  567TMC3    H2 8469   2.050   0.781  14.108 -0.9178  1.9805  0.0116
  567TMC3    C7 8470   1.957   0.753  14.355 -0.1935 -0.0936  0.3553
  567TMC3    C8 8471   1.883   0.838  13.883  0.1824  0.3938  0.2782
  567TMC3    O1 8472   2.061   0.811  14.349 -0.1831  0.7288  0.0333
  567TMC3    O2 8473   1.788   0.847  13.808  0.2316  0.8068  0.4400
  568MPD2     C 8474   4.068   1.458  16.470  0.8059  0.0403  0.0877
  568MPD2    C1 8475   3.937   1.478  16.510  0.1593  0.5107  0.2067
  568MPD2    C2 8476   3.851   1.537  16.423 -0.2112  0.4314  0.0076
  568MPD2    C3 8477   3.901   1.603  16.304 -0.6115  0.6029 -0.6223
  568MPD2    C4 8478   4.028   1.580  16.267  0.2073 -0.0133  0.0788
  568MPD2    C5 8479   4.115   1.508  16.356 -0.1780  0.9479 -0.3705
  568MPD2     H 8480   3.746   1.551  16.447 -0.9653 -0.5958 -2.6420
  568MPD2    H1 8481   4.068   1.616  16.173 -0.3221  0.3293 -0.0181
  568MPD2    H2 8482   4.142   1.409  16.533 -1.7648 -1.4701  1.9230
  568MPD2    H3 8483   4.219   1.498  16.330 -0.6152  1.7305 -2.3705
  568MPD2     N 8484   3.810   1.684  16.234 -0.2435  0.2134  0.2258
  568MPD2    H5 8485   3.720   1.697  16.279  0.4131  4.8549  0.2480
  568MPD2    N1 8486   3.895   1.432  16.639  0.3697  0.3140 -0.6475
  568MPD2    H7 8487   3.969   1.391  16.694 -1.6319 -0.0086  1.8156
  569TMC3    C1 8488   3.696   1.816  16.056 -0.0867 -0.1639 -0.3137
  569TMC3    C2 8489   3.606   1.865  16.143  0.3705  0.3260  0.2184
  569TMC3    C3 8490   3.496   1.941  16.100  0.5380 -0.3172  0.2550
  569TMC3    C4 8491   3.691   1.840  15.922 -0.3358 -0.7501  0.0310
  569TMC3    C5 8492   3.578   1.915  15.875  0.3199  0.4707 -0.7756
  569TMC3    C6 8493   3.491   1.973  15.967  0.2480 -0.2319  0.2458
  569TMC3     C 8494   3.822   1.745  16.107  0.1094 -0.0859  0.8855
  569TMC3     O 8495   3.917   1.747  16.035 -0.3484  0.1879  0.0699
  569TMC3     H 8496   3.619   1.851  16.250 -2.4637 -1.6970  0.3099
  569TMC3    H1 8497   3.758   1.800  15.847  0.1219  1.3028 -0.6369
  569TMC3    H2 8498   3.416   2.040  15.927 -0.6526 -1.1207  0.4392
  569TMC3    C7 8499   3.600   1.989  15.754  0.1288  0.0794 -0.0646
  569TMC3    C8 8500   3.414   2.012  16.196 -0.7523 -0.0730  0.4030
  569TMC3    O1 8501   3.581   1.926  15.649  0.0942 -0.9099  0.2339
  569TMC3    O2 8502   3.305   2.041  16.154  0.1774  0.0342 -0.6437
  570TMC3    C1 8503   3.188   0.312  16.179 -0.2727 -0.5586 -0.4616
  570TMC3    C2 8504   3.267   0.286  16.065 -0.0841  0.3335  0.4381
  570TMC3    C3 8505   3.354   0.386  16.026 -0.4868 -0.0413  0.2036
  570TMC3    C4 8506   3.190   0.438  16.236 -0.8564  0.6070 -0.1192
  570TMC3    C5 8507   3.266   0.536  16.176  0.3302 -0.4164  0.1805
  570TMC3    C6 8508   3.354   0.516  16.076 -0.0137 -0.4037  0.3491
  570TMC3     C 8509   3.095   0.212  16.228  0.0859  0.3126 -0.3692
  570TMC3     O 8510   3.086   0.113  16.158 -0.3491 -0.3778  0.2023
  570TMC3     H 8511   3.281   0.185  16.028 -1.2946  0.4398 -0.3099
  570TMC3    H1 8512   3.133   0.482  16.318  2.8502 -0.3082  2.9608
  570TMC3    H2 8513   3.439   0.580  16.057  1.2495 -2.2270 -0.1614
  570TMC3    C7 8514   3.268   0.672  16.228 -0.5545  0.3185 -0.7752
  570TMC3    C8 8515   3.479   0.350  15.953  0.1103  0.4384 -0.4889
  570TMC3    O1 8516   3.226   0.685  16.341  0.2521 -0.4849 -0.0494
  570TMC3    O2 8517   3.577   0.419  15.981  0.5016 -0.0950 -0.1045
  571MPD2     C 8518   1.394   2.184   1.009 -0.2041 -0.3290  0.0145
  571MPD2    C1 8519   1.308   2.227   1.102  0.9908 -0.2059 -0.4954
  571MPD2    C2 8520   1.277   2.355   1.109 -0.0970 -0.3351 -0.8359
  571MPD2    C3 8521   1.342   2.446   1.020  0.2965 -0.5858 -0.4394
  571MPD2    C4 8522   1.448   2.406   0.939 -0.3613  0.0242  0.1341
  571MPD2    C5 8523   1.467   2.270   0.933  0.5379 -0.0915 -0.0890
  571MPD2     H 8524   1.194   2.386   1.171  0.6927  1.5623 -0.7461
  571MPD2    H1 8525   1.508   2.464   0.870 -1.8846  0.4534 -0.8411
  571MPD2    H2 8526   1.423   2.081   0.997  0.0616 -0.7302  4.0213
  571MPD2    H3 8527   1.551   2.227   0.878  0.2640 -2.1034  1.0738
  571MPD2     N 8528   1.307   2.582   1.014  0.1240  0.3977  0.2927
  571MPD2    H5 8529   1.349   2.631   0.936  1.0342 -0.0293  0.5158
  571MPD2    N1 8530   1.247   2.125   1.190  0.0973 -0.3269 -0.7381
  571MPD2    H7 8531   1.267   2.027   1.172 -0.4056 -0.6115  0.2108
  572TMC3    C1 8532   1.164   2.762   1.006 -0.0382 -0.3579 -0.3135
  572TMC3    C2 8533   1.056   2.834   1.053  0.1013  0.4407  0.3110
  572TMC3    C3 8534   1.000   2.940   0.980  0.2594  0.0740 -0.1761
  572TMC3    C4 8535   1.219   2.795   0.884  0.0376 -0.1723  0.1678
  572TMC3    C5 8536   1.161   2.893   0.811  0.9207 -0.8227  0.3657
  572TMC3    C6 8537   1.054   2.969   0.855  0.2050 -0.0190 -0.8585
  572TMC3     C 8538   1.201   2.643   1.079  0.9765 -0.2721  0.7352
  572TMC3     O 8539   1.134   2.597   1.172  0.0021  0.7975  0.0213
  572TMC3     H 8540   0.996   2.792   1.133  0.5419  2.6912  1.8292
  572TMC3    H1 8541   1.299   2.734   0.844 -0.4480 -0.5153 -0.2792
  572TMC3    H2 8542   1.026   3.053   0.793  0.1015  0.7058  0.1680
  572TMC3    C7 8543   1.222   2.937   0.691 -0.2920 -0.1134 -0.4845
  572TMC3    C8 8544   0.880   3.001   1.035 -0.2790  0.6761 -0.3353
  572TMC3    O1 8545   1.140   2.993   0.621 -0.9077 -0.4774  0.4123
  572TMC3    O2 8546   0.867   2.990   1.156 -0.1764 -0.3442 -0.2874
  573MPD2     C 8547   2.341   2.648   0.654 -0.0499 -1.0014 -0.2799
  573MPD2    C1 8548   2.377   2.776   0.623  0.7829 -0.1405 -0.9559
  573MPD2    C2 8549   2.364   2.827   0.494 -0.4459  0.0376 -0.0267
  573MPD2    C3 8550   2.339   2.735   0.396 -0.9304  0.3139 -0.0257
  573MPD2    C4 8551   2.324   2.606   0.431  0.7083  0.3374 -0.2505
  573MPD2    C5 8552   2.324   2.557   0.558  0.6140 -0.0443 -0.4936
  573MPD2     H 8553   2.374   2.934   0.483  2.4161 -0.0059  2.4378
  573MPD2    H1 8554   2.320   2.529   0.354 -1.3498  2.8655 -2.6593
  573MPD2    H2 8555   2.328   2.613   0.756 -0.4938 -4.5743 -1.5467
  573MPD2    H3 8556   2.324   2.450   0.577  0.9113  0.2158  0.9703
  573MPD2     N 8557   2.336   2.770   0.262 -0.4682 -0.2917  0.0582
  573MPD2    H5 8558   2.307   2.691   0.206 -0.6734  1.0689 -1.7770
  573MPD2    N1 8559   2.401   2.854   0.737 -0.0300 -0.5486 -0.2285
  573MPD2    H7 8560   2.354   2.828   0.823  0.8169  0.9601  0.6969
  574TMC3    C1 8561   2.389   2.903   0.071  0.5831 -0.5566  0.4262
  574TMC3    C2 8562   2.287   2.869  17.739  0.0624  0.4284  0.3758
  574TMC3    C3 8563   2.267   2.950  17.628  0.2667 -0.3684  0.8906
  574TMC3    C4 8564   2.466   3.009   0.038  0.5672 -0.4228  0.1950
  574TMC3    C5 8565   2.461   3.059  17.660 -0.6929 -0.1869 -0.5332
  574TMC3    C6 8566   2.355   3.039  17.587  0.1724 -0.2120  0.3898
  574TMC3     C 8567   2.360   2.895   0.210  0.5353 -0.2916  0.4809
  574TMC3     O 8568   2.367   3.002   0.267 -0.3469 -0.2516  0.3680
  574TMC3     H 8569   2.219   2.788   0.012 -1.0352  1.0627 -0.6749
  574TMC3    H1 8570   2.532   3.049   0.115  0.7426  0.5775 -0.4699
  574TMC3    H2 8571   2.352   3.077  17.485  2.6396 -1.6628 -0.2170
  574TMC3    C7 8572   2.517   3.192  17.637 -0.1793  0.7449 -0.7414
  574TMC3    C8 8573   2.161   2.912  17.536 -0.2301  0.4029  0.0812
  574TMC3    O1 8574   2.458   3.257  17.547 -0.9286  0.5006  0.0911
  574TMC3    O2 8575   2.136   2.791  17.524  0.0077 -0.0095 -0.3499
  575TMC3    C1 8576   0.241   4.073  11.184  0.1747 -0.1182 -0.0338
  575TMC3    C2 8577   0.173   4.038  11.299  0.6097  0.2256 -0.2000
  575TMC3    C3 8578   0.054   3.975  11.280 -0.0596  0.3696 -0.2114
  575TMC3    C4 8579   0.191   4.054  11.060  0.1306 -0.2770  0.0167
  575TMC3    C5 8580   0.072   3.993  11.045 -0.8356 -0.0663 -0.2735
  575TMC3    C6 8581   0.006   3.945  11.155 -0.4060 -0.4239  0.9368
  575TMC3     C 8582   0.356   4.153  11.197  0.4665  0.0617 -0.2136
  575TMC3     O 8583   0.374   4.234  11.108  0.3919  0.3276  1.0416
  575TMC3     H 8584   0.195   4.071  11.400 -2.6880  0.3592  0.4879
  575TMC3    H1 8585   0.247   4.096  10.978  1.9294 -1.1677  0.7796
  575TMC3    H2 8586   4.646   3.902  11.136 -0.5046 -0.2630  1.0850
  575TMC3    C7 8587   4.727   4.022  10.931 -0.3849 -0.8103  0.3432
  575TMC3    C8 8588   4.710   3.972  11.397 -0.5618 -0.1724 -0.4883
  575TMC3    O1 8589   4.605   4.019  10.941 -0.2691 -0.2935 -0.4694
  575TMC3    O2 8590   0.026   3.972  11.504 -0.0589  0.0934  0.3533
  576MPD2     C 8591   0.079   4.505  12.149  0.1450  0.7035  0.7297
  576MPD2    C1 8592   4.691   4.564  12.156  0.1134 -0.3216  0.4615
  576MPD2    C2 8593   4.623   4.565  12.277 -0.0451 -0.9971  0.2379
  576MPD2    C3 8594   4.671   4.520  12.394 -0.9867 -0.0115  1.0033
  576MPD2    C4 8595   0.060   4.456  12.394  1.0638  0.4543  0.1969
  576MPD2    C5 8596   0.123   4.449  12.267  0.1652  0.2542  1.4718
  576MPD2     H 8597   4.519   4.595  12.280  0.8073  2.2789 -2.6222
  576MPD2    H1 8598   0.104   4.398  12.474  3.1871  0.2026 -1.1374
  576MPD2    H2 8599   0.138   4.498  12.059  2.2616 -0.3670  2.1872
  576MPD2    H3 8600   0.215   4.393  12.271  0.2118  0.1261 -1.3042
  576MPD2     N 8601   4.581   4.518  12.504 -0.3786  0.0495 -0.1410
  576MPD2    H5 8602   4.486   4.546  12.485 -0.1416  0.8172 -0.1933
  576MPD2    N1 8603   4.638   4.622  12.045  0.0861  0.3146 -0.2700
  576MPD2    H7 8604   4.547   4.664  12.060  0.2064  1.3253 -2.3292
  577TMC3    C1 8605   4.653   0.010  11.841 -0.6205  0.6224 -0.0645
  577TMC3    C2 8606   4.638   4.725  11.708 -0.0376 -0.1490  0.1704
  577TMC3    C3 8607   4.536   0.066  11.644 -0.1687 -0.2032  0.1295
  577TMC3    C4 8608   4.588   0.116  11.903 -0.0682 -0.0113  0.1887
  577TMC3    C5 8609   4.497   0.192  11.833 -0.0746  0.2566 -0.6047
  577TMC3    C6 8610   4.469   0.168  11.702 -0.0182 -0.2076  0.2463
  577TMC3     C 8611   4.693   4.635  11.922 -0.2444  0.3756  0.4709
  577TMC3     O 8612   0.030   4.553  11.866 -0.3477 -0.6961  0.1503
  577TMC3     H 8613   4.682   4.638  11.662  0.3965  0.2403 -0.1548
  577TMC3    H1 8614   4.608   0.142  12.007  2.3414  0.5145 -0.4137
  577TMC3    H2 8615   4.385   0.209  11.648 -0.6234 -2.8547 -0.8076
  577TMC3    C7 8616   4.412   0.275  11.916 -0.0068 -0.2238 -0.2061
  577TMC3    C8 8617   4.525   0.045  11.499 -0.1078 -0.3483 -0.6415
  577TMC3    O1 8618   4.427   0.263  12.038  0.5448 -0.1187  0.3065
  577TMC3    O2 8619   4.412   0.062  11.463 -0.3603  0.0766  0.0736
  578MPD2     C 8620   3.403   0.822   1.104 -0.1840 -0.6088  0.1268
  578MPD2    C1 8621   3.344   0.748   1.009  0.4881 -0.1537  0.2269
  578MPD2    C2 8622   3.347   0.607   1.023 -0.4644 -0.0303 -0.1133
  578MPD2    C3 8623   3.402   0.549   1.135 -0.1781 -0.2290 -0.0235
  578MPD2    C4 8624   3.448   0.623   1.239  0.4498  0.1420  0.6135
  578MPD2    C5 8625   3.455   0.757   1.214 -0.6020 -0.5994 -0.9159
  578MPD2     H 8626   3.311   0.545   0.941  1.5784  0.3624 -1.2879
  578MPD2    H1 8627   3.495   0.593   1.332  0.3565  0.1054  0.6494
  578MPD2    H2 8628   3.394   0.930   1.102 -0.0322 -0.5999 -0.0702
  578MPD2    H3 8629   3.501   0.820   1.290  0.8737 -0.5232 -1.8864
  578MPD2     N 8630   3.406   0.411   1.164 -0.5838  0.0273 -0.4882
  578MPD2    H5 8631   3.450   0.387   1.252 -0.2200  0.7953 -0.4677
  578MPD2    N1 8632   3.277   0.813   0.907  0.3448 -0.0821  0.1079
  578MPD2    H7 8633   3.293   0.911   0.889  2.3197 -0.1955  1.2443
  579TMC3    C1 8634   3.360   0.177   1.149 -0.3371  0.0328 -0.2295
  579TMC3    C2 8635   3.486   0.150   1.192  0.1542  0.3172 -0.7355
  579TMC3    C3 8636   3.507   0.019   1.210  0.0964 -0.2649 -0.2281
  579TMC3    C4 8637   3.290   0.080   1.082  0.0122  1.1349  0.5009
  579TMC3    C5 8638   3.321   4.686   1.098 -0.5288 -0.2540  0.2605
  579TMC3    C6 8639   3.423   4.653   1.173 -0.4386 -0.2641 -1.0377
  579TMC3     C 8640   3.338   0.311   1.096  0.7805  0.4526  0.9154
  579TMC3     O 8641   3.242   0.330   1.014  0.1094  0.6442 -0.0351
  579TMC3     H 8642   3.547   0.222   1.246 -1.8215  1.6343 -0.2344
  579TMC3    H1 8643   3.203   0.114   1.027 -0.3970 -1.8180 -0.6723
  579TMC3    H2 8644   3.454   4.553   1.201 -0.2043  0.4979  1.4607
  579TMC3    C7 8645   3.282   4.591   0.993  0.2164  0.8650  0.3411
  579TMC3    C8 8646   3.629   4.735   1.291  0.0216 -0.2432 -0.1688
  579TMC3    O1 8647   3.350   4.491   1.001  0.2336  0.1883 -0.2277
  579TMC3    O2 8648   3.633   4.638   1.364  0.5040 -0.7149  0.2130
  580TMC3    C1 8649   2.144   4.040  12.304  0.3104 -0.4097 -0.4125
  580TMC3    C2 8650   2.105   4.005  12.177  0.5075  0.2333  0.0480
  580TMC3    C3 8651   2.202   3.962  12.091 -0.2413 -0.1531  0.0491
  580TMC3    C4 8652   2.261   3.986  12.354 -0.5731 -0.2314 -0.8117
  580TMC3    C5 8653   2.336   3.912  12.268  0.1125  0.4106 -0.0062
  580TMC3    C6 8654   2.317   3.913  12.135 -0.4465 -0.0790 -0.3866
  580TMC3     C 8655   2.119   4.179  12.324  0.3610 -0.4674 -0.2505
  580TMC3     O 8656   2.196   4.251  12.265 -0.0504  0.2652 -0.3542
  580TMC3     H 8657   2.024   4.065  12.137  0.6690 -0.9797 -2.1296
  580TMC3    H1 8658   2.270   4.000  12.461 -1.9290 -0.0333 -0.7291
  580TMC3    H2 8659   2.390   3.870  12.067  0.8131  0.2210  0.7876
  580TMC3    C7 8660   2.444   3.834  12.316 -0.3649  0.0545 -0.9189
  580TMC3    C8 8661   2.221   4.039  11.973  0.3032 -0.7169  0.0704
  580TMC3    O1 8662   2.519   3.888  12.394 -0.1585 -0.3524 -0.5679
  580TMC3    O2 8663   2.124   4.075  11.909  0.6866  0.5386 -0.0222
  581MPD2     C 8664   0.174   4.033  14.727 -0.2377 -0.3559  0.6803
  581MPD2    C1 8665   0.156   4.113  14.847 -0.3932 -0.1763  0.3167
  581MPD2    C2 8666   0.028   4.178  14.862  0.7671 -0.4488 -0.5269
  581MPD2    C3 8667   4.669   4.159  14.767 -0.2022 -0.1618 -0.1210
  581MPD2    C4 8668   4.697   4.087  14.649  0.3343 -0.1985 -0.2712
  581MPD2    C5 8669   0.082   4.028  14.631  0.5465 -0.5306 -1.0307
  581MPD2     H 8670   0.000   4.231  14.952 -1.7250 -1.3860 -0.7318
  581MPD2    H1 8671   4.631   4.074  14.565 -1.0070  1.0603  0.5890
  581MPD2    H2 8672   0.263   3.973  14.710  1.5688  2.2684  0.8573
  581MPD2    H3 8673   0.107   3.970  14.543  1.8896  0.0918 -1.0451
  581MPD2     N 8674   4.537   4.221  14.781  0.3070 -0.2262  0.8500
  581MPD2    H5 8675   4.521   4.296  14.847 -0.6658 -2.1042  2.7609
  581MPD2    N1 8676   0.257   4.112  14.945 -0.5571 -0.2819 -0.1505
  581MPD2    H7 8677   0.341   4.058  14.929  0.0051  0.7211 -0.5505
  582TMC3    C1 8678   0.340   4.094  15.160  0.1821  0.6965  0.1962
  582TMC3    C2 8679   0.372   4.154  15.275  0.1054  0.3138  0.0550
  582TMC3    C3 8680   0.418   4.081  15.379  0.3146  0.1240  0.1452
  582TMC3    C4 8681   0.327   3.957  15.155 -0.6736  0.3338  0.7338
  582TMC3    C5 8682   0.347   3.887  15.272  0.0445 -0.3506  0.2622
  582TMC3    C6 8683   0.420   3.943  15.370  0.3720  0.0123 -0.3288
  582TMC3     C 8684   0.247   4.167  15.072  0.3590  0.6673 -0.4227
  582TMC3     O 8685   0.164   4.240  15.126 -0.5159 -0.1503  0.9680
  582TMC3     H 8686   0.364   4.262  15.280  0.3453  0.3045  0.6837
  582TMC3    H1 8687   0.275   3.905  15.076 -0.4405 -2.1614  2.2131
  582TMC3    H2 8688   0.433   3.890  15.464 -0.5540  0.6743  0.1642
  582TMC3    C7 8689   0.229   3.824  15.325 -0.1609  0.2423  0.3030
  582TMC3    C8 8690   0.435   4.141  15.510 -0.6822 -0.0626 -0.7012
  582TMC3    O1 8691   0.233   3.738  15.414 -0.6615 -0.2351 -0.4324
  582TMC3    O2 8692   0.356   4.230  15.542  0.0349 -0.8431  0.4515
  583MPD2     C 8693   0.401   1.295  16.823 -0.4370  0.0558  0.7888
  583MPD2    C1 8694   0.315   1.377  16.754  0.4654 -0.1793 -0.2983
  583MPD2    C2 8695   0.214   1.433  16.830 -0.4056  0.2232  0.6736
  583MPD2    C3 8696   0.188   1.401  16.964  0.2995 -0.2470 -0.2222
  583MPD2    C4 8697   0.274   1.317  17.028 -0.2673 -0.4452  0.1851
  583MPD2    C5 8698   0.383   1.271  16.955  0.0080 -0.9376 -0.7375
  583MPD2     H 8699   0.154   1.512  16.786  0.2276 -1.2158 -2.8009
  583MPD2    H1 8700   0.245   1.282  17.127 -2.7942  0.1563 -0.3271
  583MPD2    H2 8701   0.488   1.244  16.784  0.1084  1.8709 -0.3686
  583MPD2    H3 8702   0.457   1.212  17.008 -0.0737  0.3187  0.7635
  583MPD2     N 8703   0.086   1.477  17.024 -0.3256 -0.2350 -0.3338
  583MPD2    H5 8704   0.029   1.540  16.969 -1.1084 -1.2511 -0.6947
  583MPD2    N1 8705   0.344   1.417  16.621 -0.2587 -0.2411  0.4614
  583MPD2    H7 8706   0.278   1.481  16.578  1.9142  1.4704 -0.3365
  584TMC3    C1 8707   4.677   1.554  17.201 -0.0538  0.5936  0.1237
  584TMC3    C2 8708   4.676   1.678  17.131 -0.0705  0.0349  0.1591
  584TMC3    C3 8709   4.616   1.773  17.204 -0.3952  0.7008 -0.6690
  584TMC3    C4 8710   4.601   1.525  17.311 -0.5240 -0.7909 -0.1788
  584TMC3    C5 8711   4.548   1.629  17.379 -0.3915 -0.6802  0.0056
  584TMC3    C6 8712   4.553   1.749  17.325 -0.8082 -0.3563  0.1173
  584TMC3     C 8713   0.034   1.450  17.151 -0.0451  0.3914 -0.7246
  584TMC3     O 8714   0.066   1.367  17.237 -0.2335  0.0763  0.5266
  584TMC3     H 8715   4.736   1.703  17.044 -0.5013  2.5823  0.5921
  584TMC3    H1 8716   4.605   1.429  17.361 -0.9942  0.0377  1.4213
  584TMC3    H2 8717   4.487   1.829  17.358  0.0180 -1.2749  3.9503
  584TMC3    C7 8718   4.470   1.600  17.489 -0.2356  0.7827  0.2555
  584TMC3    C8 8719   4.613   1.905  17.139  0.7501  0.7872  0.3168
  584TMC3    O1 8720   4.440   1.482  17.499 -0.0409 -0.0392 -0.6085
  584TMC3    O2 8721   4.591   1.913  17.019 -0.0033 -0.6923  0.3648
  585MPD2     C 8722   4.210   0.229   0.506 -0.1871  0.0198  0.0285
  585MPD2    C1 8723   4.256   0.270   0.378 -0.6561  0.0190 -0.8947
  585MPD2    C2 8724   4.279   0.176   0.273  0.6283 -0.9585  0.5844
  585MPD2    C3 8725   4.232   0.045   0.297 -0.1902 -0.0379 -0.5671
  585MPD2    C4 8726   4.173   0.006   0.410 -1.1225  0.6502  0.3518
  585MPD2    C5 8727   4.169   0.098   0.511 -0.9233 -0.1373  0.0591
  585MPD2     H 8728   4.333   0.202   0.183 -0.6902  0.9119  0.3288
  585MPD2    H1 8729   4.138   4.642   0.420 -0.5717  0.4623  0.3328
  585MPD2    H2 8730   4.184   0.299   0.585  0.1112  2.8471 -2.3433
  585MPD2    H3 8731   4.118   0.069   0.602  0.3389  0.7857  1.0655
  585MPD2     N 8732   4.254   4.675   0.204  0.4116 -0.2713  0.3658
  585MPD2    H5 8733   4.215   4.584   0.227 -3.0033  1.4443  1.4562
  585MPD2    N1 8734   4.261   0.413   0.358 -0.1323 -0.1268 -0.6839
  585MPD2    H7 8735   4.234   0.469   0.439 -2.5163 -0.0666 -1.5191
  586TMC3    C1 8736   4.291   4.567   0.003 -0.3127  0.3331  0.2616
  586TMC3    C2 8737   4.392   4.531  17.665  0.5610 -0.1059 -0.0054
  586TMC3    C3 8738   4.368   4.409  17.605  0.2429  0.0106  0.1373
  586TMC3    C4 8739   4.170   4.497   0.012 -0.0981  0.0403  0.3585
  586TMC3    C5 8740   4.166   4.368  17.707  0.7795  0.1573  0.3984
  586TMC3    C6 8741   4.266   4.321  17.626  0.3915 -0.2236 -0.0224
  586TMC3     C 8742   4.308   4.687   0.081  0.9335 -0.1676 -0.0546
  586TMC3     O 8743   4.354   0.049   0.024 -0.3017 -0.5698  0.3175
  586TMC3     H 8744   4.484   4.588  17.656 -0.0152  1.1047  1.9292
  586TMC3    H1 8745   4.091   4.547   0.067 -0.2359  0.6543 -0.3927
  586TMC3    H2 8746   4.257   4.223  17.580  1.2907  0.2055 -1.1057
  586TMC3    C7 8747   4.034   4.354  17.641 -0.5119 -0.1159  0.1869
  586TMC3    C8 8748   4.454   4.367  17.500 -0.0777 -0.6254 -0.8789
  586TMC3    O1 8749   3.930   4.388  17.695  0.2644  0.0052 -0.0429
  586TMC3    O2 8750   4.474   4.250  17.495  0.0387  0.1826  0.3329
  587TMC3    C1 8751   1.452   3.611  16.118  0.1132 -0.0500  0.3476
  587TMC3    C2 8752   1.572   3.674  16.164 -0.0101 -0.7204 -0.3937
  587TMC3    C3 8753   1.661   3.602  16.240 -0.2086  0.0420 -0.8041
  587TMC3    C4 8754   1.430   3.476  16.130  0.0588 -0.4349  0.7403
  587TMC3    C5 8755   1.517   3.416  16.214  0.7039  0.7136  0.5164
  587TMC3    C6 8756   1.631   3.477  16.269 -0.5825  0.7140  0.1656
  587TMC3     C 8757   1.357   3.690  16.042  0.4805 -0.2150  0.3350
  587TMC3     O 8758   1.398   3.797  15.998 -0.7982 -0.3760 -0.2356
  587TMC3     H 8759   1.579   3.776  16.130 -0.4209 -0.2241  1.0174
  587TMC3    H1 8760   1.340   3.423  16.102  1.1009 -1.8111 -0.0335
  587TMC3    H2 8761   1.689   3.414  16.336 -0.1147 -1.1047 -1.9671
  587TMC3    C7 8762   1.480   3.282  16.254 -0.4008  0.1392 -1.0869
  587TMC3    C8 8763   1.727   3.668  16.354 -0.0599 -0.2881  0.4830
  587TMC3    O1 8764   1.363   3.249  16.272  0.1287 -0.2498 -0.7980
  587TMC3    O2 8765   1.782   3.600  16.443  0.4489  0.3723 -0.0143
  588TMC3    C1 8766   3.835   1.538   9.817 -0.1894  0.5249  0.3521
  588TMC3    C2 8767   3.785   1.424   9.757 -0.2143  0.7678  0.5665
  588TMC3    C3 8768   3.849   1.302   9.775 -0.0030  0.3600 -0.7277
  588TMC3    C4 8769   3.960   1.543   9.873 -0.2711 -0.0118  0.2265
  588TMC3    C5 8770   4.021   1.416   9.883  0.4505  0.2070 -0.9773
  588TMC3    C6 8771   3.970   1.299   9.845 -0.0266 -0.2124 -0.2101
  588TMC3     C 8772   3.769   1.670   9.794  0.2316 -0.3164 -0.1809
  588TMC3     O 8773   3.694   1.695   9.702  0.3261  0.0467 -0.8727
  588TMC3     H 8774   3.688   1.425   9.708  0.1020  0.2227 -0.0627
  588TMC3    H1 8775   4.001   1.627   9.928  0.8761 -1.2414  1.2510
  588TMC3    H2 8776   4.030   1.208   9.851 -0.3792 -0.4472 -0.2134
  588TMC3    C7 8777   4.153   1.409   9.931  0.9621 -0.0275  0.0954
  588TMC3    C8 8778   3.765   1.182   9.758  0.2140 -0.0438  0.9554
  588TMC3    O1 8779   4.199   1.307   9.976 -0.0645  0.0651  0.4927
  588TMC3    O2 8780   3.658   1.189   9.699 -0.2687 -0.0512  0.1598
  589TMC3    C1 8781   3.216   3.661   0.952  0.8438  0.3735  0.3388
  589TMC3    C2 8782   3.323   3.691   1.035  0.1328  0.5662  0.0948
  589TMC3    C3 8783   3.441   3.622   1.006  0.0626  0.1603  0.4993
  589TMC3    C4 8784   3.217   3.569   0.846 -0.4770 -0.7656 -0.2982
  589TMC3    C5 8785   3.334   3.502   0.831 -0.4360  0.1113  1.1404
  589TMC3    C6 8786   3.447   3.528   0.911  0.4526  0.1124  0.0647
  589TMC3     C 8787   3.087   3.715   0.979 -0.0026  0.0433 -0.7227
  589TMC3     O 8788   2.993   3.657   0.921 -0.0340 -0.1303  0.0322
  589TMC3     H 8789   3.331   3.768   1.111  2.2823 -0.7262  1.1783
  589TMC3    H1 8790   3.125   3.524   0.810  0.5886 -1.9051 -1.5616
  589TMC3    H2 8791   3.541   3.486   0.877 -0.1273 -0.2053 -1.1114
  589TMC3    C7 8792   3.353   3.399   0.732 -0.2820 -0.2325  0.2924
  589TMC3    C8 8793   3.560   3.662   1.075 -0.2972  0.2408 -0.4165
  589TMC3    O1 8794   3.446   3.322   0.756  0.0919 -0.0418  0.3721
  589TMC3    O2 8795   3.569   3.770   1.130 -0.4863  0.2158 -0.7517
  590MPD2     C 8796   2.671   1.444  16.472 -0.2139  0.9232 -0.8253
  590MPD2    C1 8797   2.623   1.575  16.495  0.6045  0.0478 -0.1497
  590MPD2    C2 8798   2.682   1.681  16.430 -0.2374 -0.2762 -0.1969
  590MPD2    C3 8799   2.796   1.669  16.351 -0.6148 -0.6561 -0.2824
  590MPD2    C4 8800   2.842   1.542  16.327 -0.0432  0.6721 -0.3090
  590MPD2    C5 8801   2.780   1.434  16.392  0.2091  0.4395  0.1896
  590MPD2     H 8802   2.641   1.779  16.450 -1.9927 -1.0899  0.2696
  590MPD2    H1 8803   2.925   1.516  16.262  0.5453 -0.1714  0.7714
  590MPD2    H2 8804   2.628   1.355  16.517 -0.9565  1.4383 -0.5214
  590MPD2    H3 8805   2.818   1.334  16.370 -1.5821  0.0410 -1.1310
  590MPD2     N 8806   2.848   1.782  16.278  0.1783  0.2616  0.3949
  590MPD2    H5 8807   2.791   1.865  16.267 -0.8414 -0.3596  0.9555
  590MPD2    N1 8808   2.504   1.586  16.569 -0.1468  0.2942  0.2472
  590MPD2    H7 8809   2.449   1.502  16.584  0.4222 -0.0796  0.2402
  591TMC3    C1 8810   2.975   1.906  16.122 -0.3290  0.6925  0.4337
  591TMC3    C2 8811   3.032   1.887  15.996 -0.1421 -0.4436 -0.7544
  591TMC3    C3 8812   3.035   1.997  15.915 -0.0310 -0.0968 -0.8151
  591TMC3    C4 8813   2.930   2.025  16.172  0.3204 -0.2214  0.0281
  591TMC3    C5 8814   2.957   2.132  16.093 -0.5298 -0.0310 -0.1521
  591TMC3    C6 8815   3.006   2.118  15.964  0.6586  0.5608 -0.4651
  591TMC3     C 8816   2.967   1.782  16.197 -0.0410  0.0767  0.5769
  591TMC3     O 8817   3.049   1.699  16.172 -0.0774 -0.3341  0.4166
  591TMC3     H 8818   3.064   1.787  15.969  1.2164 -0.1753 -0.1477
  591TMC3    H1 8819   2.893   2.039  16.273  0.3463 -3.2781  0.4877
  591TMC3    H2 8820   3.034   2.206  15.907  1.0414  0.9707  0.3468
  591TMC3    C7 8821   2.907   2.261  16.149 -0.5722 -0.3760  0.5546
  591TMC3    C8 8822   3.118   1.987  15.804  0.9444 -0.3855  0.4047
  591TMC3    O1 8823   2.816   2.266  16.224 -0.2224  0.5114  0.2005
  591TMC3    O2 8824   3.201   1.898  15.799  0.2994 -0.2767  0.1469
  592MPD2     C 8825   3.065   4.108  11.213  0.1444  0.4902  0.2054
  592MPD2    C1 8826   3.104   4.122  11.344 -0.6401  0.0989 -0.1420
  592MPD2    C2 8827   3.074   4.019  11.434  0.6876  0.4157 -0.2358
  592MPD2    C3 8828   3.014   3.897  11.395 -0.8823 -0.1056 -0.2150
  592MPD2    C4 8829   2.975   3.892  11.264  0.2430 -0.2665 -0.3980
  592MPD2    C5 8830   3.002   3.994  11.176 -0.1635 -0.5657  0.1308
  592MPD2     H 8831   3.095   4.029  11.540  3.7553  0.1149 -0.8123
  592MPD2    H1 8832   2.929   3.809  11.213  1.5571  0.2389 -2.3876
  592MPD2    H2 8833   3.089   4.176  11.131 -1.7458 -0.8034 -1.4091
  592MPD2    H3 8834   2.968   3.981  11.075 -1.7843  0.9456  0.4953
  592MPD2     N 8835   2.975   3.802  11.497 -0.4201 -0.9056 -0.0493
  592MPD2    H5 8836   3.018   3.809  11.589 -1.8475  1.4757  0.4436
  592MPD2    N1 8837   3.179   4.239  11.376  0.5718 -0.1796  0.0531
  592MPD2    H7 8838   3.182   4.301  11.295  2.0078 -0.2364  0.0667
  593TMC3    C1 8839   3.278   4.402  11.501 -0.0724 -0.1791 -0.6270
  593TMC3    C2 8840   3.313   4.444  11.631  0.8625  0.3269 -0.0420
  593TMC3    C3 8841   3.417   4.530  11.640  0.0032  0.2866  0.3125
  593TMC3    C4 8842   3.355   4.442  11.396 -0.1344 -0.7097 -0.3021
  593TMC3    C5 8843   3.448   4.535  11.413 -0.5004  0.0175 -0.4840
  593TMC3    C6 8844   3.476   4.587  11.533 -0.5354  0.1916  0.4799
  593TMC3     C 8845   3.223   4.271  11.501  0.6505 -0.8021 -0.5143
  593TMC3     O 8846   3.200   4.217  11.609  0.3057 -0.3180  0.4311
  593TMC3     H 8847   3.270   4.405  11.723 -0.7048 -0.6786 -1.1861
  593TMC3    H1 8848   3.358   4.394  11.299  0.3941 -0.0142 -0.6281
  593TMC3    H2 8849   3.555   4.659  11.550  0.6486 -0.9148 -0.3743
  593TMC3    C7 8850   3.511   4.590  11.298 -0.0755  0.6463 -0.4615
  593TMC3    C8 8851   3.485   4.538  11.765  0.2720  0.5833 -0.3615
  593TMC3    O1 8852   3.626   4.631  11.313 -0.4848  0.1226 -0.3369
  593TMC3    O2 8853   3.414   4.535  11.864 -0.1718 -0.1637  0.4216
  594MPD2     C 8854   1.973   2.955  13.821 -0.1205 -0.4606 -0.3555
  594MPD2    C1 8855   1.974   2.956  13.956 -0.2297  0.1153  0.0577
  594MPD2    C2 8856   2.045   3.055  14.026  0.0164 -0.5843 -0.5500
  594MPD2    C3 8857   2.131   3.138  13.957  0.3291  0.1943 -0.0094
  594MPD2    C4 8858   2.132   3.136  13.819 -0.1452  0.4582  0.4365
  594MPD2    C5 8859   2.063   3.042  13.752  0.1459  0.2965  0.0974
  594MPD2     H 8860   2.040   3.060  14.134 -0.3343  0.3231 -0.6069
  594MPD2    H1 8861   2.187   3.216  13.772 -0.1831 -0.8550 -1.8061
  594MPD2    H2 8862   1.924   2.879  13.762 -0.9294  0.0459 -0.3399
  594MPD2    H3 8863   2.064   3.033  13.644 -1.1783 -3.1161  0.3618
  594MPD2     N 8864   2.198   3.237  14.034  0.6137  0.1333 -0.1115
  594MPD2    H5 8865   2.180   3.235  14.134 -1.1947  1.3775 -0.4148
  594MPD2    N1 8866   1.899   2.861  14.024 -0.0631 -0.2439  0.3566
  594MPD2    H7 8867   1.854   2.791  13.967 -0.2816 -0.4596  0.7940
  595TMC3    C1 8868   2.539   3.424  14.231 -0.6267  0.2743 -0.3807
  595TMC3    C2 8869   2.489   3.384  14.110  0.3722  0.4748 -0.2192
  595TMC3    C3 8870   2.354   3.379  14.099 -0.3923  0.5380  0.3577
  595TMC3    C4 8871   2.446   3.454  14.334  0.1017 -0.7073 -0.0381
  595TMC3    C5 8872   2.312   3.453  14.316 -0.1617 -0.0536 -0.2460
  595TMC3    C6 8873   2.264   3.409  14.199  0.2965 -0.1070  0.2951
  595TMC3     C 8874   2.677   3.389  14.271 -0.0327  0.2609 -0.0330
  595TMC3     O 8875   2.718   3.412  14.385 -0.5158  0.3756 -0.4077
  595TMC3     H 8876   2.550   3.354  14.026  0.6265 -1.2245  0.5849
  595TMC3    H1 8877   2.501   3.477  14.425  0.3933  1.3496 -0.7130
  595TMC3    H2 8878   2.155   3.413  14.193  0.2657 -0.8163  0.3765
  595TMC3    C7 8879   2.222   3.461  14.429 -0.5610 -0.0823 -0.5719
  595TMC3    C8 8880   2.301   3.315  13.986  0.2212 -0.2500  0.2347
  595TMC3    O1 8881   2.118   3.524  14.414  0.1904  0.7233 -0.5580
  595TMC3    O2 8882   2.369   3.320  13.884 -0.0049  0.2342 -0.1500
  596MPD2     C 8883   1.169   1.112  16.857 -0.2513  0.2390  0.1401
  596MPD2    C1 8884   1.140   1.224  16.785 -1.2204  0.4078 -0.2023
  596MPD2    C2 8885   1.145   1.205  16.647  0.1359 -0.2380 -0.0979
  596MPD2    C3 8886   1.162   1.086  16.572 -0.4065 -0.2850 -0.4505
  596MPD2    C4 8887   1.199   0.978  16.650  0.0064 -0.5991 -0.7920
  596MPD2    C5 8888   1.207   0.998  16.789  0.3254 -0.4958  0.0233
  596MPD2     H 8889   1.112   1.296  16.596 -0.1642  0.0491  0.6106
  596MPD2    H1 8890   1.214   0.880  16.608 -0.3168 -0.1558 -1.9403
  596MPD2    H2 8891   1.168   1.105  16.965  1.4764 -0.5486  0.1070
  596MPD2    H3 8892   1.237   0.914  16.851  0.6275 -0.8300 -0.5805
  596MPD2     N 8893   1.154   1.065  16.433 -0.1268  0.3033  0.4547
  596MPD2    H5 8894   1.165   0.972  16.395  1.2861  0.8052 -0.3719
  596MPD2    N1 8895   1.104   1.345  16.841  0.3651 -0.2047 -0.0353
  596MPD2    H7 8896   1.089   1.417  16.771  0.5761  0.4790  0.6224
  597TMC3    C1 8897   1.036   1.504  17.012 -0.0922  0.7100 -1.2029
  597TMC3    C2 8898   1.078   1.599  16.924 -0.4213  0.3814 -0.1418
  597TMC3    C3 8899   1.013   1.717  16.928  0.0217  0.4464  0.4232
  597TMC3    C4 8900   0.942   1.513  17.104 -0.3150 -0.7853  0.1449
  597TMC3    C5 8901   0.876   1.635  17.103 -0.4606  0.5579 -0.2702
  597TMC3    C6 8902   0.900   1.735  17.009  0.7300 -0.0922 -0.1148
  597TMC3     C 8903   1.080   1.367  16.978  0.9166 -0.1419  0.0097
  597TMC3     O 8904   1.083   1.293  17.072 -0.4014 -0.1922  0.2518
  597TMC3     H 8905   1.174   1.589  16.873  0.6699  2.4942  1.5102
  597TMC3    H1 8906   0.912   1.436  17.174 -0.3545 -0.4232  0.5270
  597TMC3    H2 8907   0.854   1.833  16.999  1.4265  0.3186  0.7411
  597TMC3    C7 8908   0.759   1.645  17.190  0.5645 -0.3214  0.2037
  597TMC3    C8 8909   1.050   1.831  16.848 -0.6940  0.6662 -0.3772
  597TMC3    O1 8910   0.721   1.542  17.235  0.0480  0.8024  0.2595
  597TMC3    O2 8911   1.012   1.944  16.886 -0.3071 -0.4944 -0.0419
  598TMC3    C1 8912   3.976   2.377  15.374  0.1033 -0.7378 -0.5493
  598TMC3    C2 8913   3.891   2.269  15.374 -0.0856 -0.0965  0.2885
  598TMC3    C3 8914   3.872   2.210  15.257 -0.5008  0.4681 -0.0346
  598TMC3    C4 8915   4.040   2.428  15.266 -0.1901 -0.6491 -0.4968
  598TMC3    C5 8916   3.987   2.374  15.153 -0.1159 -0.5856 -0.3922
  598TMC3    C6 8917   3.909   2.269  15.144  0.4164  0.0334  0.2792
  598TMC3     C 8918   3.983   2.457  15.481  0.1310  0.1158  0.2306
  598TMC3     O 8919   3.996   2.580  15.467  0.1572  0.0178  0.2468
  598TMC3     H 8920   3.855   2.228  15.468 -1.3384 -1.4270 -0.7882
  598TMC3    H1 8921   4.099   2.517  15.285  1.0791 -1.5464 -0.2731
  598TMC3    H2 8922   3.885   2.232  15.045  1.5827 -0.6942  0.2759
  598TMC3    C7 8923   4.037   2.430  15.022 -0.5203 -0.4321  0.2478
  598TMC3    C8 8924   3.862   2.062  15.262 -0.4134  0.2197  0.5837
  598TMC3    O1 8925   4.015   2.368  14.919  0.3520  0.0596 -0.6828
  598TMC3    O2 8926   3.860   2.005  15.371  0.3373 -0.5336 -0.4611
  599MPD2     C 8927   3.703   4.426  15.582 -0.4070 -0.3149  0.1297
  599MPD2    C1 8928   3.786   4.440  15.692  0.7041 -0.4214  0.0581
  599MPD2    C2 8929   3.732   4.497  15.808 -0.3683  0.3622  0.1998
  599MPD2    C3 8930   3.602   4.539  15.819 -0.4615 -0.6873 -0.4684
  599MPD2    C4 8931   3.519   4.529  15.710 -0.4009 -0.0516  0.5339
  599MPD2    C5 8932   3.572   4.476  15.595 -0.3031 -0.5066  0.2301
  599MPD2     H 8933   3.780   4.487  15.904 -0.1712  2.0303  0.2738
  599MPD2    H1 8934   3.422   4.578  15.711 -0.3658  0.0526 -1.4785
  599MPD2    H2 8935   3.733   4.376  15.490 -2.5656 -2.5065  0.6213
  599MPD2    H3 8936   3.498   4.458  15.518  2.2243 -0.2426 -2.2652
  599MPD2     N 8937   3.548   4.589  15.938  0.3773 -0.1105 -0.3501
  599MPD2    H5 8938   3.447   4.592  15.942  0.4012 -0.2266  0.2673
  599MPD2    N1 8939   3.915   4.375  15.695 -0.4137  0.1075 -0.0192
  599MPD2    H7 8940   3.934   4.312  15.618  2.1480 -0.4230  1.0434
  600TMC3    C1 8941   3.524   4.683  16.153 -0.3219 -0.0289 -0.2813
  600TMC3    C2 8942   3.414   4.621  16.190 -0.8641 -0.1210  0.5828
  600TMC3    C3 8943   3.353   4.663  16.301 -0.7919 -0.6786 -0.8100
  600TMC3    C4 8944   3.568   0.060  16.213  0.1515 -0.0914 -0.0179
  600TMC3    C5 8945   3.485   0.110  16.312 -0.3997  0.0823  0.2606
  600TMC3    C6 8946   3.381   0.043  16.366 -0.5542 -0.2915  0.4954
  600TMC3     C 8947   3.618   4.629  16.050  0.3154 -0.7683 -0.9735
  600TMC3     O 8948   3.738   4.646  16.068 -0.2491  0.5214 -0.1432
  600TMC3     H 8949   3.401   4.521  16.152 -0.2986 -0.0441  0.1922
  600TMC3    H1 8950   3.663   0.098  16.179  1.1899 -2.4012  0.3290
  600TMC3    H2 8951   3.329   0.081  16.454  1.2464  2.1713  0.4752
  600TMC3    C7 8952   3.515   0.236  16.379 -0.5342 -0.1537 -0.7134
  600TMC3    C8 8953   3.234   4.600  16.349 -0.2608  0.0888  0.2743
  600TMC3    O1 8954   3.435   0.285  16.460 -0.5976 -0.1292 -0.0753
  600TMC3    O2 8955   3.212   4.615  16.470 -0.1115  0.2313 -0.3358
  601MPD2     C 8956   1.616   3.060   0.381 -0.0177 -0.4480  0.3398
  601MPD2    C1 8957   1.476   3.065   0.354  0.3606  0.0955 -0.1146
  601MPD2    C2 8958   1.391   3.015   0.457 -0.0976 -0.1999 -0.4633
  601MPD2    C3 8959   1.444   2.966   0.577 -0.1229  0.9646  0.5135
  601MPD2    C4 8960   1.579   2.970   0.601 -0.1140 -0.4082  0.0780
  601MPD2    C5 8961   1.663   3.014   0.503 -0.5979 -1.1245  0.6781
  601MPD2     H 8962   1.285   3.012   0.435 -0.2599 -0.3014  0.3006
  601MPD2    H1 8963   1.627   2.955   0.698 -0.5613 -1.6960  0.1000
  601MPD2    H2 8964   1.687   3.084   0.303 -0.6146  1.7096  0.4625
  601MPD2    H3 8965   1.769   3.002   0.523 -0.4932  0.5894  1.1817
  601MPD2     N 8966   1.357   2.918   0.677  0.0779 -0.4392 -0.2983
  601MPD2    H5 8967   1.399   2.875   0.759 -0.3351 -0.3014 -0.0151
  601MPD2    N1 8968   1.423   3.097   0.226  0.1678  0.1851  0.0185
  601MPD2    H7 8969   1.324   3.091   0.205  0.3074  0.5997 -0.7543
  602TMC3    C1 8970   1.414   3.192   0.016  0.5269 -0.0745 -0.7341
  602TMC3    C2 8971   1.458   3.288  17.678 -0.5140  0.0109  0.2833
  602TMC3    C3 8972   1.400   3.303  17.557  0.6921 -0.0752 -0.1609
  602TMC3    C4 8973   1.316   3.101  17.728  0.1891  0.3181 -0.2674
  602TMC3    C5 8974   1.269   3.110  17.601  0.7155 -0.0097 -0.2256
  602TMC3    C6 8975   1.309   3.214  17.518  0.5887 -0.0376 -0.2886
  602TMC3     C 8976   1.500   3.159   0.131 -0.2754  0.2221  0.6475
  602TMC3     O 8977   1.611   3.208   0.140 -0.1961 -0.4226  0.2133
  602TMC3     H 8978   1.544   3.350  17.703  0.2820 -0.5426 -1.1069
  602TMC3    H1 8979   1.280   3.021   0.041  0.1488  0.9697  0.5380
  602TMC3    H2 8980   1.287   3.211  17.411 -2.7388 -0.5052  0.3968
  602TMC3    C7 8981   1.160   3.028  17.565  0.5612 -0.7727  0.0459
  602TMC3    C8 8982   1.384   3.439  17.518  0.0975  0.4472 -0.5470
  602TMC3    O1 8983   1.155   2.908  17.595 -0.8047  0.5674 -0.2462
  602TMC3    O2 8984   1.446   3.525  17.579  0.1538 -0.4408  0.3362
  603TMC3    C1 8985   4.052   3.624  11.039  0.2983  0.2871  0.5874
  603TMC3    C2 8986   4.137   3.602  11.147 -0.6900 -0.1820 -0.0087
  603TMC3    C3 8987   4.093   3.625  11.276  0.2424  0.8521 -0.6069
  603TMC3    C4 8988   3.924   3.664  11.060  0.4410  0.7597  0.9719
  603TMC3    C5 8989   3.886   3.702  11.189  0.4918  0.8619  0.1922
  603TMC3    C6 8990   3.970   3.679  11.303 -0.4405 -0.2797 -0.1633
  603TMC3     C 8991   4.107   3.605  10.905 -0.9606  0.0341  1.2399
  603TMC3     O 8992   4.229   3.601  10.904 -0.2143 -0.1030 -0.1991
  603TMC3     H 8993   4.240   3.571  11.130 -0.1197  0.1655  2.8605
  603TMC3    H1 8994   3.866   3.681  10.970  2.6273 -0.7462 -0.7278
  603TMC3    H2 8995   3.920   3.685  11.399 -1.2851 -0.0805 -0.6120
  603TMC3    C7 8996   3.744   3.707  11.222  0.3513  0.1773 -0.1648
  603TMC3    C8 8997   4.178   3.575  11.381  0.5190 -0.0175 -0.5581
  603TMC3    O1 8998   3.702   3.705  11.339 -0.2409  0.7707 -0.3222
  603TMC3    O2 8999   4.259   3.491  11.337  0.3937  0.2993 -0.3732
  604MPD2     C 9000   0.441   2.389  16.428  0.4228  0.3175  0.1955
  604MPD2    C1 9001   0.358   2.341  16.337  0.1570 -0.4011 -0.1444
  604MPD2    C2 9002   0.389   2.356  16.204 -0.3780 -0.8228 -0.6366
  604MPD2    C3 9003   0.520   2.395  16.172 -0.2486 -0.4729  0.2214
  604MPD2    C4 9004   0.604   2.429  16.281 -0.7238 -0.0310  0.3471
  604MPD2    C5 9005   0.567   2.424  16.410 -0.2550 -0.7261  0.2775
  604MPD2     H 9006   0.324   2.329  16.122  0.0625 -1.9457 -0.6129
  604MPD2    H1 9007   0.704   2.470  16.269 -0.8918  0.5788  1.0347
  604MPD2    H2 9008   0.403   2.389  16.530  0.5277 -0.2050  0.2379
  604MPD2    H3 9009   0.626   2.460  16.493  0.6093  1.4495 -1.2696
  604MPD2     N 9010   0.566   2.403  16.033  0.0708 -0.1929  0.5902
  604MPD2    H5 9011   0.502   2.380  15.958 -0.8239 -0.8015  1.5251
  604MPD2    N1 9012   0.219   2.313  16.381  0.5061 -0.5563  0.4079
  604MPD2    H7 9013   0.209   2.320  16.482  0.6943 -0.0816  0.3936
  605TMC3    C1 9014   4.722   2.316  16.380  0.9026 -0.1759 -0.5112
  605TMC3    C2 9015   4.723   2.281  16.512 -0.8052  0.9328 -0.3720
  605TMC3    C3 9016   4.624   2.328  16.596  0.5958  0.3924 -0.0389
  605TMC3    C4 9017   4.625   2.397  16.326  0.0727 -0.4965  0.6436
  605TMC3    C5 9018   4.521   2.431  16.411 -0.6019  0.5256  0.4897
  605TMC3    C6 9019   4.517   2.397  16.544  0.1148  0.0477  0.6881
  605TMC3     C 9020   0.108   2.299  16.304 -0.3287 -0.5409  0.2455
  605TMC3     O 9021   0.097   2.304  16.184  0.2165 -0.1850 -0.7574
  605TMC3     H 9022   0.054   2.204  16.546  0.1183  1.1813 -1.6537
  605TMC3    H1 9023   4.629   2.419  16.220  0.4627  1.4237  1.0558
  605TMC3    H2 9024   4.451   2.447  16.615 -0.7945 -0.6185  0.3134
  605TMC3    C7 9025   4.393   2.463  16.358  0.7058 -0.4146 -0.2112
  605TMC3    C8 9026   4.682   2.401  16.710  0.6589  0.1716 -0.0560
  605TMC3    O1 9027   4.387   2.557  16.277  0.0859  0.0294  0.0015
  605TMC3    O2 9028   4.687   2.518  16.687  0.5303  0.5141  0.0189
  606TMC3    C1 9029   0.805   1.181  17.462 -0.1531 -0.7279  0.0666
  606TMC3    C2 9030   0.747   1.110  17.565  0.7673 -0.5886  0.9309
  606TMC3    C3 9031   0.757   0.970  17.566  0.5655  0.0122  0.0017
  606TMC3    C4 9032   0.873   1.126  17.362 -0.5104  0.5373  0.1251
  606TMC3    C5 9033   0.884   0.992  17.362 -0.0432 -0.1607  0.2908
  606TMC3    C6 9034   0.812   0.918  17.452 -0.0050 -0.7904  1.0287
  606TMC3     C 9035   0.816   1.323  17.502 -0.6801  0.0415  0.0633
  606TMC3     O 9036   0.731   1.375  17.573 -0.4486  0.6637 -0.4723
  606TMC3     H 9037   0.699   1.166  17.645  0.4405  1.6110 -0.8333
  606TMC3    H1 9038   0.922   1.172  17.277  0.5494 -0.2633  0.2907
  606TMC3    H2 9039   0.823   0.810  17.456  0.2013 -0.7972  0.1903
  606TMC3    C7 9040   0.946   0.920  17.246  0.2789 -0.3062  0.1531
  606TMC3    C8 9041   0.814   0.921  17.694 -0.5538 -0.4197 -0.6668
  606TMC3    O1 9042   1.053   0.968  17.208 -0.0527  0.0635 -0.5857
  606TMC3    O2 9043   0.867   1.004   0.017  0.3070 -0.3447 -0.3516
  607MPD2     C 9044   3.227   3.415  11.646  1.4588  0.2234 -0.1781
  607MPD2    C1 9045   3.265   3.500  11.747 -0.6935 -0.1291 -0.0784
  607MPD2    C2 9046   3.281   3.440  11.875 -0.2564 -0.1108 -0.8306
  607MPD2    C3 9047   3.244   3.307  11.901  0.3472  0.0247  0.2224
  607MPD2    C4 9048   3.198   3.231  11.798  0.5755  0.0417 -0.0622
  607MPD2    C5 9049   3.190   3.284  11.673 -0.0825 -0.4830 -0.6759
  607MPD2     H 9050   3.319   3.505  11.952  1.1055  1.1375 -2.5754
  607MPD2    H1 9051   3.189   3.125  11.823 -2.0211  0.6168  1.4958
  607MPD2    H2 9052   3.216   3.447  11.543 -0.8806 -0.4459 -0.1481
  607MPD2    H3 9053   3.159   3.216  11.595 -0.3073 -3.0218  1.6165
  607MPD2     N 9054   3.271   3.264  12.036 -0.0190  0.1194 -0.5368
  607MPD2    H5 9055   3.325   3.329  12.092  0.1676  0.3097 -0.9385
  607MPD2    N1 9056   3.318   3.627  11.731  0.5077  0.1979 -0.2493
  607MPD2    H7 9057   3.368   3.672  11.808  0.7951  0.4533 -0.5837
  608TMC3    C1 9058   3.441   3.787  11.622 -0.2000  0.9123  0.3320
  608TMC3    C2 9059   3.544   3.759  11.705  0.2712 -0.1294 -0.4345
  608TMC3    C3 9060   3.660   3.835  11.695 -0.1281 -0.3610 -0.0232
  608TMC3    C4 9061   3.450   3.884  11.525 -0.6915 -0.1212  0.0194
  608TMC3    C5 9062   3.565   3.957  11.515  0.7492  0.3707 -0.6869
  608TMC3    C6 9063   3.677   3.928  11.600 -0.0503 -0.7044 -0.1697
  608TMC3     C 9064   3.339   3.683  11.611  0.3307  0.0495  0.6392
  608TMC3     O 9065   3.266   3.689  11.512  0.0290  0.0713  0.1693
  608TMC3     H 9066   3.545   3.671  11.767 -0.8248  0.3625  0.2891
  608TMC3    H1 9067   3.367   3.902  11.458  0.7677  2.9661 -0.9779
  608TMC3    H2 9068   3.771   3.982  11.596 -0.2830 -0.2614  0.2780
  608TMC3    C7 9069   3.588   4.050  11.400  0.8688 -0.3249 -0.2704
  608TMC3    C8 9070   3.776   3.785  11.780  0.5095  0.0912 -0.4317
  608TMC3    O1 9071   3.485   4.093  11.352  0.6338  0.2594 -0.1890
  608TMC3    O2 9072   3.888   3.777  11.739  0.0713 -0.0187  0.4890
  609TMC3    C1 9073   1.716   2.973   9.394  0.5029  0.2308 -0.2258
  609TMC3    C2 9074   1.680   2.867   9.315 -0.0270 -0.0040  0.9565
  609TMC3    C3 9075   1.770   2.818   9.227 -0.0062  0.5454  0.4915
  609TMC3    C4 9076   1.841   3.030   9.384  0.1603 -0.2809 -0.0943
  609TMC3    C5 9077   1.926   2.984   9.288 -0.0182  0.0123 -0.6825
  609TMC3    C6 9078   1.895   2.873   9.215  0.9538 -0.2506  0.5094
  609TMC3     C 9079   1.616   3.028   9.478 -0.2212 -0.4808  0.0956
  609TMC3     O 9080   1.518   2.966   9.509 -0.1249 -0.3950 -0.0725
  609TMC3     H 9081   1.579   2.829   9.314  1.1276 -2.9551 -1.2934
  609TMC3    H1 9082   1.880   3.119   9.433 -0.7052 -1.3083  2.4615
  609TMC3    H2 9083   1.961   2.837   9.137 -0.2154 -0.2681 -0.4710
  609TMC3    C7 9084   2.068   3.020   9.304 -0.1656  0.5307 -0.0615
  609TMC3    C8 9085   1.743   2.691   9.173  0.0949  1.0319  0.7434
  609TMC3    O1 9086   2.100   3.119   9.372  0.0931 -0.1996 -0.0591
  609TMC3    O2 9087   1.807   2.666   9.070  0.5091 -0.5324  0.3283
  610TMC3    C1 9088   4.080   2.111  12.762 -0.4380 -0.2416  0.3361
  610TMC3    C2 9089   3.988   2.139  12.863  0.1981 -0.4835 -0.1389
  610TMC3    C3 9090   4.007   2.260  12.931  0.6669  0.2689 -0.4358
  610TMC3    C4 9091   4.188   2.190  12.747  0.3580 -0.3417  0.2903
  610TMC3    C5 9092   4.206   2.294  12.829 -1.4793 -0.5738  0.5199
  610TMC3    C6 9093   4.120   2.330  12.921  0.3370 -0.2956 -0.0704
  610TMC3     C 9094   4.070   1.998  12.677  0.8376  0.0755 -0.4442
  610TMC3     O 9095   4.178   1.946  12.642 -0.1397  0.6540 -0.7827
  610TMC3     H 9096   3.893   2.089  12.877  0.0346 -0.4404 -1.1457
  610TMC3    H1 9097   4.247   2.173  12.658  2.5486  1.4975  1.3833
  610TMC3    H2 9098   4.137   2.421  12.976  0.4499  0.3069 -1.0946
  610TMC3    C7 9099   4.325   2.377  12.805 -0.2485  0.4674  0.4543
  610TMC3    C8 9100   3.904   2.304  13.022 -0.0002 -0.6410  0.8211
  610TMC3    O1 9101   4.325   2.485  12.862  0.3923  0.0078  0.0203
  610TMC3    O2 9102   3.847   2.211  13.079 -0.4665 -0.6158 -0.0799
  611MPD2     C 9103   2.339   3.754  10.545  0.3555 -0.0831 -0.5466
  611MPD2    C1 9104   2.413   3.685  10.446 -0.4695 -0.2514 -0.0829
  611MPD2    C2 9105   2.560   3.703  10.443  0.1431 -0.4767 -0.4710
  611MPD2    C3 9106   2.620   3.781  10.537  0.5597  0.5877 -0.3076
  611MPD2    C4 9107   2.543   3.840  10.634  0.7936 -0.2136 -0.1478
  611MPD2    C5 9108   2.404   3.833  10.634  0.3916  0.4968 -0.0321
  611MPD2     H 9109   2.613   3.669  10.354  0.0924  0.5884 -0.9187
  611MPD2    H1 9110   2.582   3.906  10.710 -0.1687 -0.2543  0.3768
  611MPD2    H2 9111   2.232   3.745  10.551  0.5573 -0.4349  2.4116
  611MPD2    H3 9112   2.345   3.889  10.705 -0.7426 -1.3303  0.4431
  611MPD2     N 9113   2.759   3.797  10.537  0.7272 -0.4635 -0.1796
  611MPD2    H5 9114   2.800   3.871  10.592  0.4274  0.4641 -1.2167
  611MPD2    N1 9115   2.342   3.605  10.352 -0.9157  0.1120  0.6671
  611MPD2    H7 9116   2.242   3.616  10.343 -0.8498 -0.2384 -0.6235
  612TMC3    C1 9117   2.989   3.747  10.482 -0.0308  0.3797 -0.6961
  612TMC3    C2 9118   3.025   3.807  10.600  0.4255  0.1206 -0.6034
  612TMC3    C3 9119   3.148   3.774  10.651  0.3766 -0.0386 -0.0071
  612TMC3    C4 9120   3.073   3.668  10.413  0.1783  0.0993  0.4930
  612TMC3    C5 9121   3.194   3.638  10.467  0.6655 -0.0964 -0.0649
  612TMC3    C6 9122   3.232   3.684  10.589  0.1181  0.2534 -0.6331
  612TMC3     C 9123   2.849   3.717  10.464  0.6522  0.2200  0.3054
  612TMC3     O 9124   2.836   3.620  10.396 -0.3529  0.6204 -0.0568
  612TMC3     H 9125   2.958   3.878  10.647 -0.5982 -0.9222 -0.5033
  612TMC3    H1 9126   3.054   3.645  10.309 -1.1580  2.2779  0.2449
  612TMC3    H2 9127   3.327   3.648  10.626 -0.4551 -1.1709 -0.5583
  612TMC3    C7 9128   3.277   3.542  10.404  0.2003 -0.7528  0.5220
  612TMC3    C8 9129   3.163   3.795  10.792  0.4243  0.5477 -0.0250
  612TMC3    O1 9130   3.383   3.510  10.459  0.2854 -0.0457 -0.1127
  612TMC3    O2 9131   3.086   3.873  10.855  0.1042 -0.0162  0.0935
  613MPD2     C 9132   2.558   0.924  16.615  0.1303  0.0694 -0.1160
  613MPD2    C1 9133   2.508   0.971  16.490 -0.5549  0.2324 -0.1264
  613MPD2    C2 9134   2.397   0.910  16.438 -0.1923 -0.0397 -0.8816
  613MPD2    C3 9135   2.336   0.802  16.504 -0.1328 -0.3223  0.3066
  613MPD2    C4 9136   2.390   0.760  16.628 -0.5247 -0.6841 -0.0467
  613MPD2    C5 9137   2.496   0.827  16.687 -0.3769 -0.0374 -0.4084
  613MPD2     H 9138   2.366   0.930  16.336  0.5870  0.5279 -1.0031
  613MPD2    H1 9139   2.342   0.678  16.680 -0.5444 -1.1042 -0.7258
  613MPD2    H2 9140   2.646   0.961  16.667 -0.6351 -0.4327  1.5483
  613MPD2    H3 9141   2.540   0.790  16.779 -0.3494 -1.5439 -1.0273
  613MPD2     N 9142   2.221   0.730  16.452  0.2652  0.1015  0.0708
  613MPD2    H5 9143   2.187   0.655  16.512 -0.6305 -0.0661 -0.6573
  613MPD2    N1 9144   2.584   1.063  16.418 -0.6205  0.5130 -0.1137
  613MPD2    H7 9145   2.685   1.051  16.413 -0.3724  2.4663  0.3855
  614TMC3    C1 9146   2.609   1.174  16.216 -0.2488  0.1708 -0.2025
  614TMC3    C2 9147   2.672   1.063  16.164  0.1184 -0.2698  0.6700
  614TMC3    C3 9148   2.665   1.033  16.033 -0.9965 -0.3511 -0.0795
  614TMC3    C4 9149   2.553   1.262  16.130 -0.6352  0.3753 -0.3577
  614TMC3    C5 9150   2.557   1.235  15.997  0.2768  0.3074 -0.0592
  614TMC3    C6 9151   2.611   1.121  15.941  0.3786  0.4454 -0.0382
  614TMC3     C 9152   2.526   1.145  16.326  0.2957 -0.7638 -0.4442
  614TMC3     O 9153   2.409   1.186  16.330 -0.0805 -0.5318 -0.2085
  614TMC3     H 9154   2.717   0.987  16.226 -1.2499  0.0541  2.0651
  614TMC3    H1 9155   2.502   1.354  16.159  3.4577  2.1643  1.2388
  614TMC3    H2 9156   2.601   1.084  15.839  0.7182 -1.9644  0.8014
  614TMC3    C7 9157   2.511   1.347  15.912  0.4984 -0.4452  0.1882
  614TMC3    C8 9158   2.630   0.891  16.025  0.1985  0.2171  0.3471
  614TMC3    O1 9159   2.521   1.463  15.959 -0.3386  0.1502  0.3234
  614TMC3    O2 9160   2.573   0.859  16.127  0.0958 -0.1248 -0.1918
  615MPD2     C 9161   1.798   2.373  16.008 -0.5429 -0.0102  0.0252
  615MPD2    C1 9162   1.834   2.501  16.033 -0.1939  0.2825  0.2286
  615MPD2    C2 9163   1.774   2.610  15.974  0.3558  0.0204 -0.0985
  615MPD2    C3 9164   1.665   2.594  15.894 -0.8062  0.2640 -0.3089
  615MPD2    C4 9165   1.629   2.464  15.864 -0.8460  0.0062  0.2734
  615MPD2    C5 9166   1.697   2.354  15.916 -0.6073 -0.2593  0.2519
  615MPD2     H 9167   1.814   2.710  15.989 -1.8515  1.0720 -1.3226
  615MPD2    H1 9168   1.543   2.441  15.801 -0.1562  1.2653 -1.1086
  615MPD2    H2 9169   1.845   2.282  16.044  0.1858 -0.4317 -1.9813
  615MPD2    H3 9170   1.677   2.253  15.882 -1.4562 -0.2289  0.6560
  615MPD2     N 9171   1.594   2.708  15.849 -0.0175  0.2311 -0.2824
  615MPD2    H5 9172   1.625   2.804  15.856 -0.1376  0.2629 -0.1932
  615MPD2    N1 9173   1.941   2.517  16.127 -0.3063  0.5462 -0.4499
  615MPD2    H7 9174   1.978   2.611  16.142  0.0154  0.4710 -0.7962
  616TMC3    C1 9175   2.116   2.460  16.268  0.6258  0.0554  0.0086
  616TMC3    C2 9176   2.191   2.565  16.219 -0.1788 -0.2639  0.2029
  616TMC3    C3 9177   2.291   2.614  16.295 -0.0708 -0.3615  0.6999
  616TMC3    C4 9178   2.134   2.404  16.394  0.0609 -0.3621 -0.5817
  616TMC3    C5 9179   2.228   2.468  16.472  0.3267 -0.0099  0.2123
  616TMC3    C6 9180   2.303   2.569  16.425  0.0397  0.2316 -0.0839
  616TMC3     C 9181   1.998   2.422  16.206  0.2302 -0.5769  0.7809
  616TMC3     O 9182   1.953   2.313  16.242 -0.0832 -0.3520  1.0243
  616TMC3     H 9183   2.172   2.611  16.123 -1.2435  0.1490  0.6139
  616TMC3    H1 9184   2.068   2.334  16.442 -0.0435 -0.7663 -1.3174
  616TMC3    H2 9185   2.373   2.619  16.491 -1.8344 -1.1596  2.9492
  616TMC3    C7 9186   2.279   2.409  16.595 -0.3890 -0.4310 -0.0594
  616TMC3    C8 9187   2.336   2.745  16.267  0.1745  0.0351 -0.2977
  616TMC3    O1 9188   2.382   2.452  16.643  0.2286  0.0242  0.4674
  616TMC3    O2 9189   2.260   2.821  16.208  0.4402  0.5375 -0.0863
  617MPD2     C 9190   0.083   0.419  13.564  0.3298  0.3091  0.2327
  617MPD2    C1 9191   0.079   0.480  13.682  0.1669  0.0482 -0.1473
  617MPD2    C2 9192   4.690   0.495  13.733  0.0458  0.8143 -0.3122
  617MPD2    C3 9193   4.574   0.465  13.666  0.5850  0.3649  0.3631
  617MPD2    C4 9194   4.584   0.396  13.547 -0.1111  0.2861 -0.9296
  617MPD2    C5 9195   4.706   0.377  13.498 -0.0798  0.9864  0.2518
  617MPD2     H 9196   4.675   0.535  13.833 -1.1726 -2.7600  0.9151
  617MPD2    H1 9197   4.497   0.370  13.488  0.2568 -2.0421 -0.4448
  617MPD2    H2 9198   0.172   0.372  13.524  0.1757  1.8578 -1.8994
  617MPD2    H3 9199   4.714   0.322  13.405 -2.4460  4.7298 -2.1424
  617MPD2     N 9200   4.447   0.485  13.722  0.4230 -0.1145  0.4874
  617MPD2    H5 9201   4.371   0.477  13.654  0.1483 -1.8766  0.9928
  617MPD2    N1 9202   0.197   0.504  13.749  0.1133  0.3142 -0.3730
  617MPD2    H7 9203   0.281   0.458  13.715  0.4356  0.3836  0.3363
  618TMC3    C1 9204   0.327   0.587  13.929 -0.3157  0.5465 -0.2145
  618TMC3    C2 9205   0.370   0.459  13.956  0.5242  0.2891  0.6033
  618TMC3    C3 9206   0.505   0.444  13.980  0.4362  0.3647 -0.1612
  618TMC3    C4 9207   0.415   0.690  13.922  0.0770  0.1185  0.5772
  618TMC3    C5 9208   0.543   0.669  13.948 -0.3511 -0.0987 -0.0850
  618TMC3    C6 9209   0.595   0.548  13.978  0.3526 -0.6826 -0.3239
  618TMC3     C 9210   0.211   0.601  13.848  0.1799  0.3955  0.6737
  618TMC3     O 9211   0.139   0.694  13.879 -0.3824 -0.2449  0.0582
  618TMC3     H 9212   0.312   0.368  13.952 -1.1117  1.4960 -3.5192
  618TMC3    H1 9213   0.382   0.780  13.873 -0.6842 -0.6534 -0.3333
  618TMC3    H2 9214   0.700   0.526  13.995 -0.3714 -2.6333  1.6774
  618TMC3    C7 9215   0.624   0.788  13.941  0.0770 -0.1148 -0.3288
  618TMC3    C8 9216   0.550   0.313  13.968 -0.2598 -0.5111  0.2164
  618TMC3    O1 9217   0.579   0.887  13.998 -0.2471  0.2317  0.0550
  618TMC3    O2 9218   0.473   0.224  13.998 -0.0592 -0.1763  0.0947
  619MPD2     C 9219   1.403   2.108  13.563  0.2915 -0.3594 -1.1020
  619MPD2    C1 9220   1.399   2.124  13.433 -0.2402  0.6225  0.1825
  619MPD2    C2 9221   1.337   2.028  13.355 -0.2611  0.3793  0.6643
  619MPD2    C3 9222   1.275   1.911  13.402 -0.1989 -0.0291  0.2713
  619MPD2    C4 9223   1.292   1.896  13.544 -0.0937  0.1440 -0.2408
  619MPD2    C5 9224   1.351   1.994  13.613  0.4977 -0.7240 -0.6759
  619MPD2     H 9225   1.315   2.054  13.252  0.0022 -0.4503  0.4001
  619MPD2    H1 9226   1.248   1.807  13.588  2.2252 -0.5232  0.7011
  619MPD2    H2 9227   1.457   2.173  13.630 -2.8034 -1.8472  2.8194
  619MPD2    H3 9228   1.365   1.982  13.720  0.5173 -0.0990 -0.6052
  619MPD2     N 9229   1.186   1.826  13.333 -0.3007  0.1998  0.2638
  619MPD2    H5 9230   1.117   1.782  13.393  0.1601 -0.6489  0.1779
  619MPD2    N1 9231   1.448   2.243  13.379 -0.1594  0.2593 -0.6553
  619MPD2    H7 9232   1.443   2.249  13.277 -0.3697 -0.0969 -0.6661
  620TMC3    C1 9233   1.534   2.458  13.369 -0.9631  0.1406  0.0146
  620TMC3    C2 9234   1.440   2.468  13.269 -1.2102  0.2223 -0.0387
  620TMC3    C3 9235   1.367   2.586  13.258 -0.1889 -0.7350 -0.0860
  620TMC3    C4 9236   1.564   2.568  13.450  0.2245  0.3264  0.1641
  620TMC3    C5 9237   1.483   2.678  13.440  0.1394 -0.5120  0.4107
  620TMC3    C6 9238   1.389   2.692  13.340  0.1651  0.0818 -0.1551
  620TMC3     C 9239   1.522   2.336  13.446  0.1838 -0.5655  0.6127
  620TMC3     O 9240   1.577   2.338  13.552 -0.1227 -0.8485 -0.1825
  620TMC3     H 9241   1.410   2.392  13.198  0.5058  0.4669 -1.0365
  620TMC3    H1 9242   1.615   2.553  13.545 -1.3016  0.1826  0.9525
  620TMC3    H2 9243   1.341   2.789  13.333 -0.0438  0.0477  0.8299
  620TMC3    C7 9244   1.449   2.745  13.561  0.0237 -0.0673  0.0390
  620TMC3    C8 9245   1.227   2.554  13.272 -0.0125  0.0441 -0.4514
  620TMC3    O1 9246   1.540   2.766  13.644 -0.2471 -0.6622  0.3349
  620TMC3    O2 9247   1.166   2.605  13.363  0.6726  0.0750 -0.3947
  621MPD2     C 9248   2.211   2.061   9.657 -0.6561  0.0593 -0.0521
  621MPD2    C1 9249   2.127   2.157   9.703 -0.1151 -0.6966  0.2529
  621MPD2    C2 9250   2.145   2.290   9.668  0.4938 -1.1952  0.7195
  621MPD2    C3 9251   2.257   2.329   9.590 -0.3050 -0.6725 -0.2052
  621MPD2    C4 9252   2.347   2.230   9.554 -0.1903  0.9283 -0.0290
  621MPD2    C5 9253   2.322   2.102   9.579  0.1234 -0.5724  0.2804
  621MPD2     H 9254   2.072   2.365   9.698 -0.3817 -0.6225 -2.7138
  621MPD2    H1 9255   2.441   2.256   9.508 -0.4241 -0.8544 -1.5066
  621MPD2    H2 9256   2.200   1.955   9.672 -0.5164  0.5268  3.2375
  621MPD2    H3 9257   2.399   2.030   9.556 -2.0551 -2.8479  0.0039
  621MPD2     N 9258   2.276   2.468   9.587 -0.2089 -0.4260  0.1841
  621MPD2    H5 9259   2.213   2.519   9.648 -1.0320 -0.7280 -0.4233
  621MPD2    N1 9260   2.014   2.122   9.786 -0.4357 -0.4648  0.8428
  621MPD2    H7 9261   1.972   2.204   9.830 -1.2441 -0.8896  0.8517
  622TMC3    C1 9262   1.833   1.974   9.865  0.6869  0.2057 -0.1380
  622TMC3    C2 9263   1.769   2.069   9.934 -0.4975 -0.3619  0.9126
  622TMC3    C3 9264   1.654   2.035  10.004 -0.4168 -0.0778  0.1194
  622TMC3    C4 9265   1.781   1.848   9.864  0.6783 -0.4684 -0.4420
  622TMC3    C5 9266   1.670   1.816   9.944  0.3002 -0.2086  0.2314
  622TMC3    C6 9267   1.601   1.909  10.007  0.4566 -0.0505 -0.5749
  622TMC3     C 9268   1.955   1.991   9.784 -0.1012  1.0158  0.7461
  622TMC3     O 9269   1.987   1.894   9.714 -0.8272  0.2712 -0.0799
  622TMC3     H 9270   1.822   2.161   9.952 -1.6194  0.7039 -1.3052
  622TMC3    H1 9271   1.827   1.767   9.809  2.9555  0.5972 -0.0694
  622TMC3    H2 9272   1.504   1.886  10.050  1.0411 -2.6227 -0.5967
  622TMC3    C7 9273   1.594   1.699   9.916  0.1428  0.6079  0.1846
  622TMC3    C8 9274   1.575   2.139  10.049 -0.0947 -0.0132  0.3823
  622TMC3    O1 9275   1.528   1.666  10.010  0.0937  0.3660  0.3712
  622TMC3    O2 9276   1.628   2.250  10.033 -0.2174  0.2585  0.0875
  623MPD2     C 9277   0.592   2.921  15.885  0.1297 -0.1714 -0.5075
  623MPD2    C1 9278   0.507   2.817  15.925 -0.0379 -0.8561  0.7876
  623MPD2    C2 9279   0.508   2.786  16.060  0.1939  0.2258 -0.0633
  623MPD2    C3 9280   0.606   2.844  16.146  0.1499 -0.2851 -0.0119
  623MPD2    C4 9281   0.684   2.942  16.103 -0.4216  0.3297  0.2046
  623MPD2    C5 9282   0.678   2.981  15.971  0.8261 -0.2706  0.3490
  623MPD2     H 9283   0.449   2.700  16.087 -0.1916 -0.3110 -2.6525
  623MPD2    H1 9284   0.749   3.005  16.164 -0.1356  0.3345 -0.0993
  623MPD2    H2 9285   0.594   2.953  15.782  1.7327 -1.1190 -0.7745
  623MPD2    H3 9286   0.742   3.058  15.929 -0.4039  0.4495 -0.1901
  623MPD2     N 9287   0.602   2.790  16.275 -0.1669  0.2685 -0.4686
  623MPD2    H5 9288   0.533   2.719  16.297 -0.0557  0.6422  1.0612
  623MPD2    N1 9289   0.416   2.743  15.845  0.5106 -0.0897 -0.3399
  623MPD2    H7 9290   0.358   2.674  15.891  0.0083  1.4344  1.3251
  624TMC3    C1 9291   0.774   2.724  16.705 -0.7482 -0.4252  0.2707
  624TMC3    C2 9292   0.654   2.692  16.759  0.1839 -0.1922 -0.4840
  624TMC3    C3 9293   0.543   2.718  16.690 -0.0491 -0.7466 -0.4728
  624TMC3    C4 9294   0.791   2.754  16.575  0.3343 -0.4327  0.1439
  624TMC3    C5 9295   0.677   2.758  16.505 -0.6755 -0.0823 -0.8701
  624TMC3    C6 9296   0.551   2.751  16.558  0.6655 -0.9130 -0.3987
  624TMC3     C 9297   0.889   2.652  16.765  0.1991  0.4082 -0.7688
  624TMC3     O 9298   0.871   2.550  16.833 -0.1398  0.6899  0.2641
  624TMC3     H 9299   0.657   2.656  16.861 -0.7072  0.8855 -0.0864
  624TMC3    H1 9300   0.890   2.783  16.540 -0.7872  3.2706 -0.0088
  624TMC3    H2 9301   0.457   2.762  16.506  1.5666 -0.3101 -1.9344
  624TMC3    C7 9302   0.692   2.826  16.373  0.6330 -0.2358 -0.0970
  624TMC3    C8 9303   0.413   2.679  16.741 -0.3470  0.1292  0.2200
  624TMC3    O1 9304   0.782   2.905  16.368 -0.3404 -0.1491  0.0421
  624TMC3    O2 9305   0.314   2.702  16.676  0.1558 -0.1873 -0.4954
  625MPD2     C 9306   1.153   3.920   0.283  0.4414  0.5966  0.7393
  625MPD2    C1 9307   1.110   4.045   0.317  1.2211  0.2307 -0.2678
  625MPD2    C2 9308   1.191   4.118   0.398  0.0039 -0.0080  0.7300
  625MPD2    C3 9309   1.312   4.073   0.449 -0.7195 -0.5335 -0.5183
  625MPD2    C4 9310   1.354   3.946   0.413  0.2744  0.4053 -0.2501
  625MPD2    C5 9311   1.269   3.870   0.344 -0.0045  0.3579 -0.0772
  625MPD2     H 9312   1.168   4.219   0.431  0.9935  0.4884 -0.0979
  625MPD2    H1 9313   1.440   3.891   0.451  0.7007  0.6268 -0.8873
  625MPD2    H2 9314   1.098   3.852   0.219  1.3310  3.4091 -2.9758
  625MPD2    H3 9315   1.306   3.774   0.309  0.8518  0.0192  1.7749
  625MPD2     N 9316   1.396   4.162   0.516  0.1846 -0.1719 -0.6979
  625MPD2    H5 9317   1.360   4.256   0.529  0.0312 -0.1565 -1.2083
  625MPD2    N1 9318   0.980   4.096   0.289  0.2056 -0.1449 -0.2728
  625MPD2    H7 9319   0.955   4.186   0.329 -0.3826 -0.8752  0.9842
  626TMC3    C1 9320   0.756   4.091   0.217  0.7518  0.7124  0.0449
  626TMC3    C2 9321   0.674   4.051   0.112 -1.4568 -0.6602  0.4486
  626TMC3    C3 9322   0.551   4.103   0.108  0.9475  0.5053 -0.0568
  626TMC3    C4 9323   0.724   4.179   0.317 -0.2830  0.6509  0.3071
  626TMC3    C5 9324   0.596   4.229   0.304 -0.5874 -0.9161  0.4700
  626TMC3    C6 9325   0.512   4.195   0.198  0.0968  0.3865  0.4746
  626TMC3     C 9326   0.887   4.033   0.210  0.5876  0.1769 -0.2689
  626TMC3     O 9327   0.895   3.923   0.159 -0.3664 -0.8673  0.0646
  626TMC3     H 9328   0.710   3.979   0.040  1.9865  1.1880  0.3208
  626TMC3    H1 9329   0.796   4.204   0.394  0.1042  2.3202 -0.5919
  626TMC3    H2 9330   0.417   4.245   0.184  0.6525  0.7881 -1.8208
  626TMC3    C7 9331   0.535   4.226   0.434  0.5399 -0.0638  0.2955
  626TMC3    C8 9332   0.499   4.092  17.721  0.3228  1.1531  0.1339
  626TMC3    O1 9333   0.597   4.151   0.513  0.4348  0.2046 -0.4171
  626TMC3    O2 9334   0.568   4.041  17.634 -0.5797 -0.3074  0.0823
  627MPD2     C 9335   3.894   4.175  14.231 -0.8107 -0.5267 -0.8461
  627MPD2    C1 9336   3.908   4.122  14.356  0.2803  0.0643  0.4979
  627MPD2    C2 9337   3.820   4.025  14.397 -0.2168 -0.1873 -1.0303
  627MPD2    C3 9338   3.747   3.957  14.307  0.0551 -0.0191 -0.0154
  627MPD2    C4 9339   3.748   3.997  14.175  0.4762 -0.5341 -0.9814
  627MPD2    C5 9340   3.808   4.115  14.144  0.1775 -0.4174 -0.4892
  627MPD2     H 9341   3.812   4.004  14.503  1.1482  1.8342 -0.5348
  627MPD2    H1 9342   3.698   3.945  14.094 -0.0199 -0.0228 -1.0041
  627MPD2    H2 9343   3.944   4.268  14.205 -0.9573 -0.2760 -0.2315
  627MPD2    H3 9344   3.802   4.159  14.045 -2.1832  1.3282  0.4332
  627MPD2     N 9345   3.686   3.842  14.359 -0.8026  0.3831 -0.7312
  627MPD2    H5 9346   3.718   3.828  14.455  0.8739  0.7451 -1.2249
  627MPD2    N1 9347   3.988   4.171  14.452  0.3507 -0.7703  0.2494
  627MPD2    H7 9348   3.983   4.127  14.544 -4.4416  1.3345  0.9665
  628TMC3    C1 9349   4.127   4.315  14.571  0.2349 -0.5391 -0.0650
  628TMC3    C2 9350   4.211   4.221  14.630  0.2722  0.1520 -0.1713
  628TMC3    C3 9351   4.325   4.268  14.691 -0.1201  0.5840  0.1616
  628TMC3    C4 9352   4.167   4.444  14.558  0.7443  0.6628 -0.0648
  628TMC3    C5 9353   4.281   4.478  14.614  0.8118 -0.3884  0.5971
  628TMC3    C6 9354   4.357   4.399  14.685  0.3455  0.5336 -0.1451
  628TMC3     C 9355   4.078   4.273  14.444  0.2343  0.3435 -0.0701
  628TMC3     O 9356   4.102   4.347  14.349  0.2570  0.2668  0.1941
  628TMC3     H 9357   4.185   4.117  14.644 -1.6328  0.6328 -0.1498
  628TMC3    H1 9358   4.092   4.510  14.516  0.1117  0.8808  1.4129
  628TMC3    H2 9359   4.462   4.422  14.703  0.6151 -1.4990  0.9160
  628TMC3    C7 9360   4.328   4.612  14.603 -0.2355  0.4920 -0.5761
  628TMC3    C8 9361   4.429   4.172  14.714 -0.0019 -0.5167 -0.1140
  628TMC3    O1 9362   4.430   4.637  14.656  0.0231 -0.6409 -0.1680
  628TMC3    O2 9363   4.402   4.055  14.689  0.2807  0.0380 -0.2824
  629MPD2     C 9364   2.678   3.123  16.255 -0.2498  0.7248 -0.1516
  629MPD2    C1 9365   2.714   3.034  16.357 -0.6440  0.8383  0.0215
  629MPD2    C2 9366   2.633   2.919  16.381  0.1142 -0.4638 -0.5400
  629MPD2    C3 9367   2.520   2.898  16.301 -0.3220  0.4474 -0.1951
  629MPD2    C4 9368   2.490   2.981  16.190  0.1262  0.5064 -0.7567
  629MPD2    C5 9369   2.568   3.096  16.172  0.0255  0.3500 -0.2024
  629MPD2     H 9370   2.653   2.848  16.460  0.2327  0.9328  0.6889
  629MPD2    H1 9371   2.402   2.960  16.130 -0.7479 -2.0619  1.4471
  629MPD2    H2 9372   2.722   3.221  16.238  1.2735 -0.1879 -1.4589
  629MPD2    H3 9373   2.541   3.175  16.102 -0.5030  0.5756  0.2603
  629MPD2     N 9374   2.452   2.778  16.332 -0.0370  0.3432 -0.3207
  629MPD2    H5 9375   2.508   2.708  16.379  0.7499 -0.2392 -2.1400
  629MPD2    N1 9376   2.825   3.066  16.436 -0.5045  0.7975 -0.1539
  629MPD2    H7 9377   2.867   3.158  16.429  1.3149  0.2444  3.6347
  630TMC3    C1 9378   3.011   3.044  16.574  0.1651 -0.1257  0.1365
  630TMC3    C2 9379   3.087   3.125  16.494 -0.3482 -0.3396  0.3228
  630TMC3    C3 9380   3.179   3.202  16.556  0.3587 -0.5718  0.3379
  630TMC3    C4 9381   3.027   3.040  16.705 -0.3201  0.1921 -0.0757
  630TMC3    C5 9382   3.116   3.131  16.762 -0.1083 -0.7093 -0.2719
  630TMC3    C6 9383   3.205   3.205  16.688 -0.0082 -0.3954 -0.1876
  630TMC3     C 9384   2.890   2.983  16.521  0.4402  0.0980 -0.2313
  630TMC3     O 9385   2.870   2.865  16.544  0.4339  0.3130 -0.3347
  630TMC3     H 9386   3.074   3.111  16.387 -2.8213 -0.1018  0.6015
  630TMC3    H1 9387   2.946   2.994  16.760 -0.2826 -2.1834 -1.9872
  630TMC3    H2 9388   3.280   3.276  16.722  0.9529 -0.5479 -1.9786
  630TMC3    C7 9389   3.145   3.112  16.904 -0.5164 -0.1903 -0.1403
  630TMC3    C8 9390   3.248   3.294  16.461  0.9255  0.4892 -0.7330
  630TMC3    O1 9391   3.081   3.022  16.954  0.9254 -0.2648 -0.3229
  630TMC3    O2 9392   3.344   3.359  16.501  0.0193 -0.2914  0.2878
  631MPD2     C 9393   0.678   3.168  15.423  0.2955 -0.6966  0.1606
  631MPD2    C1 9394   0.788   3.249  15.416 -0.3306 -0.7229 -0.2097
  631MPD2    C2 9395   0.903   3.207  15.474  0.3256 -0.6683  0.0872
  631MPD2    C3 9396   0.921   3.086  15.543 -0.3743  0.1377  0.3345
  631MPD2    C4 9397   0.806   3.012  15.554  0.3903 -0.2326 -0.3367
  631MPD2    C5 9398   0.688   3.052  15.503 -0.5342  0.3935 -0.2352
  631MPD2     H 9399   0.994   3.264  15.465  0.9150 -1.4636  0.9538
  631MPD2    H1 9400   0.808   2.917  15.608 -1.3019 -1.6881 -2.8649
  631MPD2    H2 9401   0.579   3.190  15.384  0.6742  3.1895  1.4657
  631MPD2    H3 9402   0.609   2.978  15.501 -0.5289  0.3529  1.1778
  631MPD2     N 9403   1.049   3.043  15.573 -0.2942  0.0973 -0.9366
  631MPD2    H5 9404   1.125   3.085  15.521  1.3156  0.6855  1.8621
  631MPD2    N1 9405   0.777   3.374  15.347 -0.8817 -0.1134  0.3536
  631MPD2    H7 9406   0.688   3.379  15.298  0.0506 -0.7702 -1.4010
  632TMC3    C1 9407   0.858   3.557  15.228 -0.1888  0.2809  0.1554
  632TMC3    C2 9408   0.735   3.581  15.175 -0.5316  0.6274 -0.4705
  632TMC3    C3 9409   0.718   3.583  15.036  0.5041  0.1495 -0.5515
  632TMC3    C4 9410   0.966   3.531  15.149 -0.0259  0.1852 -0.0584
  632TMC3    C5 9411   0.946   3.526  15.014  0.3325 -0.9066 -0.6491
  632TMC3    C6 9412   0.828   3.566  14.956  0.9482  0.1311  0.0019
  632TMC3     C 9413   0.869   3.473  15.342  0.2668 -0.3921  0.5278
  632TMC3     O 9414   0.963   3.489  15.414  0.5585  0.2838  0.3977
  632TMC3     H 9415   0.654   3.602  15.243 -1.5507  1.8275 -2.0545
  632TMC3    H1 9416   1.048   3.477  15.196 -0.3476 -0.0783  0.2019
  632TMC3    H2 9417   0.829   3.584  14.849 -0.1052 -2.0060 -0.3696
  632TMC3    C7 9418   1.063   3.481  14.936 -0.3486 -0.0513  0.3483
  632TMC3    C8 9419   0.586   3.615  14.969 -0.0329 -0.1255  1.0213
  632TMC3    O1 9420   1.170   3.483  15.000  0.2306  0.4724 -0.3834
  632TMC3    O2 9421   0.586   3.667  14.859 -0.4106  0.7870  0.3806
  633MPD2     C 9422   0.554   0.890  17.185 -0.6723  0.6351 -0.4023
  633MPD2    C1 9423   0.577   0.866  17.053  0.4977  0.8955 -0.4450
  633MPD2    C2 9424   0.530   0.747  17.002 -0.1955 -0.1767  0.6878
  633MPD2    C3 9425   0.483   0.643  17.085  0.3034  0.1051 -0.0771
  633MPD2    C4 9426   0.480   0.671  17.221 -0.6298  0.1868 -0.3281
  633MPD2    C5 9427   0.503   0.792  17.265  0.5312  0.0053 -0.6374
  633MPD2     H 9428   0.545   0.728  16.897 -0.4073 -0.1067  0.6456
  633MPD2    H1 9429   0.426   0.612  17.294  0.2755 -0.9748 -0.5909
  633MPD2    H2 9430   0.581   0.978  17.242  1.0342 -1.0622  1.4011
  633MPD2    H3 9431   0.472   0.818  17.365 -0.9931 -0.7412 -0.9124
  633MPD2     N 9432   0.455   0.511  17.040  0.0011 -1.1166 -0.2959
  633MPD2    H5 9433   0.446   0.444  17.116 -1.4174  1.3476  1.7215
  633MPD2    N1 9434   0.663   0.948  16.967  0.1728  0.0259  0.4199
  633MPD2    H7 9435   0.686   0.910  16.876  0.8827  0.4028  0.4400
  634TMC3    C1 9436   0.757   1.139  16.888  0.1076 -0.2477 -1.3723
  634TMC3    C2 9437   0.797   1.060  16.779  0.1835 -0.5068 -0.1913
  634TMC3    C3 9438   0.813   1.132  16.668  0.4107  0.5170 -0.2966
  634TMC3    C4 9439   0.754   1.279  16.883  0.6657 -0.0144  0.4998
  634TMC3    C5 9440   0.786   1.345  16.772 -0.2883 -0.4803 -0.2085
  634TMC3    C6 9441   0.821   1.270  16.659 -0.6315  0.3104 -0.5712
  634TMC3     C 9442   0.699   1.073  16.999  0.0735 -0.1071 -0.4903
  634TMC3     O 9443   0.652   1.149  17.083  0.2247  0.0144 -0.4739
  634TMC3     H 9444   0.818   0.956  16.800  2.3941  0.1106  0.7029
  634TMC3    H1 9445   0.719   1.328  16.974 -0.4734 -0.3564  0.2530
  634TMC3    H2 9446   0.844   1.312  16.563 -1.2787  1.0537 -0.3969
  634TMC3    C7 9447   0.736   1.480  16.749  0.1733 -0.4901 -0.3521
  634TMC3    C8 9448   0.819   1.054  16.548  0.1658 -0.5418  0.3276
  634TMC3    O1 9449   0.788   1.529  16.649 -0.1380 -0.3036 -0.4780
  634TMC3    O2 9450   0.856   0.938  16.566 -0.5841 -0.3639  0.0287
  635TMC3    C1 9451   1.132   2.036   1.386  0.6647 -0.1754 -0.0795
  635TMC3    C2 9452   1.149   1.915   1.334  0.6884  0.0565  0.2064
  635TMC3    C3 9453   1.145   1.805   1.411  0.7775 -0.7504 -0.5291
  635TMC3    C4 9454   1.087   2.054   1.515  0.1082 -0.4303 -0.3074
  635TMC3    C5 9455   1.077   1.949   1.596 -0.4568 -0.5528  0.1375
  635TMC3    C6 9456   1.112   1.820   1.546 -0.6856 -0.3423  0.6707
  635TMC3     C 9457   1.180   2.158   1.304  0.3555  0.7736 -0.3015
  635TMC3     O 9458   1.150   2.269   1.348 -0.1733  0.4000  0.3806
  635TMC3     H 9459   1.163   1.898   1.228 -1.6942  1.5039 -0.3392
  635TMC3    H1 9460   1.084   2.157   1.546 -0.2961 -0.4854 -0.1683
  635TMC3    H2 9461   1.096   1.733   1.609 -0.7341 -0.3257  0.6806
  635TMC3    C7 9462   1.010   1.957   1.722  0.6254  0.1901 -0.0464
  635TMC3    C8 9463   1.126   1.672   1.347  0.1254 -0.3825 -0.0819
  635TMC3    O1 9464   1.012   1.853   1.789  0.3221  0.4208  0.7050
  635TMC3    O2 9465   1.119   1.672   1.226  0.1042  0.0218 -0.4887
  636MPD2     C 9466   1.988   1.064  15.636 -1.2474 -0.4467 -0.1924
  636MPD2    C1 9467   1.969   1.104  15.768  0.1418 -0.1654 -0.1204
  636MPD2    C2 9468   1.973   1.002  15.860 -0.0015  0.8839 -0.4855
  636MPD2    C3 9469   1.991   0.867  15.829  0.3916 -0.3531 -0.3854
  636MPD2    C4 9470   1.999   0.833  15.697  0.0135 -0.0723  0.6282
  636MPD2    C5 9471   2.003   0.933  15.604  0.1978 -0.2798  0.4384
  636MPD2     H 9472   1.937   1.027  15.959  1.4570 -3.6628  1.2222
  636MPD2    H1 9473   2.007   0.731  15.662  1.2392  0.2635 -0.0426
  636MPD2    H2 9474   1.987   1.132  15.551 -3.2826 -0.6881 -0.3647
  636MPD2    H3 9475   2.019   0.912  15.499  0.5046  3.0882 -0.1848
  636MPD2     N 9476   1.993   0.773  15.936  0.3989  0.0361 -0.3343
  636MPD2    H5 9477   2.000   0.814  16.029  0.3758  0.7290 -0.6408
  636MPD2    N1 9478   1.945   1.241  15.811  0.2980  0.3211 -0.2302
  636MPD2    H7 9479   1.941   1.252  15.911  0.9266 -0.9829 -0.0676
  637TMC3    C1 9480   2.027   0.584  16.060  0.4503 -0.3948  0.2698
  637TMC3    C2 9481   2.013   0.674  16.164 -0.6596  0.3952 -0.5800
  637TMC3    C3 9482   2.089   0.648  16.275  0.6932 -0.0588  1.0445
  637TMC3    C4 9483   2.105   0.472  16.064  0.0182  0.9179 -0.0093
  637TMC3    C5 9484   2.196   0.458  16.170  0.0306 -0.3654 -0.5093
  637TMC3    C6 9485   2.172   0.533  16.280  0.4921  0.4439  0.3873
  637TMC3     C 9486   2.022   0.637  15.930  0.3430 -0.1904 -0.1245
  637TMC3     O 9487   2.031   0.569  15.827 -0.5942  0.3809  0.0738
  637TMC3     H 9488   1.953   0.764  16.165 -0.7292  0.3542 -1.3218
  637TMC3    H1 9489   2.109   0.406  15.978 -1.8358 -0.2197  0.7842
  637TMC3    H2 9490   2.242   0.523  16.363 -0.1105 -2.2574  0.5625
  637TMC3    C7 9491   2.337   0.469  16.132 -0.1565  0.3017  0.0390
  637TMC3    C8 9492   2.150   0.762  16.335  0.9332 -0.3024  0.0328
  637TMC3    O1 9493   2.411   0.536  16.204 -0.1101  0.4829 -0.1323
  637TMC3    O2 9494   2.152   0.863  16.265  0.3926  0.2342  0.0795
  638MPD2     C 9495   1.632   0.007  14.874 -0.0711 -0.3510  0.2511
  638MPD2    C1 9496   1.632   4.619  14.815  0.0685  0.2859 -0.1394
  638MPD2    C2 9497   1.583   4.508  14.883 -0.4345  0.0991  1.3067
  638MPD2    C3 9498   1.517   4.528  15.005 -0.0442  0.6106 -0.2996
  638MPD2    C4 9499   1.505   4.650  15.055  0.4588  0.3750  0.6085
  638MPD2    C5 9500   1.568   0.017  14.993  0.4840  0.1970  1.4435
  638MPD2     H 9501   1.586   4.405  14.849 -0.1502  0.5680 -0.1210
  638MPD2    H1 9502   1.469   4.665  15.156 -0.3065 -0.4928  0.4603
  638MPD2    H2 9503   1.682   0.093  14.832 -0.6208 -0.2830 -0.2699
  638MPD2    H3 9504   1.568   0.112  15.046 -0.0467  1.3075 -0.5637
  638MPD2     N 9505   1.465   4.415  15.059 -0.1434  0.3509  0.3056
  638MPD2    H5 9506   1.483   4.328  15.011 -0.8170  0.3755  0.0075
  638MPD2    N1 9507   1.684   4.616  14.686 -0.3111 -0.2136  0.3104
  638MPD2    H7 9508   1.722   4.704  14.653  0.7576 -0.6385  0.4052
  639TMC3    C1 9509   1.396   4.261  15.213 -0.2472 -0.1195  0.7565
  639TMC3    C2 9510   1.317   4.179  15.136  0.2124 -0.1873 -0.1184
  639TMC3    C3 9511   1.361   4.060  15.105  0.0072  0.2989  1.2293
  639TMC3    C4 9512   1.505   4.214  15.270 -0.6776 -0.3204 -0.0097
  639TMC3    C5 9513   1.552   4.092  15.222 -0.3946  0.3083  0.3262
  639TMC3    C6 9514   1.488   4.023  15.127  0.7424 -0.2483 -0.6288
  639TMC3     C 9515   1.405   4.398  15.181 -0.4934 -0.1240 -0.7723
  639TMC3     O 9516   1.373   4.472  15.273 -0.3627 -0.2379  0.4770
  639TMC3     H 9517   1.239   4.221  15.074 -2.3027 -3.9826  0.5061
  639TMC3    H1 9518   1.570   4.275  15.332 -0.2279 -1.1471  0.3427
  639TMC3    H2 9519   1.519   3.923  15.098 -0.3878 -1.2187  1.5125
  639TMC3    C7 9520   1.682   4.049  15.279  0.2090  0.4368 -0.2105
  639TMC3    C8 9521   1.299   3.994  14.985 -0.7314  0.0432  0.1575
  639TMC3    O1 9522   1.713   4.076  15.391  0.3615  0.8192 -0.2442
  639TMC3    O2 9523   1.375   3.929  14.909  0.1233 -0.3415 -0.1308
  640MPD2     C 9524   1.962   4.501   9.180  0.3096 -0.2576 -0.1640
  640MPD2    C1 9525   1.996   4.436   9.293 -0.4479  0.5119  0.1673
  640MPD2    C2 9526   1.907   4.420   9.392  0.1707  0.0485  0.1760
  640MPD2    C3 9527   1.779   4.454   9.366  0.0364  0.0149  0.2314
  640MPD2    C4 9528   1.744   4.516   9.249  0.3787  0.0120  0.7607
  640MPD2    C5 9529   1.835   4.542   9.154 -0.0296  0.4868 -0.0455
  640MPD2     H 9530   1.931   4.372   9.486  1.4028  1.5080  0.6138
  640MPD2    H1 9531   1.641   4.538   9.225 -0.0830 -1.1710  1.6578
  640MPD2    H2 9532   2.039   4.525   9.107  1.2796  1.7996  1.5489
  640MPD2    H3 9533   1.825   4.591   9.057  0.2114  0.2109 -0.2112
  640MPD2     N 9534   1.675   4.420   9.451 -0.3087 -0.0122  0.5641
  640MPD2    H5 9535   1.584   4.425   9.406 -1.5331  0.1762  3.0288
  640MPD2    N1 9536   2.135   4.410   9.307  0.1508 -0.1136 -0.7046
  640MPD2    H7 9537   2.201   4.452   9.243  0.1607 -1.1607 -1.3905
  641TMC3    C1 9538   2.338   4.349   9.418 -0.1359  0.6784  0.1086
  641TMC3    C2 9539   2.412   4.243   9.468  0.5193 -0.1692  0.2457
  641TMC3    C3 9540   2.545   4.250   9.474 -0.2521 -0.0127  0.6027
  641TMC3    C4 9541   2.403   4.466   9.378 -0.5863  0.3217  0.6925
  641TMC3    C5 9542   2.540   4.470   9.376 -0.4220  0.5079  0.2615
  641TMC3    C6 9543   2.615   4.362   9.427 -0.2902  0.2137  0.5142
  641TMC3     C 9544   2.194   4.326   9.406  0.1200 -0.2839 -0.1876
  641TMC3     O 9545   2.145   4.258   9.498  0.4659 -0.0784 -0.1707
  641TMC3     H 9546   2.362   4.149   9.485 -0.4612  0.6881  2.0201
  641TMC3    H1 9547   2.341   4.546   9.340  0.8243  0.5513 -1.1301
  641TMC3    H2 9548   2.722   4.356   9.418 -0.5384 -0.4706 -2.0281
  641TMC3    C7 9549   2.613   4.574   9.311  0.4090 -0.6482 -0.8417
  641TMC3    C8 9550   2.618   4.123   9.491 -0.1483  0.1001 -0.3698
  641TMC3    O1 9551   2.724   4.549   9.259 -0.0595 -0.2536 -0.0912
  641TMC3    O2 9552   2.555   4.021   9.472 -0.1168 -0.5502  0.0690
  642TMC3    C1 9553   3.251   4.454  12.194  0.5115 -0.2338  0.6128
  642TMC3    C2 9554   3.379   4.468  12.229  0.1543  0.1615  0.3775
  642TMC3    C3 9555   3.453   4.352  12.248  0.1859 -0.8176  0.3046
  642TMC3    C4 9556   3.186   4.334  12.185 -0.1833  0.2425  0.4393
  642TMC3    C5 9557   3.265   4.221  12.193 -1.0580  0.4995 -0.0929
  642TMC3    C6 9558   3.398   4.226  12.229 -0.4283  0.9560  0.6444
  642TMC3     C 9559   3.159   4.572  12.181 -0.7193 -0.7951  0.5406
  642TMC3     O 9560   3.210   4.676  12.141 -0.2447 -0.0728  0.0274
  642TMC3     H 9561   3.430   4.562  12.212  0.6500 -0.0065  0.9164
  642TMC3    H1 9562   3.078   4.333  12.173 -0.1901  0.3754  0.4915
  642TMC3    H2 9563   3.459   4.136  12.221 -1.3964  0.4378 -0.9191
  642TMC3    C7 9564   3.194   4.094  12.161 -0.5489  0.1404  0.0106
  642TMC3    C8 9565   3.585   4.365  12.297 -0.0635  0.6115 -1.4181
  642TMC3    O1 9566   3.117   4.104  12.067  0.5785  0.1659 -0.1840
  642TMC3    O2 9567   3.630   4.483  12.297  0.4873  0.2782 -0.1654
  643TMC3    C1 9568   2.246   3.416  17.371  0.0385 -0.7772 -0.3924
  643TMC3    C2 9569   2.129   3.401  17.295  0.1823 -0.0500  0.3919
  643TMC3    C3 9570   2.140   3.372  17.158 -0.4437 -0.2576  0.5109
  643TMC3    C4 9571   2.362   3.410  17.302 -0.7272 -0.1136  0.2299
  643TMC3    C5 9572   2.370   3.382  17.169 -0.4035  0.5735 -0.0401
  643TMC3    C6 9573   2.257   3.358  17.094  0.7427  0.0062  0.1566
  643TMC3     C 9574   2.242   3.529  17.460  0.3160  0.4887  0.1587
  643TMC3     O 9575   2.168   3.621  17.431 -0.2168  0.0569  0.4665
  643TMC3     H 9576   2.036   3.426  17.344  0.4702  0.8115  0.4983
  643TMC3    H1 9577   2.449   3.438  17.359 -1.1512  1.0497  0.3109
  643TMC3    H2 9578   2.262   3.338  16.988  0.8276 -0.7794  0.3066
  643TMC3    C7 9579   2.473   3.469  17.105  0.3849  0.0593 -0.6199
  643TMC3    C8 9580   2.042   3.446  17.084 -0.0785  0.2841  0.2436
  643TMC3    O1 9581   2.524   3.563  17.166  0.2147 -0.2752 -0.2746
  643TMC3    O2 9582   1.987   3.387  16.994 -0.3123 -0.0102  0.1309
  644MPD2     C 9583   2.657   4.442   9.777 -0.5200  0.5166 -0.3029
  644MPD2    C1 9584   2.550   4.367   9.816 -0.5518  0.4009 -0.3131
  644MPD2    C2 9585   2.418   4.400   9.781 -0.3915  0.0436  0.4737
  644MPD2    C3 9586   2.396   4.524   9.706  0.1455 -0.4631 -0.0910
  644MPD2    C4 9587   2.509   4.608   9.683  0.5469  0.6297 -0.4934
  644MPD2    C5 9588   2.639   4.563   9.718  0.4747 -0.2641 -0.0250
  644MPD2     H 9589   2.331   4.341   9.806  0.5229 -2.0579 -1.3413
  644MPD2    H1 9590   2.500   4.711   9.650 -1.2461  0.7785  0.4066
  644MPD2    H2 9591   2.759   4.411   9.797 -1.6269 -1.6247  2.0376
  644MPD2    H3 9592   2.727   4.621   9.692  0.2584  0.1281  0.1136
  644MPD2     N 9593   2.266   4.564   9.668 -0.5962 -0.2594  0.0369
  644MPD2    H5 9594   2.183   4.508   9.691 -0.6705 -0.0266  0.3360
  644MPD2    N1 9595   2.582   4.242   9.890 -0.1849  0.5107  0.3311
  644MPD2    H7 9596   2.675   4.229   9.929  0.1060 -0.8842 -0.8270
  645TMC3    C1 9597   2.109   4.678   9.539 -0.1538  0.2842  0.0621
  645TMC3    C2 9598   2.029   4.693   9.651 -0.3070  0.6490 -0.5554
  645TMC3    C3 9599   1.917   0.037   9.639  0.0308  0.3106 -0.1562
  645TMC3    C4 9600   2.069   4.734   9.419 -0.2065  0.0263 -0.6793
  645TMC3    C5 9601   1.953   0.063   9.411 -0.1643  0.4493 -0.6384
  645TMC3    C6 9602   1.875   0.088   9.523  0.1259 -0.1826  0.1653
  645TMC3     C 9603   2.246   4.663   9.573  0.8432 -0.6851 -0.0313
  645TMC3     O 9604   2.321   4.723   9.495 -0.1351 -0.1783  0.0841
  645TMC3     H 9605   2.070   4.667   9.748  0.1041 -0.3804 -1.0065
  645TMC3    H1 9606   2.124   4.709   9.329 -0.0571 -1.4152 -0.1779
  645TMC3    H2 9607   1.789   0.154   9.517  1.2675  1.0472 -2.6945
  645TMC3    C7 9608   1.933   0.138   9.291 -0.5130 -0.4153  0.0171
  645TMC3    C8 9609   1.841   0.076   9.754 -0.4711 -0.2002  0.5337
  645TMC3    O1 9610   2.032   0.147   9.215  0.5153  0.0340 -0.7686
  645TMC3    O2 9611   1.726   0.118   9.734  0.6461  0.2930 -0.2252
  646MPD2     C 9612   1.840   3.356  14.579  0.3254  0.5157  0.1134
  646MPD2    C1 9613   1.737   3.348  14.668  0.1444  0.7104 -0.4756
  646MPD2    C2 9614   1.616   3.401  14.628  0.3999 -0.3092 -0.6027
  646MPD2    C3 9615   1.601   3.448  14.501 -0.6988  0.3176 -0.1260
  646MPD2    C4 9616   1.705   3.453  14.420 -0.2278 -0.4723 -0.3352
  646MPD2    C5 9617   1.826   3.401  14.453  1.2428 -0.0851 -0.1306
  646MPD2     H 9618   1.527   3.389  14.688  1.6531  0.1020  1.3183
  646MPD2    H1 9619   1.703   3.492  14.319 -3.3831  1.3236  0.4321
  646MPD2    H2 9620   1.939   3.319  14.603  1.2877  3.2414  0.4156
  646MPD2    H3 9621   1.905   3.397  14.379 -0.0711 -0.8838 -1.5024
  646MPD2     N 9622   1.470   3.478  14.461  0.6953  0.3266 -0.5203
  646MPD2    H5 9623   1.397   3.468  14.530  1.4471 -0.9222  0.0929
  646MPD2    N1 9624   1.759   3.275  14.794  0.3911  0.1446 -0.1253
  646MPD2    H7 9625   1.849   3.232  14.806  0.7530  0.7385 -0.6546
  647TMC3    C1 9626   1.706   3.188  15.006 -0.1355 -0.1200  0.0118
  647TMC3    C2 9627   1.614   3.125  15.075 -0.7029  0.4639  0.0788
  647TMC3    C3 9628   1.637   3.078  15.201  0.1921  0.0098 -0.0108
  647TMC3    C4 9629   1.824   3.219  15.059 -0.0753 -0.6239  0.3738
  647TMC3    C5 9630   1.848   3.174  15.185  0.2226 -0.4873 -0.0935
  647TMC3    C6 9631   1.755   3.119  15.263  0.4631 -1.4039  0.1697
  647TMC3     C 9632   1.664   3.255  14.885 -0.3935  0.0228 -0.5778
  647TMC3     O 9633   1.551   3.305  14.901 -0.1134 -0.0877  0.2858
  647TMC3     H 9634   1.516   3.105  15.033 -1.4034  0.0905  1.9040
  647TMC3    H1 9635   1.905   3.258  14.999 -0.8157  0.2696 -0.0524
  647TMC3    H2 9636   1.776   3.078  15.360 -1.0990 -1.1282  0.6247
  647TMC3    C7 9637   1.981   3.157  15.226 -0.2863  0.2562 -0.8761
  647TMC3    C8 9638   1.568   2.962  15.246 -0.3895 -0.6064 -0.0157
  647TMC3    O1 9639   2.000   3.050  15.290  0.5925  0.5000 -0.0936
  647TMC3    O2 9640   1.458   2.940  15.192  0.2653 -0.0418  0.2159
  648TMC3    C1 9641   1.153   1.140  16.211 -0.3628  0.3179 -1.0685
  648TMC3    C2 9642   1.230   1.040  16.166 -0.2813  0.0070 -0.5667
  648TMC3    C3 9643   1.252   1.023  16.033 -0.6450 -0.0612 -0.4188
  648TMC3    C4 9644   1.095   1.226  16.120 -0.1869 -0.5115  0.4093
  648TMC3    C5 9645   1.123   1.206  15.982  0.1817 -0.1821  0.0680
  648TMC3    C6 9646   1.199   1.098  15.932  0.9418 -0.2127  0.1127
  648TMC3     C 9647   1.117   1.167  16.349  0.7393  0.5554 -0.0059
  648TMC3     O 9648   1.067   1.279  16.377  0.0143 -0.0170  0.0788
  648TMC3     H 9649   1.276   0.973  16.238 -1.0013  1.8114  1.5689
  648TMC3    H1 9650   1.050   1.318  16.158  0.4974  0.0839 -0.2281
  648TMC3    H2 9651   1.219   1.096  15.826 -1.1871  0.8399 -0.3159
  648TMC3    C7 9652   1.064   1.299  15.889 -0.6830 -0.0471 -0.3442
  648TMC3    C8 9653   1.377   0.953  16.008  0.2485 -0.3546  0.4647
  648TMC3    O1 9654   1.094   1.275  15.773  0.2066 -0.7767  0.0794
  648TMC3    O2 9655   1.463   0.950  16.095 -0.3634  0.4751  0.0348
  649TMC3    C1 9656   0.203   1.746  11.775 -0.7249 -0.0544  1.1080
  649TMC3    C2 9657   0.333   1.788  11.735  0.0064  0.1703  0.2373
  649TMC3    C3 9658   0.435   1.730  11.812  0.5582 -0.3430  0.0274
  649TMC3    C4 9659   0.175   1.667  11.878  0.0879 -0.7377 -0.5488
  649TMC3    C5 9660   0.280   1.624  11.954 -0.3654  0.0956  0.5180
  649TMC3    C6 9661   0.414   1.651  11.920  0.3076 -0.8568 -0.3026
  649TMC3     C 9662   0.090   1.798  11.701  0.1035 -0.5545  0.2246
  649TMC3     O 9663   4.717   1.784  11.753  0.8687 -0.2049 -0.1313
  649TMC3     H 9664   0.360   1.868  11.668 -0.2475 -0.3426 -0.4710
  649TMC3    H1 9665   0.073   1.636  11.897  0.4510 -0.6573  1.6173
  649TMC3    H2 9666   0.501   1.612  11.972  2.5387  0.9480 -2.7092
  649TMC3    C7 9667   0.250   1.570  12.082 -0.3051  0.0381 -0.2298
  649TMC3    C8 9668   0.569   1.749  11.776 -0.8281 -0.8038 -0.9068
  649TMC3    O1 9669   0.140   1.595  12.134 -1.0135 -0.8643  0.4981
  649TMC3    O2 9670   0.653   1.739  11.866  0.1129 -0.2893 -0.2859
  650TMC3    C1 9671   2.967   3.421  12.796  0.5227  0.0973 -0.0231
  650TMC3    C2 9672   2.891   3.529  12.832  0.1554 -0.6942 -0.5959
  650TMC3    C3 9673   2.888   3.632  12.747  0.0260  0.5059  0.1763
  650TMC3    C4 9674   3.034   3.413  12.676  0.1134  0.0975 -0.1960
  650TMC3    C5 9675   3.028   3.521  12.598 -0.7107  0.1549  0.2113
  650TMC3    C6 9676   2.970   3.636  12.639 -0.4233  0.2659 -0.1089
  650TMC3     C 9677   2.954   3.292  12.876 -0.2340  0.1076  0.3163
  650TMC3     O 9678   2.892   3.301  12.980  0.0704  0.1399  0.0193
  650TMC3     H 9679   2.829   3.519  12.920  0.0429 -1.8223 -0.7982
  650TMC3    H1 9680   3.073   3.324  12.628 -1.2946 -0.4427 -0.3691
  650TMC3    H2 9681   2.993   3.730  12.592 -3.1615  1.3623  0.8074
  650TMC3    C7 9682   2.985   3.486  12.468  0.0272 -0.0464  0.0724
  650TMC3    C8 9683   2.800   3.753  12.759 -0.2963  1.5134 -0.0584
  650TMC3    O1 9684   3.036   3.388  12.419 -0.6402 -0.1959 -0.2043
  650TMC3    O2 9685   2.827   3.844  12.683  0.1920  0.5950 -0.0599
  651MPD2     C 9686   1.419   1.072  10.897 -0.5913 -0.5734  0.6080
  651MPD2    C1 9687   1.415   1.066  10.761  0.3456  0.6092 -0.2938
  651MPD2    C2 9688   1.538   1.079  10.693 -0.2626  1.3840  0.2967
  651MPD2    C3 9689   1.656   1.085  10.767  0.1278 -0.7912  0.0046
  651MPD2    C4 9690   1.655   1.095  10.903 -0.5074 -0.1561  0.7069
  651MPD2    C5 9691   1.541   1.080  10.962 -0.2569  0.8642 -0.6952
  651MPD2     H 9692   1.540   1.076  10.584  0.1583 -0.7407  0.3777
  651MPD2    H1 9693   1.749   1.112  10.953 -0.1811 -0.7040  0.2764
  651MPD2    H2 9694   1.334   1.080  10.964 -0.0877 -0.9315  1.2886
  651MPD2    H3 9695   1.535   1.078  11.070 -2.1929 -0.3841 -0.8337
  651MPD2     N 9696   1.775   1.084  10.692  0.0035 -0.5640  0.0173
  651MPD2    H5 9697   1.756   1.078  10.592  1.4803  0.9573 -0.3677
  651MPD2    N1 9698   1.300   1.045  10.686 -0.9748 -0.5713 -0.2900
  651MPD2    H7 9699   1.311   1.030  10.587 -1.0251 -3.0141  0.0850
  652TMC3    C1 9700   2.211   1.117  10.539 -0.3294  0.4327  0.6514
  652TMC3    C2 9701   2.128   1.082  10.644 -0.3969 -0.3543  0.4322
  652TMC3    C3 9702   1.998   1.135  10.644 -0.7508  0.5228  0.6712
  652TMC3    C4 9703   2.172   1.216  10.447 -0.4045  0.2802 -0.2869
  652TMC3    C5 9704   2.045   1.271  10.456 -0.2553 -1.1518  0.4330
  652TMC3    C6 9705   1.953   1.238  10.552 -0.6527 -0.2937  0.2399
  652TMC3     C 9706   2.346   1.069  10.521  0.0039 -0.4289  1.1715
  652TMC3     O 9707   2.384   1.069  10.408  0.4898 -0.2257 -0.0677
  652TMC3     H 9708   2.163   1.015  10.722 -0.5865 -0.0090  0.8162
  652TMC3    H1 9709   2.250   1.248  10.379  2.6322 -0.3231  2.9408
  652TMC3    H2 9710   1.857   1.285  10.572 -0.7992  0.2821 -1.8370
  652TMC3    C7 9711   2.021   1.383  10.368  0.2474  0.7019  0.2294
  652TMC3    C8 9712   1.903   1.092  10.742 -0.2433  0.7644 -0.1375
  652TMC3    O1 9713   2.052   1.354  10.253  0.5267  0.0824  0.3271
  652TMC3    O2 9714   1.947   1.081  10.858 -0.4930 -0.5446 -0.2293
  653MPD2     C 9715   0.131   0.918  17.551  0.4822 -0.1806  0.6192
  653MPD2    C1 9716   0.132   1.025  17.458 -0.7215  0.3291 -0.3770
  653MPD2    C2 9717   0.130   0.990  17.325 -0.2368  0.6530 -0.2775
  653MPD2    C3 9718   0.105   0.860  17.283  0.3131 -0.7728  0.0407
  653MPD2    C4 9719   0.117   0.763  17.377 -0.2317  0.0862 -0.2688
  653MPD2    C5 9720   0.136   0.789  17.509 -0.5304  0.1159 -0.5837
  653MPD2     H 9721   0.121   1.069  17.251  0.9985 -1.1912 -2.4074
  653MPD2    H1 9722   0.132   0.658  17.355  0.6315  0.2140 -0.2993
  653MPD2    H2 9723   0.132   0.943  17.657 -0.5598  1.7368  0.1883
  653MPD2    H3 9724   0.139   0.704  17.576 -0.7445  0.4178 -0.1913
  653MPD2     N 9725   0.075   0.832  17.146  0.2835 -0.2365  0.1467
  653MPD2    H5 9726   0.057   0.908  17.081 -0.3122 -0.8640 -0.4174
  653MPD2    N1 9727   0.125   1.158  17.507 -0.4492  0.1880 -0.0823
  653MPD2    H7 9728   0.134   1.230  17.436  1.7037  0.6008  0.6242
  654TMC3    C1 9729   0.002   0.704  16.963 -0.3989  0.6737 -0.4388
  654TMC3    C2 9730   4.635   0.792  16.941 -0.5450 -0.4152 -0.1244
  654TMC3    C3 9731   4.554   0.773  16.833 -0.3700  0.2116 -0.3041
  654TMC3    C4 9732   0.029   0.601  16.875  0.5314 -0.3042 -0.1353
  654TMC3    C5 9733   4.706   0.608  16.754  0.2581 -0.8504  0.2130
  654TMC3    C6 9734   4.593   0.687  16.732  0.5146 -0.1145 -0.5689
  654TMC3     C 9735   0.061   0.705  17.098 -0.2661  0.3303 -0.3157
  654TMC3     O 9736   0.085   0.591  17.136 -1.0932 -0.0781 -0.5805
  654TMC3     H 9737   4.602   0.848  17.027 -1.9660  1.1500 -1.6746
  654TMC3    H1 9738   0.129   0.564  16.893  0.2932 -1.1567 -0.5717
  654TMC3    H2 9739   4.540   0.680  16.638 -0.1803 -0.0476 -0.1862
  654TMC3    C7 9740   4.719   0.487  16.672  0.0711  0.7009 -0.0600
  654TMC3    C8 9741   4.418   0.816  16.835 -0.3415 -0.1523  0.4823
  654TMC3    O1 9742   4.669   0.489  16.562 -0.8901 -0.7110 -0.4274
  654TMC3    O2 9743   4.390   0.898  16.923  0.2122  0.1362  0.0579
  655MPD2     C 9744   1.649   0.975  15.745  0.6067 -0.8382 -0.2322
  655MPD2    C1 9745   1.582   1.078  15.685  0.7561  0.3778 -0.6067
  655MPD2    C2 9746   1.534   1.063  15.557  1.4375  0.3582 -0.0246
  655MPD2    C3 9747   1.555   0.947  15.482 -0.0544 -0.6598  0.2227
  655MPD2    C4 9748   1.627   0.846  15.538  0.4682 -0.1613  0.1603
  655MPD2    C5 9749   1.662   0.857  15.670  0.3241 -0.7881 -0.2097
  655MPD2     H 9750   1.476   1.140  15.508  0.9250 -0.3730 -0.5649
  655MPD2    H1 9751   1.630   0.751  15.485  0.2961 -0.0643 -0.0219
  655MPD2    H2 9752   1.682   0.989  15.847  0.7631 -0.7282 -0.2969
  655MPD2    H3 9753   1.712   0.771  15.711 -0.0775 -1.7225 -1.6708
  655MPD2     N 9754   1.502   0.923  15.353  0.7582 -0.2273  0.4976
  655MPD2    H5 9755   1.534   0.845  15.297  1.1073  0.0367  0.3298
  655MPD2    N1 9756   1.537   1.199  15.741 -0.0980  0.8902 -0.2071
  655MPD2    H7 9757   1.471   1.256  15.689 -0.2720 -1.3784 -2.5020
  656TMC3    C1 9758   1.477   1.364  15.890  0.0171  0.5796  0.4427
  656TMC3    C2 9759   1.446   1.400  16.017 -0.1955  0.4679  1.1067
  656TMC3    C3 9760   1.402   1.530  16.031 -0.8052 -0.0433  0.1383
  656TMC3    C4 9761   1.461   1.454  15.786  0.1446  0.3278  0.1141
  656TMC3    C5 9762   1.412   1.582  15.810 -0.1186  0.6484  0.0877
  656TMC3    C6 9763   1.381   1.626  15.931  0.2518 -0.0038 -0.0338
  656TMC3     C 9764   1.549   1.239  15.869  0.0208  0.3239 -0.0141
  656TMC3     O 9765   1.612   1.199  15.964 -0.4395  0.2191  0.3763
  656TMC3     H 9766   1.486   1.337  16.095  0.0311  0.1432  0.7306
  656TMC3    H1 9767   1.484   1.435  15.682  0.4849  1.6572 -0.0588
  656TMC3    H2 9768   1.336   1.724  15.945 -2.0941 -1.0184 -0.3931
  656TMC3    C7 9769   1.393   1.665  15.692  1.3514  0.9306 -0.2224
  656TMC3    C8 9770   1.315   1.538  16.141 -0.3216  0.3150  0.5842
  656TMC3    O1 9771   1.443   1.626  15.588  0.6113 -0.2507  0.0747
  656TMC3    O2 9772   1.265   1.430  16.170 -0.1775 -0.0893  0.1585
  657TMC3    C1 9773   0.341   0.460  14.745  0.0462  0.7629 -0.3989
  657TMC3    C2 9774   0.401   0.481  14.866 -0.2553  0.4734 -0.5592
  657TMC3    C3 9775   0.413   0.611  14.911  0.5288 -0.7789  0.0448
  657TMC3    C4 9776   0.270   0.551  14.673  0.5075 -0.2459 -1.1929
  657TMC3    C5 9777   0.273   0.682  14.727 -0.1166 -0.0088  0.1764
  657TMC3    C6 9778   0.351   0.710  14.838  0.1326 -0.4166  0.5863
  657TMC3     C 9779   0.367   0.333  14.681 -0.5575 -0.0921 -0.7642
  657TMC3     O 9780   0.281   0.303  14.602  0.2590  0.7033 -0.0528
  657TMC3     H 9781   0.442   0.398  14.922  0.7848  0.5309 -1.2172
  657TMC3    H1 9782   0.225   0.539  14.575 -1.5756 -0.6259 -0.2042
  657TMC3    H2 9783   0.369   0.808  14.882  1.2135 -1.1090  1.7144
  657TMC3    C7 9784   0.208   0.792  14.666 -0.2537 -0.3716 -0.7264
  657TMC3    C8 9785   0.451   0.634  15.050  0.1942 -0.1720 -0.2165
  657TMC3    O1 9786   0.222   0.796  14.544 -0.4898 -0.5618  0.2085
  657TMC3    O2 9787   0.418   0.737  15.109 -0.8017  0.1956 -0.1865
  658MPD2     C 9788   1.913   0.882  14.856  0.0065 -0.2196 -0.0633
  658MPD2    C1 9789   1.788   0.863  14.803 -1.2061 -0.1658  0.3695
  658MPD2    C2 9790   1.778   0.820  14.669  0.0870  0.3749  0.4539
  658MPD2    C3 9791   1.883   0.808  14.590 -0.2104 -0.4768  0.0507
  658MPD2    C4 9792   2.009   0.823  14.644  0.4755 -0.5886  0.0639
  658MPD2    C5 9793   2.016   0.853  14.778 -0.4483  0.2102  0.2185
  658MPD2     H 9794   1.679   0.815  14.624  0.8543  1.4412 -1.3355
  658MPD2    H1 9795   2.099   0.807  14.586  1.8098  3.5467  0.9770
  658MPD2    H2 9796   1.941   0.900  14.959  0.6034  1.6802 -0.5578
  658MPD2    H3 9797   2.114   0.860  14.825 -0.8203  2.1494  0.6938
  658MPD2     N 9798   1.864   0.763  14.455  0.4165 -0.0171  0.1706
  658MPD2    H5 9799   1.775   0.727  14.423 -0.9764  1.2387  2.6250
  658MPD2    N1 9800   1.679   0.903  14.887 -0.0572 -0.0723 -0.3229
  658MPD2    H7 9801   1.694   0.942  14.980  0.6097 -1.2334  0.0605
  659TMC3    C1 9802   1.454   0.941  14.947 -0.0931 -0.4923  0.5932
  659TMC3    C2 9803   1.476   0.930  15.085 -0.1678 -0.8008 -1.0979
  659TMC3    C3 9804   1.364   0.959  15.165  0.1560 -0.2296 -0.0119
  659TMC3    C4 9805   1.330   0.981  14.898  0.0021 -0.1556  0.7697
  659TMC3    C5 9806   1.228   1.005  14.986 -0.6066 -0.3885  0.0721
  659TMC3    C6 9807   1.240   0.999  15.121  0.4168  0.5313  0.6010
  659TMC3     C 9808   1.544   0.881  14.858 -0.0882 -0.3028  0.5850
  659TMC3     O 9809   1.499   0.826  14.755 -0.0148 -0.3031  0.0966
  659TMC3     H 9810   1.580   0.927  15.115 -0.5759 -1.1830  0.2915
  659TMC3    H1 9811   1.307   0.977  14.792 -1.4916  0.3104  1.0927
  659TMC3    H2 9812   1.163   1.036  15.188 -0.4646 -1.0946  0.4785
  659TMC3    C7 9813   1.092   1.042  14.943 -0.0731  0.1911 -0.2707
  659TMC3    C8 9814   1.397   0.997  15.301  0.0221 -0.9649 -0.5102
  659TMC3    O1 9815   1.003   1.005  15.019  0.2967 -1.0770 -0.0651
  659TMC3    O2 9816   1.325   1.075  15.356 -0.2361 -0.5534 -0.3644
  660MPD2     C 9817   4.636   4.165  12.458  0.2513  0.2187  0.3510
  660MPD2    C1 9818   4.502   4.162  12.411  0.0675 -0.2508  0.5355
  660MPD2    C2 9819   4.413   4.103  12.492 -0.0514 -1.0746 -0.4762
  660MPD2    C3 9820   4.446   4.047  12.614  1.0913 -0.4062 -0.3345
  660MPD2    C4 9821   4.573   4.068  12.665 -0.6812 -0.0811 -0.0738
  660MPD2    C5 9822   4.668   4.128  12.591  0.0293 -0.7569 -0.0880
  660MPD2     H 9823   4.314   4.078  12.455 -1.9713  3.4745  1.6083
  660MPD2    H1 9824   4.598   4.034  12.765 -0.8106 -2.8119 -0.9796
  660MPD2    H2 9825   4.711   4.208  12.392 -0.3546  1.7668  0.6720
  660MPD2    H3 9826   0.035   4.125  12.618  0.5270 -1.7062 -2.1080
  660MPD2     N 9827   4.354   3.967  12.693 -0.1880  0.1492 -0.2682
  660MPD2    H5 9828   4.384   3.948  12.788 -0.1358  1.5057 -0.0189
  660MPD2    N1 9829   4.456   4.214  12.285  0.1540  0.4649  0.4893
  660MPD2    H7 9830   4.356   4.207  12.269 -0.0574  0.4710  1.7483
  661TMC3    C1 9831   4.463   4.295  12.072 -0.5606  0.1625  0.0228
  661TMC3    C2 9832   4.513   4.280  11.948  0.1007 -0.1055 -0.4534
  661TMC3    C3 9833   4.441   4.352  11.854 -0.5889 -0.5435 -0.6370
  661TMC3    C4 9834   4.359   4.378  12.106  0.2472 -0.5997 -0.1600
  661TMC3    C5 9835   4.301   4.451  12.004  0.1248 -0.7158  0.4329
  661TMC3    C6 9836   4.346   4.446  11.880  0.4244 -0.1090 -0.3148
  661TMC3     C 9837   4.539   4.242  12.180  0.1439 -0.0715 -0.1241
  661TMC3     O 9838   4.655   4.206  12.166  0.1999 -0.4739  0.2648
  661TMC3     H 9839   4.594   4.215  11.917  0.2626 -0.4411  0.6952
  661TMC3    H1 9840   4.316   4.396  12.204 -0.8670 -1.6853 -0.4543
  661TMC3    H2 9841   4.287   4.491  11.800 -0.5877  0.1006  0.5461
  661TMC3    C7 9842   4.170   4.517  12.037  0.3825 -0.2319  0.5582
  661TMC3    C8 9843   4.479   4.357  11.714 -0.8593  0.0709  0.4553
  661TMC3    O1 9844   4.166   4.558  12.149  0.1035 -0.4281 -0.1079
  661TMC3    O2 9845   4.388   4.381  11.637 -0.5185  0.0006  0.8134
  662MPD2     C 9846   4.545   4.405  16.991  0.1948  0.1768  0.1037
  662MPD2    C1 9847   4.576   4.306  17.088  0.2497  0.5770  0.4521
  662MPD2    C2 9848   4.546   4.319  17.223 -0.0175 -0.2141 -0.2582
  662MPD2    C3 9849   4.479   4.435  17.256  0.4594  0.4740 -0.0738
  662MPD2    C4 9850   4.460   4.536  17.165 -0.4847 -0.3380 -0.1684
  662MPD2    C5 9851   4.481   4.523  17.031  0.0009 -0.0356  0.2986
  662MPD2     H 9852   4.566   4.242  17.296  0.9830 -0.1688 -0.4935
  662MPD2    H1 9853   4.403   4.621  17.202  1.0257  1.0790 -1.1102
  662MPD2    H2 9854   4.568   4.388  16.887  0.1979  0.4113  0.0675
  662MPD2    H3 9855   4.450   4.607  16.970 -2.1571 -0.4195  0.8644
  662MPD2     N 9856   4.442   4.458  17.390 -0.4842  0.4028 -0.4005
  662MPD2    H5 9857   4.412   4.552  17.412 -1.8093 -0.2236  0.4602
  662MPD2    N1 9858   4.640   4.179  17.047 -0.4482 -0.1519 -0.1293
  662MPD2    H7 9859   4.649   4.109  17.119  0.4044  0.1016  0.0119
  663TMC3    C1 9860   4.721   3.997  16.901  0.5424 -0.3489  0.1692
  663TMC3    C2 9861   0.051   3.941  16.999  0.5001  0.4230 -0.8496
  663TMC3    C3 9862   0.130   3.838  16.967 -0.7319 -0.1833 -0.3331
  663TMC3    C4 9863   4.726   3.951  16.769 -0.4660  0.1496  0.0166
  663TMC3    C5 9864   0.052   3.838  16.742 -0.4741 -0.4755  0.2740
  663TMC3    C6 9865   0.121   3.778  16.848 -0.6549 -0.7344 -0.0426
  663TMC3     C 9866   4.678   4.135  16.914  0.5098 -0.7355  0.8416
  663TMC3     O 9867   4.688   4.197  16.813  0.0751 -0.0335 -0.1594
  663TMC3     H 9868   0.061   3.983  17.099  0.0305  2.0318 -1.4837
  663TMC3    H1 9869   4.671   3.989  16.684  0.2954 -0.0807 -0.5705
  663TMC3    H2 9870   0.189   3.696  16.829 -0.4271  0.2891 -3.5070
  663TMC3    C7 9871   4.717   3.748  16.653  0.8287 -0.0146  0.4257
  663TMC3    C8 9872   0.101   3.730  17.060  0.3185  0.3627  0.0699
  663TMC3    O1 9873   4.675   3.802  16.551  0.9389  0.2701 -0.2313
  663TMC3    O2 9874   0.176   3.631  17.056 -0.0689 -0.1767  0.0336
  664MPD2     C 9875   2.495   2.615  17.614  0.2085  0.6435 -1.1429
  664MPD2    C1 9876   2.619   2.669  17.661 -0.2166  0.4155 -0.4773
  664MPD2    C2 9877   2.667   2.618   0.034  0.1871  0.2361  0.1597
  664MPD2    C3 9878   2.602   2.522   0.111  0.1941  0.9482  0.4393
  664MPD2    C4 9879   2.485   2.468   0.059 -0.3052 -0.6978  0.1432
  664MPD2    C5 9880   2.438   2.517  17.691 -0.1994  0.0089  0.4269
  664MPD2     H 9881   2.756   2.651   0.086  2.0169  1.2800 -3.6272
  664MPD2    H1 9882   2.431   2.389   0.109 -2.3393  0.9382  0.5199
  664MPD2    H2 9883   2.439   2.653  17.529 -0.2719  2.2317 -0.1073
  664MPD2    H3 9884   2.339   2.479  17.672 -0.3393 -1.2636  3.6111
  664MPD2     N 9885   2.663   2.488   0.232  0.1491 -0.5508  0.5769
  664MPD2    H5 9886   2.754   2.524   0.259  0.2059  1.0263 -1.7300
  664MPD2    N1 9887   2.686   2.776  17.602 -0.0883 -0.0873  0.2820
  664MPD2    H7 9888   2.772   2.813  17.640  1.0511 -2.6644  0.2077
  665TMC3    C1 9889   2.674   2.415   0.457  0.6061 -0.3975  0.3139
  665TMC3    C2 9890   2.613   2.358   0.566 -0.5927 -0.3972  0.0674
  665TMC3    C3 9891   2.658   2.400   0.684 -0.2477  0.3709 -0.2515
  665TMC3    C4 9892   2.767   2.518   0.471  0.9114 -0.2055  0.1262
  665TMC3    C5 9893   2.791   2.568   0.597  0.2006 -0.5590 -0.4501
  665TMC3    C6 9894   2.735   2.508   0.704 -0.0582  0.0931 -0.2959
  665TMC3     C 9895   2.600   2.412   0.330  0.2364 -0.0324  0.4029
  665TMC3     O 9896   2.492   2.350   0.330  0.7834  0.6002  0.1891
  665TMC3     H 9897   2.532   2.290   0.542  1.5937 -3.2432  0.8113
  665TMC3    H1 9898   2.824   2.554   0.386 -2.8179  1.8060 -1.4784
  665TMC3    H2 9899   2.747   2.535   0.809  1.2937  1.2271 -0.7434
  665TMC3    C7 9900   2.854   2.698   0.610 -0.2771  0.3397 -0.1796
  665TMC3    C8 9901   2.595   2.349   0.800 -0.1082  0.7503 -0.4977
  665TMC3    O1 9902   2.927   2.724   0.518  0.4293 -0.4525 -0.0500
  665TMC3    O2 9903   2.617   2.397   0.909 -0.4779 -0.2182  0.7965
  666TMC3    C1 9904   2.370   2.682   9.551  0.2508  0.3682 -0.4225
  666TMC3    C2 9905   2.491   2.744   9.554  0.0790  0.2405  0.1212
  666TMC3    C3 9906   2.504   2.875   9.600 -0.0858 -0.0998  0.4298
  666TMC3    C4 9907   2.255   2.747   9.579  0.1902 -0.0065  0.6272
  666TMC3    C5 9908   2.269   2.872   9.632 -0.2813  0.7795  0.0118
  666TMC3    C6 9909   2.387   2.944   9.635  0.4727  0.0736  0.0226
  666TMC3     C 9910   2.376   2.539   9.524 -0.1274 -0.6309 -1.0010
  666TMC3     O 9911   2.479   2.494   9.478  0.1292 -0.4269 -0.5858
  666TMC3     H 9912   2.578   2.687   9.521  0.9257  0.8049  1.3846
  666TMC3    H1 9913   2.156   2.704   9.577  0.7561 -1.1887 -2.1223
  666TMC3    H2 9914   2.393   3.038   9.688  0.6694  0.2624 -0.3307
  666TMC3    C7 9915   2.149   2.927   9.693  0.4773 -0.1642 -0.5507
  666TMC3    C8 9916   2.616   2.873   9.693 -0.1949  0.7341 -0.6875
  666TMC3    O1 9917   2.068   2.845   9.732  0.0992 -0.0892 -0.0088
  666TMC3    O2 9918   2.724   2.882   9.641  0.2532  0.1957  0.4733
  667MPD2     C 9919   3.711   2.288  14.541  0.4487 -0.1237 -0.9076
  667MPD2    C1 9920   3.642   2.354  14.639  0.5963 -0.1663  0.6807
  667MPD2    C2 9921   3.520   2.302  14.672  0.4960  0.9379 -0.1334
  667MPD2    C3 9922   3.476   2.175  14.628  0.4431 -0.2221 -0.8125
  667MPD2    C4 9923   3.552   2.112  14.536 -0.0963  0.3588 -0.1425
  667MPD2    C5 9924   3.664   2.172  14.482  0.2349 -0.5242  0.1743
  667MPD2     H 9925   3.456   2.359  14.738  1.1175  0.5150  0.8178
  667MPD2    H1 9926   3.530   2.017  14.490 -0.3049  1.7026 -2.8097
  667MPD2    H2 9927   3.811   2.319  14.512  0.5843  0.6710  0.3877
  667MPD2    H3 9928   3.721   2.110  14.413 -1.5161 -1.9342 -0.0174
  667MPD2     N 9929   3.362   2.117  14.687  0.4447  0.1096  0.1320
  667MPD2    H5 9930   3.304   2.177  14.744  1.1523 -0.2941  1.2675
  667MPD2    N1 9931   3.682   2.476  14.693  0.2576  0.2341 -0.2381
  667MPD2    H7 9932   3.617   2.514  14.760  1.2227  1.1450  0.1918
  668TMC3    C1 9933   3.807   2.629  14.788  0.1932 -0.0581 -0.1511
  668TMC3    C2 9934   3.836   2.764  14.762  0.6496 -0.5639 -0.1067
  668TMC3    C3 9935   3.821   2.854  14.865  0.2550 -0.4554 -0.0058
  668TMC3    C4 9936   3.743   2.589  14.904 -0.1963  0.9825 -0.1284
  668TMC3    C5 9937   3.730   2.686  15.001  0.1839  0.3038  0.5441
  668TMC3    C6 9938   3.767   2.816  14.979  0.3398 -0.7977 -0.2595
  668TMC3     C 9939   3.801   2.544  14.677 -0.0496  0.2295 -0.3384
  668TMC3     O 9940   3.894   2.525  14.599 -0.4841 -0.2157  0.2441
  668TMC3     H 9941   3.893   2.778  14.670 -0.3547 -2.8712 -1.0844
  668TMC3    H1 9942   3.717   2.488  14.932  1.2511  0.4988 -0.4980
  668TMC3    H2 9943   3.738   2.900  15.041  1.1711  0.5822 -1.7273
  668TMC3    C7 9944   3.650   2.649  15.114  0.7928 -0.2583  0.4040
  668TMC3    C8 9945   3.827   2.997  14.834  0.0530  0.8020  0.6834
  668TMC3    O1 9946   3.685   2.707  15.214  0.3361 -0.0965  0.0111
  668TMC3    O2 9947   3.756   3.068  14.901 -0.2708 -0.0427  0.1261
  669TMC3    C1 9948   1.652   2.643  14.377  0.0544  0.2384  0.4799
  669TMC3    C2 9949   1.561   2.596  14.283 -0.3685 -0.1461  0.2426
  669TMC3    C3 9950   1.583   2.642  14.156  0.6251 -0.8917 -0.9350
  669TMC3    C4 9951   1.749   2.734  14.341 -0.0431  0.5561 -0.0198
  669TMC3    C5 9952   1.763   2.758  14.204  0.6929 -0.1245 -0.3259
  669TMC3    C6 9953   1.683   2.714  14.114  0.3352 -0.3424  0.3224
  669TMC3     C 9954   1.630   2.604  14.512 -0.7707  0.2518 -0.4208
  669TMC3     O 9955   1.546   2.518  14.526  0.0388  0.2559 -0.8651
  669TMC3     H 9956   1.468   2.550  14.316  1.0992 -1.6150  2.3386
  669TMC3    H1 9957   1.808   2.786  14.416 -1.7840  2.4478  0.0259
  669TMC3    H2 9958   1.685   2.738  14.008  2.2939  0.6257  0.5683
  669TMC3    C7 9959   1.872   2.853  14.164 -0.5397  0.3403  0.9783
  669TMC3    C8 9960   1.539   2.553  14.047 -0.0595 -0.7646  0.5948
  669TMC3    O1 9961   1.916   2.923  14.257  0.1603  0.4070  0.2380
  669TMC3    O2 9962   1.616   2.523  13.956  0.1166 -0.7740  0.7840
  670MPD2     C 9963   4.642   0.004  13.456 -0.5276  0.0745 -1.0516
  670MPD2    C1 9964   4.715   0.043  13.568  1.1495  0.3171  0.5176
  670MPD2    C2 9965   4.649   0.060  13.689 -0.1839 -1.1162  0.0443
  670MPD2    C3 9966   4.508   0.063  13.689  0.4855  0.0863  0.2428
  670MPD2    C4 9967   4.436   0.035  13.572 -0.2403 -1.2642  0.1645
  670MPD2    C5 9968   4.506   4.730  13.462  0.1080  0.4163 -0.0088
  670MPD2     H 9969   4.699   0.084  13.782  1.1326 -0.2289 -0.8992
  670MPD2    H1 9970   4.329   0.047  13.562 -0.3691 -1.5437  1.2277
  670MPD2    H2 9971   4.693   4.720  13.363 -0.2451 -2.2940 -0.3429
  670MPD2    H3 9972   4.449   4.712  13.372 -1.1099 -3.4069  1.5240
  670MPD2     N 9973   4.444   0.079  13.815 -0.3792 -0.0995 -0.2820
  670MPD2    H5 9974   4.507   0.086  13.894  1.0683  0.5970 -1.4900
  670MPD2    N1 9975   0.118   0.049  13.579  0.5100  0.4143  0.0616
  670MPD2    H7 9976   0.164   0.079  13.664  0.1746 -0.0637  0.4103
  671TMC3    C1 9977   4.271   0.020  13.955 -0.3698  0.0148  0.8468
  671TMC3    C2 9978   4.370   4.711  14.042  0.2592 -0.1209  0.0397
  671TMC3    C3 9979   4.329   4.626  14.140  0.7831 -0.7077 -0.4522
  671TMC3    C4 9980   4.134   4.729  13.969  0.5002  0.3306 -0.0657
  671TMC3    C5 9981   4.100   4.653  14.073  0.4540  0.2657  0.4458
  671TMC3    C6 9982   4.195   4.593  14.159 -0.0653  0.0724  0.4875
  671TMC3     C 9983   4.307   0.070  13.827  0.0910 -0.0086 -0.0146
  671TMC3     O 9984   4.215   0.079  13.747  0.2801  0.2193 -0.5283
  671TMC3     H 9985   4.476   4.705  14.021  0.6725  2.1630  1.4899
  671TMC3    H1 9986   4.056   0.003  13.895 -0.4279  0.9897  1.0150
  671TMC3    H2 9987   4.162   4.520  14.233 -0.1545  2.3728  2.7328
  671TMC3    C7 9988   3.978   4.582  14.055  0.4735 -0.0180  0.3148
  671TMC3    C8 9989   4.435   4.539  14.195  0.1757  0.1462  0.6000
  671TMC3    O1 9990   3.878   4.647  14.059 -0.3904  0.4018  0.8233
  671TMC3    O2 9991   4.551   4.572  14.190 -0.1066 -0.2040 -0.1071
  672MPD2     C 9992   0.435   0.889  17.743 -0.2706  0.1944 -0.2907
  672MPD2    C1 9993   0.460   0.798   0.094  0.1798  0.3831 -0.2395
  672MPD2    C2 9994   0.530   0.836   0.206  0.1378  1.4447 -0.0516
  672MPD2    C3 9995   0.555   0.973   0.223 -0.0915 -0.0219 -0.3668
  672MPD2    C4 9996   0.517   1.066   0.125  0.1900  0.4598  0.3448
  672MPD2    C5 9997   0.461   1.017   0.011  0.2751 -0.1228 -0.4317
  672MPD2     H 9998   0.559   0.762   0.279 -0.2349  1.8208  0.4798
  672MPD2    H1 9999   0.555   1.167   0.129 -0.5580  0.8718 -3.1922
  672MPD2    H210000   0.390   0.862  17.648  1.3350 -0.3423 -0.8979
  672MPD2    H310001   0.426   1.078  17.677 -0.6182 -0.7383 -0.5040
  672MPD2     N10002   0.613   1.018   0.341  0.2308 -0.0231  0.0177
  672MPD2    H510003   0.629   1.118   0.343  0.1453 -0.0152  0.3584
  672MPD2    N110004   0.422   0.663   0.084  0.0626  0.3604 -0.3428
  672MPD2    H710005   0.419   0.609   0.169 -0.1869  0.6860 -0.1426
  673TMC3    C110006   0.279   0.497   0.017 -0.0488  0.2756  0.7498
  673TMC3    C210007   0.308   0.363  17.738  0.8963 -0.5097  0.1699
  673TMC3    C310008   0.267   0.263   0.066  0.4708  0.7434 -0.1337
  673TMC3    C410009   0.201   0.527   0.130  0.4774 -0.1697  0.5042
  673TMC3    C510010   0.156   0.424   0.199 -0.4421 -0.0380 -0.5432
  673TMC3    C610011   0.187   0.291   0.176  0.3782 -0.5093 -1.0611
  673TMC3     C10012   0.365   0.609  17.725 -0.7953 -0.0874 -0.8237
  673TMC3     O10013   0.386   0.617  17.602  0.4023 -0.1827 -0.0794
  673TMC3     H10014   0.374   0.343  17.654  0.4542  1.1514 -0.5751
  673TMC3    H110015   0.181   0.628   0.161  0.7752 -0.1369  0.5833
  673TMC3    H210016   0.137   0.210   0.229  0.9356 -0.9230 -1.1590
  673TMC3    C710017   0.093   0.455   0.326  0.1660 -0.3598  0.1652
  673TMC3    C810018   0.328   0.132   0.053  0.3574 -0.1821  0.1925
  673TMC3    O110019   0.104   0.368   0.408  0.9568 -0.1462 -0.0119
  673TMC3    O210020   0.387   0.111  17.703 -0.0690 -0.0180  0.1149
  674MPD2     C10021   4.492   0.646  17.266 -0.8172 -0.0326  0.6788
  674MPD2    C110022   4.525   0.565  17.372  0.3999 -0.4191  0.2368
  674MPD2    C210023   4.471   0.592  17.491  0.5741  0.1704 -0.2132
  674MPD2    C310024   4.409   0.704  17.516  1.1925 -0.0004  0.3755
  674MPD2    C410025   4.384   0.798  17.420  0.0052 -0.5908 -0.2658
  674MPD2    C510026   4.425   0.767  17.292 -0.8564 -0.3394  0.1505
  674MPD2     H10027   4.479   0.529  17.578  1.8629  2.5024  1.3755
  674MPD2    H110028   4.334   0.893  17.437  1.4901  0.1899 -0.2210
  674MPD2    H210029   4.527   0.629  17.165 -1.1749  0.4485  0.4764
  674MPD2    H310030   4.418   0.844  17.215  0.6717  0.6546  1.0081
  674MPD2     N10031   4.353   0.717  17.643 -0.4256  0.1973 -0.1857
  674MPD2    H510032   4.373   0.640  17.705  1.9397  1.1152  0.2000
  674MPD2    N110033   4.622   0.467  17.348  0.0236 -0.2083  0.0934
  674MPD2    H710034   4.652   0.458  17.252 -1.6603 -1.2182 -0.3450
  675TMC3    C110035   0.020   0.283  17.407 -0.0733  1.2702  0.1418
  675TMC3    C210036   0.012   0.179  17.499  0.3387 -0.1665  0.1015
  675TMC3    C310037   0.112   0.083  17.501 -0.2733 -0.8571  0.3000
  675TMC3    C410038   0.146   0.319  17.352  0.0424  0.1227 -0.1981
  675TMC3    C510039   0.250   0.225  17.369 -0.9933 -0.1264 -0.3638
  675TMC3    C610040   0.238   0.109  17.444 -0.2579 -0.2073 -0.4150
  675TMC3     C10041   4.674   0.390  17.446  0.1886  0.9233  0.5186
  675TMC3     O10042   4.657   0.393  17.566  0.3998 -0.0205  0.1058
  675TMC3     H10043   4.651   0.147  17.528  1.2188 -1.6196  1.5258
  675TMC3    H110044   0.162   0.414  17.302  0.0248  0.1667 -0.1208
  675TMC3    H210045   0.326   0.053  17.473 -0.0117  0.2054 -0.3577
  675TMC3    C710046   0.381   0.267  17.321  0.3777  0.0148 -0.5274
  675TMC3    C810047   0.084   4.697  17.571  0.8100  0.2967  0.0317
  675TMC3    O110048   0.377   0.370  17.254 -0.1346 -0.0560 -0.5401
  675TMC3    O210049   0.165   4.603  17.555 -0.0718 -0.1856 -0.2105
  676MPD2     C10050   2.422   3.581  11.028  0.5370 -0.6418  0.6575
  676MPD2    C110051   2.383   3.484  11.113  0.1418 -0.5856 -0.5677
  676MPD2    C210052   2.382   3.350  11.068  0.8604  0.0533  0.7618
  676MPD2    C310053   2.409   3.320  10.935  0.8325  0.3721 -0.1269
  676MPD2    C410054   2.437   3.419  10.850 -0.2224 -0.7437  0.6800
  676MPD2    C510055   2.439   3.551  10.895 -0.5811  0.4739 -0.0785
  676MPD2     H10056   2.361   3.271  11.140  0.2012 -1.2786 -0.8820
  676MPD2    H110057   2.456   3.392  10.747  0.1277  0.6238  0.3866
  676MPD2    H210058   2.429   3.687  11.053  1.5983 -0.1586 -1.7089
  676MPD2    H310059   2.451   3.635  10.828  1.4955  0.7838  0.6857
  676MPD2     N10060   2.406   3.184  10.886  0.5684 -0.2693 -0.4457
  676MPD2    H510061   2.407   3.169  10.786 -0.4316  1.5163 -0.7335
  676MPD2    N110062   2.346   3.518  11.246 -0.3462 -0.5522  0.2392
  676MPD2    H710063   2.289   3.450  11.295  0.1032 -2.3144 -1.6660
  677TMC3    C110064   2.308   3.644  11.433  0.8557  0.2858 -0.4853
  677TMC3    C210065   2.195   3.567  11.459  0.4160  0.5880 -0.5559
  677TMC3    C310066   2.143   3.575  11.590  0.1940 -0.0164  0.2307
  677TMC3    C410067   2.370   3.726  11.525 -0.4677  0.5001 -0.1415
  677TMC3    C510068   2.321   3.729  11.653  0.5428 -0.1076 -0.4669
  677TMC3    C610069   2.207   3.659  11.682 -1.8275  0.1545 -1.0421
  677TMC3     C10070   2.369   3.640  11.306 -0.4192 -0.0384 -0.0734
  677TMC3     O10071   2.454   3.721  11.275 -0.5583 -0.2451 -0.8035
  677TMC3     H10072   2.141   3.509  11.385  2.2700 -0.8608 -0.7865
  677TMC3    H110073   2.458   3.787  11.507  1.6038 -2.2049  0.8958
  677TMC3    H210074   2.172   3.661  11.785 -1.3615  0.4144 -0.8910
  677TMC3    C710075   2.403   3.768  11.766 -0.3911 -0.0457 -0.3123
  677TMC3    C810076   2.036   3.487  11.629  0.0886  0.0707  0.0044
  677TMC3    O110077   2.382   3.718  11.874  0.0558  0.0501 -0.1404
  677TMC3    O210078   1.946   3.470  11.549  0.1990  0.0492 -0.0543
  678MPD2     C10079   4.057   3.671   1.028  0.0923  0.5292  0.2663
  678MPD2    C110080   4.003   3.571   0.953 -0.3565 -0.7644 -0.0804
  678MPD2    C210081   3.877   3.535   0.977 -0.3090  0.2733  0.6452
  678MPD2    C310082   3.796   3.601   1.070  0.1624  0.5440 -0.1046
  678MPD2    C410083   3.849   3.706   1.135  0.0080 -0.7321 -0.1456
  678MPD2    C510084   3.977   3.740   1.112 -0.2343 -0.2012 -0.1868
  678MPD2     H10085   3.826   3.457   0.921  0.2468 -0.9448  1.8325
  678MPD2    H110086   3.794   3.762   1.211  1.7031 -0.4746  0.8921
  678MPD2    H210087   4.162   3.697   1.017 -0.2328  1.7693  0.1013
  678MPD2    H310088   4.016   3.833   1.151 -2.0256  1.1107 -1.4866
  678MPD2     N10089   3.660   3.576   1.052  0.1316 -0.6835 -0.2118
  678MPD2    H510090   3.634   3.491   1.004 -0.3131 -0.0669 -1.0664
  678MPD2    N110091   4.066   3.510   0.849 -0.4396  0.8295  0.1775
  678MPD2    H710092   4.015   3.440   0.796  0.6748  0.6449 -0.6443
  679TMC3    C110093   4.381   3.247   0.669  0.2203  0.7795 -0.0185
  679TMC3    C210094   4.352   3.346   0.757 -0.6048 -0.1100  0.3827
  679TMC3    C310095   4.237   3.416   0.730 -0.6760 -0.2310  0.4037
  679TMC3    C410096   4.311   3.218   0.551  0.3110  0.0574  0.2929
  679TMC3    C510097   4.202   3.288   0.532 -0.0532 -0.1205 -0.1582
  679TMC3    C610098   4.161   3.381   0.623  0.3155 -0.4184  0.3903
  679TMC3     C10099   4.479   3.149   0.707  0.3360  0.1053 -0.0512
  679TMC3     O10100   4.551   3.184   0.800 -0.0535 -0.7082  0.3615
  679TMC3     H10101   4.411   3.363   0.847 -1.2642 -2.0927  1.1902
  679TMC3    H110102   4.342   3.145   0.477  0.6402  0.8372 -0.3317
  679TMC3    H210103   4.084   3.453   0.598  1.0177  0.3535  0.4110
  679TMC3    C710104   4.161   3.315   0.396 -0.8906  0.0408 -0.2119
  679TMC3    C810105   4.205   3.513   0.826 -0.1958  0.5724 -1.0659
  679TMC3    O110106   4.081   3.406   0.379  0.5279  0.1373 -0.0834
  679TMC3    O210107   4.287   3.562   0.903 -0.4104  0.0095 -0.2209
  680MPD2     C10108   0.250   2.242  12.857  0.6360  0.2323  0.2700
  680MPD2    C110109   0.222   2.163  12.966  0.2812  0.0541  0.9883
  680MPD2    C210110   0.203   2.228  13.081 -0.1437 -0.3140  0.5008
  680MPD2    C310111   0.206   2.362  13.104 -0.3709  0.3509 -0.0886
  680MPD2    C410112   0.242   2.440  12.994  0.4109  0.9927  0.2200
  680MPD2    C510113   0.262   2.382  12.871 -0.9243  0.7948  0.5126
  680MPD2     H10114   0.165   2.159  13.156 -1.1240  0.3239  0.5856
  680MPD2    H110115   0.244   2.549  12.998 -1.3691  1.0038  1.0030
  680MPD2    H210116   0.272   2.207  12.757  1.1486  2.6893 -0.4740
  680MPD2    H310117   0.286   2.447  12.787  0.1381 -0.7917 -0.4122
  680MPD2     N10118   0.165   2.433  13.220 -0.0300 -0.0989 -0.6499
  680MPD2    H510119   0.169   2.534  13.214  1.1402 -0.0736  0.4580
  680MPD2    N110120   0.181   2.026  12.951  0.4040  0.5872  0.0669
  680MPD2    H710121   0.129   1.990  13.031 -0.5440 -0.0413 -0.8276
  681TMC3    C110122   0.148   1.833  12.831  0.0162 -0.3411 -0.7170
  681TMC3    C210123   0.030   1.812  12.891  0.0779  0.4575  0.3700
  681TMC3    C310124   4.728   1.687  12.915 -0.4281  0.3731  0.5306
  681TMC3    C410125   0.227   1.726  12.777 -0.6436 -0.1373 -0.1368
  681TMC3    C510126   0.177   1.599  12.796  0.0090  0.1281  0.3537
  681TMC3    C610127   0.060   1.583  12.866  0.4276  0.0971  0.8075
  681TMC3     C10128   0.201   1.963  12.832 -0.2952  0.5471  0.1767
  681TMC3     O10129   0.292   1.980  12.748 -0.3475  0.0425 -0.0502
  681TMC3     H10130   4.708   1.897  12.920 -2.0953 -0.6530 -0.8654
  681TMC3    H110131   0.306   1.737  12.703 -1.6940 -2.5571 -1.6250
  681TMC3    H210132   0.026   1.481  12.878  0.5339 -0.1527 -0.9401
  681TMC3    C710133   0.228   1.486  12.720  0.2489 -0.9331 -0.7051
  681TMC3    C810134   4.627   1.650  13.012 -0.1908 -0.8377 -0.6335
  681TMC3    O110135   0.245   1.377  12.773 -0.4647 -0.3164 -0.0673
  681TMC3    O210136   4.600   1.532  13.013 -0.6301  0.0449 -0.1039
  682MPD2     C10137   1.469   3.567  10.712  0.2151 -0.3072  0.0708
  682MPD2    C110138   1.433   3.432  10.704  0.0488  0.4757  0.1252
  682MPD2    C210139   1.385   3.371  10.819  0.2712 -0.9766 -0.5410
  682MPD2    C310140   1.366   3.441  10.938 -0.1148  0.2135 -0.0562
  682MPD2    C410141   1.389   3.574  10.937  0.5705  0.0751  0.0693
  682MPD2    C510142   1.444   3.633  10.825 -0.0351  0.3547  0.1316
  682MPD2     H10143   1.353   3.269  10.800  0.6224 -1.3217  0.7264
  682MPD2    H110144   1.385   3.629  11.030  1.9461 -0.4142  0.4147
  682MPD2    H210145   1.522   3.634  10.645 -0.4096  1.4186  1.2908
  682MPD2    H310146   1.481   3.734  10.837 -1.7945  0.8801  1.2412
  682MPD2     N10147   1.334   3.381  11.060  0.2701 -0.1918  0.4240
  682MPD2    H510148   1.322   3.437  11.144  1.4025  0.7884 -0.0631
  682MPD2    N110149   1.461   3.348  10.591  0.2822  0.1757  0.7285
  682MPD2    H710150   1.480   3.250  10.605  1.8219  0.2767 -0.5838
  683TMC3    C110151   1.240   3.199  11.423 -0.3367 -0.1803  0.0336
  683TMC3    C210152   1.152   3.087  11.428 -0.4886 -0.5098 -0.6864
  683TMC3    C310153   1.120   3.034  11.301 -0.1283 -0.1256  0.1635
  683TMC3    C410154   1.282   3.255  11.307  0.4130  0.0322  0.5940
  683TMC3    C510155   1.241   3.205  11.189 -0.7304 -0.5455  0.1534
  683TMC3    C610156   1.160   3.094  11.184 -0.1819 -0.7298  0.3164
  683TMC3     C10157   1.284   3.265  11.544  0.2434  0.0550  0.3663
  683TMC3     O10158   1.270   3.384  11.558 -0.4266  0.3992 -0.3793
  683TMC3     H10159   1.134   3.035  11.521 -1.8340  1.1410 -0.0159
  683TMC3    H110160   1.367   3.322  11.305 -1.4865  2.3642 -1.6918
  683TMC3    H210161   1.133   3.047  11.090 -0.7297 -0.2053  0.2142
  683TMC3    C710162   1.320   3.242  11.072 -0.6043  0.1737  0.6040
  683TMC3    C810163   1.016   2.934  11.287 -0.6095 -0.7428 -0.4283
  683TMC3    O110164   1.344   3.154  10.993  0.0649 -0.7328 -0.0476
  683TMC3    O210165   1.001   2.898  11.171 -0.1997  0.8916  0.1988
  684MPD2     C10166   0.135   2.634  16.238 -0.6519 -0.0609 -0.2013
  684MPD2    C110167   0.056   2.690  16.139  0.2265 -0.0476 -0.0158
  684MPD2    C210168   4.726   2.808  16.169 -0.0069  0.1620 -0.3793
  684MPD2    C310169   0.006   2.862  16.298 -0.1730 -0.2156 -0.1261
  684MPD2    C410170   0.090   2.801  16.392  0.2776 -0.3763  0.2132
  684MPD2    C510171   0.150   2.682  16.360 -0.3244  0.1737  0.5973
  684MPD2     H10172   4.668   2.864  16.097 -0.1673  0.0846 -0.3104
  684MPD2    H110173   0.110   2.846  16.489  1.0579 -0.1123 -0.0687
  684MPD2    H210174   0.186   2.541  16.215 -0.5326  0.0492 -0.3797
  684MPD2    H310175   0.216   2.639  16.435 -0.4896 -1.7157 -0.3388
  684MPD2     N10176   4.690   2.989  16.333  0.3802 -0.0987  0.0184
  684MPD2    H510177   4.718   3.026  16.423 -1.6738  0.7766  0.2955
  684MPD2    N110178   0.056   2.633  16.010 -0.5012  0.0243 -0.5657
  684MPD2    H710179   4.721   2.664  15.946 -0.7883  0.0097 -0.2403
  685TMC3    C110180   0.129   2.565  15.807  0.4010 -0.0324  0.6091
  685TMC3    C210181   0.022   2.636  15.759 -0.5213  0.1475  0.3960
  685TMC3    C310182   0.048   2.741  15.675 -0.1840  1.2163 -0.2430
  685TMC3    C410183   0.252   2.591  15.751 -0.2972  0.0640 -1.2902
  685TMC3    C510184   0.275   2.688  15.657 -0.3432  0.1317  0.2421
  685TMC3    C610185   0.168   2.774  15.625 -0.1043 -0.1518 -0.4505
  685TMC3     C10186   0.153   2.561  15.950 -0.4726  0.1850 -0.2814
  685TMC3     O10187   0.273   2.550  15.985 -0.2353 -0.0540 -0.7420
  685TMC3     H10188   4.657   2.621  15.791 -1.4622  2.1733 -1.6769
  685TMC3    H110189   0.330   2.522  15.782 -1.7740 -1.8671 -1.9466
  685TMC3    H210190   0.187   2.845  15.545 -0.6363 -0.6917 -1.0567
  685TMC3    C710191   0.385   2.771  15.709 -0.6909  0.6326  0.6382
  685TMC3    C810192   4.675   2.800  15.599  0.2389 -0.3656 -0.3462
  685TMC3    O110193   0.412   2.878  15.652  0.0618 -0.3364 -0.2612
  685TMC3    O210194   4.707   2.866  15.499 -0.8321  0.1144  0.6563
  686MPD2     C10195   1.145   3.433  15.699 -0.5196  0.1681  0.2719
  686MPD2    C110196   1.185   3.318  15.761  0.6655  0.0762  0.3911
  686MPD2    C210197   1.304   3.261  15.717  0.3105 -0.0904 -0.7144
  686MPD2    C310198   1.374   3.304  15.607 -0.0379  0.5705  0.2334
  686MPD2    C410199   1.335   3.418  15.547 -0.4110  0.1929 -0.0774
  686MPD2    C510200   1.221   3.482  15.591 -0.0144 -0.2164 -0.3573
  686MPD2     H10201   1.344   3.174  15.769  0.0500 -0.0725 -0.4891
  686MPD2    H110202   1.378   3.462  15.457 -2.3280 -0.4371 -1.2958
  686MPD2    H210203   1.056   3.485  15.733 -0.7301 -0.4767  0.6938
  686MPD2    H310204   1.191   3.578  15.552  1.7771  0.6812  0.4474
  686MPD2     N10205   1.478   3.232  15.545 -0.5692 -0.1461 -0.0045
  686MPD2    H510206   1.516   3.271  15.459  0.3000 -0.4834  0.2170
  686MPD2    N110207   1.121   3.264  15.878  0.0043 -0.3395 -0.1218
  686MPD2    H710208   1.040   3.312  15.915  0.6665 -0.5233  1.5589
  687TMC3    C110209   1.446   3.006  15.614  0.3773 -0.1765 -0.1915
  687TMC3    C210210   1.317   3.000  15.565 -0.0159  0.6143  1.4010
  687TMC3    C310211   1.232   2.903  15.618  0.1233  0.1205 -0.1326
  687TMC3    C410212   1.495   2.917  15.704 -0.1997 -0.1155  0.0294
  687TMC3    C510213   1.410   2.819  15.743  1.3061  0.2535  0.1188
  687TMC3    C610214   1.277   2.803  15.693  0.0159 -0.5444  0.6588
  687TMC3     C10215   1.538   3.115  15.595 -1.0719  0.5184 -0.5903
  687TMC3     O10216   1.651   3.085  15.562  0.5969  0.2870 -0.0554
  687TMC3     H10217   1.298   3.078  15.493 -2.0225 -0.9509  0.2651
  687TMC3    H110218   1.601   2.926  15.724 -0.1424 -1.4791  0.3493
  687TMC3    H210219   1.207   2.731  15.734 -2.3167  0.6901 -1.1334
  687TMC3    C710220   1.462   2.698  15.803 -0.0143 -0.3839 -0.2593
  687TMC3    C810221   1.088   2.923  15.630 -0.4525  0.0462 -0.0022
  687TMC3    O110222   1.384   2.607  15.831 -0.5976  0.2454  0.2024
  687TMC3    O210223   1.019   2.847  15.693  0.6976 -0.3448  0.5795
  688MPD2     C10224   0.299   1.862  17.290  0.4738  0.3614  0.5073
  688MPD2    C110225   0.356   1.744  17.331  0.4070  0.5885 -0.3361
  688MPD2    C210226   0.487   1.709  17.288 -0.6517  0.0995  0.5470
  688MPD2    C310227   0.562   1.798  17.221  0.1208  0.5382  0.3343
  688MPD2    C410228   0.506   1.918  17.181 -0.0285  0.2298 -0.6789
  688MPD2    C510229   0.375   1.948  17.211  0.0859 -0.4022 -0.2185
  688MPD2     H10230   0.517   1.609  17.318 -0.7311  0.2620  1.1738
  688MPD2    H110231   0.566   1.999  17.141  0.2907 -0.4375 -1.5608
  688MPD2    H210232   0.198   1.897  17.306 -0.3302 -1.3162 -0.8587
  688MPD2    H310233   0.345   2.048  17.184  1.7566  0.4725  1.1856
  688MPD2     N10234   0.697   1.770  17.179  0.4321  0.4728  0.6601
  688MPD2    H510235   0.752   1.839  17.129  0.9546  1.4212  2.5247
  688MPD2    N110236   0.290   1.647  17.414  0.0183 -0.1450 -0.1772
  688MPD2    H710237   0.344   1.563  17.435 -1.6459 -0.6318  2.2204
  689TMC3    C110238   0.147   1.563  17.577  0.1065 -0.3734 -0.2200
  689TMC3    C210239   0.093   1.614  17.691  0.3802 -0.2818 -0.1955
  689TMC3    C310240   0.063   1.529   0.048  0.2438 -0.0909 -0.1877
  689TMC3    C410241   0.149   1.429  17.558 -0.8483  0.0985 -0.2406
  689TMC3    C510242   0.107   1.342  17.659 -0.2907  0.2594 -0.3393
  689TMC3    C610243   0.062   1.394   0.030  0.4374  0.6411 -0.4179
  689TMC3     C10244   0.170   1.666  17.477 -0.2321 -0.5850 -0.3541
  689TMC3     O10245   0.099   1.768  17.483 -0.3562 -0.6123 -0.0220
  689TMC3     H10246   0.097   1.720  17.712  0.0488 -0.3517  0.2178
  689TMC3    H110247   0.184   1.390  17.463 -1.4374  0.0175 -0.4251
  689TMC3    H210248   0.020   1.324   0.102  1.1125 -0.8937 -1.5260
  689TMC3    C710249   0.087   1.198  17.634  0.4402 -0.0805 -0.1783
  689TMC3    C810250   0.016   1.575   0.177  0.5672  0.2609 -0.1462
  689TMC3    O110251   0.047   1.139  17.731 -0.1446 -0.3792 -0.6145
  689TMC3    O210252   0.013   1.493   0.268  0.2806  0.1189  0.1393
  690MPD2     C10253   2.895   3.639  15.727 -0.0078  0.1151  0.0441
  690MPD2    C110254   2.877   3.543  15.627 -0.1511  0.3969 -0.1050
  690MPD2    C210255   2.978   3.525  15.536  0.1843 -0.1593  0.1156
  690MPD2    C310256   3.086   3.607  15.533  0.2154 -0.1025 -0.1708
  690MPD2    C410257   3.104   3.693  15.639 -0.5508  0.3116  0.3261
  690MPD2    C510258   3.011   3.714  15.734  0.1467 -0.1061 -0.2308
  690MPD2     H10259   2.964   3.455  15.455  0.6948 -0.6641  0.4570
  690MPD2    H110260   3.178   3.772  15.650  1.8815 -1.6547 -2.0968
  690MPD2    H210261   2.821   3.649  15.806 -1.1538  0.0749 -1.0245
  690MPD2    H310262   3.027   3.773  15.823 -0.4510 -1.4153  0.7463
  690MPD2     N10263   3.176   3.600  15.423 -0.2371  0.6354 -0.1125
  690MPD2    H510264   3.146   3.539  15.347  1.6294  0.2500 -0.5607
  690MPD2    N110265   2.755   3.459  15.622  0.2285  0.1856 -0.0210
  690MPD2    H710266   2.742   3.384  15.554 -1.6460  0.4258  0.0776
  691TMC3    C110267   2.542   3.388  15.671  0.6755 -0.7065  0.1187
  691TMC3    C210268   2.411   3.421  15.677 -0.3319 -0.1221  0.4219
  691TMC3    C310269   2.320   3.325  15.708 -0.0019 -0.5692  0.1008
  691TMC3    C410270   2.594   3.261  15.699  0.6267  0.5872  0.2783
  691TMC3    C510271   2.500   3.166  15.740  0.0241  0.3041  0.1182
  691TMC3    C610272   2.364   3.202  15.742 -0.4337 -0.5018  0.1368
  691TMC3     C10273   2.636   3.493  15.687  0.5700 -0.1067 -0.0394
  691TMC3     O10274   2.604   3.603  15.727 -0.5908 -0.2935  0.2459
  691TMC3     H10275   2.385   3.527  15.680  1.7522  0.3913  0.3599
  691TMC3    H110276   2.698   3.235  15.716  0.5799  0.5243  0.4734
  691TMC3    H210277   2.292   3.130  15.781 -2.6545  1.8243  0.3154
  691TMC3    C710278   2.542   3.039  15.787  0.1245 -0.1953  0.4400
  691TMC3    C810279   2.189   3.335  15.655 -0.6673  0.0525  0.0258
  691TMC3    O110280   2.662   3.021  15.805 -0.1003 -0.3512  0.1192
  691TMC3    O210281   2.143   3.228  15.605 -0.1273 -0.6532 -0.4224
  692TMC3    C110282   4.147   4.333  15.754  0.8726  0.1874 -0.0296
  692TMC3    C210283   4.257   4.379  15.821  0.4747 -0.1413 -0.4196
  692TMC3    C310284   4.367   4.295  15.855  0.1711 -0.0517  0.5292
  692TMC3    C410285   4.130   4.194  15.745 -0.4400 -0.5120  0.2981
  692TMC3    C510286   4.237   4.117  15.778  0.1911  0.4979 -0.3762
  692TMC3    C610287   4.353   4.163  15.831 -0.4207 -0.5010 -1.0359
  692TMC3     C10288   4.020   4.402  15.789  0.1171 -0.4088 -0.2658
  692TMC3     O10289   4.022   4.491  15.872 -0.1063  0.3195  0.7676
  692TMC3     H10290   4.284   4.482  15.799 -2.1357  0.6081 -0.1233
  692TMC3    H110291   4.042   4.154  15.697 -0.4765 -1.2028  0.9556
  692TMC3    H210292   4.445   4.106  15.836  0.5394  1.2937  2.0223
  692TMC3    C710293   4.229   3.974  15.738  0.0684  0.5448 -0.5461
  692TMC3    C810294   4.403   4.332  15.989 -0.2851 -0.3142  0.3193
  692TMC3    O110295   4.144   3.959  15.650  0.2539  0.0938  0.1010
  692TMC3    O210296   4.443   4.241  16.059  0.4541 -0.0606  0.0041
  693MPD2     C10297   3.742   2.613  10.533 -0.5680 -0.4805  0.0490
  693MPD2    C110298   3.714   2.484  10.556 -0.0588  1.0989 -0.1196
  693MPD2    C210299   3.807   2.403  10.623  0.8725  0.2077  0.1006
  693MPD2    C310300   3.937   2.448  10.651 -0.1535  0.1205 -0.3454
  693MPD2    C410301   3.960   2.585  10.625  0.2638  0.2586  0.1182
  693MPD2    C510302   3.863   2.664  10.583 -0.2551 -0.1589 -0.5619
  693MPD2     H10303   3.778   2.301  10.646 -1.0418  0.4292 -1.4021
  693MPD2    H110304   4.055   2.631  10.648  0.5629 -0.8284  1.0616
  693MPD2    H210305   3.675   2.685  10.487 -2.4061 -2.4260 -0.3035
  693MPD2    H310306   3.880   2.771  10.571 -2.1362  0.3052  0.7901
  693MPD2     N10307   4.040   2.365  10.694  0.7084 -0.0528  0.3637
  693MPD2    H510308   4.131   2.408  10.697  0.7893 -0.3513  2.1176
  693MPD2    N110309   3.584   2.447  10.526  0.0684  0.4585  0.4358
  693MPD2    H710310   3.515   2.516  10.497 -1.1393 -1.5106 -1.3964
  694TMC3    C110311   3.400   2.310  10.537 -0.1111 -0.0691 -1.2499
  694TMC3    C210312   3.353   2.192  10.489  0.6030  0.2537  0.2296
  694TMC3    C310313   3.224   2.161  10.528 -0.3408 -0.3342 -0.7960
  694TMC3    C410314   3.349   2.370  10.650  0.2319 -0.0676  0.3614
  694TMC3    C510315   3.231   2.326  10.695 -0.5463  0.1981 -0.2411
  694TMC3    C610316   3.164   2.224  10.634  0.2115 -0.0693  0.3806
  694TMC3     C10317   3.542   2.317  10.537 -0.0407 -0.3339  0.0608
  694TMC3     O10318   3.603   2.210  10.529 -0.1394  0.0010 -0.4265
  694TMC3     H10319   3.410   2.131  10.421 -1.2913 -0.5919 -0.6086
  694TMC3    H110320   3.410   2.447  10.695  0.1524  0.1927  0.0186
  694TMC3    H210321   3.066   2.188  10.665 -0.2413  1.2066  0.4410
  694TMC3    C710322   3.171   2.388  10.814 -0.4530 -0.3456 -1.0919
  694TMC3    C810323   3.146   2.061  10.447 -0.2997  0.0114 -0.4826
  694TMC3    O110324   3.203   2.506  10.832 -0.4069 -0.3300  0.2931
  694TMC3    O210325   3.047   2.012  10.508  0.3891  0.0579  0.1035
  695MPD2     C10326   0.167   4.362  13.452 -0.6458  0.4510 -0.0401
  695MPD2    C110327   0.091   4.308  13.552 -0.2422 -0.3884  0.3209
  695MPD2    C210328   4.690   4.310  13.546 -0.5678  0.6774  1.0024
  695MPD2    C310329   4.624   4.356  13.435 -0.1692 -0.6146 -0.3449
  695MPD2    C410330   4.701   4.413  13.336  0.6157 -0.3778  0.0828
  695MPD2    C510331   0.097   4.414  13.349  0.5908  0.0760 -0.0148
  695MPD2     H10332   4.626   4.280  13.628  0.9467  1.6278  2.5037
  695MPD2    H110333   4.666   4.456  13.243 -2.5447 -3.0964  0.0394
  695MPD2    H210334   0.275   4.362  13.445 -0.5453  2.0804  1.4213
  695MPD2    H310335   0.150   4.454  13.263 -2.7462  0.5149 -1.8438
  695MPD2     N10336   4.488   4.337  13.439  0.1333  0.1516 -0.0269
  695MPD2    H510337   4.454   4.272  13.509  1.5034  0.0427  0.5209
  695MPD2    N110338   0.150   4.235  13.654  0.4928  0.2475  0.5729
  695MPD2    H710339   0.087   4.185  13.716 -0.1782  2.2086  1.5019
  696TMC3    C110340   4.261   4.344  13.362  0.4892  0.3948 -0.3087
  696TMC3    C210341   4.236   4.219  13.409  0.1925 -0.2290 -0.1500
  696TMC3    C310342   4.104   4.181  13.428  0.1644  0.4947  0.2296
  696TMC3    C410343   4.172   4.436  13.341 -0.1173  0.4189  0.4590
  696TMC3    C510344   4.037   4.399  13.346  0.2727  0.0607 -0.4660
  696TMC3    C610345   4.006   4.263  13.377  1.3250  0.1912  0.9255
  696TMC3     C10346   4.397   4.388  13.346 -0.5159  0.1221 -0.4865
  696TMC3     O10347   4.420   4.467  13.259 -0.0160 -0.0037  0.1423
  696TMC3     H10348   4.305   4.150  13.455 -0.1348 -1.0107 -0.8354
  696TMC3    H110349   4.204   4.538  13.327 -0.9710  0.5691 -0.4380
  696TMC3    H210350   3.905   4.226  13.385  2.0507 -1.9458  0.1872
  696TMC3    C710351   3.922   4.490  13.367  0.0246  0.0797  0.1711
  696TMC3    C810352   4.077   4.163  13.575 -0.4154  0.5771 -0.5740
  696TMC3    O110353   3.816   4.434  13.356 -0.3856 -0.1356  0.1470
  696TMC3    O210354   4.167   4.177  13.656  0.0900  0.4078 -0.5025
  697MPD2     C10355   4.217   1.215  15.675  0.9520 -0.1174 -0.0534
  697MPD2    C110356   4.126   1.218  15.574 -0.0980 -0.1946 -0.7722
  697MPD2    C210357   4.132   1.320  15.484  1.2977  0.3879 -0.2092
  697MPD2    C310358   4.203   1.434  15.511  0.4152 -0.0458  0.5967
  697MPD2    C410359   4.281   1.440  15.620 -0.2265  0.6505 -0.1563
  697MPD2    C510360   4.290   1.329  15.702  0.3237 -0.2501 -0.3491
  697MPD2     H10361   4.085   1.324  15.387 -2.5791 -0.6354  1.6081
  697MPD2    H110362   4.346   1.523  15.643 -0.6042 -0.1605  3.9723
  697MPD2    H210363   4.232   1.124  15.732 -1.2568 -0.5946 -0.2036
  697MPD2    H310364   4.358   1.334  15.786  1.2515 -1.9578 -0.9808
  697MPD2     N10365   4.187   1.542  15.418 -0.5479  0.0854 -0.0003
  697MPD2    H510366   4.117   1.535  15.345 -0.1951 -1.0815 -0.2142
  697MPD2    N110367   4.052   1.100  15.543  0.1972 -0.4048  0.2589
  697MPD2    H710368   4.016   1.104  15.448 -3.3797 -2.6682  1.5167
  698TMC3    C110369   4.221   1.739  15.303  0.3511  0.0674  1.0621
  698TMC3    C210370   4.238   1.871  15.325 -0.7016 -0.8553  0.0752
  698TMC3    C310371   4.250   1.954  15.207 -0.1824 -0.6255  0.5572
  698TMC3    C410372   4.223   1.680  15.179  0.3017  0.7162 -0.3192
  698TMC3    C510373   4.255   1.765  15.075 -0.2612 -0.4270  0.5717
  698TMC3    C610374   4.245   1.902  15.085  0.6036 -0.8792 -0.3624
  698TMC3     C10375   4.259   1.658  15.410  0.1908  0.8469 -0.5228
  698TMC3     O10376   4.341   1.703  15.491  0.3341  0.2271 -0.0324
  698TMC3     H10377   4.251   1.916  15.423 -1.6388  1.2181 -0.7419
  698TMC3    H110378   4.214   1.573  15.165  0.8490  0.7549 -0.9394
  698TMC3    H210379   4.257   1.970  15.002  0.7039  0.7378  0.9780
  698TMC3    C710380   4.263   1.709  14.940 -0.0957  0.0879  0.4532
  698TMC3    C810381   4.255   2.098  15.225 -0.2462 -0.2982  0.2365
  698TMC3    O110382   4.213   1.597  14.915 -0.1958 -0.3296 -0.2129
  698TMC3    O210383   4.234   2.136  15.340  0.4020  0.3026 -0.2024
  699TMC3    C110384   4.163   3.813  12.751 -0.1712  0.0098  0.3706
  699TMC3    C210385   4.227   3.773  12.869 -0.0634 -0.5496  0.2878
  699TMC3    C310386   4.168   3.674  12.946 -0.3828  0.2154  0.7529
  699TMC3    C410387   4.042   3.767  12.711 -0.1714 -0.0182  0.4075
  699TMC3    C510388   3.982   3.674  12.797  0.3250 -0.0876 -0.9916
  699TMC3    C610389   4.052   3.620  12.900  0.2619  0.4263 -0.2632
  699TMC3     C10390   4.238   3.895  12.645  0.4051  0.1607  0.9529
  699TMC3     O10391   4.196   3.887  12.534 -0.0388  0.4439 -0.0260
  699TMC3     H10392   4.326   3.811  12.891 -0.5470  1.2672 -0.5670
  699TMC3    H110393   3.998   3.803  12.619 -0.1006 -0.9401  0.0166
  699TMC3    H210394   4.005   3.547  12.966 -0.8715  0.4460 -1.0610
  699TMC3    C710395   3.836   3.689  12.818 -0.2069  0.6619 -0.3933
  699TMC3    C810396   4.167   3.694  13.091  0.3340 -0.2750  0.0010
  699TMC3    O110397   3.777   3.777  12.761 -0.4494  0.4169  0.2129
  699TMC3    O210398   4.073   3.645  13.154  0.8832 -0.2405 -0.6174
  700TMC3    C110399   2.991   2.159  17.004 -0.7468  0.0721 -0.3694
  700TMC3    C210400   3.015   2.025  17.018 -0.6635  0.5528 -0.1292
  700TMC3    C310401   3.118   1.997  17.103  0.5934  0.5680  0.6719
  700TMC3    C410402   3.048   2.257  17.081  0.5693  0.8165 -0.3109
  700TMC3    C510403   3.149   2.219  17.172 -0.5431  0.4439  0.4113
  700TMC3    C610404   3.188   2.091  17.176  0.2627 -0.4646 -0.5897
  700TMC3     C10405   2.946   2.190  16.869 -0.2803 -0.5759  0.0016
  700TMC3     O10406   2.877   2.116  16.802  0.0880  0.4484  0.3991
  700TMC3     H10407   2.962   1.953  16.957 -0.9550  0.1387  0.6078
  700TMC3    H110408   3.010   2.357  17.066 -0.7985  0.2633 -0.5325
  700TMC3    H210409   3.265   2.053  17.242 -0.1511  0.7954  0.6088
  700TMC3    C710410   3.230   2.325  17.232  0.2156  1.0817 -0.2343
  700TMC3    C810411   3.167   1.863  17.102  0.4238 -0.2741 -0.5259
  700TMC3    O110412   3.311   2.292  17.313  0.3211 -0.3624 -0.0996
  700TMC3    O210413   3.289   1.863  17.121 -0.0439  0.3700  0.2423
  701TMC3    C110414   3.335   0.601  15.656 -0.0482 -0.2540 -0.1117
  701TMC3    C210415   3.360   0.499  15.567 -0.0429  0.4829 -0.4746
  701TMC3    C310416   3.455   0.516  15.470 -0.0781  0.2369  0.2928
  701TMC3    C410417   3.410   0.717  15.658  0.2261  0.0383 -0.0063
  701TMC3    C510418   3.510   0.731  15.568  0.1698  0.7913  0.3535
  701TMC3    C610419   3.537   0.630  15.473 -0.0871 -0.4892 -0.0441
  701TMC3     C10420   3.240   0.584  15.758 -0.5132 -0.0320 -0.0688
  701TMC3     O10421   3.210   0.466  15.780  0.0694 -0.5620  0.3196
  701TMC3     H10422   3.300   0.409  15.572  2.7288 -1.3898 -0.7170
  701TMC3    H110423   3.414   0.790  15.738  2.5917 -0.5403  0.3986
  701TMC3    H210424   3.612   0.652  15.398  0.5913 -0.2123  0.7296
  701TMC3    C710425   3.566   0.862  15.537 -0.4477  0.4488 -0.1213
  701TMC3    C810426   3.500   0.406  15.379  0.8633 -0.7701 -0.3855
  701TMC3    O110427   3.569   0.895  15.421  0.2706 -0.0892 -0.0743
  701TMC3    O210428   3.601   0.432  15.308 -0.5214 -0.5827 -0.1233
  702MPD2     C10429   2.657   2.830  10.330 -0.1427  0.1030 -0.4998
  702MPD2    C110430   2.613   2.934  10.406 -0.2930  0.0285 -0.1983
  702MPD2    C210431   2.568   3.049  10.344 -0.9616  0.7738 -0.1882
  702MPD2    C310432   2.568   3.052  10.202  0.2948  0.7729 -0.1275
  702MPD2    C410433   2.623   2.943  10.130  0.7914 -0.4008  0.4718
  702MPD2    C510434   2.672   2.835  10.192 -0.1149  0.5329 -0.5551
  702MPD2     H10435   2.522   3.125  10.406 -1.2580  1.2852 -1.0248
  702MPD2    H110436   2.633   2.949  10.022  1.3957 -0.7944  0.5042
  702MPD2    H210437   2.707   2.746  10.377  1.7107  1.1072 -0.6383
  702MPD2    H310438   2.726   2.762  10.133  0.1114  0.6108 -0.4428
  702MPD2     N10439   2.498   3.160  10.143 -0.2372  0.5734  0.1378
  702MPD2    H510440   2.490   3.241  10.204  1.3789  0.5986  0.3307
  702MPD2    N110441   2.590   2.922  10.541 -1.0408  0.6539 -0.2211
  702MPD2    H710442   2.563   3.002  10.597 -3.0302 -0.9162  1.0731
  703TMC3    C110443   2.341   3.266  10.023 -0.2860  1.3937  0.2176
  703TMC3    C210444   2.211   3.223  10.054 -1.1480 -0.2517  0.3499
  703TMC3    C310445   2.152   3.282  10.168  0.0460 -0.8992 -0.3362
  703TMC3    C410446   2.389   3.383  10.076 -0.2699 -0.8335  0.7663
  703TMC3    C510447   2.319   3.447  10.174  0.6404 -0.5457  0.1477
  703TMC3    C610448   2.206   3.387  10.234 -0.3708  0.2640 -0.8461
  703TMC3     C10449   2.445   3.162  10.017 -0.2126  0.4685 -0.2650
  703TMC3     O10450   2.432   3.070   9.940 -0.1766  0.0552  0.4516
  703TMC3     H10451   2.164   3.145   9.996 -1.9353 -1.2940  2.3849
  703TMC3    H110452   2.492   3.413  10.059  0.3423 -1.8106  2.7612
  703TMC3    H210453   2.163   3.416  10.329 -1.5109  1.6295 -1.7755
  703TMC3    C710454   2.408   3.520  10.265  0.0937 -0.2479  0.3445
  703TMC3    C810455   2.050   3.193  10.233 -0.1502  0.1293 -0.3800
  703TMC3    O110456   2.526   3.489  10.264 -0.0070 -0.2473 -0.1817
  703TMC3    O210457   2.030   3.088  10.169  0.2696  0.3724 -0.3907
  704TMC3    C110458   1.083   0.965  12.004 -0.3085 -0.2054  0.4163
  704TMC3    C210459   1.109   0.920  11.881 -0.1963  0.0162  0.4508
  704TMC3    C310460   1.146   0.793  11.860 -0.3132 -0.1034 -0.0393
  704TMC3    C410461   1.127   0.896  12.111  0.1426 -0.3073  0.0855
  704TMC3    C510462   1.183   0.771  12.090  0.0368  0.2121 -0.4990
  704TMC3    C610463   1.189   0.717  11.959 -0.1815  0.3440 -0.1541
  704TMC3     C10464   0.944   0.998  12.029 -0.1714  0.6310  0.2033
  704TMC3     O10465   0.896   0.973  12.136  0.8974 -0.5668  0.1450
  704TMC3     H10466   1.092   0.983  11.795 -0.6496  1.1314  1.3578
  704TMC3    H110467   1.105   0.936  12.210  0.3529  0.0210 -0.0011
  704TMC3    H210468   1.219   0.616  11.933 -1.4354  0.3587 -1.6958
  704TMC3    C710469   1.169   0.668  12.188  0.2503  0.1212 -0.7505
  704TMC3    C810470   1.058   0.721  11.768  0.2661 -0.1149  0.4208
  704TMC3    O110471   1.104   0.570  12.152  0.1124  0.0652  0.0521
  704TMC3    O210472   1.010   0.609  11.801 -0.4955 -0.4677 -0.3542
  705MPD2     C10473   4.469   4.057  16.491 -0.0075  0.5424  0.0157
  705MPD2    C110474   4.496   4.188  16.519 -0.5373 -0.3219 -0.4463
  705MPD2    C210475   4.411   4.265  16.595 -0.4098 -0.8372  0.6099
  705MPD2    C310476   4.285   4.216  16.619 -0.0799 -0.0469 -0.1050
  705MPD2    C410477   4.254   4.087  16.584 -0.7845  0.6853  0.4170
  705MPD2    C510478   4.350   4.004  16.528 -0.4442  0.3824 -0.4148
  705MPD2     H10479   4.434   4.367  16.625 -0.5445 -0.1341 -1.6854
  705MPD2    H110480   4.153   4.053  16.608  0.2779 -0.9010  2.6588
  705MPD2    H210481   4.535   3.987  16.442 -1.1552 -2.7163  3.1332
  705MPD2    H310482   4.326   3.904  16.493  0.9596 -0.0586 -0.1031
  705MPD2     N10483   4.183   4.300  16.671  0.7272 -0.9346  0.6578
  705MPD2    H510484   4.095   4.254  16.694  0.9513 -1.4068  0.5657
  705MPD2    N110485   4.612   4.255  16.471  0.3653 -0.2363  0.5471
  705MPD2    H710486   4.628   4.348  16.507  0.4793 -1.2605  3.1130
  706TMC3    C110487   0.269   4.270  16.190  0.0666  0.0101  0.2062
  706TMC3    C210488   0.258   4.402  16.164  0.1832  0.3339 -0.1071
  706TMC3    C310489   0.162   4.475  16.236 -0.5369 -0.4562  0.8467
  706TMC3    C410490   0.185   4.209  16.275 -0.1897  0.3398  0.1132
  706TMC3    C510491   0.083   4.279  16.334 -0.9462  0.4550  0.4405
  706TMC3    C610492   0.069   4.416  16.315 -0.8838  0.3455  0.0666
  706TMC3     C10493   0.394   4.203  16.143 -0.1253 -0.0161 -0.5115
  706TMC3     O10494   0.434   4.115  16.212 -0.4032 -0.5843 -0.0347
  706TMC3     H10495   0.321   4.456  16.094  0.2291  1.8570  1.1012
  706TMC3    H110496   0.216   4.108  16.297 -2.4352 -0.5566 -0.7856
  706TMC3    H210497   4.719   4.468  16.351 -0.1437  0.3398  1.8735
  706TMC3    C710498   4.703   4.200  16.378 -0.5213  0.2863 -0.2529
  706TMC3    C810499   0.136   4.606  16.183  0.1438 -0.2308  0.4939
  706TMC3    O110500   4.706   4.087  16.328 -0.0563  0.2574  0.1324
  706TMC3    O210501   0.026   4.653  16.152  0.1637  0.4149  0.0015
  707TMC3    C110502   2.040   3.031   0.403  0.8209  0.6753  0.0993
  707TMC3    C210503   2.039   2.909   0.463 -0.2467  0.2532  0.1409
  707TMC3    C310504   1.997   2.799   0.395  0.8004 -0.0592 -0.4901
  707TMC3    C410505   2.008   3.042   0.270 -0.6207  0.1113 -0.2117
  707TMC3    C510506   1.942   2.931   0.211  0.0623  0.7341 -0.3421
  707TMC3    C610507   1.947   2.812   0.267  0.4455 -0.4952 -0.4058
  707TMC3     C10508   2.120   3.141   0.461  0.0775  0.1119  0.3995
  707TMC3     O10509   2.190   3.106   0.554 -0.1537 -0.6613  0.0223
  707TMC3     H10510   2.110   2.895   0.544 -0.2581  1.6147  0.3825
  707TMC3    H110511   2.034   3.132   0.215  1.1443 -0.8462 -0.9819
  707TMC3    H210512   1.923   2.714   0.226 -2.4712  0.8152 -1.8234
  707TMC3    C710513   1.869   2.944   0.088  0.1731  0.7379  0.4325
  707TMC3    C810514   2.010   2.668   0.456 -0.7406 -0.1928  0.0957
  707TMC3    O110515   1.897   3.048   0.028  0.1917 -0.4937  0.4310
  707TMC3    O210516   1.987   2.575   0.382 -0.1372  0.1277 -0.2408
  708MPD2     C10517   3.216   2.409  13.618  0.5532  0.4304  0.4480
  708MPD2    C110518   3.115   2.460  13.691 -0.5155  0.2151  0.6745
  708MPD2    C210519   3.119   2.440  13.827  0.5016 -0.4038 -0.4741
  708MPD2    C310520   3.224   2.386  13.892 -0.0546 -0.7664 -0.1653
  708MPD2    C410521   3.328   2.336  13.814  0.6843  0.6743  0.3170
  708MPD2    C510522   3.328   2.355  13.677  0.3629 -0.2312 -0.3245
  708MPD2     H10523   3.034   2.482  13.881 -0.3785 -2.9655  0.1115
  708MPD2    H110524   3.411   2.277  13.851  3.2870  2.2762 -2.9599
  708MPD2    H210525   3.224   2.417  13.510  0.2589  2.5057  0.5793
  708MPD2    H310526   3.406   2.320  13.610  0.0881  2.4982 -2.0705
  708MPD2     N10527   3.213   2.346  14.032  0.5172  0.2028  0.1487
  708MPD2    H510528   3.297   2.314  14.080 -0.4614 -1.3768  0.7914
  708MPD2    N110529   3.004   2.523  13.632 -0.1923 -0.0759  0.1276
  708MPD2    H710530   2.932   2.563  13.691 -1.1120 -1.1595 -0.2620
  709TMC3    C110531   2.856   2.623  13.481 -0.3178  0.3638 -0.0971
  709TMC3    C210532   2.755   2.557  13.417  0.1844 -0.0619 -0.1239
  709TMC3    C310533   2.632   2.571  13.473  0.3844 -0.0824  0.0611
  709TMC3    C410534   2.838   2.710  13.588  0.5307 -0.5363  0.0711
  709TMC3    C510535   2.716   2.711  13.644 -0.7795  0.1641 -0.5448
  709TMC3    C610536   2.612   2.642  13.586 -1.1173 -0.2975 -0.2100
  709TMC3     C10537   2.979   2.536  13.494 -0.3732 -0.0887 -0.3492
  709TMC3     O10538   3.023   2.480  13.398  0.3760  0.0812 -0.3663
  709TMC3     H10539   2.779   2.471  13.355  0.0023 -0.7075  0.6954
  709TMC3    H110540   2.924   2.759  13.632  1.0633 -0.7673 -0.7054
  709TMC3    H210541   2.511   2.658  13.623 -1.9013 -4.0393 -0.7262
  709TMC3    C710542   2.726   2.685  13.788  0.2612  0.0113 -0.2638
  709TMC3    C810543   2.521   2.517  13.398  0.0607 -0.1087 -0.6337
  709TMC3    O110544   2.836   2.646  13.821  0.7603 -0.5155 -0.2152
  709TMC3    O210545   2.413   2.508  13.451  0.7621 -0.2976  0.8822
  710TMC3    C110546   3.978   3.849  17.566  0.1278 -0.8442  0.6787
  710TMC3    C210547   4.067   3.833  17.463 -0.5901  0.1538 -0.0446
  710TMC3    C310548   4.125   3.715  17.431  0.0823  0.2972  0.1440
  710TMC3    C410549   3.931   3.738  17.637 -0.1050  0.2496  0.0074
  710TMC3    C510550   3.984   3.616  17.595 -0.3919  0.0106 -0.1575
  710TMC3    C610551   4.088   3.600  17.506 -0.1834 -0.3521 -0.9848
  710TMC3     C10552   3.912   3.972  17.575  0.4960 -0.2012  0.3679
  710TMC3     O10553   3.911   4.052  17.478  0.0266 -0.3386 -0.1316
  710TMC3     H10554   4.115   3.924  17.427 -0.2556 -0.9330 -2.3447
  710TMC3    H110555   3.851   3.736  17.710 -0.7794 -0.0586 -0.7411
  710TMC3    H210556   4.134   3.502  17.500 -1.1859 -0.9136  0.7300
  710TMC3    C710557   3.973   3.511  17.694 -0.6684  0.1350 -0.5217
  710TMC3    C810558   4.237   3.716  17.337 -0.3851 -0.9521  0.2129
  710TMC3    O110559   3.916   3.543   0.047 -0.6739  0.6555  0.3019
  710TMC3    O210560   4.251   3.808  17.262  0.0273 -0.0401 -0.2372
  711TMC3    C110561   3.750   0.330  14.848 -0.4386 -0.1594  0.3655
  711TMC3    C210562   3.760   0.322  14.982 -0.6422  0.3036  0.3399
  711TMC3    C310563   3.874   0.372  15.044  0.3641 -0.2801 -1.4700
  711TMC3    C410564   3.865   0.340  14.778 -0.4742 -0.4814 -0.3524
  711TMC3    C510565   3.985   0.368  14.841 -0.1977  0.2583  0.0746
  711TMC3    C610566   3.983   0.408  14.972 -0.0336  0.0601  0.1175
  711TMC3     C10567   3.646   0.250  14.794 -0.2080 -0.3909  0.3236
  711TMC3     O10568   3.676   0.157  14.718 -0.1957 -0.5272  0.1104
  711TMC3     H10569   3.672   0.281  15.030 -2.2428  1.3447 -1.6691
  711TMC3    H110570   3.870   0.324  14.671  0.0606  1.1698 -0.5670
  711TMC3    H210571   4.073   0.450  15.016  0.9913 -0.0167 -1.9152
  711TMC3    C710572   4.084   0.267  14.834 -0.3165  1.0040 -0.2808
  711TMC3    C810573   3.905   0.288  15.164 -0.4396 -0.1670 -0.0742
  711TMC3    O110574   4.192   0.300  14.879 -0.0778  0.2158  0.2773
  711TMC3    O210575   3.831   0.190  15.181 -0.8781  0.2722 -0.3747
  712MPD2     C10576   0.872   1.002  13.469  0.3973 -0.2623  0.3445
  712MPD2    C110577   0.769   1.067  13.407 -0.7109  0.2553 -0.6947
  712MPD2    C210578   0.776   1.198  13.359  0.0037 -0.2509 -0.0616
  712MPD2    C310579   0.904   1.264  13.360  0.5381  0.2917  1.1230
  712MPD2    C410580   1.009   1.192  13.418 -0.1596 -0.3826 -0.5630
  712MPD2    C510581   0.992   1.074  13.485 -0.0575  0.1663  0.1090
  712MPD2     H10582   0.695   1.247  13.306  0.0402 -1.5781 -1.3468
  712MPD2    H110583   1.106   1.241  13.423 -0.8334  1.0406 -1.4395
  712MPD2    H210584   0.871   0.900  13.504 -1.1141 -1.1306 -2.2100
  712MPD2    H310585   1.079   1.020  13.522 -0.8417 -1.2406 -0.0859
  712MPD2     N10586   0.922   1.397  13.312  0.3497 -0.0960  0.5759
  712MPD2    H510587   1.012   1.442  13.321  0.9349 -0.4587 -3.6094
  712MPD2    N110588   0.639   0.997  13.396 -0.3963 -0.0121 -0.1313
  712MPD2    H710589   0.555   1.050  13.379 -0.2143  0.4553  0.4443
  713TMC3    C110590   0.872   1.603  13.187 -0.5893  0.3661  0.9925
  713TMC3    C210591   0.987   1.653  13.234 -0.3803 -0.4700 -0.3782
  713TMC3    C310592   1.037   1.758  13.158  0.0829 -0.1141 -0.0938
  713TMC3    C410593   0.797   1.652  13.074 -0.0358 -0.0321  0.0455
  713TMC3    C510594   0.863   1.755  13.002 -0.3183  0.2933 -0.0515
  713TMC3    C610595   0.979   1.805  13.045  0.0402 -0.1015  0.5173
  713TMC3     C10596   0.825   1.471  13.240 -0.0212  0.3737 -0.4292
  713TMC3     O10597   0.708   1.445  13.203 -0.1037  0.4357  0.0104
  713TMC3     H10598   1.038   1.629  13.326  2.8604  0.3834 -1.9407
  713TMC3    H110599   0.701   1.614  13.042 -0.0189 -0.4628  0.5130
  713TMC3    H210600   1.026   1.888  12.994  0.6191 -0.3741  0.6073
  713TMC3    C710601   0.780   1.836  12.910  0.2246 -0.2587  0.5241
  713TMC3    C810602   1.167   1.821  13.199 -0.4004  0.2931  0.3144
  713TMC3    O110603   0.661   1.819  12.915 -0.0521  0.1337  0.6548
  713TMC3    O210604   1.243   1.870  13.117 -0.0641  0.2692  0.9934
  714MPD2     C10605   2.481   0.171   1.006  0.3797 -0.7841 -0.6219
  714MPD2    C110606   2.435   0.043   1.007  0.0378  0.4654 -0.2748
  714MPD2    C210607   2.298   0.028   1.029  0.1108 -0.1080 -0.3603
  714MPD2    C310608   2.209   0.132   1.051 -0.3481 -0.2891  0.4905
  714MPD2    C410609   2.261   0.261   1.057  0.6523 -0.0186  0.0505
  714MPD2    C510610   2.399   0.279   1.030  0.1568 -0.3011 -0.3043
  714MPD2     H10611   2.253   4.668   1.014 -0.7568  0.1393  0.5639
  714MPD2    H110612   2.203   0.342   1.099  0.8071 -0.3844  0.9757
  714MPD2    H210613   2.584   0.203   0.993  0.3852 -1.1204 -1.3889
  714MPD2    H310614   2.441   0.379   1.029 -1.3465  0.3157 -1.7698
  714MPD2     N10615   2.078   0.106   1.094  0.5387  0.7646  0.0993
  714MPD2    H510616   2.039   0.012   1.093  0.0950  0.9444  0.8726
  714MPD2    N110617   2.531   4.681   0.999  0.2442 -0.0160  0.2428
  714MPD2    H710618   2.630   4.703   0.999  0.2981 -0.2816 -0.8484
  715TMC3    C110619   2.626   4.476   0.995 -0.0811 -0.3757 -0.4379
  715TMC3    C210620   2.648   4.372   0.914 -0.0977 -0.5391 -0.3677
  715TMC3    C310621   2.763   4.297   0.922  0.1932 -0.0853  0.3593
  715TMC3    C410622   2.714   4.515   1.089 -0.4305  1.1117 -0.1581
  715TMC3    C510623   2.827   4.444   1.096  0.5152 -0.3576  0.4881
  715TMC3    C610624   2.850   4.332   1.020  0.3101  0.2479 -0.5206
  715TMC3     C10625   2.504   4.547   0.988  0.5294  0.6427 -0.1455
  715TMC3     O10626   2.397   4.496   0.958 -0.1747 -0.0599 -0.1079
  715TMC3     H10627   2.587   4.348   0.827 -2.8740 -0.4471  1.5524
  715TMC3    H110628   2.689   4.595   1.158 -2.7561  1.7849 -1.8100
  715TMC3    H210629   2.926   4.261   1.052  0.2707  0.1459 -0.6535
  715TMC3    C710630   2.943   4.502   1.170 -0.4507  0.6998 -0.1461
  715TMC3    C810631   2.789   4.190   0.828 -0.2623 -0.2621 -0.5854
  715TMC3    O110632   3.034   4.428   1.186  0.1926 -0.1209 -0.4288
  715TMC3    O210633   2.694   4.158   0.758 -0.3226 -0.5380  0.0268
  716MPD2     C10634   2.901   4.085   9.731  0.6747  0.1909 -0.7104
  716MPD2    C110635   2.805   4.048   9.634 -0.1461  0.3930  0.4063
  716MPD2    C210636   2.802   3.918   9.592 -0.2325  0.3420 -0.0005
  716MPD2    C310637   2.880   3.820   9.650  0.8634 -0.5850 -0.1166
  716MPD2    C410638   2.958   3.852   9.755 -0.0861 -0.1268  0.8280
  716MPD2    C510639   2.960   3.982   9.802  0.9111 -0.6074 -0.1427
  716MPD2     H10640   2.737   3.894   9.509 -2.9542 -0.8075  2.4579
  716MPD2    H110641   3.019   3.775   9.800  0.1059 -1.0826 -1.0720
  716MPD2    H210642   2.910   4.187   9.767  0.5413 -0.4966  1.2937
  716MPD2    H310643   3.016   4.008   9.891  0.8903  1.4610 -0.7503
  716MPD2     N10644   2.873   3.686   9.611 -0.0285 -0.4975 -0.3381
  716MPD2    H510645   2.950   3.639   9.657  0.9384 -1.1193 -2.6219
  716MPD2    N110646   2.725   4.146   9.574  0.1705  0.7959 -0.2721
  716MPD2    H710647   2.744   4.243   9.597 -1.1374  0.3317  2.7917
  717TMC3    C110648   2.804   3.479   9.516  0.7749  0.2613  0.1097
  717TMC3    C210649   2.693   3.404   9.490 -0.2711  0.6472  0.2962
  717TMC3    C310650   2.712   3.276   9.454 -0.1547 -0.1319 -0.2574
  717TMC3    C410651   2.930   3.430   9.514  0.4458  0.2808  0.2433
  717TMC3    C510652   2.938   3.296   9.470 -0.3087  0.5523  0.2595
  717TMC3    C610653   2.829   3.216   9.444 -0.1538  0.5398 -0.1268
  717TMC3     C10654   2.780   3.621   9.535  0.1447 -0.6223  0.3743
  717TMC3     O10655   2.677   3.663   9.484 -0.6139  0.2082 -0.7805
  717TMC3     H10656   2.594   3.446   9.500 -0.0138  1.0849  1.0421
  717TMC3    H110657   3.016   3.496   9.522  1.5378 -1.0263 -0.8955
  717TMC3    H210658   2.838   3.110   9.424  0.3966  0.4785  0.4433
  717TMC3    C710659   3.056   3.239   9.526  0.3984 -0.4414 -0.2543
  717TMC3    C810660   2.592   3.205   9.409  0.3926 -0.2136 -0.2590
  717TMC3    O110661   3.049   3.124   9.561  0.3813 -0.0347  0.1702
  717TMC3    O210662   2.491   3.263   9.441 -0.2227  0.1355  0.0981
  718MPD2     C10663   1.920   1.397  12.695 -1.0228 -0.8294 -0.7647
  718MPD2    C110664   1.811   1.323  12.681 -0.1437 -0.7481  0.7361
  718MPD2    C210665   1.804   1.206  12.754 -0.0490 -0.5009  0.2539
  718MPD2    C310666   1.904   1.168  12.838 -0.0458  0.0144 -0.0961
  718MPD2    C410667   2.025   1.238  12.845 -0.3407 -0.3421 -0.5421
  718MPD2    C510668   2.029   1.352  12.773  0.8942  0.3676 -0.3933
  718MPD2     H10669   1.717   1.143  12.740 -1.1699  0.9778  0.6822
  718MPD2    H110670   2.111   1.216  12.907 -0.7235 -0.8380 -0.1884
  718MPD2    H210671   1.923   1.491  12.642  0.3059  1.4841  3.3621
  718MPD2    H310672   2.108   1.426  12.781  0.4920  0.9511 -1.6975
  718MPD2     N10673   1.882   1.051  12.906  0.3564 -0.2374 -0.2163
  718MPD2    H510674   1.794   1.004  12.891 -1.5857  3.6980 -1.1131
  718MPD2    N110675   1.711   1.365  12.586  0.3858 -0.4095  0.0114
  718MPD2    H710676   1.720   1.460  12.554 -3.0174  0.7353  2.4899
  719TMC3    C110677   1.533   1.322  12.433 -0.3555  0.7701  0.0673
  719TMC3    C210678   1.460   1.213  12.404  0.6031 -0.2359 -0.0426
  719TMC3    C310679   1.458   1.154  12.281 -0.4890  0.6276  0.8343
  719TMC3    C410680   1.598   1.390  12.332 -0.4076 -0.3366  0.1140
  719TMC3    C510681   1.591   1.339  12.207  0.3611  0.3567 -0.0350
  719TMC3    C610682   1.516   1.222  12.179 -0.0081  0.7902  0.3832
  719TMC3     C10683   1.618   1.273  12.539  0.1120  0.9435  0.0982
  719TMC3     O10684   1.617   1.152  12.551  0.0963 -0.1716  0.2978
  719TMC3     H10685   1.397   1.166  12.478  1.8144 -0.6693  0.7155
  719TMC3    H110686   1.664   1.475  12.345 -1.1435  0.0764  1.1334
  719TMC3    H210687   1.520   1.188  12.076  1.2897  1.5270  0.1941
  719TMC3    C710688   1.669   1.401  12.107 -0.9226  0.2530  0.3138
  719TMC3    C810689   1.471   1.012  12.271 -0.4056  0.9036 -0.7230
  719TMC3    O110690   1.787   1.373  12.105  0.0914 -0.0342  0.0807
  719TMC3    O210691   1.441   0.953  12.167  0.7051  0.4431 -0.6558
  720MPD2     C10692   0.303   3.084  13.938 -0.4830 -0.3792 -0.4136
  720MPD2    C110693   0.377   3.139  13.840  0.2226 -0.3672 -0.6437
  720MPD2    C210694   0.512   3.149  13.852  0.5742  0.6960 -0.3036
  720MPD2    C310695   0.574   3.092  13.964 -0.3225  0.1364  1.1756
  720MPD2    C410696   0.502   3.019  14.054  0.5357  0.7238 -0.1218
  720MPD2    C510697   0.366   3.026  14.046  0.1697 -0.0003 -0.0055
  720MPD2     H10698   0.582   3.205  13.792 -0.3179  1.2121 -0.8688
  720MPD2    H110699   0.542   2.966  14.139 -0.6596  1.5185  0.9318
  720MPD2    H210700   0.195   3.076  13.930 -0.7121  0.2837  2.0201
  720MPD2    H310701   0.303   2.990  14.127  2.0986 -1.2522  0.9303
  720MPD2     N10702   0.718   3.098  13.962 -0.3882  0.3524  0.3544
  720MPD2    H510703   0.759   3.155  13.888 -1.1119 -0.5292 -0.7275
  720MPD2    N110704   0.314   3.213  13.734  0.0153 -0.0221 -0.4920
  720MPD2    H710705   0.212   3.214  13.732 -0.0266  0.3530  1.3636
  721TMC3    C110706   0.943   3.066  14.052 -0.1007  0.4712 -0.2056
  721TMC3    C210707   1.006   3.083  14.172 -0.5148 -0.3927 -0.4236
  721TMC3    C310708   1.132   3.122  14.174 -0.6778  0.3497 -0.0224
  721TMC3    C410709   1.007   3.071  13.935  0.4552 -0.3821 -0.1111
  721TMC3    C510710   1.141   3.107  13.944 -0.4592  0.3564 -0.7104
  721TMC3    C610711   1.206   3.135  14.061  0.3852  0.6326 -0.0463
  721TMC3     C10712   0.801   3.063  14.070  0.5506  0.0685 -0.1425
  721TMC3     O10713   0.766   3.021  14.180 -0.1161  0.0302  0.1313
  721TMC3     H10714   0.958   3.060  14.266  0.1743 -0.3333 -0.0583
  721TMC3    H110715   0.954   3.067  13.841  3.8053  0.5128 -2.0270
  721TMC3    H210716   1.311   3.163  14.055  0.2124  0.7550 -2.4510
  721TMC3    C710717   1.223   3.129  13.826  0.1375 -0.3787 -0.0584
  721TMC3    C810718   1.193   3.157  14.300 -0.5924 -0.4245 -0.1383
  721TMC3    O110719   1.318   3.203  13.838  0.0520  0.1734  0.0459
  721TMC3    O210720   1.313   3.159  14.294 -0.4646  0.0806 -0.1385
  722MPD2     C10721   4.658   1.636  12.517  0.6334  0.9196 -0.5736
  722MPD2    C110722   4.611   1.764  12.527 -0.3961 -0.0646 -0.6244
  722MPD2    C210723   4.498   1.793  12.598 -0.9318 -0.1417  0.2034
  722MPD2    C310724   4.435   1.694  12.664  0.3196 -0.2478  0.7495
  722MPD2    C410725   4.476   1.562  12.648  0.5756 -0.0383 -0.4906
  722MPD2    C510726   4.593   1.535  12.576  0.1716 -0.5414 -0.0571
  722MPD2     H10727   4.472   1.898  12.603 -0.0902  0.0051  1.6082
  722MPD2    H110728   4.408   1.483  12.678  1.6418 -0.0933  1.8065
  722MPD2    H210729   0.009   1.619  12.457  0.7776  0.3889 -0.2069
  722MPD2    H310730   4.622   1.435  12.547 -1.4591 -1.1574  0.4423
  722MPD2     N10731   4.329   1.737  12.750  0.1336 -0.1428  0.2732
  722MPD2    H510732   4.305   1.834  12.764  4.4962  1.1257 -1.2211
  722MPD2    N110733   4.680   1.867  12.468  0.3784 -0.3053  0.1437
  722MPD2    H710734   4.628   1.953  12.459 -0.9643 -0.7546  3.3980
  723TMC3    C110735   4.160   1.718  12.907 -0.3053  0.0004 -0.4123
  723TMC3    C210736   4.036   1.697  12.889  0.3189  0.0693  0.7843
  723TMC3    C310737   3.947   1.774  12.963 -0.0107  0.1351  0.4095
  723TMC3    C410738   4.219   1.818  12.979  0.1674  0.1020  0.1536
  723TMC3    C510739   4.129   1.884  13.058 -0.9587 -0.0131 -0.0627
  723TMC3    C610740   3.999   1.865  13.048 -0.2236 -0.0114 -0.9225
  723TMC3     C10741   4.246   1.649  12.813  0.2141  0.0750 -0.9738
  723TMC3     O10742   4.235   1.525  12.802 -0.0211 -0.7919  0.2055
  723TMC3     H10743   4.004   1.618  12.822  2.0918  0.0320 -0.0019
  723TMC3    H110744   4.323   1.811  13.010 -0.4540  0.7059  2.3687
  723TMC3    H210745   3.935   1.934  13.102  0.1896  0.1282 -0.6121
  723TMC3    C710746   4.185   2.008  13.114  0.6784  0.3508  0.5268
  723TMC3    C810747   3.804   1.761  12.945 -0.3665 -0.4816 -0.1041
  723TMC3    O110748   4.296   2.038  13.072  0.0105  0.5851 -0.8587
  723TMC3    O210749   3.738   1.844  13.006 -0.5118  0.1097 -0.5604
  724TMC3    C110750   4.702   3.881   9.999 -0.7322  0.5156 -0.1883
  724TMC3    C210751   4.631   3.981  10.061 -0.5863 -0.2338 -0.2819
  724TMC3    C310752   4.601   4.091   9.986 -0.5492 -0.3548 -0.1718
  724TMC3    C410753   4.709   3.863   9.864  0.0967 -0.2463  0.4767
  724TMC3    C510754   4.659   3.968   9.783 -0.4677  0.1569 -0.1247
  724TMC3    C610755   4.599   4.083   9.840  0.0078 -0.3527 -1.0561
  724TMC3     C10756   0.045   3.790  10.087 -0.5840 -0.1027 -0.5394
  724TMC3     O10757   0.130   3.718  10.035 -0.1572 -0.2259  0.1240
  724TMC3     H10758   4.641   3.989  10.169 -2.7507 -0.7854 -0.0488
  724TMC3    H110759   0.035   3.788   9.820  1.8345  0.9370  0.9990
  724TMC3    H210760   4.556   4.162   9.779  2.4308 -0.0567 -2.3867
  724TMC3    C710761   4.619   3.946   9.644 -0.2291  0.7926  0.4083
  724TMC3    C810762   4.564   4.216  10.043  0.6680  0.1537 -0.1599
  724TMC3    O110763   4.559   4.033   9.579 -0.1903 -0.3547 -0.2524
  724TMC3    O210764   4.518   4.211  10.156 -0.7627 -0.4325 -0.6235
  725TMC3    C110765   1.452   3.344  12.838  0.1574 -0.2618  0.5845
  725TMC3    C210766   1.327   3.382  12.801 -0.1433 -0.4008 -0.4425
  725TMC3    C310767   1.238   3.275  12.794 -0.5541 -0.1488 -0.0805
  725TMC3    C410768   1.490   3.221  12.887  0.3932  0.8697  0.5892
  725TMC3    C510769   1.390   3.126  12.889  0.0587 -0.5928  0.2733
  725TMC3    C610770   1.266   3.147  12.829 -0.2263  0.2124  0.0771
  725TMC3     C10771   1.548   3.442  12.852  0.5432 -0.4449  0.0584
  725TMC3     O10772   1.521   3.560  12.877  0.2720 -0.1881  0.4155
  725TMC3     H10773   1.306   3.489  12.797  0.5019 -0.0812  4.3633
  725TMC3    H110774   1.582   3.212  12.943  0.7849  0.2105 -0.1662
  725TMC3    H210775   1.193   3.067  12.827 -0.2494  0.1963  1.3962
  725TMC3    C710776   1.420   2.987  12.916 -0.3272 -0.0439 -0.8526
  725TMC3    C810777   1.125   3.285  12.699  0.5176 -0.2127 -0.7424
  725TMC3    O110778   1.359   2.902  12.857  0.1430 -0.6948  0.4717
  725TMC3    O210779   1.058   3.189  12.668  1.4151  0.1271  0.4767
  726MPD2     C10780   3.661   0.552  10.605  0.1831 -0.3775 -0.0959
  726MPD2    C110781   3.550   0.558  10.518 -0.2940 -0.2953  0.1384
  726MPD2    C210782   3.436   0.489  10.559 -0.4008 -0.2378  0.1809
  726MPD2    C310783   3.420   0.440  10.692  0.2485 -0.1477 -0.5591
  726MPD2    C410784   3.530   0.438  10.773 -0.4788 -0.0634 -0.0368
  726MPD2    C510785   3.646   0.488  10.725 -0.5998 -0.7782  0.4878
  726MPD2     H10786   3.356   0.485  10.485 -0.2603 -5.1074  0.2488
  726MPD2    H110787   3.519   0.401  10.874 -2.0228  2.5122  0.7302
  726MPD2    H210788   3.758   0.599  10.593  0.3317 -0.9338 -1.0791
  726MPD2    H310789   3.734   0.479  10.787  1.2107 -1.6183 -2.2211
  726MPD2     N10790   3.299   0.394  10.749  0.3017 -0.2302 -0.3525
  726MPD2    H510791   3.306   0.369  10.847 -2.5447 -0.2291 -0.1314
  726MPD2    N110792   3.555   0.623  10.395  0.2615  0.5693 -0.1243
  726MPD2    H710793   3.467   0.621  10.345 -0.4686 -2.2668  1.2494
  727TMC3    C110794   3.606   0.799  10.261 -0.3476  0.0220 -0.0586
  727TMC3    C210795   3.698   0.884  10.217  0.0164 -0.4067 -0.0299
  727TMC3    C310796   3.661   1.015  10.178 -0.0463  0.0761  0.3992
  727TMC3    C410797   3.470   0.833  10.253  0.0533 -0.3251 -0.5694
  727TMC3    C510798   3.445   0.960  10.207  0.1667  0.8195  0.6221
  727TMC3    C610799   3.534   1.060  10.167 -0.1609 -0.2762 -0.2503
  727TMC3     C10800   3.653   0.699  10.352  0.0062 -0.1648  0.3846
  727TMC3     O10801   3.774   0.692  10.373  0.1652 -0.0439 -0.0520
  727TMC3     H10802   3.804   0.862  10.213 -0.5578 -2.8073 -1.9420
  727TMC3    H110803   3.398   0.760  10.288  2.3213 -1.9012  0.8556
  727TMC3    H210804   3.507   1.164  10.156  0.7020  0.0395  0.5030
  727TMC3    C710805   3.303   0.993  10.190 -0.2596 -0.3390 -0.0645
  727TMC3    C810806   3.770   1.108  10.157  0.3702 -0.2813 -0.3543
  727TMC3    O110807   3.224   0.917  10.245  0.2667 -0.2712 -0.0709
  727TMC3    O210808   3.886   1.068  10.171 -0.0709 -0.3914 -0.3400
  728TMC3    C110809   3.390   3.608  15.310  0.2084 -0.5804 -0.3032
  728TMC3    C210810   3.523   3.633  15.325  0.9226  0.2797  0.3323
  728TMC3    C310811   3.589   3.686  15.223 -0.6476  0.2256  0.2695
  728TMC3    C410812   3.336   3.606  15.183  0.8710  0.5170 -0.0096
  728TMC3    C510813   3.403   3.661  15.078 -0.1735 -0.4376 -0.0194
  728TMC3    C610814   3.529   3.712  15.101 -0.2711 -0.2462  0.2851
  728TMC3     C10815   3.308   3.637  15.428  0.0411  0.1824  1.0060
  728TMC3     O10816   3.375   3.694  15.516  0.1141 -0.0333 -0.2443
  728TMC3     H10817   3.573   3.616  15.420 -0.6427 -1.1234  0.9060
  728TMC3    H110818   3.236   3.567  15.171  0.3640  2.2866 -1.5178
  728TMC3    H210819   3.600   3.733  15.022  0.9518 -1.1275  1.1478
  728TMC3    C710820   3.333   3.651  14.952 -0.0748 -0.1798  0.1124
  728TMC3    C810821   3.727   3.735  15.247 -0.7814 -0.0113 -0.2845
  728TMC3    O110822   3.228   3.586  14.944 -0.1465 -0.3637 -0.5888
  728TMC3    O210823   3.783   3.694  15.349  0.3718 -0.5086 -0.0995
  729MPD2     C10824   0.566   0.656  16.175  0.0594 -0.7726  0.4679
  729MPD2    C110825   0.619   0.529  16.172 -0.0228 -0.1420 -0.0788
  729MPD2    C210826   0.597   0.437  16.279 -0.0574 -0.2960 -0.3741
  729MPD2    C310827   0.524   0.484  16.387 -0.1105  0.3466  0.2144
  729MPD2    C410828   0.467   0.614  16.387 -0.5324  0.2888  0.3266
  729MPD2    C510829   0.484   0.699  16.276 -0.0363  0.0092 -0.0564
  729MPD2     H10830   0.637   0.336  16.279  3.7819  1.2283 -1.0421
  729MPD2    H110831   0.402   0.639  16.470  0.6323 -3.5137  2.3686
  729MPD2    H210832   0.595   0.735  16.106 -0.9944 -0.1982  0.6721
  729MPD2    H310833   0.431   0.794  16.265  1.1714  0.7770  0.7795
  729MPD2     N10834   0.500   0.410  16.505 -0.0386  0.3363 -0.4180
  729MPD2    H510835   0.444   0.450  16.580 -1.1067  0.0869 -1.0851
  729MPD2    N110836   0.719   0.510  16.071  0.0904  0.0648  0.0844
  729MPD2    H710837   0.739   0.582  16.002 -0.8122 -0.3247 -0.5885
  730TMC3    C110838   0.513   0.244  16.665 -0.3212  0.2887 -0.5720
  730TMC3    C210839   0.628   0.195  16.731  0.8555  0.5816 -0.4522
  730TMC3    C310840   0.652   0.244  16.852  0.1713 -0.3296 -0.2131
  730TMC3    C410841   0.422   0.321  16.738  0.0289 -0.1581  0.3550
  730TMC3    C510842   0.447   0.344  16.874  0.1807 -0.2086 -0.1543
  730TMC3    C610843   0.559   0.303  16.929  0.2220 -0.2525 -0.0589
  730TMC3     C10844   0.544   0.284  16.530  0.7934  0.1623 -0.1754
  730TMC3     O10845   0.629   0.223  16.466  0.2929 -0.1888  0.5561
  730TMC3     H10846   0.711   0.160  16.671 -0.1781  0.0655 -1.5864
  730TMC3    H110847   0.339   0.374  16.692  2.0814  2.5323 -0.3213
  730TMC3    H210848   0.570   0.310  17.037  0.0392 -0.5175 -0.0223
  730TMC3    C710849   0.416   0.480  16.908  0.2671 -0.8798 -0.6629
  730TMC3    C810850   0.772   0.323  16.846 -0.2428 -0.6494 -0.4457
  730TMC3    O110851   0.400   0.560  16.813  0.0050  0.0024  0.7082
  730TMC3    O210852   0.856   0.306  16.759 -0.2998  0.2934 -0.0362
  731MPD2     C10853   0.587   2.762  12.193 -0.2677 -0.4594 -1.0933
  731MPD2    C110854   0.717   2.779  12.234  0.3371 -0.5670 -0.3480
  731MPD2    C210855   0.747   2.717  12.354  0.2389 -0.4624 -0.7050
  731MPD2    C310856   0.660   2.631  12.419 -0.9033 -0.0381  1.6849
  731MPD2    C410857   0.535   2.608  12.372  0.8375  0.2626  0.7092
  731MPD2    C510858   0.503   2.682  12.261 -0.2010  0.3490  0.2774
  731MPD2     H10859   0.846   2.731  12.397 -0.2026  0.5739  0.0019
  731MPD2    H110860   0.457   2.551  12.421  0.5918  1.0216  1.2092
  731MPD2    H210861   0.543   2.809  12.105 -4.0297 -0.0036  1.0046
  731MPD2    H310862   0.402   2.666  12.224 -0.0496 -1.3861  0.5896
  731MPD2     N10863   0.701   2.572  12.538  0.6809 -0.4557 -0.2123
  731MPD2    H510864   0.797   2.592  12.564  0.7382  0.1987 -0.9314
  731MPD2    N110865   0.806   2.861  12.164  0.2019 -0.6065 -0.8577
  731MPD2    H710866   0.778   2.891  12.071  1.8322 -1.2994 -1.5664
  732TMC3    C110867   1.009   2.975  12.107  0.1951 -0.5565 -0.4587
  732TMC3    C210868   0.956   3.012  11.986  0.2313  0.3871  0.1131
  732TMC3    C310869   1.029   3.092  11.900  0.0102  0.0899 -0.1668
  732TMC3    C410870   1.137   3.005  12.130 -0.6798  0.4132 -0.1714
  732TMC3    C510871   1.206   3.091  12.055  0.0276 -0.2381 -0.8156
  732TMC3    C610872   1.161   3.136  11.934  0.3715 -0.7548 -0.4505
  732TMC3     C10873   0.936   2.889  12.205  0.3259 -0.2599  0.0061
  732TMC3     O10874   1.004   2.845  12.299  0.1434 -0.0476 -0.3815
  732TMC3     H10875   0.849   3.006  11.975  0.0226  1.2592  1.7374
  732TMC3    H110876   1.179   2.990  12.229 -2.8073  1.3432  0.8725
  732TMC3    H210877   1.229   3.183  11.863 -0.5054 -1.1778 -1.5712
  732TMC3    C710878   1.351   3.105  12.073 -0.2475 -0.8071 -0.3357
  732TMC3    C810879   0.970   3.131  11.774  0.5650 -0.2331 -0.6518
  732TMC3    O110880   1.399   3.217  12.064  0.2890  0.3643  0.0611
  732TMC3    O210881   1.026   3.212  11.706  0.0361  0.2629 -0.1060
  733TMC3    C110882   1.789   0.723  13.175  0.7644 -0.2483  0.0526
  733TMC3    C210883   1.877   0.827  13.157  0.3729 -0.3443 -0.0672
  733TMC3    C310884   1.929   0.852  13.034 -0.4613 -0.2480 -0.2552
  733TMC3    C410885   1.744   0.646  13.068 -0.4491 -0.4333  0.3365
  733TMC3    C510886   1.798   0.677  12.946  0.1844 -0.2133  0.0110
  733TMC3    C610887   1.883   0.777  12.927 -0.2949  0.1745 -0.1609
  733TMC3     C10888   1.667   0.759  13.244  0.0309  0.7587 -0.5519
  733TMC3     O10889   1.629   0.873  13.235  0.0343 -0.0177 -0.3327
  733TMC3     H10890   1.896   0.902  13.233  1.0660 -0.6037  0.0175
  733TMC3    H110891   1.663   0.574  13.075 -0.7705 -0.3302 -2.1274
  733TMC3    H210892   1.925   0.793  12.828  1.2967 -1.7023  0.1948
  733TMC3    C710893   1.732   0.623  12.832  0.0134  0.4275 -0.7627
  733TMC3    C810894   1.964   0.993  12.997  0.8248  0.2819 -0.2603
  733TMC3    O110895   1.693   0.510  12.831 -0.0669  0.0702 -0.6469
  733TMC3    O210896   2.055   1.040  13.068  0.5562 -0.5042 -0.1708
  734MPD2     C10897   3.905   3.447  12.141  0.4353  0.2383  0.1409
  734MPD2    C110898   3.769   3.457  12.141  0.0141  0.3046  0.0541
  734MPD2    C210899   3.717   3.563  12.071  0.5517 -0.4992 -0.2572
  734MPD2    C310900   3.792   3.646  11.985 -0.4767 -0.4355  0.1096
  734MPD2    C410901   3.930   3.622  11.981  0.6061  0.3908  0.0789
  734MPD2    C510902   3.984   3.526  12.069  0.2599 -0.3189  0.1227
  734MPD2     H10903   3.610   3.583  12.072  0.3918 -1.4583  1.3338
  734MPD2    H110904   3.996   3.667  11.908 -0.0215 -0.4634 -0.9940
  734MPD2    H210905   3.943   3.371  12.209 -1.5469 -1.0055 -0.1576
  734MPD2    H310906   4.088   3.496  12.060 -0.1513 -1.8446  0.5813
  734MPD2     N10907   3.728   3.736  11.896 -0.2482  0.1294  0.6755
  734MPD2    H510908   3.632   3.762  11.917  0.0439  1.8368 -0.0598
  734MPD2    N110909   3.692   3.377  12.228 -0.2196 -0.6401 -0.2272
  734MPD2    H710910   3.743   3.310  12.285  1.4964  1.5188  0.7693
  735TMC3    C110911   3.503   3.253  12.298 -0.8937 -0.1050  0.4480
  735TMC3    C210912   3.370   3.239  12.264  0.1958  0.2304 -0.0343
  735TMC3    C310913   3.330   3.120  12.204 -0.8887  0.8058  0.1056
  735TMC3    C410914   3.581   3.136  12.287  0.0353  0.1119 -0.3407
  735TMC3    C510915   3.534   3.018  12.248 -0.3311 -0.7146 -0.3270
  735TMC3    C610916   3.402   3.008  12.204 -0.4605  0.1710 -0.4304
  735TMC3     C10917   3.556   3.373  12.229 -0.1935  0.5516  0.5333
  735TMC3     O10918   3.470   3.445  12.176 -0.6959  0.4085 -0.1099
  735TMC3     H10919   3.296   3.318  12.277  0.2732  0.0617  1.4323
  735TMC3    H110920   3.686   3.146  12.312  0.3890  1.4685 -2.4003
  735TMC3    H210921   3.370   2.925  12.142 -1.1948 -0.1419  0.3652
  735TMC3    C710922   3.641   2.927  12.210  0.5071  0.0636  0.8719
  735TMC3    C810923   3.250   3.137  12.089 -0.0919  1.0963  0.3627
  735TMC3    O110924   3.754   2.971  12.224  0.3979 -0.4799  1.2733
  735TMC3    O210925   3.181   3.046  12.048  0.3915  0.0224 -0.0821
  736MPD2     C10926   3.672   2.586  12.129 -0.4044  0.3177  0.2456
  736MPD2    C110927   3.693   2.722  12.113 -0.2418  0.0807  0.9780
  736MPD2    C210928   3.817   2.763  12.063 -0.1918 -0.4527  0.3153
  736MPD2    C310929   3.906   2.677  12.015 -0.2130 -0.8912  0.2498
  736MPD2    C410930   3.882   2.541  12.024  0.3067  0.1947 -0.2782
  736MPD2    C510931   3.765   2.500  12.077  0.5505  0.0740 -0.4508
  736MPD2     H10932   3.829   2.868  12.039 -1.0228 -0.4083  0.0844
  736MPD2    H110933   3.949   2.469  11.979 -0.6819 -1.3924  0.7880
  736MPD2    H210934   3.582   2.554  12.179 -0.8192 -1.7303 -1.7826
  736MPD2    H310935   3.739   2.395  12.084  0.6180  0.1362  0.6983
  736MPD2     N10936   4.030   2.711  11.957  0.2681 -0.2212  0.3059
  736MPD2    H510937   4.082   2.640  11.907  2.9918  0.9804  1.4884
  736MPD2    N110938   3.599   2.805  12.173 -0.7205  0.3927 -0.7425
  736MPD2    H710939   3.506   2.768  12.194  0.4057 -2.5306 -0.9612
  737TMC3    C110940   4.212   2.859  11.910  0.3677 -0.0401 -0.4739
  737TMC3    C210941   4.253   2.985  11.944 -0.2448  0.0533  0.1615
  737TMC3    C310942   4.335   3.055  11.856 -0.6807  0.3630  0.2120
  737TMC3    C410943   4.234   2.795  11.787 -0.3501 -0.3890 -0.6395
  737TMC3    C510944   4.313   2.880  11.701  0.5402  0.5176  0.1122
  737TMC3    C610945   4.365   2.998  11.735  0.4861 -1.0607 -0.2563
  737TMC3     C10946   4.099   2.825  11.993  0.4734 -0.4628 -0.5887
  737TMC3     O10947   4.070   2.897  12.089  0.1324  0.3205  0.6514
  737TMC3     H10948   4.232   3.028  12.040  1.4184  0.7041  0.2323
  737TMC3    H110949   4.204   2.694  11.760  2.5789 -1.6571  0.8916
  737TMC3    H210950   4.437   3.057  11.679 -1.0159  2.3675  1.4124
  737TMC3    C710951   4.403   2.802  11.617  0.7818  0.3651  0.6043
  737TMC3    C810952   4.329   3.194  11.878 -0.2424 -0.1541 -0.1390
  737TMC3    O110953   4.390   2.679  11.617  0.0674 -0.7935 -0.1202
  737TMC3    O210954   4.317   3.224  11.994  0.2845 -0.3385 -0.0547
  738MPD2     C10955   4.360   2.386  15.230 -0.1679 -0.3032 -0.0294
  738MPD2    C110956   4.352   2.304  15.114 -0.7759 -0.1275 -0.3628
  738MPD2    C210957   4.392   2.359  14.992 -0.1088  0.6928  0.1734
  738MPD2    C310958   4.451   2.489  14.986  0.7207  0.1055 -0.4782
  738MPD2    C410959   4.460   2.561  15.103 -0.4298 -0.5650  0.5710
  738MPD2    C510960   4.420   2.505  15.224 -0.8193 -0.4155 -0.2890
  738MPD2     H10961   4.385   2.289  14.910 -1.1015  0.6982  0.2649
  738MPD2    H110962   4.496   2.663  15.105  2.0389 -1.4088 -0.6788
  738MPD2    H210963   4.351   2.350  15.332 -1.0948  0.1822  0.0557
  738MPD2    H310964   4.434   2.561  15.315 -3.4847  1.3805 -0.9758
  738MPD2     N10965   4.523   2.541  14.877 -0.2947  0.5038  0.3001
  738MPD2    H510966   4.577   2.626  14.891  1.8251 -0.6360 -1.0358
  738MPD2    N110967   4.301   2.169  15.114 -0.0051  0.2107  0.5585
  738MPD2    H710968   4.297   2.135  15.019  0.5387 -1.1905  1.0383
  739TMC3    C110969   4.620   2.531  14.669  0.2068 -0.1831 -0.5333
  739TMC3    C210970   4.627   2.476  14.541  0.7237  0.3995 -0.2469
  739TMC3    C310971   0.008   2.479  14.478  0.0299 -0.2035 -0.5752
  739TMC3    C410972   4.729   2.589  14.729  0.3500  0.8498 -0.0418
  739TMC3    C510973   0.108   2.587  14.654 -0.3235  0.3009  0.2323
  739TMC3    C610974   0.115   2.552  14.524  0.2320 -0.2387  0.8960
  739TMC3     C10975   4.515   2.483  14.754 -1.0318 -0.1805  0.0913
  739TMC3     O10976   4.433   2.400  14.714 -0.6644  0.0229 -0.2661
  739TMC3     H10977   4.533   2.437  14.504 -0.0269 -1.2468  3.3844
  739TMC3    H110978   0.002   2.627  14.830  1.2214 -0.4221  0.3473
  739TMC3    H210979   0.206   2.555  14.464 -0.6592  1.0958 -0.3801
  739TMC3    C710980   0.229   2.621  14.728  0.4003 -0.1943  0.1098
  739TMC3    C810981   0.016   2.417  14.350  0.0362 -0.5423  0.0937
  739TMC3    O110982   0.206   2.710  14.811  0.4780 -0.2389 -0.3167
  739TMC3    O210983   4.653   2.426  14.280 -0.1671  0.5538 -0.1752
  740TMC3    C110984   0.440   3.566  14.472  0.6151 -0.4751 -0.3024
  740TMC3    C210985   0.493   3.503  14.581  0.1916 -0.8001 -0.1861
  740TMC3    C310986   0.607   3.431  14.562 -0.5444  0.2115 -0.4629
  740TMC3    C410987   0.491   3.536  14.345 -0.1621  0.0310 -0.4092
  740TMC3    C510988   0.605   3.463  14.332 -0.3576 -0.1253  0.2333
  740TMC3    C610989   0.664   3.416  14.442 -0.3079 -0.1453 -0.6978
  740TMC3     C10990   0.324   3.644  14.478 -0.8550 -0.7212 -0.3635
  740TMC3     O10991   0.314   3.733  14.389 -0.9930  0.6168  0.1995
  740TMC3     H10992   0.449   3.518  14.679 -1.6580  0.0003 -1.1365
  740TMC3    H110993   0.431   3.568  14.261 -1.3312 -1.0982 -0.0123
  740TMC3    H210994   0.757   3.361  14.439  0.6166  1.3223  0.7299
  740TMC3    C710995   0.681   3.446  14.207 -1.0567  0.5835 -0.3931
  740TMC3    C810996   0.679   3.373  14.674 -0.3530  0.3484 -0.5201
  740TMC3    O110997   0.793   3.393  14.210  0.6840  1.1166 -0.2489
  740TMC3    O210998   0.798   3.386  14.676 -0.0744  0.1751 -0.2307
  741TMC3    C110999   4.587   3.000  14.089  0.0054  0.2387 -0.4034
  741TMC3    C211000   4.498   2.904  14.053  0.1926  0.1575 -0.1554
  741TMC3    C311001   4.541   2.779  14.065 -0.0543  0.5077 -0.2815
  741TMC3    C411002   4.707   2.963  14.140 -0.3343 -0.0026 -0.2284
  741TMC3    C511003   0.005   2.832  14.146 -0.6390  0.4393 -0.2095
  741TMC3    C611004   4.663   2.732  14.106 -0.7688 -0.9365  0.3106
  741TMC3     C11005   4.591   3.123  14.015  0.4317  0.6202  0.1304
  741TMC3     O11006   4.700   3.177  13.996 -0.1738 -0.0123  0.4931
  741TMC3     H11007   4.404   2.929  14.006  0.7433  0.6736 -0.9727
  741TMC3    H111008   0.032   3.041  14.182 -1.9500  0.9268  0.4755
  741TMC3    H211009   4.687   2.628  14.125 -0.9229 -0.8891  0.7581
  741TMC3    C711010   0.115   2.812  14.237 -0.8601 -0.3832 -0.1375
  741TMC3    C811011   4.433   2.687  14.040 -0.2306 -0.6114 -0.4305
  741TMC3    O111012   0.143   2.894  14.323  0.6592 -0.7540 -0.0048
  741TMC3    O211013   4.324   2.731  14.073  0.0194  0.5322 -0.0690
  742TMC3    C111014   4.487   1.088  15.557 -0.9282 -0.4564  0.1396
  742TMC3    C211015   4.444   1.174  15.457 -0.4970  1.0330  0.3291
  742TMC3    C311016   4.521   1.273  15.414  0.3536 -0.6760 -0.1085
  742TMC3    C411017   4.615   1.104  15.600 -0.1828 -0.3046  0.1255
  742TMC3    C511018   4.688   1.214  15.566  0.4068 -0.4940  0.7178
  742TMC3    C611019   4.644   1.304  15.472  0.3994  0.4172 -0.5144
  742TMC3     C11020   4.428   0.960  15.560  0.6707  0.2002  0.1639
  742TMC3     O11021   4.335   0.944  15.481 -0.4448  0.3943  0.3377
  742TMC3     H11022   4.338   1.173  15.432 -0.2341 -1.2879 -0.7483
  742TMC3    H111023   4.670   1.034  15.662  1.6349  0.2534 -0.8519
  742TMC3    H211024   4.707   1.386  15.441 -0.6131  0.6734 -1.8476
  742TMC3    C711025   0.093   1.190  15.549  0.2903 -0.1903 -0.3610
  742TMC3    C811026   4.474   1.327  15.290  1.5974 -0.1202 -0.1787
  742TMC3    O111027   0.138   1.220  15.439  0.6300  0.1943 -0.4224
  742TMC3    O211028   4.392   1.258  15.225  0.2268 -0.4195  0.5149
  743MPD2     C11029   2.207   3.120   1.467  0.4625 -0.0330  0.0231
  743MPD2    C111030   2.273   2.999   1.448  0.0845  0.4733 -0.5054
  743MPD2    C211031   2.409   2.997   1.458  0.1388 -0.5422  0.9914
  743MPD2    C311032   2.473   3.115   1.480 -0.4973  0.9852  0.5408
  743MPD2    C411033   2.405   3.232   1.485 -0.2761  0.3093  0.3816
  743MPD2    C511034   2.275   3.230   1.497  0.0637 -0.8028 -0.9968
  743MPD2     H11035   2.472   2.914   1.429  0.8969 -0.1865  1.6250
  743MPD2    H111036   2.452   3.330   1.496 -1.7433  0.9347  1.1378
  743MPD2    H211037   2.098   3.124   1.461  0.4150 -1.0881  0.2280
  743MPD2    H311038   2.228   3.328   1.506 -0.4963 -1.1840  0.1325
  743MPD2     N11039   2.615   3.125   1.478  0.1969  0.7669 -0.1295
  743MPD2    H511040   2.672   3.043   1.459 -1.6118 -0.7315  0.8341
  743MPD2    N111041   2.207   2.882   1.410  0.2015 -0.0215 -0.9282
  743MPD2    H711042   2.106   2.886   1.400  0.2596  1.4346 -0.8203
  744TMC3    C111043   2.188   2.644   1.379  0.0527  0.6739 -0.6487
  744TMC3    C211044   2.073   2.649   1.308  0.2033  0.2984  0.2378
  744TMC3    C311045   2.033   2.537   1.239 -0.3926  0.5562  0.0023
  744TMC3    C411046   2.249   2.525   1.391  0.1528  0.0101 -0.0709
  744TMC3    C511047   2.201   2.410   1.330  1.1930 -0.3034  0.1369
  744TMC3    C611048   2.078   2.414   1.270 -0.4402  0.4188 -0.0141
  744TMC3     C11049   2.268   2.757   1.427 -0.4496 -0.5067  0.1948
  744TMC3     O11050   2.364   2.732   1.495 -0.4755  0.3808  0.3754
  744TMC3     H11051   2.022   2.742   1.283 -1.2708 -0.6191 -0.1439
  744TMC3    H111052   2.345   2.522   1.440  1.3769 -0.1966 -2.5164
  744TMC3    H211053   2.027   2.328   1.229 -3.8845  0.9816  3.0317
  744TMC3    C711054   2.296   2.353   1.236  0.2240 -0.1334  0.1099
  744TMC3    C811055   1.981   2.569   1.106 -0.5052  0.1903  0.5871
  744TMC3    O111056   2.402   2.412   1.220  0.3495  0.4107 -0.6305
  744TMC3    O211057   1.979   2.687   1.077 -0.4056  0.5469 -0.4968
  745TMC3    C111058   0.493   0.817  13.413 -0.6528 -0.0065 -0.1712
  745TMC3    C211059   0.391   0.906  13.437 -0.1670  0.2184  0.2452
  745TMC3    C311060   0.260   0.854  13.437  0.6996 -0.7258  0.7102
  745TMC3    C411061   0.464   0.682  13.410 -0.3151 -0.4159 -0.3085
  745TMC3    C511062   0.339   0.632  13.409  0.4950 -0.0504  0.6250
  745TMC3    C611063   0.236   0.720  13.423  0.0651 -0.1851  0.5881
  745TMC3     C11064   0.628   0.861  13.411  0.7207  0.5656  0.6976
  745TMC3     O11065   0.710   0.769  13.400  0.0567 -0.0375 -0.1971
  745TMC3     H11066   0.411   1.012  13.431 -1.1749  0.2832 -2.0346
  745TMC3    H111067   0.544   0.612  13.388  0.2571  0.3858 -0.7509
  745TMC3    H211068   0.132   0.691  13.413  0.5852 -1.4452 -1.2736
  745TMC3    C711069   0.316   0.531  13.304  0.4520 -0.4265 -0.0171
  745TMC3    C811070   0.156   0.921  13.516  0.3605 -0.2198 -0.5557
  745TMC3    O111071   0.304   0.412  13.328  0.1510  0.3473 -0.8158
  745TMC3    O211072   0.043   0.879  13.508 -0.0480 -0.0816 -0.0392
  746TMC3    C111073   2.384   2.944  10.887  0.3576  0.4910  0.3590
  746TMC3    C211074   2.473   2.941  10.779  0.1773 -0.3995 -0.8282
  746TMC3    C311075   2.524   2.824  10.745 -0.4067  0.3014  0.0533
  746TMC3    C411076   2.340   2.835  10.947  0.9413  0.2935 -0.3788
  746TMC3    C511077   2.391   2.719  10.911  0.4987  0.3039  0.1693
  746TMC3    C611078   2.470   2.709  10.798 -0.7453 -0.4015  0.8594
  746TMC3     C11079   2.382   3.070  10.960 -0.3652  0.6324 -0.0332
  746TMC3     O11080   2.367   3.063  11.079 -0.4707 -0.7474 -0.5538
  746TMC3     H11081   2.504   3.032  10.729  4.0188  0.0146  2.3417
  746TMC3    H111082   2.270   2.832  11.030  0.4168 -0.6396 -0.8530
  746TMC3    H211083   2.518   2.621  10.755  1.0565  0.9020  0.1978
  746TMC3    C711084   2.303   2.609  10.932  0.1673  0.0706 -0.8992
  746TMC3    C811085   2.593   2.809  10.614 -0.2405  0.5928  0.0563
  746TMC3    O111086   2.183   2.630  10.937 -0.2229  0.0608  0.2620
  746TMC3    O211087   2.637   2.700  10.580  0.2026 -0.3437  0.4678
  747TMC3    C111088   0.193   3.233  10.804 -0.1018  0.6022 -0.4057
  747TMC3    C211089   0.150   3.115  10.856  0.9909  0.6501 -0.0991
  747TMC3    C311090   0.146   3.105  10.989  0.4966  0.2091  0.2413
  747TMC3    C411091   0.244   3.330  10.883 -0.1771 -0.1278 -0.1278
  747TMC3    C511092   0.242   3.318  11.016 -0.6504  0.2637 -0.6795
  747TMC3    C611093   0.192   3.202  11.067  0.3698 -0.7306  0.0616
  747TMC3     C11094   0.201   3.248  10.655  0.3422  0.5823 -0.3615
  747TMC3     O11095   0.269   3.330  10.599 -0.2228  0.0277 -0.5161
  747TMC3     H11096   0.116   3.028  10.800 -1.1858  1.4675 -0.0400
  747TMC3    H111097   0.293   3.414  10.836 -1.4594  0.9145  0.4158
  747TMC3    H211098   0.199   3.196  11.175  2.3936 -0.9051 -0.0859
  747TMC3    C711099   0.344   3.387  11.100  0.3471 -0.1664  0.3371
  747TMC3    C811100   0.107   2.990  11.060 -0.4517 -0.2165  0.5998
  747TMC3    O111101   0.332   3.373  11.224 -0.4259  0.2387  0.0069
  747TMC3    O211102   0.108   2.886  11.001  0.5181  0.6969  0.6360
  748MPD2     C11103   0.976   4.026   0.707  0.0657 -0.0523 -0.4333
  748MPD2    C111104   1.047   3.917   0.670  0.5233  0.5378  1.1266
  748MPD2    C211105   1.172   3.889   0.724  0.0723 -0.4811  0.7427
  748MPD2    C311106   1.223   3.979   0.812 -0.1524 -0.1330  0.0595
  748MPD2    C411107   1.153   4.100   0.830 -0.1213 -0.2466 -1.2937
  748MPD2    C511108   1.024   4.117   0.793  0.1335  0.2242  0.0351
  748MPD2     H11109   1.236   3.810   0.686  0.3316 -0.1994  0.5966
  748MPD2    H111110   1.186   4.175   0.902 -1.6304 -0.8914  0.0767
  748MPD2    H211111   0.879   4.045   0.662  0.2319 -0.7846 -1.1032
  748MPD2    H311112   0.978   4.205   0.834 -0.8130 -1.5863  2.8414
  748MPD2     N11113   1.347   3.941   0.871 -0.0768 -0.5012  0.0167
  748MPD2    H511114   1.395   3.857   0.840 -0.6472 -1.3823  1.5035
  748MPD2    N111115   0.983   3.827   0.575  0.1384  0.3858  0.6492
  748MPD2    H711116   0.890   3.852   0.542  0.2377 -2.2580 -1.6191
  749TMC3    C111117   1.553   3.982   0.973  0.2585  0.3055  0.6552
  749TMC3    C211118   1.562   3.852   1.009  0.3548  0.5799  0.1725
  749TMC3    C311119   1.691   3.798   0.996  0.1200 -0.0442 -0.0212
  749TMC3    C411120   1.653   4.064   0.924  0.2756 -0.0170 -0.5698
  749TMC3    C511121   1.778   4.004   0.919 -0.2152  0.2304  0.8194
  749TMC3    C611122   1.797   3.871   0.951 -0.1324 -0.0992 -0.5749
  749TMC3     C11123   1.419   4.028   0.949 -0.5225 -0.0124  0.1447
  749TMC3     O11124   1.386   4.140   0.987 -0.2929 -0.5489 -0.4074
  749TMC3     H11125   1.484   3.788   1.048  0.9014  0.7338  1.5308
  749TMC3    H111126   1.636   4.171   0.914 -1.9139 -0.5362 -2.3643
  749TMC3    H211127   1.890   3.825   0.917  0.3647  0.4111  0.0962
  749TMC3    C711128   1.880   4.084   0.863 -0.0123 -0.3325  0.7441
  749TMC3    C811129   1.708   3.665   1.044 -0.9274  0.2638  0.1648
  749TMC3    O111130   1.882   4.201   0.891 -0.1381  0.4515  0.4449
  749TMC3    O211131   1.607   3.595   1.041  0.5720  0.1901  0.1141
  750MPD2     C11132   2.420   0.183  11.532  0.0781  0.7972  0.1186
  750MPD2    C111133   2.335   0.078  11.567 -0.1103  0.3933 -0.1023
  750MPD2    C211134   2.337   4.700  11.489  0.4372  0.1283  0.0271
  750MPD2    C311135   2.430   4.685  11.380  0.2985 -0.3949 -0.0643
  750MPD2    C411136   2.509   0.054  11.348  0.7953 -0.6154 -0.3895
  750MPD2    C511137   2.507   0.166  11.426  0.1421 -0.1848 -0.2086
  750MPD2     H11138   2.262   4.625  11.508  0.2140 -0.0657 -1.6609
  750MPD2    H111139   2.574   0.045  11.262 -2.8477 -1.0118 -3.1269
  750MPD2    H211140   2.420   0.280  11.581 -1.5983 -0.4864  2.6593
  750MPD2    H311141   2.568   0.246  11.385  1.6905 -1.6573 -0.7658
  750MPD2     N11142   2.436   4.572  11.293  0.2020 -0.4089 -0.3304
  750MPD2    H511143   2.494   4.582  11.210 -0.0752 -2.1156 -0.7392
  750MPD2    N111144   2.247   0.110  11.669 -0.2354  0.4810 -0.4065
  750MPD2    H711145   2.246   0.199  11.718  1.5022  1.2774 -1.8388
  751TMC3    C111146   2.389   4.355  11.208 -0.1828  0.1017  0.0288
  751TMC3    C211147   2.347   4.231  11.263  0.2105  0.2219 -0.3490
  751TMC3    C311148   2.346   4.125  11.173  0.3225  0.6920 -0.2812
  751TMC3    C411149   2.410   4.386  11.079 -0.2845 -0.4159  0.0299
  751TMC3    C511150   2.399   4.276  10.989  0.4628  0.7135  0.1386
  751TMC3    C611151   2.368   4.154  11.043  0.2124 -0.0175  0.3050
  751TMC3     C11152   2.369   4.458  11.314 -0.1849  0.1389 -0.1862
  751TMC3     O11153   2.283   4.436  11.394 -0.5091 -0.1778 -0.3882
  751TMC3     H11154   2.337   4.224  11.371  0.8107  0.7380 -0.2617
  751TMC3    H111155   2.452   4.479  11.042 -0.4534 -0.8784 -1.3269
  751TMC3    H211156   2.364   4.071  10.973  1.2990  0.3758 -0.2170
  751TMC3    C711157   2.403   4.298  10.845 -0.3228  0.3154  0.0556
  751TMC3    C811158   2.263   4.015  11.197  0.4308  0.4543  0.4704
  751TMC3    O111159   2.466   4.396  10.811  0.5009 -0.2773  0.2325
  751TMC3    O211160   2.230   3.935  11.104  0.2054  0.1170  0.5021
  752TMC3    C111161   1.160   0.145  16.961 -0.2953  0.0028  0.0642
  752TMC3    C211162   1.238   0.101  17.065 -0.4035 -0.1522 -0.3790
  752TMC3    C311163   1.193   4.734  17.139 -0.0931  0.1986 -0.0796
  752TMC3    C411164   1.041   0.083  16.926 -0.2394  0.1613 -0.3443
  752TMC3    C511165   0.990   4.731  17.019  0.3907 -0.2150  0.2996
  752TMC3    C611166   1.066   4.676  17.119 -0.0238 -0.3282  0.6189
  752TMC3     C11167   1.214   0.262  16.894  0.7312 -0.0082  0.6255
  752TMC3     O11168   1.301   0.331  16.950 -0.4828 -0.0993 -0.0973
  752TMC3     H11169   1.324   0.159  17.096 -0.3526  0.3314 -1.4181
  752TMC3    H111170   0.979   0.119  16.844  1.2670  0.6077 -1.2891
  752TMC3    H211171   1.019   4.603  17.183 -1.2403  0.6343  0.8200
  752TMC3    C711172   0.845   4.714  17.012  0.0119  0.2117  0.0390
  752TMC3    C811173   1.259   4.730  17.268  0.5070 -0.0583 -0.0168
  752TMC3    O111174   0.794   4.728  16.899 -0.3561 -0.2317  0.5083
  752TMC3    O211175   1.348   0.074  17.291  0.0255 -0.1171  0.2674
  753TMC3    C111176   3.612   0.853  13.484  0.1991 -0.0697 -0.2563
  753TMC3    C211177   3.719   0.854  13.572  0.6519  0.9874  0.2124
  753TMC3    C311178   3.753   0.731  13.607  0.6592  0.7284  0.5868
  753TMC3    C411179   3.564   0.743  13.424 -0.2322 -0.0715 -0.2376
  753TMC3    C511180   3.619   0.623  13.453 -0.7674  0.1033  0.3386
  753TMC3    C611181   3.719   0.617  13.542  0.2877 -0.3014  0.3389
  753TMC3     C11182   3.535   0.972  13.464 -0.5630  0.7899  0.3112
  753TMC3     O11183   3.454   0.963  13.372 -0.1549 -0.1169  0.6394
  753TMC3     H11184   3.757   0.947  13.614  0.1304  1.0512  0.5425
  753TMC3    H111185   3.485   0.753  13.350  0.9701  0.3114 -1.4835
  753TMC3    H211186   3.760   0.526  13.585 -1.5867 -2.0435 -1.5083
  753TMC3    C711187   3.546   0.509  13.411  0.0534  0.1222  0.0533
  753TMC3    C811188   3.867   0.714  13.704 -0.6505  0.3607 -0.6789
  753TMC3    O111189   3.441   0.532  13.354 -0.6446 -0.4757 -0.1581
  753TMC3    O211190   3.950   0.634  13.675 -0.3234 -0.2230  0.5425
  754MPD2     C11191   2.662   4.350  13.092  0.5934 -0.2820  0.3804
  754MPD2    C111192   2.649   4.219  13.116 -0.3607 -0.0825 -0.2805
  754MPD2    C211193   2.521   4.171  13.148  0.3731 -0.4223 -0.5570
  754MPD2    C311194   2.412   4.254  13.159  0.2821  0.2427  0.0598
  754MPD2    C411195   2.436   4.393  13.155  0.0588  0.8792  0.2190
  754MPD2    C511196   2.560   4.436  13.118  0.6694  0.0915 -0.3362
  754MPD2     H11197   2.509   4.063  13.159  0.7833 -0.6611 -2.2886
  754MPD2    H111198   2.361   4.465  13.183 -0.6089  0.4971 -0.6043
  754MPD2    H211199   2.759   4.388  13.060  0.1781  0.4354 -0.0229
  754MPD2    H311200   2.576   4.542  13.103  1.0061  0.1327  0.3110
  754MPD2     N11201   2.283   4.211  13.194  0.2400 -0.1067 -0.2606
  754MPD2    H511202   2.210   4.281  13.188 -0.7193 -0.8957  2.3886
  754MPD2    N111203   2.769   4.143  13.111 -0.3934 -0.0531 -0.3011
  754MPD2    H711204   2.841   4.202  13.070  0.8317 -1.3086  0.0635
  755MPD2     C11205   1.738   0.067  13.194  0.8182 -0.0614  0.0940
  755MPD2    C111206   1.654   4.699  13.219 -0.3619  0.1753 -0.8458
  755MPD2    C211207   1.702   4.570  13.211 -0.0593  1.0739  0.2388
  755MPD2    C311208   1.827   4.537  13.181  0.3246 -0.1111  0.1731
  755MPD2    C411209   1.910   4.641  13.152 -0.1186  0.6448 -0.1966
  755MPD2    C511210   1.861   0.036  13.157  0.0166 -0.4658  0.2659
  755MPD2     H11211   1.627   4.494  13.233 -0.2625  1.4124  0.7225
  755MPD2    H111212   2.010   4.626  13.113  0.6766 -1.5536  2.6918
  755MPD2    H211213   1.711   0.172  13.192  0.0441 -0.2459  0.6586
  755MPD2    H311214   1.927   0.120  13.139 -1.1838  0.8041  1.8992
  755MPD2     N11215   1.878   4.406  13.174  0.3686 -0.2676  0.3444
  755MPD2    H511216   1.975   4.394  13.143 -0.3418 -2.6528 -0.9700
  755MPD2    N111217   1.515   4.718  13.248 -0.4721 -0.6093 -0.3543
  755MPD2    H711218   1.453   4.639  13.247 -3.1074  1.4859 -0.9374
  756MPD2     C11219   2.465   0.381   9.909  0.0112  0.0088  0.0682
  756MPD2    C111220   2.370   0.452   9.973  0.2412  0.5380 -0.6894
  756MPD2    C211221   2.242   0.451   9.918  0.3409 -0.3281 -0.1274
  756MPD2    C311222   2.215   0.410   9.786  0.3288  0.4396 -0.0052
  756MPD2    C411223   2.325   0.367   9.713  0.0627 -0.0778 -0.1103
  756MPD2    C511224   2.444   0.344   9.780 -1.1222  0.1289  0.3055
  756MPD2     H11225   2.169   0.481   9.992  0.3466  1.8976 -1.0290
  756MPD2    H111226   2.322   0.331   9.611  2.5011 -1.4251  0.2756
  756MPD2    H211227   2.567   0.377   9.947  0.5803 -0.3853 -1.5016
  756MPD2    H311228   2.531   0.311   9.724 -0.0076  1.5931  1.1731
  756MPD2     N11229   2.090   0.432   9.717 -0.3897  0.1551 -0.2415
  756MPD2    H511230   2.089   0.432   9.616  1.0848  0.5748 -0.2539
  756MPD2    N111231   2.380   0.515  10.102  0.1756  0.0850  0.3833
  756MPD2    H711232   2.291   0.527  10.149 -0.3235 -1.1705 -0.2372
  757MPD2     C11233   1.231   0.057   9.895  0.1130 -0.0210  0.4198
  757MPD2    C111234   1.244   0.097   9.763  0.0392  0.4700 -0.0953
  757MPD2    C211235   1.318   0.217   9.727  0.0451  0.0460  0.3988
  757MPD2    C311236   1.389   0.287   9.824 -0.6130  0.6167  0.6589
  757MPD2    C411237   1.370   0.241   9.950  0.2590  0.3782 -0.3507
  757MPD2    C511238   1.297   0.132   9.982 -0.3760  0.2716 -0.0177
  757MPD2     H11239   1.335   0.240   9.622  2.1612  1.4789  1.0578
  757MPD2    H111240   1.425   0.288  10.031  1.3870  0.7263 -1.3125
  757MPD2    H211241   1.192   4.697   9.923 -1.0409  0.3990  0.2961
  757MPD2    H311242   1.299   0.110  10.088  0.4889  1.4984  0.2227
  757MPD2     N11243   1.480   0.395   9.798  0.6521  0.2361  0.5005
  757MPD2    H511244   1.529   0.438   9.876  1.6601  1.5029 -0.8321
  757MPD2    N111245   1.189   0.013   9.668 -0.5456 -0.1762 -0.1993
  757MPD2    H711246   1.135   4.668   9.691  0.7387 -1.0685 -0.3900
  758MPD2     C11247   2.103   4.355  15.630  0.1542  0.5607 -0.0904
  758MPD2    C111248   2.130   4.255  15.718  0.3647  0.4628 -0.2282
  758MPD2    C211249   2.054   4.246  15.835  0.0931 -0.2842  0.2956
  758MPD2    C311250   1.964   4.339  15.876  0.5627  0.4794 -0.7045
  758MPD2    C411251   1.918   4.425  15.777 -0.1293  0.2176 -0.0129
  758MPD2    C511252   1.993   4.437  15.664 -0.3481 -0.1137 -0.0526
  758MPD2     H11253   2.074   4.169  15.909 -2.1494 -1.6852 -0.5509
  758MPD2    H111254   1.844   4.496  15.813 -0.2557  1.5622 -2.9336
  758MPD2    H211255   2.161   4.361  15.539 -0.6184 -2.2221 -0.7672
  758MPD2    H311256   1.969   4.519  15.598 -0.2897  1.3502  1.7586
  758MPD2     N11257   1.909   4.349  16.005  0.2367  0.0952 -0.3235
  758MPD2    H511258   1.841   4.424  16.015 -0.8044 -0.9818  0.7585
  758MPD2    N111259   2.244   4.171  15.684  0.1651  0.0410 -0.1100
  758MPD2    H711260   2.294   4.189  15.598 -0.5743  0.1280 -0.5258
  759MPD2     C11261   0.564   2.524   9.897  0.1596  0.0176 -0.3344
  759MPD2    C111262   0.630   2.510  10.017  0.7187 -0.1058  0.4954
  759MPD2    C211263   0.709   2.609  10.058  0.3542  0.4863  0.7506
  759MPD2    C311264   0.745   2.712   9.976 -0.2298  0.2346 -0.5284
  759MPD2    C411265   0.676   2.726   9.859 -0.1963 -0.3311 -0.0563
  759MPD2    C511266   0.583   2.629   9.816  0.8396 -0.5680  0.2882
  759MPD2     H11267   0.759   2.599  10.154  0.0409  0.1223  0.8816
  759MPD2    H111268   0.693   2.812   9.796  1.9716 -0.8525 -0.1623
  759MPD2    H211269   0.500   2.450   9.851  1.2643 -1.2334  0.1460
  759MPD2    H311270   0.532   2.635   9.720 -0.5949 -0.6008  1.0604
  759MPD2     N11271   0.856   2.793  10.020  0.1754 -1.1266 -0.2161
  759MPD2    H511272   0.894   2.777  10.112  0.5461  0.9366 -0.0138
  759MPD2    N111273   0.617   2.403  10.107 -0.4703  0.8406  0.4666
  759MPD2    H711274   0.663   2.418  10.196 -0.5215 -2.2022  1.0152
  760MPD2     C11275   0.429   4.417  11.716 -0.2765 -0.2908 -0.1968
  760MPD2    C111276   0.564   4.447  11.728  0.0280  0.4642 -0.0370
  760MPD2    C211277   0.658   4.348  11.777  0.8133  0.0410  0.0131
  760MPD2    C311278   0.614   4.230  11.822  0.3940  0.4343  0.3671
  760MPD2    C411279   0.475   4.212  11.823  0.6019  0.1562 -0.3629
  760MPD2    C511280   0.387   4.305  11.772 -0.5897  0.2198  0.9638
  760MPD2     H11281   0.762   4.377  11.768  0.6109  1.8210  3.6178
  760MPD2    H111282   0.428   4.122  11.862  1.5800  1.1130  3.0425
  760MPD2    H211283   0.354   4.489  11.686 -0.1984  0.0472  0.4111
  760MPD2    H311284   0.280   4.295  11.763 -0.3034 -1.0093 -1.1100
  760MPD2     N11285   0.693   4.137  11.893 -0.1959  0.2166 -0.3919
  760MPD2    H511286   0.649   4.051  11.926 -0.4112  0.8587  0.9985
  760MPD2    N111287   0.630   4.561  11.684 -0.1336  0.2514 -0.1379
  760MPD2    H711288   0.726   4.571  11.715 -0.4116  1.1163  0.4304
  761MPD2     C11289   1.857   3.845  11.463  0.2177 -0.1087 -0.2684
  761MPD2    C111290   1.887   3.824  11.327  0.9256 -0.2136  0.0743
  761MPD2    C211291   2.001   3.881  11.276 -0.0030 -0.2813  0.0029
  761MPD2    C311292   2.095   3.953  11.361 -0.7961  0.8114 -0.1043
  761MPD2    C411293   2.065   3.960  11.497  0.5279  0.3693  0.2383
  761MPD2    C511294   1.951   3.905  11.545 -0.0960  0.0073 -0.3963
  761MPD2     H11295   2.028   3.882  11.171 -1.1982 -0.8445 -0.3110
  761MPD2    H111296   2.136   4.013  11.561  0.1203 -0.1572  1.1241
  761MPD2    H211297   1.768   3.805  11.510  1.4684  0.9764  3.0260
  761MPD2    H311298   1.921   3.925  11.647 -1.6753 -1.0391 -0.6427
  761MPD2     N11299   2.208   4.020  11.321  0.1159  0.2899  0.0306
  761MPD2    H511300   2.253   4.077  11.392  0.7745  0.8252 -0.8263
  761MPD2    N111301   1.801   3.740  11.254  0.5911  0.1418 -0.4798
  761MPD2    H711302   1.729   3.690  11.305 -0.3250  0.3578 -1.5574
  762MPD2     C11303   1.799   3.048  10.644  0.3006 -0.2593  0.3021
  762MPD2    C111304   1.811   3.191  10.644 -0.5147 -0.1470 -0.2534
  762MPD2    C211305   1.850   3.257  10.526 -1.0030  0.4784 -0.1545
  762MPD2    C311306   1.903   3.189  10.419 -0.1243 -0.4990 -0.1725
  762MPD2    C411307   1.897   3.050  10.424  0.7525  0.1265  0.4013
  762MPD2    C511308   1.845   2.984  10.532  0.0002 -0.6125  0.1730
  762MPD2     H11309   1.868   3.364  10.531 -0.0245  0.2796  0.6790
  762MPD2    H111310   1.935   2.986  10.344  1.6865  0.9640  0.1798
  762MPD2    H211311   1.743   3.003  10.724 -0.5228 -0.1236 -0.1979
  762MPD2    H311312   1.828   2.877  10.526 -1.5747 -0.4862  1.9916
  762MPD2     N11313   1.977   3.258  10.327  0.1758 -0.1218  0.0925
  762MPD2    H511314   1.998   3.355  10.346  0.3329  0.4991 -3.2173
  762MPD2    N111315   1.768   3.253  10.756 -0.5369  0.1839  0.2882
  762MPD2    H711316   1.762   3.188  10.833 -0.8150 -1.8015 -1.3936
  763MPD2     C11317   4.113   4.177  16.162  0.2883 -0.7742  0.0456
  763MPD2    C111318   4.001   4.205  16.094 -0.6846  0.6492  0.2836
  763MPD2    C211319   3.937   4.325  16.129 -0.2830 -0.6868 -0.0970
  763MPD2    C311320   3.981   4.412  16.222 -0.4368  0.2990 -0.2419
  763MPD2    C411321   4.082   4.365  16.298  0.2212 -0.3020 -0.7678
  763MPD2    C511322   4.157   4.259  16.260 -0.0632 -0.7881 -0.3777
  763MPD2     H11323   3.842   4.345  16.081 -0.1311 -1.6323 -0.7999
  763MPD2    H111324   4.125   4.418  16.383 -2.5421 -0.3901  0.6733
  763MPD2    H211325   4.177   4.095  16.131  1.1912 -0.2582  0.5450
  763MPD2    H311326   4.236   4.229  16.328  0.6435  1.3640 -0.2478
  763MPD2     N11327   3.908   4.529  16.242  0.7370 -0.1015 -0.5629
  763MPD2    H511328   3.850   4.562  16.165  1.0471 -0.6349 -1.0163
  763MPD2    N111329   3.939   4.108  16.012  0.2062  0.1536  0.5579
  763MPD2    H711330   3.851   4.134  15.969 -0.3712 -0.7717  1.1684
  764MPD2     C11331   1.898   0.970  17.588 -0.1032  0.1236  0.2835
  764MPD2    C111332   1.772   1.028  17.589  0.4052  0.9237  0.0812
  764MPD2    C211333   1.702   1.027  17.709 -0.2216 -0.3781  0.2056
  764MPD2    C311334   1.752   0.959   0.069  0.5290  0.1145  0.9739
  764MPD2    C411335   1.877   0.897   0.065 -0.0813 -0.3128 -0.0524
  764MPD2    C511336   1.953   0.915  17.706 -0.2646 -0.0661  0.6037
  764MPD2     H11337   1.612   1.087  17.713 -0.0703 -0.1510  0.2273
  764MPD2    H111338   1.923   0.850   0.152  1.6026  0.1841 -0.6714
  764MPD2    H211339   1.961   0.972  17.499  0.2985  0.0198  0.5632
  764MPD2    H311340   2.052   0.876  17.686  0.5689  1.1338  2.4007
  764MPD2     N11341   1.673   0.957   0.190  0.5978  0.5590 -0.2528
  764MPD2    H511342   1.581   1.001   0.192  1.4636  2.4609 -3.1991
  764MPD2    N111343   1.714   1.099  17.480  0.1365 -0.4573 -0.3595
  764MPD2    H711344   1.626   1.147  17.501 -0.8387 -1.3276 -2.4210
  765MPD2     C11345   1.811   3.631  15.451  0.1691  0.4400 -0.0927
  765MPD2    C111346   1.864   3.695  15.564  0.2200  1.0754  0.3407
  765MPD2    C211347   1.975   3.640  15.627 -0.1585 -0.0634 -0.0589
  765MPD2    C311348   2.016   3.511  15.597  0.1388 -0.4651  0.2261
  765MPD2    C411349   1.955   3.445  15.498  0.4229 -0.4601 -0.2268
  765MPD2    C511350   1.865   3.508  15.416 -0.0926 -0.0628 -0.7700
  765MPD2     H11351   2.013   3.697  15.711  1.3828 -1.1628 -0.0194
  765MPD2    H111352   2.002   3.350  15.472  1.0447  0.1779 -1.4419
  765MPD2    H211353   1.727   3.663  15.392  0.4949  1.0948 -0.2049
  765MPD2    H311354   1.828   3.466  15.323 -1.4391 -0.9654  0.1724
  765MPD2     N11355   2.133   3.465  15.659 -0.1443  0.2502 -0.0494
  765MPD2    H511356   2.190   3.532  15.710  1.0194  1.3732 -2.8103
  765MPD2    N111357   1.798   3.806  15.615 -0.2317 -0.0327 -0.2906
  765MPD2    H711358   1.703   3.814  15.579 -0.8611 -4.1544  0.4149
  766MPD2     C11359   1.114   3.903  15.463  0.2018  0.3247  0.7045
  766MPD2    C111360   1.245   3.874  15.487 -0.4908  0.0430 -0.5573
  766MPD2    C211361   1.319   3.815  15.382  0.5765  0.1928  0.2118
  766MPD2    C311362   1.255   3.774  15.265 -0.5196 -0.3299 -0.7837
  766MPD2    C411363   1.123   3.805  15.244 -0.3409  0.3529 -0.5743
  766MPD2    C511364   1.050   3.868  15.346 -0.4660 -0.4456  0.3138
  766MPD2     H11365   1.426   3.806  15.391  0.5991  1.6269  1.3423
  766MPD2    H111366   1.065   3.770  15.159 -0.9057  1.7936 -0.7788
  766MPD2    H211367   1.048   3.947  15.537  0.4391  1.5994  0.1597
  766MPD2    H311368   0.943   3.883  15.336 -0.0020  1.9315 -1.2491
  766MPD2     N11369   1.325   3.698  15.165 -0.4095  0.2962 -0.1615
  766MPD2    H511370   1.277   3.678  15.078  1.5775 -2.2139 -0.6777
  766MPD2    N111371   1.298   3.926  15.611  0.0534  0.1169  0.0394
  766MPD2    H711372   1.243   3.985  15.672 -0.6737 -0.5464  0.0275
  767MPD2     C11373   0.941   3.932  14.935 -0.7889  0.1376 -0.4931
  767MPD2    C111374   1.072   3.927  14.905 -0.0910  0.7056 -1.0233
  767MPD2    C211375   1.113   3.852  14.795  0.3679  0.7127 -0.2901
  767MPD2    C311376   1.022   3.790  14.713  0.4359  0.3748  0.7069
  767MPD2    C411377   0.893   3.805  14.736  0.2073  0.0697 -0.1775
  767MPD2    C511378   0.855   3.875  14.845  0.3065 -0.6261  0.2453
  767MPD2     H11379   1.218   3.839  14.769  0.7959  0.0333  1.7442
  767MPD2    H111380   0.820   3.751  14.676 -0.9143  0.8703  0.4499
  767MPD2    H211381   0.907   3.991  15.019 -0.3957  1.2144 -1.0918
  767MPD2    H311382   0.750   3.900  14.861 -0.2877 -3.7464  1.1573
  767MPD2     N11383   1.076   3.715  14.603 -0.5498  0.6316  0.3888
  767MPD2    H511384   1.177   3.710  14.592 -0.8201  0.2999 -1.8264
  767MPD2    N111385   1.164   3.997  14.990 -0.6052 -0.1313 -0.2763
  767MPD2    H711386   1.121   4.052  15.065  0.9051 -0.3141  0.7178
  768MPD2     C11387   2.347   2.463  10.243 -0.0736 -0.1828  0.1216
  768MPD2    C111388   2.324   2.354  10.320 -0.4489  0.0460 -0.1691
  768MPD2    C211389   2.420   2.316  10.411 -0.2646 -0.1679 -0.2945
  768MPD2    C311390   2.531   2.390  10.434  0.0638  0.6673  0.0796
  768MPD2    C411391   2.553   2.498  10.358  0.4757  0.4482  0.3855
  768MPD2    C511392   2.465   2.530  10.260  0.3795 -0.0137 -0.6731
  768MPD2     H11393   2.397   2.232  10.477 -0.6986  1.7786  2.0293
  768MPD2    H111394   2.639   2.563  10.365  1.0968 -0.2209 -1.0228
  768MPD2    H211395   2.274   2.492  10.169  2.4993 -1.1547 -2.7864
  768MPD2    H311396   2.485   2.617  10.197  0.7811  2.0921  2.3720
  768MPD2     N11397   2.626   2.351  10.531  0.1191 -0.5778  0.1217
  768MPD2    H511398   2.698   2.418  10.552 -0.4601  0.4296 -1.1378
  768MPD2    N111399   2.204   2.280  10.313  0.2590  0.2098 -0.0561
  768MPD2    H711400   2.197   2.198  10.372  3.4607  0.1498  0.2139
  769MPD2     C11401   3.382   0.001  15.081  0.0166  0.1493  0.0110
  769MPD2    C111402   3.270   0.053  15.131 -0.0370  0.3138  0.1971
  769MPD2    C211403   3.277   0.146  15.230 -0.4512  0.2974  0.6038
  769MPD2    C311404   3.399   0.210  15.259  0.2529 -0.3207  0.1275
  769MPD2    C411405   3.514   0.154  15.212 -0.7584  0.1581 -0.8152
  769MPD2    C511406   3.503   0.048  15.128 -0.2021  0.3424 -0.4499
  769MPD2     H11407   3.191   0.200  15.269 -1.0711  0.3241 -0.7959
  769MPD2    H111408   3.610   0.180  15.256  0.2605 -3.1628 -1.0672
  769MPD2    H211409   3.377   4.647  15.023  2.4552 -0.2682  0.4586
  769MPD2    H311410   3.595   0.002  15.094 -1.0683 -0.2364 -2.0119
  769MPD2     N11411   3.406   0.315  15.360  0.3738  0.1093  0.1565
  769MPD2    H511412   3.319   0.337  15.408  1.4333  0.5816  1.8487
  769MPD2    N111413   3.155   4.737  15.077 -0.1482 -0.6284  0.0059
  769MPD2    H711414   3.168   4.680  14.994 -4.0909 -1.1973 -0.2354
  770MPD2     C11415   2.859   3.988  14.535 -0.3663 -0.0662 -0.7083
  770MPD2    C111416   2.743   4.024  14.593  0.6619 -0.4292  0.2907
  770MPD2    C211417   2.732   4.144  14.661  0.5724  0.9976 -0.5309
  770MPD2    C311418   2.842   4.225  14.684  0.5042  0.2300  0.7928
  770MPD2    C411419   2.961   4.182  14.632 -0.2777  0.1520 -1.0751
  770MPD2    C511420   2.968   4.068  14.555 -0.1017 -0.4971 -0.3417
  770MPD2     H11421   2.634   4.172  14.700  0.0820  1.0576 -1.8166
  770MPD2    H111422   3.047   4.248  14.636 -1.2806  1.4242 -0.4115
  770MPD2    H211423   2.875   3.887  14.500 -0.1076 -0.5519  0.8170
  770MPD2    H311424   3.068   4.048  14.518 -0.2250  1.9991 -1.9905
  770MPD2     N11425   2.822   4.352  14.743  0.7148 -0.2085  0.1077
  770MPD2    H511426   2.727   4.370  14.775  0.9764  4.0604 -1.5117
  770MPD2    N111427   2.642   3.924  14.602 -0.0531 -0.1020  0.7287
  770MPD2    H711428   2.650   3.839  14.547 -2.3029 -1.3833  2.3705
  771MPD2     C11429   3.909   3.297  14.141  0.4370 -0.0643  0.0331
  771MPD2    C111430   3.837   3.320  14.018 -0.1963  0.5789 -0.3899
  771MPD2    C211431   3.794   3.208  13.947 -0.4625  0.4915  0.3115
  771MPD2    C311432   3.853   3.086  13.978  1.0880 -0.0708 -0.0808
  771MPD2    C411433   3.935   3.065  14.091 -0.3225 -0.1760 -0.2410
  771MPD2    C511434   3.951   3.173  14.182 -0.0166  0.2132  0.7877
  771MPD2     H11435   3.713   3.205  13.876 -0.4794 -0.6704  0.3865
  771MPD2    H111436   3.966   2.965  14.116 -0.4975 -0.4583 -1.1644
  771MPD2    H211437   3.928   3.378  14.209 -2.2790 -1.0298  1.9317
  771MPD2    H311438   3.996   3.152  14.278  0.5105 -0.4466  0.3932
  771MPD2     N11439   3.822   2.981  13.892  0.6009  0.3181 -0.4823
  771MPD2    H511440   3.770   2.999  13.807  0.2208  0.2124 -0.2724
  771MPD2    N111441   3.813   3.452  13.968 -0.0575 -0.1712 -0.7949
  771MPD2    H711442   3.755   3.455  13.885 -0.3598 -2.2042 -0.6457
  772MPD2     C11443   3.369   3.682  13.486 -0.0805  0.7256  0.0013
  772MPD2    C111444   3.377   3.697  13.625  0.4890 -0.0592  0.4999
  772MPD2    C211445   3.264   3.668  13.704  0.6514 -0.2073  0.1635
  772MPD2    C311446   3.145   3.621  13.643  0.2093  0.4257 -0.4235
  772MPD2    C411447   3.144   3.604  13.510 -0.1053 -0.4800 -0.6161
  772MPD2    C511448   3.254   3.635  13.434 -0.0467 -0.4929  0.1376
  772MPD2     H11449   3.276   3.678  13.811  1.1017  0.0739  0.0895
  772MPD2    H111450   3.065   3.546  13.464 -0.9638  0.3072 -0.1207
  772MPD2    H211451   3.456   3.705  13.424  0.5359 -2.9295 -0.4763
  772MPD2    H311452   3.244   3.609  13.330  0.5173  1.2455 -0.3612
  772MPD2     N11453   3.033   3.577  13.708  0.6746  0.9633 -0.0555
  772MPD2    H511454   2.953   3.558  13.647  0.3946  0.5563  0.4381
  772MPD2    N111455   3.496   3.715  13.688  0.1099  0.4687 -0.3162
  772MPD2    H711456   3.483   3.707  13.788  1.5795  0.1724 -0.1473
  773MPD2     C11457   2.394   3.911  17.427 -0.0244 -0.4143  0.0896
  773MPD2    C111458   2.375   4.021  17.506 -0.0350  0.4082 -0.3093
  773MPD2    C211459   2.457   4.047  17.618  0.2726  0.7163  0.4059
  773MPD2    C311460   2.557   3.957  17.655  0.7896 -0.1756 -0.8238
  773MPD2    C411461   2.575   3.849  17.575 -0.2064 -0.6824 -0.5459
  773MPD2    C511462   2.499   3.826  17.459 -0.0790 -0.8559  1.0633
  773MPD2     H11463   2.448   4.140  17.674 -2.7739 -0.0510  1.1731
  773MPD2    H111464   2.653   3.776  17.590 -0.5179 -1.3740 -2.3117
  773MPD2    H211465   2.333   3.903  17.338  2.1079  1.9011 -1.5776
  773MPD2    H311466   2.529   3.758  17.380 -1.4653 -0.4037  0.1535
  773MPD2     N11467   2.647   3.981   0.009  0.0931 -0.2387 -0.0756
  773MPD2    H511468   2.728   3.922   0.028 -1.0406 -1.0366  2.2383
  773MPD2    N111469   2.277   4.121  17.482 -0.4344  0.0888 -0.2417
  773MPD2    H711470   2.290   4.211  17.527 -1.8638  1.3373 -2.3213
  774MPD2     C11471   2.155   3.337  13.030 -0.3130 -0.3355  0.0054
  774MPD2    C111472   2.113   3.425  13.134  0.2155 -0.6936  0.2005
  774MPD2    C211473   2.210   3.515  13.177 -0.5652  0.0075 -0.1446
  774MPD2    C311474   2.341   3.505  13.139 -0.1076 -0.0197  0.3610
  774MPD2    C411475   2.382   3.404  13.049 -0.3311  0.2492  0.1699
  774MPD2    C511476   2.284   3.321  12.994  0.4932 -0.5567  0.7584
  774MPD2     H11477   2.183   3.596  13.244  0.5434 -1.2021  1.7673
  774MPD2    H111478   2.487   3.398  13.026 -0.0572 -0.3110  1.5277
  774MPD2    H211479   2.088   3.276  12.970  1.7092 -2.0126 -0.5489
  774MPD2    H311480   2.310   3.255  12.912 -1.7508 -1.8883  1.1367
  774MPD2     N11481   2.438   3.582  13.208 -0.4171 -0.1495 -0.1660
  774MPD2    H511482   2.407   3.635  13.289  0.0223 -0.1092 -0.0232
  774MPD2    N111483   1.974   3.434  13.171 -0.0617  0.3688  0.1281
  774MPD2    H711484   1.920   3.357  13.134  0.3787 -0.4236  1.1481
  775MPD2     C11485   3.549   0.127  15.672 -0.1127 -0.4592 -0.8640
  775MPD2    C111486   3.552   0.240  15.752 -0.4696  0.2835  0.1095
  775MPD2    C211487   3.643   0.339  15.720  0.0412  0.1056 -0.1136
  775MPD2    C311488   3.726   0.334  15.613 -0.3156 -0.1388  0.1136
  775MPD2    C411489   3.718   0.221  15.535  0.4719  0.3286 -0.5230
  775MPD2    C511490   3.634   0.122  15.563  1.5507 -0.7199  1.3463
  775MPD2     H11491   3.635   0.435  15.770  0.7928 -0.5890  1.3293
  775MPD2    H111492   3.780   0.221  15.447  0.6838 -2.2701 -0.3727
  775MPD2    H211493   3.476   0.049  15.690 -0.0819 -0.5694 -1.2288
  775MPD2    H311494   3.626   0.036  15.496  0.4092  0.3581  0.0942
  775MPD2     N11495   3.803   0.441  15.573 -0.1307 -0.7595  0.2007
  775MPD2    H511496   3.852   0.430  15.485  1.3595  1.1128  0.7828
  775MPD2    N111497   3.464   0.251  15.861 -0.0433 -0.1113 -0.1485
  775MPD2    H711498   3.388   0.183  15.864 -0.2311  0.1877  1.6922
  776MPD2     C11499   1.509   0.419  11.702 -0.7529 -0.3435  0.0214
  776MPD2    C111500   1.647   0.440  11.701 -0.1689  0.1835  0.4563
  776MPD2    C211501   1.705   0.555  11.666 -0.5119  0.4983 -1.0679
  776MPD2    C311502   1.624   0.666  11.641 -0.5474  0.2148 -0.2749
  776MPD2    C411503   1.486   0.645  11.626 -0.3037  0.3096  0.0788
  776MPD2    C511504   1.441   0.515  11.650  1.0241 -0.1016 -0.1388
  776MPD2     H11505   1.810   0.549  11.637 -0.0819 -0.6545  0.7550
  776MPD2    H111506   1.409   0.718  11.601 -0.5520 -0.9309 -2.7776
  776MPD2    H211507   1.464   0.325  11.731 -0.6856 -1.3255 -2.9989
  776MPD2    H311508   1.334   0.508  11.634  1.0247 -1.3291  0.3868
  776MPD2     N11509   1.667   0.795  11.613  0.5327 -0.9543  1.1188
  776MPD2    H511510   1.603   0.865  11.576  2.4028 -0.1453 -0.6040
  776MPD2    N111511   1.727   0.343  11.760 -0.1914  0.2062  0.3762
  776MPD2    H711512   1.685   0.252  11.777  0.3018 -0.1323 -0.2175
  777MPD2     C11513   2.962   3.149   0.844 -0.1776  0.4033  0.1610
  777MPD2    C111514   2.850   3.097   0.902  0.3792 -0.4632 -0.0772
  777MPD2    C211515   2.803   2.976   0.849 -0.3376  0.2975 -0.1957
  777MPD2    C311516   2.868   2.903   0.746  0.4856  0.7073 -0.3435
  777MPD2    C411517   2.978   2.958   0.686 -0.8222  0.7708  0.1052
  777MPD2    C511518   3.021   3.083   0.737  0.8927  0.9977 -0.0391
  777MPD2     H11519   2.711   2.948   0.899 -0.3948 -2.2677 -1.7500
  777MPD2    H111520   3.032   2.913   0.604  1.1413 -0.1468  1.8907
  777MPD2    H211521   3.004   3.247   0.867 -1.2438  1.3617 -1.9508
  777MPD2    H311522   3.101   3.138   0.690  0.8103  3.0519  2.2442
  777MPD2     N11523   2.815   2.774   0.718  0.0760 -0.3049  0.1547
  777MPD2    H511524   2.735   2.744   0.772  0.3500  1.1404  1.3564
  777MPD2    N111525   2.781   3.177   0.998 -0.5178 -0.1359  0.1416
  777MPD2    H711526   2.822   3.270   0.995 -1.5996  0.3829  1.7382
  778MPD2     C11527   3.868   3.279  14.730 -0.1528  0.4519 -0.7471
  778MPD2    C111528   3.947   3.170  14.702  0.1292 -0.1787  0.3712
  778MPD2    C211529   4.051   3.189  14.612 -0.0500  0.1223 -0.7412
  778MPD2    C311530   4.090   3.307  14.559  0.2792 -0.4844 -0.0122
  778MPD2    C411531   4.009   3.414  14.592 -0.6148  0.3889 -0.0895
  778MPD2    C511532   3.909   3.399  14.684  0.4814  0.5508 -0.2271
  778MPD2     H11533   4.115   3.104  14.593 -1.0229 -1.1738  1.7684
  778MPD2    H111534   4.028   3.519  14.573  2.5322 -0.2190 -0.3415
  778MPD2    H211535   3.784   3.272  14.799  0.0917 -0.4040 -0.5331
  778MPD2    H311536   3.845   3.483  14.707  0.6008  0.8374 -0.9622
  778MPD2     N11537   4.206   3.308  14.481  0.3075 -0.3260 -0.0649
  778MPD2    H511538   4.250   3.217  14.472  3.2285  1.4308 -3.9369
  778MPD2    N111539   3.915   3.035  14.737  0.5369  0.3465  0.2447
  778MPD2    H711540   3.973   2.964  14.695 -2.4167 -1.5377 -0.6454
  779MPD2     C11541   3.510   1.754  14.288  0.6046 -0.0116 -0.6882
  779MPD2    C111542   3.636   1.768  14.228  0.7778 -0.8214  0.4410
  779MPD2    C211543   3.669   1.877  14.158  0.1361  0.3390  0.2001
  779MPD2    C311544   3.575   1.983  14.157 -0.0289 -0.2817  0.1732
  779MPD2    C411545   3.455   1.968  14.223  0.1656 -0.2288  0.9797
  779MPD2    C511546   3.421   1.857  14.294  0.1774 -0.1919 -0.7195
  779MPD2     H11547   3.746   1.875  14.083 -1.4496  0.3916 -1.4350
  779MPD2    H111548   3.379   2.046  14.218 -1.3304 -1.5646  2.8911
  779MPD2    H211549   3.496   1.674  14.359 -1.4770  1.2025  0.2488
  779MPD2    H311550   3.332   1.846  14.354  2.1074  1.5777  2.4776
  779MPD2     N11551   3.618   2.099  14.088 -0.2187  0.1857 -0.1771
  779MPD2    H511552   3.704   2.083  14.037  0.3337 -0.4929  0.9523
  779MPD2    N111553   3.729   1.658  14.229 -0.1946  0.1712  0.1768
  779MPD2    H711554   3.815   1.683  14.183 -0.7245 -0.3684 -1.0899
  780MPD2     C11555   3.501   2.350   0.720  0.1747 -0.1270  0.1169
  780MPD2    C111556   3.423   2.246   0.676  0.3180 -0.3196  0.1038
  780MPD2    C211557   3.407   2.218   0.539 -0.4759  0.7757 -0.3148
  780MPD2    C311558   3.459   2.309   0.447 -0.2690 -0.3078 -0.3925
  780MPD2    C411559   3.542   2.410   0.491  0.2948  0.2582  0.4647
  780MPD2    C511560   3.558   2.431   0.625 -0.4951  0.5823 -0.5269
  780MPD2     H11561   3.342   2.136   0.511 -0.4433  0.1366  1.4927
  780MPD2    H111562   3.602   2.478   0.431  0.5689  0.8097  1.3548
  780MPD2    H211563   3.524   2.364   0.825  0.5306 -1.4483  0.2140
  780MPD2    H311564   3.629   2.505   0.661 -3.2864  2.3922  1.3112
  780MPD2     N11565   3.435   2.288   0.309  0.2928  0.0819  0.7059
  780MPD2    H511566   3.374   2.212   0.279  1.0754 -0.4848  0.5322
  780MPD2    N111567   3.367   2.171   0.780  0.2347 -0.0628 -0.2052
  780MPD2    H711568   3.403   2.206   0.869  0.9202 -2.2912  0.3795
  781MPD2     C11569   0.213   3.262  11.919  0.2051  0.0534 -0.0878
  781MPD2    C111570   0.271   3.361  11.997  0.1538  0.1264  0.6696
  781MPD2    C211571   0.399   3.405  11.969 -0.5921  0.9221 -0.2260
  781MPD2    C311572   0.451   3.369  11.846  0.0026 -0.2664 -0.3198
  781MPD2    C411573   0.387   3.283  11.760  0.0929  0.1385  0.5537
  781MPD2    C511574   0.272   3.218  11.802  0.1036  0.3887  0.1871
  781MPD2     H11575   0.434   3.485  12.033 -0.2811  0.3188  0.3553
  781MPD2    H111576   0.427   3.260  11.662  2.0686 -2.8734  2.0609
  781MPD2    H211577   0.120   3.214  11.947 -0.0059  1.0485  0.9228
  781MPD2    H311578   0.218   3.145  11.742  0.5588  0.0256  0.2148
  781MPD2     N11579   0.576   3.422  11.809  0.3638  0.0059 -1.3764
  781MPD2    H511580   0.602   3.407  11.712  0.5661 -0.6540 -1.2196
  781MPD2    N111581   0.193   3.429  12.095 -0.2112  0.2572 -0.3383
  781MPD2    H711582   0.237   3.493  12.160 -0.0795 -2.3012  2.1185
  782MPD2     C11583   2.395   0.199  10.378 -0.2309 -0.1188 -0.0840
  782MPD2    C111584   2.521   0.203  10.327  0.3682  0.3049  0.2821
  782MPD2    C211585   2.619   0.250  10.411  0.5395 -0.3179  0.0980
  782MPD2    C311586   2.600   0.259  10.554  0.3011  0.3384 -0.0658
  782MPD2    C411587   2.472   0.245  10.598  0.5809 -0.1723  0.1133
  782MPD2    C511588   2.371   0.222  10.512  0.7347 -0.1183  0.7273
  782MPD2     H11589   2.716   0.254  10.362  0.3205 -0.1368 -0.3218
  782MPD2    H111590   2.448   0.254  10.704  0.2178 -0.9003  0.0904
  782MPD2    H211591   2.313   0.149  10.328  0.8393  0.5303 -2.4662
  782MPD2    H311592   2.270   0.204  10.547 -0.1227  1.8822 -0.7516
  782MPD2     N11593   2.706   0.288  10.634 -0.1142  0.4419 -0.9926
  782MPD2    H511594   2.790   0.286  10.576  0.1685  0.4663 -0.5849
  782MPD2    N111595   2.561   0.140  10.203  0.0934  0.6934  0.2733
  782MPD2    H711596   2.659   0.147  10.174 -1.4673  1.6539 -4.8021
  783MPD2     C11597   2.198   4.125  10.599 -0.6640  0.0658 -0.4123
  783MPD2    C111598   2.297   4.209  10.639 -0.0723 -0.7808 -0.1645
  783MPD2    C211599   2.360   4.292  10.552 -0.8411 -0.2551 -0.0895
  783MPD2    C311600   2.333   4.288  10.417  0.0415 -0.1771  0.1300
  783MPD2    C411601   2.234   4.206  10.373  0.0953  0.1845 -0.0021
  783MPD2    C511602   2.171   4.123  10.466 -0.1162 -0.6066  0.6234
  783MPD2     H11603   2.437   4.359  10.587 -1.5050  1.0014 -1.0435
  783MPD2    H111604   2.207   4.206  10.268  1.8583 -1.8429 -0.4617
  783MPD2    H211605   2.152   4.061  10.674  0.1919 -1.1252 -0.8996
  783MPD2    H311606   2.098   4.052  10.428  1.0176 -1.5340  0.1838
  783MPD2     N11607   2.411   4.364  10.335  0.2970 -0.5867 -0.8264
  783MPD2    H511608   2.472   4.427  10.386 -1.1966  0.8718 -0.8359
  783MPD2    N111609   2.323   4.212  10.782  0.7139  0.3324 -0.1257
  783MPD2    H711610   2.249   4.168  10.835 -1.2763  0.6803 -2.5868
  784MPD2     C11611   0.648   4.577   0.314 -0.2465  0.2773  0.3592
  784MPD2    C111612   0.595   4.660   0.407  0.0082 -0.3532 -0.0551
  784MPD2    C211613   0.496   0.007   0.354  0.2493 -0.0648  0.3219
  784MPD2    C311614   0.461   0.003   0.222 -0.1862  0.2376 -0.0608
  784MPD2    C411615   0.519   4.657   0.130 -0.2782  0.5986  0.3708
  784MPD2    C511616   0.610   4.567   0.177 -0.1894  0.0327  0.4643
  784MPD2     H11617   0.446   0.071   0.426 -0.8810 -0.3980 -0.1599
  784MPD2    H111618   0.482   4.641   0.030 -4.5326 -2.2632  2.3931
  784MPD2    H211619   0.734   4.517   0.343  1.7447  2.3006 -1.3018
  784MPD2    H311620   0.648   4.494   0.107  2.2791  0.1252  1.7159
  784MPD2     N11621   0.361   0.097   0.182 -0.2361  0.1353  0.4444
  784MPD2    H511622   0.306   0.142   0.254  0.6193 -3.9844  3.7196
  784MPD2    N111623   0.647   4.677   0.532 -0.1648 -0.1555  0.2688
  784MPD2    H711624   0.598   4.735   0.598  1.0496  0.9614  0.1962
  785MPD2     C11625   1.091   2.809  10.427  0.1370 -0.4488  0.9755
  785MPD2    C111626   1.015   2.878  10.520 -0.2360  0.2812 -0.0112
  785MPD2    C211627   0.892   2.825  10.553 -0.0086 -0.0580  0.1950
  785MPD2    C311628   0.841   2.717  10.494  0.8173 -0.8359  0.2756
  785MPD2    C411629   0.913   2.655  10.395  0.1994 -0.3965  0.5995
  785MPD2    C511630   1.041   2.703  10.365 -0.0919  0.1451  0.5110
  785MPD2     H11631   0.821   2.871  10.620 -0.1291 -1.6455  1.1557
  785MPD2    H111632   0.871   2.574  10.337  1.1343 -0.8819  0.6010
  785MPD2    H211633   1.193   2.838  10.406 -0.1150  0.3744  0.8658
  785MPD2    H311634   1.099   2.661  10.283 -0.8508 -0.5840  0.3473
  785MPD2     N11635   0.712   2.681  10.525  0.5639 -0.0884 -0.1237
  785MPD2    H511636   0.669   2.746  10.590 -0.2351 -0.4728 -0.2787
  785MPD2    N111637   1.056   2.991  10.589  0.2788  0.3521  0.1834
  785MPD2    H711638   0.981   3.032  10.644 -1.2114 -3.3687  0.9719
  786MPD2     C11639   4.600   1.591  14.875 -0.0976 -0.2614  0.2322
  786MPD2    C111640   4.535   1.469  14.885  0.6212  0.2462 -0.7008
  786MPD2    C211641   4.520   1.419  15.015  0.3644 -0.2020 -0.2025
  786MPD2    C311642   4.558   1.491  15.125  0.4897 -0.2591 -0.0371
  786MPD2    C411643   4.625   1.610  15.112 -0.4957  0.4117  0.0947
  786MPD2    C511644   4.641   1.661  14.984 -0.1830  0.5185  0.2006
  786MPD2     H11645   4.488   1.316  15.020 -1.0986  0.2521 -0.4402
  786MPD2    H111646   4.645   1.674  15.198 -1.2662 -0.8968  1.2595
  786MPD2    H211647   4.630   1.637  14.781  2.5691  0.5866  1.4837
  786MPD2    H311648   4.678   1.759  14.955 -3.5284  1.5280 -0.6377
  786MPD2     N11649   4.545   1.438  15.256 -0.0330 -0.2227  0.1747
  786MPD2    H511650   4.600   1.481  15.330  1.5388  0.0840 -1.1584
  786MPD2    N111651   4.497   1.399  14.774  0.1172 -0.2535  0.1871
  786MPD2    H711652   4.437   1.319  14.791 -2.7737  1.8911  0.2991
  787MPD2     C11653   4.585   0.783  14.819 -0.3459  0.2664  0.0915
  787MPD2    C111654   4.600   0.797  14.686 -0.1020 -0.3323  0.5710
  787MPD2    C211655   4.640   0.682  14.614 -0.0515  0.0260 -0.0169
  787MPD2    C311656   4.664   0.566  14.680 -0.7390  0.3343  0.1028
  787MPD2    C411657   4.658   0.564  14.819 -0.2359 -0.1032  0.2587
  787MPD2    C511658   4.621   0.671  14.889  0.0517 -0.3155  0.0415
  787MPD2     H11659   4.643   0.691  14.506 -0.8101  1.5027  0.0850
  787MPD2    H111660   4.688   0.473  14.870 -0.6949 -1.5089 -1.9451
  787MPD2    H211661   4.556   0.874  14.869 -1.6320 -0.4581  0.6515
  787MPD2    H311662   4.595   0.668  14.994  0.0212  0.5324  0.0577
  787MPD2     N11663   4.693   0.459  14.596  0.2148  0.0458  0.5161
  787MPD2    H511664   4.703   0.484  14.499  1.2089 -0.0603  0.5866
  787MPD2    N111665   4.568   0.920  14.619 -0.8866 -0.2507 -0.1926
  787MPD2    H711666   4.502   0.983  14.665 -0.2627 -1.0268  1.7492
  788MPD2     C11667   1.296   0.014   0.893 -0.0488  0.5871 -0.3198
  788MPD2    C111668   1.310   4.670   0.776  1.0444 -0.1329 -0.1317
  788MPD2    C211669   1.244   4.704   0.661 -0.0759 -0.1775  0.6529
  788MPD2    C311670   1.158   0.081   0.655 -0.3591  0.3797  0.2454
  788MPD2    C411671   1.145   0.164   0.766 -0.6322  0.9803  0.2504
  788MPD2    C511672   1.212   0.125   0.882  1.2057  0.0234  0.3656
  788MPD2     H11673   1.263   4.640   0.576  0.8296  0.4696  0.3778
  788MPD2    H111674   1.084   0.254   0.765 -2.5662 -0.3358  2.2160
  788MPD2    H211675   1.348   4.735   0.987 -0.0974  1.3414 -0.1594
  788MPD2    H311676   1.201   0.183   0.973 -2.5537  1.0043 -0.7296
  788MPD2     N11677   1.087   0.120   0.537 -0.3902 -0.1260  0.6348
  788MPD2    H511678   1.048   0.213   0.541  1.1131  0.3949  3.1166
  788MPD2    N111679   1.393   4.561   0.759 -0.4879 -0.2042  0.6895
  788MPD2    H711680   1.379   4.519   0.668 -0.9030 -0.0512  0.6809
  789MPD2     C11681   1.853   3.865  16.526 -0.5456  0.0031 -0.2027
  789MPD2    C111682   1.754   3.902  16.436  0.7640 -0.5451 -0.6895
  789MPD2    C211683   1.717   4.036  16.419  0.4368 -0.2657  0.3005
  789MPD2    C311684   1.747   4.126  16.524 -0.3915 -0.1971 -0.4186
  789MPD2    C411685   1.843   4.088  16.612 -0.2613 -0.0933 -0.3676
  789MPD2    C511686   1.899   3.964  16.611 -0.6678  0.1955 -0.3318
  789MPD2     H11687   1.647   4.065  16.342 -1.3105 -2.8463  0.9081
  789MPD2    H111688   1.874   4.164  16.683 -0.6141 -2.1492  2.0200
  789MPD2    H211689   1.909   3.773  16.535  0.1393  0.5977  1.6389
  789MPD2    H311690   1.983   3.937  16.674 -1.0752 -2.2585 -0.8444
  789MPD2     N11691   1.696   4.251  16.542 -0.1288  0.4288 -0.3486
  789MPD2    H511692   1.723   4.286  16.633 -0.3417 -2.3757  0.8117
  789MPD2    N111693   1.704   3.805  16.351  0.0443 -0.1068 -0.2814
  789MPD2    H711694   1.646   3.835  16.273  1.7682 -0.7581 -1.8029
  790MPD2     C11695   3.212   0.340  13.185  0.1153  0.6274 -0.3008
  790MPD2    C111696   3.131   0.447  13.193  1.2821  0.0763 -0.2311
  790MPD2    C211697   3.009   0.438  13.141 -0.1253 -0.6044 -0.1253
  790MPD2    C311698   2.980   0.329  13.057 -0.3052  0.2566  0.9181
  790MPD2    C411699   3.063   0.224  13.045  0.1239  0.0195  0.3706
  790MPD2    C511700   3.181   0.226  13.114  0.7228  0.5968  0.0100
  790MPD2     H11701   2.948   0.528  13.143  0.3105 -0.3220  0.3949
  790MPD2    H111702   3.047   0.136  12.984  1.8697  0.3000 -0.5004
  790MPD2    H211703   3.317   0.348  13.212  0.1090 -1.2435  0.2738
  790MPD2    H311704   3.259   0.152  13.104  0.8569  0.9771 -1.9051
  790MPD2     N11705   2.877   0.353  12.968 -0.6119 -0.0716  0.4631
  790MPD2    H511706   2.822   0.436  12.985 -0.3384  0.5892 -1.7832
  790MPD2    N111707   3.191   0.566  13.249 -0.5168  0.6261 -0.2657
  790MPD2    H711708   3.278   0.554  13.300  0.0614  2.1165 -0.8993
  791MPD2     C11709   2.132   0.431  12.857 -0.5839 -0.7036 -0.1225
  791MPD2    C111710   2.188   0.328  12.792  0.2940  0.3181 -0.3018
  791MPD2    C211711   2.120   0.206  12.785 -0.1019 -0.3854  0.1983
  791MPD2    C311712   1.998   0.188  12.849 -0.7102 -0.0065 -0.4918
  791MPD2    C411713   1.947   0.292  12.926 -0.4018 -0.1495  0.5933
  791MPD2    C511714   2.017   0.415  12.927 -0.0720 -0.1698  0.1911
  791MPD2     H11715   2.153   0.124  12.722 -3.0981 -2.0966  0.8795
  791MPD2    H111716   1.854   0.279  12.980 -1.5189 -0.5471 -1.4460
  791MPD2    H211717   2.173   0.530  12.875  1.4817 -1.9681  2.0697
  791MPD2    H311718   1.988   0.505  12.980 -3.2189  0.4389 -2.5756
  791MPD2     N11719   1.928   0.067  12.832 -0.0725  0.0469  0.3417
  791MPD2    H511720   1.976   4.728  12.786 -2.8215 -1.2482 -0.3833
  791MPD2    N111721   2.315   0.352  12.731  0.5901  0.0867 -0.7414
  791MPD2    H711722   2.344   0.448  12.741 -0.4769  0.1237  1.8707
  792MPD2     C11723   2.669   0.642  11.701  1.3036  0.0221 -0.2192
  792MPD2    C111724   2.637   0.689  11.578  0.3306 -0.2992 -0.0344
  792MPD2    C211725   2.504   0.708  11.542 -0.1321 -0.1751 -0.3285
  792MPD2    C311726   2.400   0.677  11.629  0.0660 -0.7130 -0.4549
  792MPD2    C411727   2.437   0.624  11.751  0.8882 -0.2782  0.3341
  792MPD2    C511728   2.569   0.605  11.790  0.0823  0.4951 -0.2314
  792MPD2     H11729   2.482   0.749  11.444 -0.6145 -2.1451 -1.0413
  792MPD2    H111730   2.357   0.600  11.820  0.1719  0.4153 -0.2565
  792MPD2    H211731   2.773   0.635  11.731  1.2575  1.2701  0.2056
  792MPD2    H311732   2.593   0.556  11.884  0.5757  3.5543  1.2381
  792MPD2     N11733   2.263   0.683  11.592  0.3937 -0.0652  0.4249
  792MPD2    H511734   2.197   0.647  11.660  1.8116 -0.8600  1.3668
  792MPD2    N111735   2.743   0.737  11.494  0.2704  0.0831  0.5166
  792MPD2    H711736   2.838   0.747  11.529 -0.4411  3.3806  1.4421
  793MPD2     C11737   1.963   0.749  10.653  0.5840  0.4689  0.0254
  793MPD2    C111738   2.084   0.735  10.721 -0.2529  0.5647 -0.1380
  793MPD2    C211739   2.084   0.727  10.860 -0.4534  0.4798 -0.4361
  793MPD2    C311740   1.965   0.734  10.925 -0.3133  0.1469 -0.4093
  793MPD2    C411741   1.848   0.749  10.858  0.1439  0.1579 -0.0240
  793MPD2    C511742   1.845   0.753  10.720  0.0126 -0.5410 -0.3816
  793MPD2     H11743   2.173   0.718  10.922  0.7266  2.4563 -1.8253
  793MPD2    H111744   1.757   0.779  10.908  0.2033  2.0914 -1.0562
  793MPD2    H211745   1.957   0.757  10.545  0.4902  2.2745  0.1688
  793MPD2    H311746   1.749   0.772  10.673 -0.3739 -0.3624  0.4891
  793MPD2     N11747   1.980   0.712  11.063 -1.0304  0.0654 -0.4872
  793MPD2    H511748   2.073   0.714  11.104 -0.5379  1.1978 -1.6648
  793MPD2    N111749   2.212   0.707  10.659 -0.6022  0.0738  0.0117
  793MPD2    H711750   2.289   0.680  10.719  0.2195  0.1821 -0.9788
  794MPD2     C11751   2.026   0.084  17.221  0.8118  0.4796 -0.0986
  794MPD2    C111752   2.027   0.018  17.103  0.5356  0.0557 -0.9470
  794MPD2    C211753   1.983   0.075  16.979  0.3627  0.0157 -0.0299
  794MPD2    C311754   1.959   0.204  16.970 -0.3124  0.3384  0.3644
  794MPD2    C411755   1.964   0.279  17.090  0.3330  0.9291  0.4186
  794MPD2    C511756   1.999   0.221  17.213 -0.9298 -0.3327 -0.0361
  794MPD2     H11757   1.985   0.003  16.898  3.3428 -1.2373  1.1721
  794MPD2    H111758   1.950   0.385  17.101  0.7317  1.1266 -0.9061
  794MPD2    H211759   2.061   0.045  17.316  0.2436 -1.8626 -0.8478
  794MPD2    H311760   2.004   0.278  17.305 -2.0744 -1.3685  0.6709
  794MPD2     N11761   1.932   0.269  16.851 -0.3298 -0.0838  0.7147
  794MPD2    H511762   1.912   0.368  16.862  0.3241 -0.1681  2.6086
  794MPD2    N111763   2.050   4.615  17.106 -0.3728 -0.5673 -0.3155
  794MPD2    H711764   2.055   4.568  17.016 -1.3002  0.4020 -0.8903
  795MPD2     C11765   0.735   2.193  12.540  0.0916  0.2488 -0.4155
  795MPD2    C111766   0.635   2.120  12.603 -0.8361 -0.4396  0.3057
  795MPD2    C211767   0.664   2.036  12.710 -0.4452 -0.0695 -0.1973
  795MPD2    C311768   0.795   2.021  12.749 -0.0122 -0.0749  0.0977
  795MPD2    C411769   0.891   2.089  12.682  0.1474  0.4058 -0.3724
  795MPD2    C511770   0.861   2.165  12.579  0.3149  0.0780 -0.4719
  795MPD2     H11771   0.578   1.983  12.751  0.5779 -2.1375 -0.6897
  795MPD2    H111772   0.994   2.064  12.704 -0.5599 -1.6208  0.6560
  795MPD2    H211773   0.734   2.261  12.455  2.1317 -2.1356 -2.3577
  795MPD2    H311774   0.948   2.215  12.538  0.9288 -0.9288 -0.3975
  795MPD2     N11775   0.846   1.937  12.847 -0.0039 -0.0853  0.4572
  795MPD2    H511776   0.948   1.945  12.848  0.0594 -1.1206  2.8624
  795MPD2    N111777   0.506   2.115  12.552 -0.3117  0.1550 -0.1104
  795MPD2    H711778   0.431   2.058  12.590 -1.5280  1.7064 -0.1810
  796MPD2     C11779   4.361   3.468  15.775 -0.1345  0.1407  0.0804
  796MPD2    C111780   4.414   3.536  15.888 -0.2342  0.2303  0.1494
  796MPD2    C211781   4.395   3.678  15.896  0.5582  0.1846 -0.7642
  796MPD2    C311782   4.316   3.745  15.798 -0.9926 -0.0400  0.0108
  796MPD2    C411783   4.261   3.675  15.696 -0.4667 -0.0307  1.1219
  796MPD2    C511784   4.280   3.541  15.692 -1.0888 -0.5739 -0.3239
  796MPD2     H11785   4.443   3.736  15.974 -1.6803  0.5920  0.2858
  796MPD2    H111786   4.198   3.726  15.625  0.9593 -0.7614 -0.6700
  796MPD2    H211787   4.374   3.361  15.766 -1.4738 -0.1932  2.2688
  796MPD2    H311788   4.228   3.489  15.613  0.6794  0.1361 -1.9484
  796MPD2     N11789   4.304   3.886  15.811  0.1116  0.2364 -0.5607
  796MPD2    H511790   4.358   3.924  15.888 -0.2752  0.9561 -0.6530
  796MPD2    N111791   4.473   3.458  15.990 -0.3348  0.0239  0.4154
  796MPD2    H711792   4.488   3.360  15.974  0.8615 -0.1186  2.3649
  797MPD2     C11793   0.906   2.951  17.453  0.4898 -0.1177 -0.2779
  797MPD2    C111794   0.961   3.066  17.421  0.2295 -0.4799  0.1357
  797MPD2    C211795   0.891   3.159  17.342 -1.1130 -0.1963 -0.4022
  797MPD2    C311796   0.768   3.135  17.309  0.0326 -0.5102  0.2169
  797MPD2    C411797   0.710   3.012  17.333 -0.1368  0.0016 -0.3019
  797MPD2    C511798   0.782   2.916  17.407  0.6243  0.1122  1.0780
  797MPD2     H11799   0.932   3.258  17.321  1.8056 -1.4650 -0.6009
  797MPD2    H111800   0.609   2.985  17.305 -0.4334  2.2969 -1.4890
  797MPD2    H211801   0.950   2.869  17.508  0.6787 -0.4538 -0.9311
  797MPD2    H311802   0.733   2.822  17.427 -1.3081  0.7704 -0.5692
  797MPD2     N11803   0.701   3.248  17.259  0.4500 -0.7831  0.0324
  797MPD2    H511804   0.751   3.333  17.285  0.1696 -0.5850 -0.0675
  797MPD2    N111805   1.081   3.103  17.476 -0.2888 -0.8731 -0.4487
  797MPD2    H711806   1.083   3.204  17.483 -2.7302 -0.9359  1.4982
  798MPD2     C11807   1.097   3.800  17.305  0.2201  0.3686  0.9269
  798MPD2    C111808   1.026   3.683  17.299  0.6302  0.5739 -0.0224
  798MPD2    C211809   1.095   3.565  17.330  0.0441  0.3251  1.0221
  798MPD2    C311810   1.222   3.572  17.390 -0.7829 -0.9901 -0.1266
  798MPD2    C411811   1.284   3.692  17.405 -0.6132 -0.0421  0.5619
  798MPD2    C511812   1.229   3.808  17.343  0.3598  0.7697  0.4480
  798MPD2     H11813   1.048   3.469  17.312 -0.8139  0.9791 -0.2059
  798MPD2    H111814   1.388   3.692  17.437 -0.5526 -0.7392  0.3638
  798MPD2    H211815   1.052   3.893  17.274 -2.8790 -1.3876  0.0930
  798MPD2    H311816   1.281   3.903  17.354 -0.1121  1.2289 -1.3060
  798MPD2     N11817   1.280   3.451  17.431 -0.4455 -0.1718  0.1227
  798MPD2    H511818   1.236   3.368  17.395  1.7430 -0.9724 -0.6903
  798MPD2    N111819   0.887   3.689  17.260  0.1909 -0.0152  0.2939
  798MPD2    H711820   0.850   3.775  17.221 -0.0209 -0.3587 -0.2448
  799MPD2     C11821   4.330   0.159  14.615  0.1823  0.1794  0.0005
  799MPD2    C111822   4.269   0.095  14.515  0.0384 -0.5025  0.0401
  799MPD2    C211823   4.214   0.163  14.415 -0.2017 -0.3414 -0.3017
  799MPD2    C311824   4.238   0.299  14.393  0.2617  0.0523  0.6209
  799MPD2    C411825   4.308   0.359  14.496 -0.2847 -0.2669 -0.6538
  799MPD2    C511826   4.352   0.292  14.603 -0.3110 -0.1887  0.3173
  799MPD2     H11827   4.163   0.102  14.342 -2.1814  2.3754 -1.2003
  799MPD2    H111828   4.326   0.465  14.482 -0.8943  0.1175  1.4038
  799MPD2    H211829   4.355   0.113  14.711 -0.1971 -0.1832 -0.0753
  799MPD2    H311830   4.391   0.345  14.690  0.2319 -2.2752  1.3567
  799MPD2     N11831   4.205   0.367  14.274  0.0907  0.0140  0.2828
  799MPD2    H511832   4.251   0.457  14.261  3.2854 -1.8391 -1.0668
  799MPD2    N111833   4.249   4.695  14.524 -0.6118  0.6950  0.4659
  799MPD2    H711834   4.169   4.662  14.471  1.3525  0.5596 -2.4137
  800MPD2     C11835   0.029   1.322  13.819  0.7480  0.8603  0.5115
  800MPD2    C111836   0.169   1.301  13.814  0.9358 -0.6295  0.2293
  800MPD2    C211837   0.218   1.205  13.729  0.5882  0.6498  0.1034
  800MPD2    C311838   0.140   1.109  13.673  0.7930 -0.4862  0.5737
  800MPD2    C411839   0.002   1.119  13.686  0.0697 -0.1724  0.1274
  800MPD2    C511840   4.685   1.226  13.756  0.1395  0.8926  0.0825
  800MPD2     H11841   0.321   1.211  13.695  0.1448 -3.4552 -1.8919
  800MPD2    H111842   4.674   1.045  13.640  1.2063 -1.8608  1.1918
  800MPD2    H211843   4.729   1.402  13.881 -3.1372 -2.7652  2.8809
  800MPD2    H311844   4.577   1.238  13.751  0.2029  0.3260 -2.7019
  800MPD2     N11845   0.210   1.018  13.595 -0.2011  0.7427  0.4741
  800MPD2    H511846   0.311   1.019  13.603 -0.3478 -1.8176  2.4860
  800MPD2    N111847   0.250   1.397  13.875 -0.2364  0.0326  0.4915
  800MPD2    H711848   0.211   1.472  13.931  0.7659  1.8883 -1.2990
  801MPD2     C11849   0.179   1.926  14.313 -0.3988  0.4416  0.0891
  801MPD2    C111850   0.172   1.900  14.179 -0.7624  0.3071  0.4336
  801MPD2    C211851   0.069   1.947  14.103  0.7235  0.4201  0.0283
  801MPD2    C311852   4.707   2.028  14.157 -0.4800  0.2288 -0.1939
  801MPD2    C411853   4.707   2.044  14.289  0.0473 -0.0653 -0.3135
  801MPD2    C511854   0.079   2.006  14.365 -0.0535  0.6889 -0.1941
  801MPD2     H11855   0.079   1.924  13.998  0.4696  0.1040  0.0716
  801MPD2    H111856   4.626   2.098  14.337  0.6351 -1.3424  2.1594
  801MPD2    H211857   0.268   1.914  14.373  0.2740 -1.5195 -1.2932
  801MPD2    H311858   0.077   2.030  14.471  1.6485 -0.8244  0.1717
  801MPD2     N11859   4.603   2.076  14.079  0.5951  0.2367 -0.7597
  801MPD2    H511860   4.523   2.110  14.130  0.6228  0.4484 -0.8571
  801MPD2    N111861   0.266   1.814  14.114 -0.2225 -0.0684  0.0848
  801MPD2    H711862   0.244   1.794  14.017 -3.2207  1.2666  0.4710
  802MPD2     C11863   4.267   2.740   0.498 -0.3034 -0.3824  0.1687
  802MPD2    C111864   4.183   2.773   0.393 -0.1255 -0.0497 -0.4043
  802MPD2    C211865   4.209   2.719   0.266 -0.0315 -0.1472  0.1452
  802MPD2    C311866   4.316   2.628   0.243 -0.4726 -0.2321 -0.4001
  802MPD2    C411867   4.379   2.575   0.356 -0.3756  0.8535 -0.1460
  802MPD2    C511868   4.352   2.632   0.478 -0.9780  0.4722  0.3416
  802MPD2     H11869   4.160   2.754   0.175  3.6320  2.6773 -0.7414
  802MPD2    H111870   4.465   2.510   0.343 -0.4737  0.5265  0.7987
  802MPD2    H211871   4.252   2.770   0.601  2.8211 -1.0559  0.8260
  802MPD2    H311872   4.419   2.600   0.557 -1.0528 -0.3899  0.0638
  802MPD2     N11873   4.334   2.568   0.116 -0.3830 -0.4553 -0.2014
  802MPD2    H511874   4.300   2.616   0.033  0.9704  0.5696 -0.1671
  802MPD2    N111875   4.078   2.866   0.394  0.4952 -0.0018  0.3602
  802MPD2    H711876   4.020   2.868   0.311 -0.4624 -0.7034  1.0275
  803MPD2     C11877   0.332   4.732  11.922 -0.0173 -0.4392  0.3859
  803MPD2    C111878   0.378   0.124  11.956  0.0619  1.4465 -0.5915
  803MPD2    C211879   0.451   0.135  12.075  0.0607  0.0868  0.0718
  803MPD2    C311880   0.464   0.027  12.162 -0.1501  0.1791 -0.1132
  803MPD2    C411881   0.416   4.641  12.131  0.0022 -0.1154 -0.6227
  803MPD2    C511882   0.360   4.622  12.008  0.0305 -0.4380  0.1195
  803MPD2     H11883   0.498   0.229  12.100  1.5630 -0.6666  0.0564
  803MPD2    H111884   0.442   4.554  12.190  0.0342  0.1682 -0.2140
  803MPD2    H211885   0.286   4.699  11.829  1.7158  1.5836 -1.1712
  803MPD2    H311886   0.326   4.524  11.974  0.3319 -0.3620 -0.4062
  803MPD2     N11887   0.530   0.042  12.295  0.4849 -0.4777  0.5160
  803MPD2    H511888   0.518   4.699  12.355  1.4581  0.0139  1.3722
  803MPD2    N111889   0.369   0.239  11.874  0.4454  0.2637 -0.9931
  803MPD2    H711890   0.413   0.322  11.912  1.5129 -0.9021  0.2906
  804MPD2     C11891   4.540   2.197  17.095  0.6377  1.3432 -0.0960
  804MPD2    C111892   4.607   2.140  17.200 -0.3327 -0.6115  0.4939
  804MPD2    C211893   4.691   2.222  17.278  0.1584  0.3123  0.2811
  804MPD2    C311894   4.705   2.360  17.254 -0.2931  0.2690  0.4301
  804MPD2    C411895   4.632   2.409  17.147 -1.0242 -0.6830 -0.8301
  804MPD2    C511896   4.545   2.329  17.074  0.4649  0.2967  0.9509
  804MPD2     H11897   0.020   2.173  17.348  0.9640  1.1793  0.1195
  804MPD2    H111898   4.632   2.517  17.134  0.4977 -0.5186  0.5545
  804MPD2    H211899   4.488   2.133  17.025  3.0698 -1.5983  0.8033
  804MPD2    H311900   4.491   2.383  16.997  0.3149 -3.1087 -1.3211
  804MPD2     N11901   0.060   2.433  17.336 -0.2022 -0.4277 -0.1381
  804MPD2    H511902   0.124   2.390  17.401  1.4774  0.2730 -1.3443
  804MPD2    N111903   4.618   2.005  17.230 -0.9501  0.0198  0.3965
  804MPD2    H711904   4.664   1.984  17.318  0.6170 -0.1431 -0.4693
  805MPD2     C11905   4.056   0.129  15.372 -0.5029  0.0454 -0.2573
  805MPD2    C111906   4.106   0.232  15.295 -0.3605  0.2705  0.4227
  805MPD2    C211907   4.233   0.285  15.328 -0.5909 -0.4083 -0.0895
  805MPD2    C311908   4.311   0.230  15.430  0.1790 -0.3018  0.4005
  805MPD2    C411909   4.266   0.128  15.500 -0.0313  0.2964  0.6615
  805MPD2    C511910   4.140   0.081  15.466  0.7507  0.2030  0.5157
  805MPD2     H11911   4.256   0.377  15.276  0.0236 -1.4801 -1.6764
  805MPD2    H111912   4.316   0.090  15.588 -0.1551  0.3305  0.7473
  805MPD2    H211913   3.954   0.094  15.369 -0.2957 -0.3992 -2.0942
  805MPD2    H311914   4.106   0.003  15.532  0.3004 -0.7012 -0.7830
  805MPD2     N11915   4.437   0.288  15.462  0.2908 -0.4409  1.0437
  805MPD2    H511916   4.470   0.363  15.402  2.7300 -0.9844  1.7235
  805MPD2    N111917   4.029   0.322  15.216  0.6839  0.5684  0.8791
  805MPD2    H711918   4.076   0.407  15.189  0.7332  0.3572  0.2983
  806MPD2     C11919   4.601   4.402   0.170 -0.2646  0.1847 -0.3934
  806MPD2    C111920   4.615   4.525   0.230 -0.6356 -0.3278  0.3709
  806MPD2    C211921   4.679   4.621   0.149 -0.2479  0.1683  0.4642
  806MPD2    C311922   4.727   4.601   0.023  0.6681  0.0432 -0.0564
  806MPD2    C411923   4.721   4.475  17.716 -0.3676  0.1444  0.0755
  806MPD2    C511924   4.644   4.382   0.040 -0.6758 -0.8290  0.0202
  806MPD2     H11925   4.686   4.721   0.191  0.3315 -0.3539  1.6107
  806MPD2    H111926   0.014   4.446  17.617 -0.4617 -0.8175  0.3308
  806MPD2    H211927   4.545   4.321   0.215  0.4372  0.3984  0.8682
  806MPD2    H311928   4.632   4.280   0.003 -0.6521 -0.9295  0.2884
  806MPD2     N11929   0.013   4.716  17.688  0.5989 -0.3782  0.2678
  806MPD2    H511930   4.720   0.067  17.726  2.4420 -0.0780  1.0744
  806MPD2    N111931   4.565   4.554   0.363  0.3522 -0.2666 -0.2503
  806MPD2    H711932   4.528   4.480   0.421 -0.1611 -1.5382 -2.1681
  807MPD2     C11933   4.125   4.273   0.937  0.2733  0.0426  0.3995
  807MPD2    C111934   4.212   4.372   0.986 -0.1154  0.1408  0.4060
  807MPD2    C211935   4.213   4.381   1.125 -0.7595  0.8124  0.2674
  807MPD2    C311936   4.126   4.303   1.205  0.1808 -0.6832 -0.0253
  807MPD2    C411937   4.036   4.213   1.142 -1.0160  0.1679 -0.0137
  807MPD2    C511938   4.036   4.199   1.013 -0.0201  0.7125  0.3471
  807MPD2     H11939   4.281   4.449   1.175 -0.4764  0.5533  0.2355
  807MPD2    H111940   3.977   4.143   1.200 -1.6918  0.7220 -0.0451
  807MPD2    H211941   4.122   4.270   0.828  2.0230  1.0806  0.3288
  807MPD2    H311942   3.979   4.123   0.961 -0.2229 -1.6007  3.8910
  807MPD2     N11943   4.121   4.335   1.340 -0.1651  0.2718  0.8629
  807MPD2    H511944   4.171   4.415   1.378 -1.4402  0.3945  2.2848
  807MPD2    N111945   4.294   4.461   0.913 -0.1494  0.0312  0.0834
  807MPD2    H711946   4.364   4.509   0.969 -0.7814  0.5082  0.4657
  808MPD2     C11947   4.590   0.769   9.662  0.2608  0.3587  0.1688
  808MPD2    C111948   4.711   0.722   9.609 -0.1921 -0.4202 -0.4824
  808MPD2    C211949   0.084   0.799   9.598 -0.6616  0.6521 -0.5653
  808MPD2    C311950   0.090   0.926   9.645  0.1055  0.4268 -0.3711
  808MPD2    C411951   4.708   0.971   9.697  0.3196 -0.3736 -0.5194
  808MPD2    C511952   4.594   0.897   9.705  0.4697  0.2491 -0.0643
  808MPD2     H11953   0.180   0.760   9.569 -0.7075  1.1859 -1.4430
  808MPD2    H111954   4.714   1.065   9.749 -1.6071 -0.1849 -0.6354
  808MPD2    H211955   4.499   0.712   9.676 -1.3937  3.5065  2.1512
  808MPD2    H311956   4.508   0.943   9.752  0.6939  0.2849  0.3129
  808MPD2     N11957   0.201   1.017   9.635 -1.0169  0.5612 -0.3834
  808MPD2    H511958   0.181   1.109   9.674  0.7755  0.4880  0.7101
  808MPD2    N111959   4.734   0.583   9.590  0.5210  0.5304 -0.0719
  808MPD2    H711960   0.092   0.551   9.580  0.5003  1.4518 -3.3125
  809MPD2     C11961   1.056   0.960   9.085  0.0472 -0.0282 -0.4892
  809MPD2    C111962   1.049   1.079   9.152  0.6815  0.4075 -0.4004
  809MPD2    C211963   0.949   1.112   9.244  1.3834  0.0630  0.1138
  809MPD2    C311964   0.865   1.015   9.288 -0.7766  0.2945 -0.1588
  809MPD2    C411965   0.871   0.893   9.220 -0.4799  0.4603  0.2184
  809MPD2    C511966   0.965   0.870   9.127 -0.1439  0.3751 -0.3791
  809MPD2     H11967   0.952   1.213   9.285 -1.2745 -0.4892  1.6900
  809MPD2    H111968   0.803   0.813   9.247  1.5668 -1.2949  0.1582
  809MPD2    H211969   1.122   0.930   9.004  1.7247 -0.0254  0.8729
  809MPD2    H311970   0.961   0.771   9.082  2.0374 -0.2283  0.7503
  809MPD2     N11971   0.768   1.042   9.387  0.2035 -0.1985 -0.0782
  809MPD2    H511972   0.711   0.960   9.405  0.6671 -0.1728  1.5453
  809MPD2    N111973   1.131   1.190   9.114 -0.0524 -0.1454 -0.1120
  809MPD2    H711974   1.137   1.266   9.181 -0.3448 -0.0697 -0.1688
  810MPD2     C11975   4.190   0.790  10.776  0.1962  0.4309  0.7306
  810MPD2    C111976   4.239   0.810  10.647 -0.1140  0.5243 -0.5525
  810MPD2    C211977   4.313   0.917  10.623 -0.4418 -0.4510 -0.5118
  810MPD2    C311978   4.316   1.021  10.708 -0.9864  0.2239 -0.2776
  810MPD2    C411979   4.277   1.003  10.842  0.1153  0.3711 -0.2092
  810MPD2    C511980   4.215   0.888  10.874  0.2493 -0.9162 -0.5150
  810MPD2     H11981   4.342   0.937  10.521  0.0785  0.3689 -0.2077
  810MPD2    H111982   4.289   1.073  10.924  0.2274  2.1161 -1.7163
  810MPD2    H211983   4.122   0.706  10.788 -0.2667  1.0247  2.3702
  810MPD2    H311984   4.179   0.886  10.977 -0.4094  0.1959 -0.7328
  810MPD2     N11985   4.371   1.148  10.679 -0.6505 -0.1130  0.3098
  810MPD2    H511986   4.357   1.225  10.745 -2.0122 -2.0917  2.3147
  810MPD2    N111987   4.210   0.703  10.560  0.0538  0.4966  0.3593
  810MPD2    H711988   4.165   0.618  10.595 -3.1410  1.1996 -2.1062
  811MPD2     C11989   3.662   0.691   9.909 -0.7665  0.0365  0.2019
  811MPD2    C111990   3.795   0.714   9.928  0.0698  0.4626  0.0498
  811MPD2    C211991   3.848   0.844   9.891  0.6669 -0.3883 -0.2112
  811MPD2    C311992   3.768   0.946   9.839 -0.4884 -0.4296 -0.2087
  811MPD2    C411993   3.639   0.918   9.804  0.5988  0.2456  0.1067
  811MPD2    C511994   3.588   0.798   9.857  0.4419  0.3614 -1.0388
  811MPD2     H11995   3.949   0.870   9.919 -0.0735  2.8273 -0.4799
  811MPD2    H111996   3.570   0.983   9.751  1.6440  0.5734 -0.8447
  811MPD2    H211997   3.612   0.603   9.946 -0.1382 -0.1317  0.6537
  811MPD2    H311998   3.484   0.768   9.862  0.2628  1.1222 -0.3396
  811MPD2     N11999   3.826   1.076   9.817  0.2321  0.2467 -0.4157
  811MPD2    H512000   3.920   1.098   9.849 -0.1474  1.7752 -0.3698
  811MPD2    N112001   3.869   0.615  10.005 -0.1057 -0.1548 -0.1572
  811MPD2    H712002   3.814   0.555  10.066  1.3243 -1.8407 -0.5518
  812MPD2     C12003   2.872   0.453  12.408 -0.0270 -0.1578 -0.0885
  812MPD2    C112004   2.956   0.563  12.424  0.5216  0.2746 -0.2829
  812MPD2    C212005   3.071   0.551  12.508 -0.0849  0.2383 -0.1780
  812MPD2    C312006   3.092   0.434  12.578  0.2536 -0.8167 -1.2055
  812MPD2    C412007   2.998   0.328  12.562 -0.6190 -0.8631  0.0947
  812MPD2    C512008   2.891   0.338  12.473 -0.2135  0.1612 -0.7321
  812MPD2     H12009   3.128   0.642  12.521 -3.2658  1.9948  1.5992
  812MPD2    H112010   3.008   0.241  12.626 -3.5596  0.2853  2.0999
  812MPD2    H212011   2.790   0.461  12.339 -1.6980  0.1569  1.9319
  812MPD2    H312012   2.826   0.252  12.467 -0.5833  0.4132 -0.3303
  812MPD2     N12013   3.208   0.426  12.668 -0.1912  0.4856 -0.0415
  812MPD2    H512014   3.266   0.510  12.674  0.3870  0.1777 -1.3746
  812MPD2    N112015   2.914   0.692  12.364 -0.0703 -0.1062  1.1817
  812MPD2    H712016   2.962   0.775  12.397  0.3436 -0.1575  0.7233
  813MPD2     C12017   2.156   2.289  12.662  0.5456  0.0029 -0.4266
  813MPD2    C112018   2.233   2.393  12.690  0.2806  0.3638  0.7997
  813MPD2    C212019   2.211   2.461  12.810  0.5215 -0.5348  0.3595
  813MPD2    C312020   2.120   2.421  12.911 -0.2988 -0.3331 -0.3814
  813MPD2    C412021   2.051   2.306  12.880 -0.3963 -0.6149  0.2610
  813MPD2    C512022   2.063   2.249  12.753 -0.8824  1.3193  0.7192
  813MPD2     H12023   2.275   2.547  12.826  1.0679 -1.0554  0.9653
  813MPD2    H112024   1.981   2.263  12.951  0.1304 -1.0494  0.5094
  813MPD2    H212025   2.178   2.235  12.570  1.5627  0.4933 -0.4748
  813MPD2    H312026   2.012   2.158  12.721  0.4026  1.1506 -0.8840
  813MPD2     N12027   2.123   2.489  13.041  0.0356  0.0871  0.0542
  813MPD2    H512028   2.165   2.582  13.044  0.2137 -0.0409  1.5859
  813MPD2    N112029   2.339   2.421  12.605 -0.2486 -0.3143  0.3835
  813MPD2    H712030   2.345   2.357  12.527  0.2650 -0.9401  0.9398
  814MPD2     C12031   3.133   3.584  12.177 -0.2425 -0.0840 -0.2176
  814MPD2    C112032   3.088   3.675  12.080  0.4226 -0.2893 -0.2263
  814MPD2    C212033   3.125   3.808  12.096  0.0160  1.0379 -0.4757
  814MPD2    C312034   3.203   3.850  12.206 -0.8767  0.0029  0.6933
  814MPD2    C412035   3.251   3.757  12.298 -0.1877 -1.0007  0.6574
  814MPD2    C512036   3.216   3.625  12.278  0.5278  0.3891 -0.1021
  814MPD2     H12037   3.079   3.884  12.034  0.2000  1.9739  0.5580
  814MPD2    H112038   3.308   3.781  12.388  0.7851  1.1461 -0.5238
  814MPD2    H212039   3.107   3.479  12.170  0.9180 -0.4574  1.1177
  814MPD2    H312040   3.243   3.547  12.349 -1.3797 -0.9867 -0.8948
  814MPD2     N12041   3.247   3.984  12.221 -0.3942  0.4802  0.5952
  814MPD2    H512042   3.317   3.997  12.293  0.0940  0.7867  0.0675
  814MPD2    N112043   3.010   3.647  11.963 -0.4307  0.3373 -0.6715
  814MPD2    H712044   2.990   3.720  11.895  0.4360  1.2574  0.0628
  815MPD2     C12045   2.898   1.727  12.112 -0.4072 -0.5874  0.2749
  815MPD2    C112046   2.909   1.829  12.014  0.6913  0.3398  0.1808
  815MPD2    C212047   2.790   1.860  11.944  0.2011 -0.1319 -0.2619
  815MPD2    C312048   2.674   1.804  11.974  0.2021 -0.8540  0.3080
  815MPD2    C412049   2.660   1.714  12.079 -0.1865  0.4717 -0.2881
  815MPD2    C512050   2.775   1.676  12.138 -0.1458  0.8075  0.3768
  815MPD2     H12051   2.792   1.925  11.858 -1.5293  1.4286  0.8757
  815MPD2    H112052   2.568   1.660  12.098  0.7925 -1.9014 -2.2279
  815MPD2    H212053   2.981   1.690  12.171 -1.7978 -1.0188  1.9820
  815MPD2    H312054   2.771   1.594  12.210  1.7648 -0.0417 -0.4873
  815MPD2     N12055   2.568   1.817  11.879  0.0329  0.4621 -0.2640
  815MPD2    H512056   2.587   1.876  11.798 -1.6138  0.7221 -0.4600
  815MPD2    N112057   3.041   1.883  11.994 -0.4200  0.0751 -0.4269
  815MPD2    H712058   3.098   1.846  12.069 -0.6263  0.8560  0.1096
  816MPD2     C12059   3.012   1.540  17.057 -0.6807  0.1513 -0.4481
  816MPD2    C112060   3.114   1.625  17.078  0.0107  0.2835 -0.2347
  816MPD2    C212061   3.250   1.586  17.057 -0.7045 -0.4443  0.3339
  816MPD2    C312062   3.273   1.457  17.031  0.6874 -0.8752  0.0553
  816MPD2    C412063   3.171   1.365  17.034 -0.7520 -0.0218 -0.0407
  816MPD2    C512064   3.048   1.410  17.046  0.1900 -0.2166  0.3270
  816MPD2     H12065   3.328   1.662  17.056 -1.0184 -0.0952  2.2304
  816MPD2    H112066   3.185   1.257  17.031  1.0227  0.2193  0.1170
  816MPD2    H212067   2.909   1.571  17.063 -1.1116 -1.4532  0.5220
  816MPD2    H312068   2.966   1.339  17.042 -0.5509  0.6945 -0.7571
  816MPD2     N12069   3.406   1.419  16.995 -0.1272 -0.2404 -0.1433
  816MPD2    H512070   3.480   1.488  17.006 -0.8481  0.3828  0.7172
  816MPD2    N112071   3.077   1.758  17.087 -0.2679  0.4316 -0.1596
  816MPD2    H712072   2.978   1.781  17.081 -0.8902 -2.0761  0.5054
  817MPD2     C12073   2.792   3.171   9.856  0.4133 -0.3538  0.5037
  817MPD2    C112074   2.873   3.242   9.947 -0.6245  0.3751  0.0750
  817MPD2    C212075   2.836   3.374   9.977  0.0175 -0.0796  0.6426
  817MPD2    C312076   2.733   3.439   9.916 -0.9458  0.1441 -0.1373
  817MPD2    C412077   2.653   3.369   9.825  0.6996  0.9954  0.2989
  817MPD2    C512078   2.694   3.241   9.795 -0.7991 -0.1820  0.5313
  817MPD2     H12079   2.898   3.435  10.041 -0.3782 -0.9919  1.9004
  817MPD2    H112080   2.569   3.405   9.768 -0.7235  0.9887  2.3919
  817MPD2    H212081   2.807   3.068   9.826  0.9345  0.2543 -1.3079
  817MPD2    H312082   2.630   3.196   9.720  0.8353  0.0004 -0.9594
  817MPD2     N12083   2.722   3.578   9.946 -0.9728  0.4213  0.5520
  817MPD2    H512084   2.806   3.613   9.990  1.8261 -3.9851 -1.2578
  817MPD2    N112085   2.986   3.192  10.016  0.3915 -0.2113  0.1042
  817MPD2    H712086   3.009   3.254  10.093  0.1504 -0.6085  0.4999
  818MPD2     C12087   1.895   3.346   9.817  0.1442 -0.1081 -0.5578
  818MPD2    C112088   1.898   3.224   9.883 -0.7759  0.6409  0.5329
  818MPD2    C212089   1.971   3.118   9.823  0.7782 -0.3430  0.1544
  818MPD2    C312090   2.051   3.152   9.711 -0.2691 -0.1589  0.2847
  818MPD2    C412091   2.056   3.273   9.657 -0.2350 -0.5943 -0.3215
  818MPD2    C512092   1.979   3.369   9.710  0.2766  0.0591 -0.1006
  818MPD2     H12093   1.957   3.018   9.864 -1.8255 -0.2618 -0.5213
  818MPD2    H112094   2.123   3.288   9.573  1.9962 -2.8471  1.0415
  818MPD2    H212095   1.832   3.429   9.848 -0.4319 -0.4497 -0.8143
  818MPD2    H312096   1.985   3.470   9.669  0.3088 -1.5319 -4.0506
  818MPD2     N12097   2.145   3.060   9.662  0.0601 -0.0147 -0.3720
  818MPD2    H512098   2.217   3.098   9.601 -0.7326  0.4413 -1.0283
  818MPD2    N112099   1.820   3.196   9.997 -0.0723  0.2291  0.0154
  818MPD2    H712100   1.826   3.104  10.038 -1.1455  1.3521  2.7144
  819MPD2     C12101   0.170   0.214  15.352 -0.0016  0.1516  0.7663
  819MPD2    C112102   0.128   0.106  15.430 -0.0843 -0.2548 -0.4254
  819MPD2    C212103   0.215   0.064  15.529 -0.4686  0.0301  0.8002
  819MPD2    C312104   0.326   0.135  15.566 -0.0192  0.3293 -0.2388
  819MPD2    C412105   0.361   0.255  15.499 -0.0665  0.7763 -0.2765
  819MPD2    C512106   0.284   0.287  15.388 -1.0210  0.3492 -0.2437
  819MPD2     H12107   0.193   4.713  15.587 -2.1628 -0.0604  0.0130
  819MPD2    H112108   0.436   0.323  15.538  0.0692  0.7921 -0.5631
  819MPD2    H212109   0.112   0.256  15.271 -0.8424 -1.6491  0.4487
  819MPD2    H312110   0.302   0.378  15.332 -2.4644  0.2531 -0.8633
  819MPD2     N12111   0.403   0.072  15.664 -0.1523 -0.1194  0.3011
  819MPD2    H512112   0.362   4.723  15.698  0.3213 -0.9729 -1.3005
  819MPD2    N112113   0.013   0.037  15.392 -0.0467  0.2397 -0.1940
  819MPD2    H712114   4.698   0.071  15.312  0.6325 -2.1881 -1.6849
  820MPD2     C12115   4.002   4.648  14.774 -0.2325  0.4234  0.3817
  820MPD2    C112116   4.068   0.015  14.834  0.4428  0.2605  0.0510
  820MPD2    C212117   4.148   4.734  14.940 -0.3057 -0.4427  0.1055
  820MPD2    C312118   4.177   4.606  14.983  0.4978 -0.4618  0.5687
  820MPD2    C412119   4.106   4.503  14.927  0.0056  0.2557 -0.2304
  820MPD2    C512120   4.013   4.519  14.823  0.8430 -0.4650 -1.1517
  820MPD2     H12121   4.206   0.081  14.977 -0.1837  0.0053 -1.0970
  820MPD2    H112122   4.125   4.408  14.977  1.5542  0.4613 -0.4466
  820MPD2    H212123   3.940   4.662  14.685  1.2399  0.1904 -0.6754
  820MPD2    H312124   3.957   4.439  14.776 -1.4215  0.7120 -0.4612
  820MPD2     N12125   4.247   4.574  15.107 -0.0515 -0.2347 -0.2885
  820MPD2    H512126   4.269   4.477  15.127  0.8523 -0.3962 -2.0843
  820MPD2    N112127   4.020   0.145  14.796  0.2938 -1.1534  0.3011
  820MPD2    H712128   3.944   0.150  14.729  0.8373  1.9894 -0.0928
  821MPD2     C12129   0.504   0.433  13.109  0.0267 -0.0074  0.3445
  821MPD2    C112130   0.462   0.565  13.118  0.0920 -0.5887  0.5012
  821MPD2    C212131   0.527   0.667  13.066 -0.0189 -0.0196 -0.0849
  821MPD2    C312132   0.645   0.646  13.003  0.0918 -0.2079  0.1333
  821MPD2    C412133   0.692   0.515  12.999  0.3104  0.1114 -0.2207
  821MPD2    C512134   0.619   0.412  13.042 -0.0546 -0.1923 -0.1990
  821MPD2     H12135   0.480   0.765  13.056 -3.2537 -1.6424 -0.8156
  821MPD2    H112136   0.782   0.498  12.942  0.2387 -1.0217  0.0151
  821MPD2    H212137   0.444   0.347  13.136 -0.8468  0.4017 -0.2695
  821MPD2    H312138   0.647   0.312  13.011  1.8707  0.8723 -1.9004
  821MPD2     N12139   0.737   0.756  12.988  0.2411 -0.6292 -1.2898
  821MPD2    H512140   0.837   0.737  12.992  0.0574 -1.9077 -2.4483
  821MPD2    N112141   0.344   0.593  13.187 -0.3227  0.2581 -1.0249
  821MPD2    H712142   0.315   0.689  13.171 -1.1172  0.2123  0.1386
  822MPD2     C12143   0.959   1.552  15.736  0.7736  0.1392  0.2190
  822MPD2    C112144   0.936   1.524  15.873 -0.5497  0.3859  0.0560
  822MPD2    C212145   0.866   1.616  15.943 -0.4026  0.8566  0.2857
  822MPD2    C312146   0.815   1.732  15.902  0.5281  0.4473 -0.9243
  822MPD2    C412147   0.838   1.768  15.774 -0.2713  1.0519  0.7103
  822MPD2    C512148   0.903   1.670  15.699  0.0638 -0.3339 -0.8509
  822MPD2     H12149   0.851   1.602  16.050 -2.7206 -2.9269 -0.5484
  822MPD2    H112150   0.803   1.860  15.729 -0.2628  0.0603 -1.3314
  822MPD2    H212151   1.006   1.481  15.670  0.1814 -0.3686  0.3483
  822MPD2    H312152   0.929   1.686  15.595 -1.7509  0.7546 -1.1404
  822MPD2     N12153   0.757   1.811  16.002 -0.1457  0.2346  0.1065
  822MPD2    H512154   0.742   1.766  16.092  2.2369 -0.3092  0.2228
  822MPD2    N112155   0.980   1.402  15.938 -0.2982 -0.0273  0.1915
  822MPD2    H712156   0.955   1.384  16.034 -1.1004 -0.0078 -0.0179
  823MPD2     C12157   0.418   1.873  16.761 -0.0047  0.3454 -0.0663
  823MPD2    C112158   0.504   1.839  16.659 -0.0713 -0.4526  0.4637
  823MPD2    C212159   0.577   1.720  16.681 -0.3896  0.7150 -0.8466
  823MPD2    C312160   0.568   1.638  16.800 -0.5760 -0.0783 -0.3361
  823MPD2    C412161   0.474   1.680  16.891 -0.1467 -0.0900 -0.3577
  823MPD2    C512162   0.400   1.798  16.872  0.0408  0.7535 -0.3010
  823MPD2     H12163   0.642   1.686  16.601  1.3501  1.2762  0.3416
  823MPD2    H112164   0.435   1.612  16.966  1.0465 -1.4519 -0.9808
  823MPD2    H212165   0.363   1.966  16.746 -0.7658  0.3954  3.0645
  823MPD2    H312166   0.335   1.824  16.955 -1.0151 -2.0424 -0.2530
  823MPD2     N12167   0.638   1.522  16.827  0.4393 -0.1425 -0.5521
  823MPD2    H512168   0.617   1.468  16.911  0.8154  0.3035 -0.1722
  823MPD2    N112169   0.522   1.918  16.540 -0.4464  0.2943  0.5103
  823MPD2    H712170   0.481   2.010  16.541  1.4620  1.1396 -1.9478
  824MPD2     C12171   1.508   0.691  15.978 -0.6284 -0.0154  0.0835
  824MPD2    C112172   1.419   0.741  15.891  0.1867 -1.0276  0.5199
  824MPD2    C212173   1.387   0.671  15.779  0.3021  0.5894  0.4190
  824MPD2    C312174   1.452   0.548  15.759  0.2255 -0.0368  0.3362
  824MPD2    C412175   1.535   0.491  15.855 -0.1270 -0.3437 -0.6700
  824MPD2    C512176   1.567   0.567  15.960 -0.3271  0.2584  0.0150
  824MPD2     H12177   1.334   0.706  15.690 -1.7860 -3.3083  0.1204
  824MPD2    H112178   1.588   0.399  15.836  2.1271  0.4817  1.6819
  824MPD2    H212179   1.535   0.742  16.070  1.4373 -1.3429  0.2109
  824MPD2    H312180   1.639   0.523  16.029 -0.9523 -0.8815 -0.0543
  824MPD2     N12181   1.443   0.489  15.630  0.0834  0.3640 -0.0337
  824MPD2    H512182   1.390   0.538  15.558  0.7273  2.0341  0.6367
  824MPD2    N112183   1.361   0.866  15.902  0.2719 -0.0181 -0.3347
  824MPD2    H712184   1.293   0.896  15.833  0.4435  1.5279  0.1575
  825MPD2     C12185   2.038   0.598  15.268 -0.1555  0.0189  0.0195
  825MPD2    C112186   1.916   0.648  15.231 -0.2057  0.7259  0.2825
  825MPD2    C212187   1.898   0.783  15.221  0.6018 -0.1395 -0.6902
  825MPD2    C312188   2.004   0.873  15.236  0.2616 -0.3219  0.2490
  825MPD2    C412189   2.128   0.820  15.271 -0.5531 -0.8350 -0.4070
  825MPD2    C512190   2.145   0.683  15.280  0.5314 -0.5738  0.0384
  825MPD2     H12191   1.801   0.824  15.194  0.6503 -0.4587 -1.3549
  825MPD2    H112192   2.216   0.876  15.299 -0.6911 -1.3949  1.1489
  825MPD2    H212193   2.054   0.493  15.292  0.3974 -0.4157 -2.3128
  825MPD2    H312194   2.244   0.644  15.301 -0.6820 -3.2762  0.7171
  825MPD2     N12195   2.000   1.014  15.216 -0.0922 -0.0018  0.3432
  825MPD2    H512196   2.076   1.068  15.256  2.3066 -1.3522 -2.3936
  825MPD2    N112197   1.811   0.553  15.221 -0.4143  0.4846 -0.2512
  825MPD2    H712198   1.842   0.461  15.250 -0.5077  0.7849  0.8086
  826MPD2     C12199   1.547   4.624  13.586 -0.3534 -0.1220  0.3814
  826MPD2    C112200   1.624   0.004  13.601  0.5420 -0.1673 -0.4151
  826MPD2    C212201   1.567   0.124  13.629 -0.0230  0.1038  0.1489
  826MPD2    C312202   1.430   0.116  13.650 -0.6727 -0.0156  0.3406
  826MPD2    C412203   1.355   0.002  13.646 -0.5930 -0.5051 -0.1688
  826MPD2    C512204   1.417   4.616  13.612 -0.0821 -0.3090  0.2368
  826MPD2     H12205   1.621   0.218  13.631  1.8198 -0.9828  1.5085
  826MPD2    H112206   1.250   0.010  13.673  0.0241  0.6812  1.8511
  826MPD2    H212207   1.607   4.534  13.573 -1.7053 -1.0619  0.6490
  826MPD2    H312208   1.352   4.530  13.602 -0.7822  0.2564 -0.0626
  826MPD2     N12209   1.353   0.224  13.686  0.0158  0.3394 -0.2552
  826MPD2    H512210   1.257   0.197  13.703  0.2015  0.3940  0.8344
  826MPD2    N112211   1.764   4.730  13.570 -0.4278  0.0345  0.1250
  826MPD2    H712212   1.801   4.636  13.567 -0.9895 -0.1228 -1.8807
  827MPD2     C12213   2.418   1.614   9.876  0.0474  0.3394  0.3086
  827MPD2    C112214   2.385   1.533   9.983  0.9746  0.3841 -0.0144
  827MPD2    C212215   2.254   1.486   9.993 -0.4264  0.0076  0.9720
  827MPD2    C312216   2.162   1.512   9.896 -0.1650 -0.1534 -0.0326
  827MPD2    C412217   2.189   1.605   9.795  0.5701  0.1466 -0.1705
  827MPD2    C512218   2.316   1.648   9.784 -0.3084 -0.4848  0.2358
  827MPD2     H12219   2.220   1.413  10.066  2.1771 -0.6522  1.5446
  827MPD2    H112220   2.110   1.651   9.737  0.2194  1.9518  1.7179
  827MPD2    H212221   2.513   1.665   9.872  0.3423 -0.1462  1.0694
  827MPD2    H312222   2.348   1.714   9.704 -0.6004  0.7029  1.1078
  827MPD2     N12223   2.031   1.451   9.918  0.1856 -0.5228 -0.6259
  827MPD2    H512224   2.027   1.387   9.997 -1.5105  1.0438  0.5538
  827MPD2    N112225   2.481   1.499  10.079  0.1644  0.2188 -0.1594
  827MPD2    H712226   2.579   1.518  10.061  0.2077  1.1149  0.9929
  828MPD2     C12227   1.357   1.179  11.816  0.4128 -0.4729 -0.3284
  828MPD2    C112228   1.262   1.255  11.760  0.6543  0.3359 -0.4507
  828MPD2    C212229   1.265   1.296  11.634  0.2279  0.6852  0.1393
  828MPD2    C312230   1.368   1.257  11.546 -0.2293  0.3059  0.1767
  828MPD2    C412231   1.467   1.188  11.607 -0.1727  0.4789  0.3128
  828MPD2    C512232   1.455   1.140  11.730 -0.1015 -0.7275  0.6155
  828MPD2     H12233   1.184   1.359  11.600 -0.2018 -1.2148 -2.3847
  828MPD2    H112234   1.547   1.151  11.545 -0.2777 -1.0800  1.0933
  828MPD2    H212235   1.348   1.137  11.915  1.9881 -1.3753 -0.5746
  828MPD2    H312236   1.532   1.076  11.772 -0.8895 -1.8741  0.2940
  828MPD2     N12237   1.379   1.281  11.402 -0.6046  0.6138  0.6751
  828MPD2    H512238   1.458   1.239  11.354 -1.0871  0.1645  0.2636
  828MPD2    N112239   1.146   1.289  11.836  0.0853  0.7415  0.5008
  828MPD2    H712240   1.072   1.343  11.793  0.2165  1.4389  1.1678
  829MPD2     C12241   0.428   1.448  11.453 -0.4476 -0.6284 -0.1081
  829MPD2    C112242   0.382   1.424  11.581 -0.2066  0.1462  0.3125
  829MPD2    C212243   0.469   1.410  11.688  0.2415  0.2850  0.5719
  829MPD2    C312244   0.603   1.436  11.669 -0.0128 -0.2151  0.2270
  829MPD2    C412245   0.644   1.471  11.542  0.0564 -0.7968 -0.1935
  829MPD2    C512246   0.561   1.472  11.440 -0.4702 -0.1318  0.3099
  829MPD2     H12247   0.422   1.386  11.782 -1.8249  1.7502 -0.0866
  829MPD2    H112248   0.749   1.490  11.522 -0.1444 -0.4570 -0.9022
  829MPD2    H212249   0.364   1.463  11.367  0.5641  1.7950 -0.4327
  829MPD2    H312250   0.601   1.509  11.346 -0.0830  1.7310  1.2071
  829MPD2     N12251   0.699   1.436  11.773 -0.3642  0.3744  0.3192
  829MPD2    H512252   0.792   1.458  11.737 -0.0140 -0.8881  0.4310
  829MPD2    N112253   0.240   1.412  11.586 -0.1534 -0.1199  0.3639
  829MPD2    H712254   0.193   1.418  11.496  1.5899  0.2734 -0.5245
  830MPD2     C12255   1.010   4.264  15.712  0.3604 -0.2913 -0.0425
  830MPD2    C112256   0.910   4.349  15.660 -0.0730  0.2466 -0.1208
  830MPD2    C212257   0.935   4.400  15.532  0.0435  0.4171 -0.3895
  830MPD2    C312258   1.053   4.391  15.463  0.2936 -0.1743  0.5791
  830MPD2    C412259   1.151   4.320  15.525  0.3068 -0.0816  0.2585
  830MPD2    C512260   1.130   4.260  15.646 -0.2922  0.2550 -0.1226
  830MPD2     H12261   0.864   4.475  15.499  0.5703  0.5507 -1.2032
  830MPD2    H112262   1.246   4.304  15.475  0.4047 -1.9383  1.0444
  830MPD2    H212263   0.993   4.215  15.808 -2.6741 -0.0905 -0.4761
  830MPD2    H312264   1.209   4.207  15.697  1.0724  2.3841  0.0108
  830MPD2     N12265   1.069   4.457  15.339 -0.5835  0.3127  0.2031
  830MPD2    H512266   1.162   4.473  15.302  0.1751 -0.4564  1.7716
  830MPD2    N112267   0.797   4.364  15.742 -0.8012  0.2167  0.0073
  830MPD2    H712268   0.814   4.334  15.837  0.5067  1.6944  0.2302
  831MPD2     C12269   1.140   1.825  16.293 -0.1284  0.0790  0.8196
  831MPD2    C112270   1.151   1.699  16.233 -0.1495 -0.3512  0.4550
  831MPD2    C212271   1.041   1.617  16.245 -0.1048 -0.3998  0.2605
  831MPD2    C312272   0.926   1.659  16.306  0.6595 -0.1551  0.2309
  831MPD2    C412273   0.923   1.782  16.370 -0.3985 -0.1188 -0.1773
  831MPD2    C512274   1.025   1.862  16.355  0.0954  0.0559  0.4372
  831MPD2     H12275   1.052   1.514  16.213  1.2425  0.1637 -1.0726
  831MPD2    H112276   0.836   1.817  16.425  1.1285  0.0121  2.1899
  831MPD2    H212277   1.220   1.898  16.298  0.5577 -0.6179 -0.1085
  831MPD2    H312278   1.023   1.962  16.397  2.6555 -0.2748  1.3335
  831MPD2     N12279   0.806   1.582  16.314  0.0909  0.4147  0.4043
  831MPD2    H512280   0.736   1.624  16.374 -0.4551  0.1454 -0.0489
  831MPD2    N112281   1.275   1.666  16.172 -0.3276 -0.1352  0.2113
  831MPD2    H712282   1.346   1.735  16.148 -0.6171  0.6167  1.5414
  832MPD2     C12283   3.862   2.694  17.144  0.0464  0.3548 -0.5007
  832MPD2    C112284   3.904   2.804  17.069 -0.4609  0.1463 -0.1172
  832MPD2    C212285   3.822   2.849  16.965  0.0802  0.1679  0.3368
  832MPD2    C312286   3.695   2.796  16.951 -0.0248 -0.5487  0.6360
  832MPD2    C412287   3.660   2.690  17.028 -0.5315 -0.1454  0.2520
  832MPD2    C512288   3.744   2.633  17.116 -0.6073  0.3815 -0.4942
  832MPD2     H12289   3.848   2.937  16.907  0.2588 -0.1658 -0.0930
  832MPD2    H112290   3.562   2.647  17.011  0.1840 -1.2167 -1.1088
  832MPD2    H212291   3.921   2.656  17.227 -1.9252 -0.6627  0.4336
  832MPD2    H312292   3.728   2.537  17.164  3.3407  0.8713  1.8381
  832MPD2     N12293   3.598   2.857  16.871 -0.6179 -0.2360 -0.6151
  832MPD2    H512294   3.513   2.801  16.869  0.3621 -1.7549  0.4418
  832MPD2    N112295   4.045   2.842  17.085  0.6037 -0.0834 -0.4393
  832MPD2    H712296   4.104   2.806  17.160 -2.1794 -0.3146  1.6427
  833MPD2     C12297   1.567   3.944  12.708  0.1813  0.1261  1.0537
  833MPD2    C112298   1.538   4.003  12.587 -0.2169  0.4842  0.0989
  833MPD2    C212299   1.608   3.963  12.479  0.4241 -0.3603  0.2161
  833MPD2    C312300   1.698   3.854  12.477  0.1795  0.2153 -0.4101
  833MPD2    C412301   1.729   3.793  12.599 -0.1417  0.0760 -0.1889
  833MPD2    C512302   1.658   3.841  12.708 -0.0185  0.2807 -0.1912
  833MPD2     H12303   1.575   4.016  12.390 -2.6829 -2.4845  0.1246
  833MPD2    H112304   1.798   3.711  12.616  0.2761  0.6466  0.8276
  833MPD2    H212305   1.510   3.966  12.797  0.2074 -1.2176  1.4085
  833MPD2    H312306   1.682   3.803  12.807  0.1412 -2.0745 -1.1499
  833MPD2     N12307   1.765   3.806  12.361 -0.4476  0.7478  0.0844
  833MPD2    H512308   1.832   3.730  12.365 -0.6268  0.5955  0.1959
  833MPD2    N112309   1.434   4.102  12.570  0.2497  0.0620  0.0289
  833MPD2    H712310   1.430   4.151  12.481  0.2969 -0.3428 -0.1959
  834MPD2     C12311   1.516   3.085  11.761 -0.7257  0.4951 -0.3108
  834MPD2    C112312   1.456   3.196  11.706 -0.1787 -0.4854  0.0739
  834MPD2    C212313   1.508   3.324  11.730  0.2398  0.1087  0.0648
  834MPD2    C312314   1.613   3.337  11.829  0.8869 -0.3642 -0.1803
  834MPD2    C412315   1.664   3.217  11.881  0.4205 -0.4051 -0.3648
  834MPD2    C512316   1.620   3.096  11.846 -0.1386 -0.4968 -0.0411
  834MPD2     H12317   1.476   3.409  11.671  0.8705  0.2373 -0.0888
  834MPD2    H112318   1.723   3.214  11.972 -1.9418  1.0303  1.2157
  834MPD2    H212319   1.486   2.984  11.735 -0.7976  0.0404  1.5299
  834MPD2    H312320   1.662   3.002  11.882  0.6931 -0.1775 -0.1764
  834MPD2     N12321   1.645   3.464  11.869 -0.2655 -0.1376  0.4567
  834MPD2    H512322   1.580   3.539  11.847  0.3924 -0.1924 -1.7306
  834MPD2    N112323   1.359   3.170  11.607 -0.5900 -0.8262  0.0107
  834MPD2    H712324   1.348   3.071  11.588 -1.5723 -0.4436 -1.4389
  835MPD2     C12325   1.646   2.024  10.844  0.5333  0.1159  0.4713
  835MPD2    C112326   1.522   1.973  10.855 -0.3910 -0.0124 -0.0940
  835MPD2    C212327   1.500   1.887  10.956  0.3033  0.2631  0.0335
  835MPD2    C312328   1.596   1.865  11.062  0.0054  0.4772 -0.1326
  835MPD2    C412329   1.727   1.900  11.035  0.0550 -0.3130  0.5945
  835MPD2    C512330   1.748   1.971  10.921 -0.2759  0.7097 -0.6514
  835MPD2     H12331   1.400   1.846  10.963  0.0679  0.9049  0.5451
  835MPD2    H112332   1.807   1.889  11.107  0.2616  2.2746  0.7467
  835MPD2    H212333   1.684   2.099  10.776 -0.3504  1.2699  1.2434
  835MPD2    H312334   1.845   2.017  10.907 -0.0744  0.1761 -1.0000
  835MPD2     N12335   1.575   1.801  11.187  0.0472 -0.2256 -0.0793
  835MPD2    H512336   1.648   1.777  11.253 -0.5653 -1.8457  0.0247
  835MPD2    N112337   1.419   2.010  10.765  0.4694 -0.2835 -0.3926
  835MPD2    H712338   1.335   1.954  10.773  0.5101 -0.0973  1.3347
  836MPD2     C12339   1.206   2.047  11.741 -0.0446 -1.4169 -0.2676
  836MPD2    C112340   1.220   1.910  11.765  0.4755 -1.2749 -0.2472
  836MPD2    C212341   1.157   1.852  11.874 -0.7867 -0.2245 -0.5862
  836MPD2    C312342   1.072   1.928  11.954  0.0404  0.0761 -0.3507
  836MPD2    C412343   1.063   2.061  11.928 -0.3054 -0.1978 -0.0615
  836MPD2    C512344   1.128   2.118  11.819 -0.1862 -0.0387  0.1561
  836MPD2     H12345   1.135   1.746  11.882 -0.5184 -0.2156  0.3149
  836MPD2    H112346   1.010   2.133  11.990 -0.3606 -0.3966  0.1236
  836MPD2    H212347   1.256   2.087  11.653  0.1663 -1.1079 -0.0104
  836MPD2    H312348   1.126   2.224  11.798 -1.9480  0.0466  0.7445
  836MPD2     N12349   0.997   1.862  12.057 -0.2241 -0.0886 -0.6391
  836MPD2    H512350   0.921   1.913  12.101  0.2938  0.7936 -0.7723
  836MPD2    N112351   1.295   1.834  11.670  0.3590 -0.4382 -0.0952
  836MPD2    H712352   1.347   1.889  11.602 -0.1470  1.0014  0.6767
  837MPD2     C12353   4.403   1.496  10.083 -0.7759  0.0099 -0.2772
  837MPD2    C112354   4.316   1.575  10.016  0.0810  0.1311 -1.0685
  837MPD2    C212355   4.326   1.708  10.014  0.0807 -1.1558  0.2112
  837MPD2    C312356   4.419   1.770  10.086 -0.3240 -0.4767 -0.5519
  837MPD2    C412357   4.503   1.698  10.162  0.3461 -0.1205 -0.2984
  837MPD2    C512358   4.494   1.556  10.169 -0.5141 -0.5450  0.1234
  837MPD2     H12359   4.248   1.762   9.961  0.5984 -0.7586 -0.1374
  837MPD2    H112360   4.566   1.744  10.238  0.4441  1.1558 -1.1505
  837MPD2    H212361   4.401   1.388  10.090 -1.4928  0.0353 -0.1636
  837MPD2    H312362   4.555   1.496  10.235  0.4916  0.5454  0.1721
  837MPD2     N12363   4.408   1.910  10.087 -0.3521 -0.0336  0.0285
  837MPD2    H512364   4.365   1.946  10.002  0.0120 -1.0434 -0.5850
  837MPD2    N112365   4.211   1.539   9.934 -0.1050  0.2037  0.7770
  837MPD2    H712366   4.165   1.617   9.887 -2.4653 -1.4771  0.3301
  838MPD2     C12367   2.453   4.470  11.820 -0.4634  0.3890  0.2236
  838MPD2    C112368   2.532   4.409  11.912  0.0511  0.2840  0.1400
  838MPD2    C212369   2.495   4.285  11.957 -0.4817 -0.1725 -0.2932
  838MPD2    C312370   2.382   4.220  11.913  0.6827  0.1051  0.0459
  838MPD2    C412371   2.307   4.282  11.820 -0.0552 -0.4653  0.8751
  838MPD2    C512372   2.340   4.406  11.781  0.4268 -0.5104 -0.4374
  838MPD2     H12373   2.566   4.246  12.029 -1.4211 -0.9815  0.2074
  838MPD2    H112374   2.209   4.249  11.790  0.1678 -1.2018  0.9525
  838MPD2    H212375   2.466   4.568  11.776 -4.0546  0.6790 -0.1762
  838MPD2    H312376   2.275   4.462  11.715  0.1456 -0.4616 -0.1223
  838MPD2     N12377   2.343   4.102  11.985  0.0710  0.2092 -0.0214
  838MPD2    H512378   2.401   4.086  12.066 -0.8006  1.1170  0.7864
  838MPD2    N112379   2.664   4.455  11.942  0.4270  0.1373  0.4530
  838MPD2    H712380   2.725   4.385  11.981 -0.6050 -0.6287  0.6894
  839MPD2     C12381   2.636   3.824  11.929 -0.6498  0.1666 -0.0840
  839MPD2    C112382   2.605   3.898  11.821  0.5430 -0.1145 -0.0618
  839MPD2    C212383   2.689   4.009  11.788 -0.3051 -0.8768  0.1400
  839MPD2    C312384   2.794   4.036  11.876  0.1926  0.1099 -0.1083
  839MPD2    C412385   2.811   3.959  11.986  0.3532 -0.8887 -0.2056
  839MPD2    C512386   2.738   3.854  12.020  0.0217  0.8578  0.2562
  839MPD2     H12387   2.661   4.065  11.699  1.0634  0.2376  0.4119
  839MPD2    H112388   2.890   3.993  12.053  0.7522 -1.5774 -0.3297
  839MPD2    H212389   2.590   3.730  11.958 -1.2125  0.4631 -0.0309
  839MPD2    H312390   2.760   3.808  12.116 -2.0439 -0.5274  0.0626
  839MPD2     N12391   2.878   4.149  11.867  0.0760 -0.1575  0.6855
  839MPD2    H512392   2.937   4.175  11.946 -0.4184  0.4495  0.8584
  839MPD2    N112393   2.503   3.859  11.729  0.0366  0.1937  0.2784
  839MPD2    H712394   2.493   3.911  11.643 -1.3828 -1.5608 -0.6076
  840MPD2     C12395   3.038   1.748  10.066 -0.0810 -0.1771 -1.1302
  840MPD2    C112396   3.012   1.741  10.200  0.6610  0.0199  0.1827
  840MPD2    C212397   3.066   1.835  10.287  0.4263 -0.1037  0.5688
  840MPD2    C312398   3.149   1.936  10.238 -0.3877  0.0802  0.1334
  840MPD2    C412399   3.180   1.936  10.104  0.3066  0.4450 -0.1475
  840MPD2    C512400   3.119   1.850  10.018 -0.5986 -0.7580  0.0165
  840MPD2     H12401   3.042   1.821  10.392  0.5676 -1.2416  0.4540
  840MPD2    H112402   3.241   2.016  10.064 -1.1187  0.2232 -2.8093
  840MPD2    H212403   2.991   1.680   9.997 -2.1735 -0.9877  1.1206
  840MPD2    H312404   3.131   1.861   9.911  0.4658 -1.7013  0.0356
  840MPD2     N12405   3.195   2.046  10.318  0.3747  0.2386  0.4201
  840MPD2    H512406   3.248   2.118  10.272 -0.7962  0.8879  0.0905
  840MPD2    N112407   2.928   1.628  10.236 -0.1905  0.1434  0.0990
  840MPD2    H712408   2.913   1.564  10.159 -0.5712  1.4899 -0.9523
  841MPD2     C12409   2.359   2.096  14.749 -0.2780 -0.6113  0.4072
  841MPD2    C112410   2.399   1.969  14.790 -0.2400 -0.3808 -0.2087
  841MPD2    C212411   2.526   1.953  14.829 -0.0329  0.2445 -0.2723
  841MPD2    C312412   2.618   2.048  14.805  0.0486  0.0884 -0.0403
  841MPD2    C412413   2.582   2.173  14.771 -0.3874 -0.2765 -0.5006
  841MPD2    C512414   2.451   2.197  14.742  0.1894 -1.0458  0.1955
  841MPD2     H12415   2.551   1.858  14.877  0.0686  0.5178  0.2245
  841MPD2    H112416   2.655   2.253  14.761 -0.9375  0.2299 -0.4713
  841MPD2    H212417   2.256   2.119  14.724 -0.4494 -0.7828  0.9396
  841MPD2    H312418   2.427   2.293  14.697  0.5417 -0.6858  0.7701
  841MPD2     N12419   2.754   2.020  14.837 -0.2808 -0.6968  0.2726
  841MPD2    H512420   2.773   1.925  14.868  1.5734 -0.2913  0.3224
  841MPD2    N112421   2.319   1.850  14.788 -0.1513 -1.0758  0.0190
  841MPD2    H712422   2.356   1.766  14.833  1.6353 -0.6711 -0.7092
  842MPD2     C12423   3.386   3.286  17.108  0.0324 -0.1015 -0.2872
  842MPD2    C112424   3.284   3.198  17.081 -0.1313  0.4395  0.5987
  842MPD2    C212425   3.208   3.156  17.190  0.7739 -0.4021 -0.2650
  842MPD2    C312426   3.240   3.184  17.316  0.7392  0.2008  0.2497
  842MPD2    C412427   3.333   3.285  17.344 -0.6716 -0.6734 -0.2045
  842MPD2    C512428   3.415   3.329  17.232  0.6061  0.2319  0.4733
  842MPD2     H12429   3.109   3.115  17.172  0.2288 -0.3377  2.7251
  842MPD2    H112430   3.346   3.333  17.440 -0.7458 -2.6108  0.7714
  842MPD2    H212431   3.442   3.333  17.029 -0.7804 -0.7945 -1.2827
  842MPD2    H312432   3.491   3.403  17.252  2.1728 -1.1773 -0.3494
  842MPD2     N12433   3.156   3.134  17.422  0.4995 -0.4691  0.3680
  842MPD2    H512434   3.144   3.188  17.507 -1.1831  0.1312 -0.2669
  842MPD2    N112435   3.247   3.190  16.948  0.3098 -0.6164 -0.0923
  842MPD2    H712436   3.302   3.248  16.885 -1.3908  1.4107  0.3005
  843MPD2     C12437   0.772   3.104  17.738 -0.3046 -0.0819 -0.2452
  843MPD2    C112438   0.893   3.122   0.045  0.3737 -0.0831 -0.5414
  843MPD2    C212439   0.957   3.243   0.030 -0.2240  0.2575  0.4632
  843MPD2    C312440   0.906   3.341  17.696 -0.0639 -0.1859  0.3213
  843MPD2    C412441   0.785   3.323  17.635  0.6905 -0.2674 -0.3542
  843MPD2    C512442   0.721   3.201  17.656  0.0836  0.1008 -1.1255
  843MPD2     H12443   1.051   3.264   0.081  1.6048 -2.7897 -1.6349
  843MPD2    H112444   0.732   3.404  17.586  0.9171 -0.0862 -0.3011
  843MPD2    H212445   0.715   3.016   0.017 -0.2291 -1.1144 -3.1830
  843MPD2    H312446   0.622   3.191  17.613 -0.7012 -1.6440  1.0956
  843MPD2     N12447   0.964   3.474  17.686 -0.4738  0.7546  0.2307
  843MPD2    H512448   0.923   3.530  17.612  2.0037  1.5886 -0.4805
  843MPD2    N112449   0.943   3.017   0.132 -0.6521 -0.1588 -0.5000
  843MPD2    H712450   0.895   2.928   0.131  2.5737 -1.8431 -2.2171
  844MPD2     C12451   3.309   2.202  16.387 -0.3938  0.2975 -0.0575
  844MPD2    C112452   3.441   2.164  16.381 -0.4479 -0.5239 -0.4756
  844MPD2    C212453   3.542   2.239  16.455  0.6235 -0.4168  0.2268
  844MPD2    C312454   3.508   2.355  16.518  0.0734  0.2352 -0.0842
  844MPD2    C412455   3.376   2.398  16.514  0.0508 -0.6347  0.5125
  844MPD2    C512456   3.278   2.323  16.449 -0.2764 -0.7452 -0.7484
  844MPD2     H12457   3.643   2.200  16.456  0.8941  0.2727 -0.3656
  844MPD2    H112458   3.348   2.496  16.551  1.3480 -0.3671  0.7955
  844MPD2    H212459   3.235   2.141  16.337 -0.9781  2.1405 -1.4496
  844MPD2    H312460   3.179   2.368  16.453  0.2694  0.6376 -3.1552
  844MPD2     N12461   3.614   2.418  16.583  0.4832 -0.7373  0.1389
  844MPD2    H512462   3.710   2.386  16.574  0.9624  0.8555 -0.4156
  844MPD2    N112463   3.481   2.055  16.307 -0.0105  0.2921  0.0900
  844MPD2    H712464   3.579   2.028  16.303  0.5112  2.2135 -0.0740
  845MPD2     C12465   4.064   3.406  16.507 -0.0722  0.4137 -0.1741
  845MPD2    C112466   4.087   3.355  16.637 -0.3102 -0.2940 -0.6161
  845MPD2    C212467   4.057   3.221  16.666  0.0267  0.6370 -0.7669
  845MPD2    C312468   4.014   3.135  16.571 -0.1676  0.2416 -0.3725
  845MPD2    C412469   3.982   3.188  16.444  0.7024 -0.0741 -0.6083
  845MPD2    C512470   4.010   3.318  16.415  0.7103  0.3713 -0.0872
  845MPD2     H12471   4.060   3.181  16.767 -0.2714  0.1266 -0.9595
  845MPD2    H112472   3.945   3.123  16.366 -0.8753 -1.3584  1.2294
  845MPD2    H212473   4.078   3.512  16.487 -0.9498  0.8065  1.2193
  845MPD2    H312474   3.987   3.363  16.319  0.5486  0.3024 -0.0799
  845MPD2     N12475   3.977   3.005  16.608  0.3908  0.3522  0.5344
  845MPD2    H512476   4.010   2.971  16.699 -2.0519 -0.4524  1.1050
  845MPD2    N112477   4.134   3.442  16.734  0.5845 -0.1311  0.5829
  845MPD2    H712478   4.140   3.540  16.708 -1.1335 -0.1846 -0.0110
  846MPD2     C12479   0.713   3.450  13.696 -0.7123 -0.3336 -0.1361
  846MPD2    C112480   0.600   3.512  13.732  0.1975 -0.3513  0.0206
  846MPD2    C212481   0.573   3.524  13.866 -0.5680 -0.2903  0.2096
  846MPD2    C312482   0.663   3.481  13.961  0.0067  0.1886  0.6676
  846MPD2    C412483   0.779   3.417  13.918  0.1558 -0.1634  0.8536
  846MPD2    C512484   0.805   3.404  13.785 -0.0297 -0.0285  0.0820
  846MPD2     H12485   0.480   3.571  13.895 -0.6779 -1.1705  1.2586
  846MPD2    H112486   0.860   3.382  13.981  0.9226  0.8509  0.4242
  846MPD2    H212487   0.738   3.442  13.591 -3.2883  0.7566 -0.8466
  846MPD2    H312488   0.901   3.359  13.761  1.3317  2.8107  0.2291
  846MPD2     N12489   0.618   3.499  14.095 -0.1628 -0.2357  0.3803
  846MPD2    H512490   0.527   3.543  14.094  0.4325  0.9898  0.5494
  846MPD2    N112491   0.522   3.582  13.640 -0.1790 -0.5415  0.4400
  846MPD2    H712492   0.453   3.650  13.672 -1.1052 -1.8901  1.2928
  847MPD2     C12493   0.669   4.439  14.264  0.0521 -0.3845 -0.4255
  847MPD2    C112494   0.773   4.531  14.260 -0.0745  0.0046 -0.3152
  847MPD2    C212495   0.897   4.482  14.290 -0.1743  0.1066  0.2199
  847MPD2    C312496   0.923   4.352  14.328 -0.4359 -0.4977  0.1982
  847MPD2    C412497   0.819   4.262  14.327 -0.0039 -0.0897 -0.4357
  847MPD2    C512498   0.694   4.310  14.289 -0.4244  0.8989  0.4703
  847MPD2     H12499   0.972   4.559  14.305 -1.0765  1.2620 -1.0934
  847MPD2    H112500   0.821   4.157  14.358  0.4767 -0.1855 -0.7955
  847MPD2    H212501   0.566   4.470  14.248  0.8698  3.6693  2.2240
  847MPD2    H312502   0.608   4.243  14.289 -0.6991  1.2417 -1.4418
  847MPD2     N12503   1.053   4.314  14.371  0.7714  0.0975 -0.1822
  847MPD2    H512504   1.129   4.381  14.374 -0.3776  1.4353 -1.6737
  847MPD2    N112505   0.758   4.670  14.250 -0.7916  0.1447 -0.4090
  847MPD2    H712506   0.844   4.724  14.263  0.4306 -1.8362 -0.2807
  848MPD2     C12507   3.566   3.074  16.079 -0.1938 -0.5536 -0.1450
  848MPD2    C112508   3.608   3.137  16.191  0.0615  0.2584  1.1338
  848MPD2    C212509   3.689   3.249  16.181  0.2415  0.0514 -0.4271
  848MPD2    C312510   3.710   3.309  16.062 -0.3112 -0.0504  0.4596
  848MPD2    C412511   3.669   3.252  15.943  0.2614  0.3005 -0.1646
  848MPD2    C512512   3.603   3.133  15.957  0.3664 -0.4005  0.0210
  848MPD2     H12513   3.712   3.298  16.275 -0.3753 -0.1284 -0.1827
  848MPD2    H112514   3.699   3.282  15.843  3.7297 -2.6146 -0.0012
  848MPD2    H212515   3.500   2.989  16.070  0.6533 -1.0286 -1.9265
  848MPD2    H312516   3.575   3.073  15.871  0.1644  0.6223 -0.6263
  848MPD2     N12517   3.765   3.439  16.047 -0.0607 -0.1290  0.4653
  848MPD2    H512518   3.755   3.484  15.957  0.1494 -0.4534  0.2766
  848MPD2    N112519   3.571   3.091  16.319  0.0579 -0.0202  0.0114
  848MPD2    H712520   3.606   3.137  16.402  0.5361 -0.7707  0.2290
  849MPD2     C12521   2.489   2.715  14.074 -0.5027  0.7053  0.2676
  849MPD2    C112522   2.585   2.661  13.997  0.1555  0.4055 -0.1108
  849MPD2    C212523   2.681   2.579  14.061  0.1867 -0.5155  0.2381
  849MPD2    C312524   2.690   2.567  14.203 -0.3411 -0.2874  0.6176
  849MPD2    C412525   2.598   2.633  14.277  0.0543  0.2176 -0.6214
  849MPD2    C512526   2.493   2.692  14.210  0.1784  0.3554 -0.3570
  849MPD2     H12527   2.746   2.518  13.998  1.0998  1.7266 -0.9774
  849MPD2    H112528   2.597   2.633  14.385  0.7101  1.0409 -0.6175
  849MPD2    H212529   2.406   2.769  14.030 -1.6095 -0.4504  0.9333
  849MPD2    H312530   2.414   2.733  14.272 -0.5054  1.1839 -1.7715
  849MPD2     N12531   2.800   2.499  14.255  0.2893  0.1309  0.2141
  849MPD2    H512532   2.863   2.456  14.189  2.9127  1.2294  2.0185
  849MPD2    N112533   2.602   2.697  13.862 -0.0115 -0.5472 -0.1699
  849MPD2    H712534   2.527   2.752  13.822 -0.2717 -0.7645  0.0158
  850MPD2     C12535   0.766   1.121  14.570  0.3975  1.1179 -0.2663
  850MPD2    C112536   0.741   1.098  14.701 -0.2974  0.6893  0.1820
  850MPD2    C212537   0.846   1.117  14.795 -0.2241 -0.2526 -0.2497
  850MPD2    C312538   0.975   1.127  14.746 -0.2025 -0.1752  0.1385
  850MPD2    C412539   0.999   1.140  14.610  0.0635  0.7260 -0.6059
  850MPD2    C512540   0.893   1.145  14.524 -0.2495  0.3861  0.0197
  850MPD2     H12541   0.832   1.104  14.901 -2.1462 -2.5602 -0.7992
  850MPD2    H112542   1.102   1.142  14.576 -0.1753 -0.1374 -1.3961
  850MPD2    H212543   0.688   1.115  14.495  0.2803  0.9222 -0.1274
  850MPD2    H312544   0.916   1.160  14.420 -1.8132 -1.7188 -0.6225
  850MPD2     N12545   1.090   1.092  14.821  0.5183 -0.3077 -0.1456
  850MPD2    H512546   1.184   1.101  14.784 -1.1823  1.4202 -4.0559
  850MPD2    N112547   0.607   1.075  14.739  0.1225  0.1331 -0.0680
  850MPD2    H712548   0.536   1.101  14.672 -2.1871 -0.1157  2.2853
  851MPD2     C12549   1.190   0.647  15.087 -0.4901 -0.0602  0.1577
  851MPD2    C112550   1.074   0.601  15.035 -0.4924 -1.1736 -0.1276
  851MPD2    C212551   1.057   0.469  15.003 -0.4835 -0.4856  0.4026
  851MPD2    C312552   1.150   0.378  15.049  0.4295  0.1024  0.0500
  851MPD2    C412553   1.272   0.431  15.104  0.0299  0.0236 -0.1244
  851MPD2    C512554   1.293   0.568  15.117 -0.0681  0.2050 -0.1507
  851MPD2     H12555   0.967   0.429  14.958 -1.7204  2.8334 -0.0018
  851MPD2    H112556   1.354   0.367  15.134  0.7298  0.1981 -1.6513
  851MPD2    H212557   1.204   0.753  15.101  0.5438 -0.1403 -0.2718
  851MPD2    H312558   1.388   0.614  15.140 -0.3192 -1.0895  3.4819
  851MPD2     N12559   1.121   0.241  15.030  0.0703 -0.3868  0.1944
  851MPD2    H512560   1.040   0.210  14.978 -0.4574 -2.0896  1.9975
  851MPD2    N112561   0.978   0.704  15.020 -0.8354  0.2816  0.1460
  851MPD2    H712562   0.999   0.796  15.058 -2.4281 -0.4268  2.6958
  852MPD2     C12563   0.334   2.852   9.936  0.1855  0.0504  0.5671
  852MPD2    C112564   0.401   2.918  10.043 -0.3688  0.1270 -1.0177
  852MPD2    C212565   0.465   3.036  10.006  0.7279 -0.1602  0.1629
  852MPD2    C312566   0.466   3.093   9.880 -0.6536 -0.1417 -0.2488
  852MPD2    C412567   0.402   3.024   9.782  0.1801  0.4755  0.2554
  852MPD2    C512568   0.341   2.907   9.811  0.1071 -0.9336  0.2787
  852MPD2     H12569   0.498   3.095  10.091  0.4630  1.4249 -0.8256
  852MPD2    H112570   0.403   3.062   9.680 -0.6993  1.7834  0.7383
  852MPD2    H212571   0.282   2.757   9.946 -3.4998  2.2587  2.4357
  852MPD2    H312572   0.285   2.871   9.725 -1.7370  1.0646  0.6451
  852MPD2     N12573   0.543   3.212   9.857  0.0363  0.4874  0.2220
  852MPD2    H512574   0.579   3.259   9.939 -0.5205  1.2028  0.0552
  852MPD2    N112575   0.400   2.872  10.181  0.5131 -0.0776 -0.7184
  852MPD2    H712576   0.452   2.922  10.253  1.2355  0.6340 -1.7318
  853MPD2     C12577   2.753   2.762  12.218  0.4723  0.6288 -0.7820
  853MPD2    C112578   2.670   2.870  12.198  0.1850  0.0722  0.2671
  853MPD2    C212579   2.609   2.877  12.075 -0.2586  0.4983 -0.5509
  853MPD2    C312580   2.632   2.791  11.975  0.4065  0.4837 -0.8624
  853MPD2    C412581   2.717   2.682  11.996 -0.7681 -0.2006  0.0300
  853MPD2    C512582   2.776   2.670  12.121 -0.4324  0.2987  0.2207
  853MPD2     H12583   2.544   2.961  12.053 -1.2456 -0.5149 -1.4996
  853MPD2    H112584   2.737   2.604  11.923 -0.6424  0.0430 -0.1945
  853MPD2    H212585   2.806   2.738  12.309 -2.0850 -2.2010 -0.0209
  853MPD2    H312586   2.851   2.593  12.131 -0.5848  0.0912 -0.2145
  853MPD2     N12587   2.575   2.824  11.851 -0.0043 -0.3409  0.2866
  853MPD2    H512588   2.600   2.769  11.770  0.1151 -2.0357  1.4477
  853MPD2    N112589   2.652   2.956  12.309 -0.5570  0.3114 -0.3106
  853MPD2    H712590   2.699   2.931  12.396 -0.3256 -0.9580 -0.8022
  854MPD2     C12591   4.648   2.266  12.693  0.2823 -0.6653 -0.3972
  854MPD2    C112592   4.550   2.358  12.708 -0.4456  0.0396 -0.3017
  854MPD2    C212593   4.567   2.492  12.698  0.4524 -0.1819 -0.3422
  854MPD2    C312594   4.687   2.538  12.660 -0.2847 -0.0604 -0.3321
  854MPD2    C412595   0.047   2.452  12.628 -0.2478 -0.0807 -0.3501
  854MPD2    C512596   0.026   2.318  12.649 -0.5329  0.1576 -0.1280
  854MPD2     H12597   4.481   2.558  12.701  2.3031  2.2147 -0.0200
  854MPD2    H112598   0.146   2.490  12.606 -0.4791  0.3264 -0.6727
  854MPD2    H212599   4.630   2.159  12.691 -0.0289 -0.6016 -1.5347
  854MPD2    H312600   0.106   2.247  12.628 -0.4096  1.0300 -2.6382
  854MPD2     N12601   4.715   2.674  12.632 -0.2060  0.0734  0.0197
  854MPD2    H512602   0.068   2.697  12.592  0.6928 -2.7207  0.4547
  854MPD2    N112603   4.427   2.304  12.747 -0.6757  0.2012  0.0296
  854MPD2    H712604   4.406   2.206  12.733 -1.8827  0.6691 -1.4381
  855MPD2     C12605   4.660   3.096  13.385 -0.0759  0.1253  0.2153
  855MPD2    C112606   0.005   3.000  13.329 -0.1337  0.6254  0.1568
  855MPD2    C212607   0.048   3.029  13.202  0.5023 -0.2310  0.0376
  855MPD2    C312608   4.721   3.119  13.120 -0.3864 -0.6093  0.4450
  855MPD2    C412609   4.634   3.208  13.176 -0.3121 -0.1310 -0.0149
  855MPD2    C512610   4.607   3.202  13.309  0.5277  0.3390 -0.2281
  855MPD2     H12611   0.122   2.959  13.163 -0.4685 -0.7381 -0.9213
  855MPD2    H112612   4.588   3.293  13.127  0.8810 -0.1869 -1.2385
  855MPD2    H212613   4.620   3.090  13.485  0.9091 -0.6877  0.5529
  855MPD2    H312614   4.528   3.266  13.347 -0.4951  0.6238 -2.7856
  855MPD2     N12615   0.016   3.139  12.984 -0.0091  0.2587  0.1020
  855MPD2    H512616   4.699   3.213  12.942  2.0412  0.4950 -2.1375
  855MPD2    N112617   0.052   2.879  13.393 -0.1334  0.1363 -0.7820
  855MPD2    H712618   0.101   2.808  13.339 -1.3518  0.6644 -2.5794
  856MPD2     C12619   1.427   3.834  14.005 -0.7769  0.5690 -0.6884
  856MPD2    C112620   1.493   3.959  14.002 -0.3593 -0.1065  0.0317
  856MPD2    C212621   1.412   4.067  14.004  0.3396  0.0197  0.0372
  856MPD2    C312622   1.272   4.054  14.008  0.1403  0.5825  0.2070
  856MPD2    C412623   1.214   3.930  13.998  0.6263 -0.1032 -0.2255
  856MPD2    C512624   1.294   3.816  13.990 -0.5303 -0.3700 -0.0141
  856MPD2     H12625   1.467   4.160  14.000  0.8908 -0.2459  1.4291
  856MPD2    H112626   1.106   3.918  13.999  1.0790 -3.8579  2.5684
  856MPD2    H212627   1.484   3.743  14.018 -1.5538  0.2273  0.3512
  856MPD2    H312628   1.258   3.715  13.974 -0.9168  0.2765 -3.2121
  856MPD2     N12629   1.192   4.173  14.007  0.1159 -0.0604 -0.2186
  856MPD2    H512630   1.094   4.158  13.984 -0.2358 -0.3849  1.4784
  856MPD2    N112631   1.632   3.968  14.010  0.2176  0.1203 -0.0439
  856MPD2    H712632   1.673   4.061  14.009 -1.7260  0.9887  1.4734
  857MPD2     C12633   3.379   1.569  12.741 -0.1289  0.0431 -0.4176
  857MPD2    C112634   3.474   1.472  12.732  0.1955 -0.0360 -0.6575
  857MPD2    C212635   3.596   1.507  12.787  0.3956  0.0393  0.8784
  857MPD2    C312636   3.628   1.626  12.844 -0.1916  0.2393 -0.5040
  857MPD2    C412637   3.545   1.730  12.838 -0.7587  0.0183  0.5883
  857MPD2    C512638   3.416   1.693  12.791 -0.0412 -0.5173  0.1950
  857MPD2     H12639   3.673   1.430  12.790 -0.0080 -0.3825  0.3606
  857MPD2    H112640   3.567   1.830  12.874  0.1721  0.0285 -0.0212
  857MPD2    H212641   3.281   1.549  12.699 -0.6721 -0.0585  0.9003
  857MPD2    H312642   3.348   1.777  12.793 -0.5066 -0.8776 -0.6773
  857MPD2     N12643   3.760   1.642  12.891  0.0917  0.1954  0.1980
  857MPD2    H512644   3.830   1.571  12.869 -0.8860 -0.9607  0.8108
  857MPD2    N112645   3.450   1.357  12.652  0.0990 -0.0831 -0.0563
  857MPD2    H712646   3.355   1.324  12.637 -0.9508  2.0587  1.8449
  858MPD2     C12647   3.585   0.358  16.769 -0.1299  0.0991 -0.1585
  858MPD2    C112648   3.721   0.331  16.765  0.0616 -0.0602 -0.2670
  858MPD2    C212649   3.806   0.391  16.860  0.1195 -0.0053  0.1669
  858MPD2    C312650   3.759   0.484  16.948  0.4356 -0.4616 -0.4323
  858MPD2    C412651   3.628   0.512  16.943  0.2676 -0.0540  0.8105
  858MPD2    C512652   3.543   0.449  16.857  0.6290  0.9729  0.0627
  858MPD2     H12653   3.911   0.366  16.863 -0.3643 -1.9138  0.6289
  858MPD2    H112654   3.574   0.583  17.004 -2.5317 -0.5183 -1.0992
  858MPD2    H212655   3.516   0.316  16.696  0.5417  0.3846 -0.9550
  858MPD2    H312656   3.440   0.484  16.856  0.7992  1.4832  0.0317
  858MPD2     N12657   3.842   0.551  17.042  0.0515 -1.0147 -0.5590
  858MPD2    H512658   3.803   0.628  17.095  0.0289  0.3481 -2.5473
  858MPD2    N112659   3.769   0.246  16.665  0.2103  0.1075 -0.4490
  858MPD2    H712660   3.694   0.194  16.622 -0.8311  0.7706  0.5599
  859MPD2     C12661   2.293   2.488  15.438 -0.9654 -0.9470 -0.6443
  859MPD2    C112662   2.404   2.485  15.519  0.7930  0.3229 -0.6818
  859MPD2    C212663   2.428   2.363  15.588  0.8255  0.0839  0.0296
  859MPD2    C312664   2.341   2.254  15.578 -0.5681  0.5383 -0.6988
  859MPD2    C412665   2.234   2.262  15.493 -0.6670 -0.1648 -0.4979
  859MPD2    C512666   2.213   2.381  15.431  0.2400 -0.3818 -0.6339
  859MPD2     H12667   2.515   2.360  15.652 -2.0265  1.2485  3.9061
  859MPD2    H112668   2.159   2.185  15.489 -0.9878  0.0496  1.4683
  859MPD2    H212669   2.261   2.580  15.390 -2.5531 -0.0340  2.1733
  859MPD2    H312670   2.114   2.389  15.387 -0.5835 -0.6011  1.1971
  859MPD2     N12671   2.356   2.129  15.638 -0.1768 -0.3980  0.2776
  859MPD2    H512672   2.318   2.048  15.590 -1.3418 -0.0540  0.6233
  859MPD2    N112673   2.474   2.611  15.541  0.3910  0.3513 -0.0114
  859MPD2    H712674   2.447   2.694  15.489 -0.6823 -0.7979 -1.2862
  860MPD2     C12675   0.783   3.204  11.553 -0.2192  0.2071 -0.2738
  860MPD2    C112676   0.764   3.096  11.641 -0.3441  0.0411  0.7713
  860MPD2    C212677   0.646   3.033  11.638 -0.1901 -0.1626 -0.0450
  860MPD2    C312678   0.546   3.063  11.546  0.2981  0.2871  0.6256
  860MPD2    C412679   0.564   3.156  11.454  0.1362 -0.3364  0.0957
  860MPD2    C512680   0.684   3.223  11.458  0.4641 -0.0739  0.9239
  860MPD2     H12681   0.630   2.957  11.714  0.6033 -0.1482  0.1434
  860MPD2    H112682   0.481   3.192  11.394  1.6956  0.0134 -1.8677
  860MPD2    H212683   0.875   3.258  11.533 -0.7804  1.4235  0.4715
  860MPD2    H312684   0.698   3.298  11.381 -0.3351 -2.7958 -1.8943
  860MPD2     N12685   0.427   2.986  11.555  0.0489  0.2632 -0.4412
  860MPD2    H512686   0.436   2.901  11.609 -0.1466  0.5353  0.0290
  860MPD2    N112687   0.859   3.058  11.742  0.4759 -0.3293 -0.0384
  860MPD2    H712688   0.835   2.980  11.802 -0.4988  2.0496  2.7034
  861MPD2     C12689   3.962   1.093  11.069 -0.3315  0.5516  0.2514
  861MPD2    C112690   3.862   1.129  11.150 -0.4859  0.0405 -0.5448
  861MPD2    C212691   3.749   1.201  11.095 -0.0051  0.2912  0.3106
  861MPD2    C312692   3.760   1.250  10.962  0.0358  0.0826 -0.1861
  861MPD2    C412693   3.859   1.204  10.883 -0.2713  0.2971  0.3156
  861MPD2    C512694   3.958   1.123  10.935  0.1652  0.3375 -0.4442
  861MPD2     H12695   3.666   1.237  11.155  1.0389 -1.7196  2.9639
  861MPD2    H112696   3.860   1.234  10.779 -0.1934  0.2995  0.3167
  861MPD2    H212697   4.052   1.039  11.098 -0.6037  0.9959  1.9548
  861MPD2    H312698   4.036   1.076  10.877  0.9720  0.5991  0.4258
  861MPD2     N12699   3.667   1.349  10.912 -0.3752 -0.1606  0.0079
  861MPD2    H512700   3.694   1.403  10.831  0.4340 -0.6722 -0.0547
  861MPD2    N112701   3.874   1.087  11.285 -0.3894  0.0523 -0.2309
  861MPD2    H712702   3.966   1.052  11.311 -0.3177  1.3722  1.2762
  862MPD2     C12703   3.196   1.453  10.494  0.0612 -0.2484 -0.3505
  862MPD2    C112704   3.323   1.424  10.535  0.0184 -0.5706 -0.1503
  862MPD2    C212705   3.365   1.293  10.535  0.7577 -0.5609 -0.4098
  862MPD2    C312706   3.279   1.194  10.527  0.4105  0.4463 -0.6064
  862MPD2    C412707   3.146   1.230  10.513  0.2914  0.2388  0.1878
  862MPD2    C512708   3.108   1.356  10.494  0.0195  0.5585  0.0346
  862MPD2     H12709   3.471   1.276  10.551  0.5991 -2.0195 -0.9516
  862MPD2    H112710   3.061   1.164  10.528 -0.0801  0.6407 -0.1515
  862MPD2    H212711   3.158   1.554  10.484 -1.8553 -1.0620 -1.4248
  862MPD2    H312712   3.003   1.384  10.494 -0.7959 -2.4401  2.8441
  862MPD2     N12713   3.308   1.058  10.544 -0.0365  0.3229  0.4197
  862MPD2    H512714   3.232   0.997  10.573  0.3536 -0.6932 -0.7239
  862MPD2    N112715   3.412   1.518  10.584 -0.1398 -0.1777  0.2007
  862MPD2    H712716   3.505   1.493  10.617 -1.4422 -3.1622  1.5909
  863MPD2     C12717   2.280   4.726  16.674  0.2839  0.3295 -0.0462
  863MPD2    C112718   2.296   4.616  16.599  0.0504  0.1653  0.2064
  863MPD2    C212719   2.411   4.538  16.619  0.3194  0.3801  0.2002
  863MPD2    C312720   2.507   4.572  16.713  0.0969 -0.7501  0.1740
  863MPD2    C412721   2.489   4.690  16.782  0.5185 -0.1181 -1.0013
  863MPD2    C512722   2.374   0.027  16.764  0.5199  0.2901  0.3197
  863MPD2     H12723   2.423   4.449  16.557 -1.3449 -0.0609  0.4997
  863MPD2    H112724   2.554   4.726  16.861  0.4147  1.2129 -1.5205
  863MPD2    H212725   2.194   0.053  16.662  0.6553  1.1081  1.4534
  863MPD2    H312726   2.356   0.118  16.821 -2.2913  0.7695 -1.3471
  863MPD2     N12727   2.619   4.483  16.735  0.0206  0.3548  0.3859
  863MPD2    H512728   2.677   4.518  16.811 -1.9088  1.4364  1.3698
  863MPD2    N112729   2.190   4.589  16.504 -0.0247 -0.2262  0.7693
  863MPD2    H712730   2.106   4.644  16.516 -1.0969 -1.1278 -2.6432
  864MPD2     C12731   2.925   0.774  17.267 -0.1944  0.1561 -0.6685
  864MPD2    C112732   2.988   0.677  17.193 -0.0577 -0.2591 -0.2086
  864MPD2    C212733   3.093   0.717  17.112 -0.2018 -0.4512  0.4786
  864MPD2    C312734   3.113   0.852  17.088 -0.7353 -0.1513 -0.5234
  864MPD2    C412735   3.042   0.947  17.159  0.2788 -0.1956  0.2097
  864MPD2    C512736   2.951   0.904  17.248 -0.4824 -0.1672 -0.3934
  864MPD2     H12737   3.142   0.645  17.048 -0.1510  0.2943 -0.3193
  864MPD2    H112738   3.067   1.052  17.167  0.6301 -0.0814 -2.1726
  864MPD2    H212739   2.854   0.746  17.344 -0.5523 -0.0273 -1.0637
  864MPD2    H312740   2.902   0.971  17.318 -0.1510  0.1083 -0.4244
  864MPD2     N12741   3.215   0.907  17.002 -0.6712  0.3789 -0.3478
  864MPD2    H512742   3.220   1.008  16.991  0.2125  0.6577  2.6090
  864MPD2    N112743   2.940   0.547  17.199 -0.7955 -0.4484  0.1663
  864MPD2    H712744   2.856   0.535  17.255 -1.9771  0.0870 -1.4905
  865MPD2     C12745   3.352   0.994  16.068  0.2552  0.5155 -0.3139
  865MPD2    C112746   3.324   0.906  16.174  0.6294 -0.3883  0.2977
  865MPD2    C212747   3.295   0.962  16.299  0.1524  0.5679 -0.3938
  865MPD2    C312748   3.305   1.097  16.313 -0.2710  0.0280  0.3411
  865MPD2    C412749   3.342   1.183  16.214  0.7722 -0.3853 -0.1329
  865MPD2    C512750   3.372   1.128  16.091  0.3058 -0.6082 -0.0730
  865MPD2     H12751   3.292   0.903  16.390  0.5097  0.0846 -0.6922
  865MPD2    H112752   3.356   1.288  16.238  0.8681 -0.1238 -1.3493
  865MPD2    H212753   3.351   0.954  15.968 -1.3590  0.9179 -0.4611
  865MPD2    H312754   3.384   1.188  16.001  1.6664  2.5842  2.2479
  865MPD2     N12755   3.312   1.151  16.447 -0.1614 -0.4086 -0.2878
  865MPD2    H512756   3.387   1.217  16.464  1.6228 -1.8834 -2.5102
  865MPD2    N112757   3.313   0.767  16.138  0.9535  0.1700 -0.5629
  865MPD2    H712758   3.337   0.740  16.043  0.7875 -0.9664 -0.2726
  866MPD2     C12759   4.228   1.048  11.629 -0.7578 -0.0337 -0.0094
  866MPD2    C112760   4.233   1.043  11.494 -1.0058  0.4890  0.0519
  866MPD2    C212761   4.191   1.153  11.418 -0.3777  0.5102 -0.1280
  866MPD2    C312762   4.132   1.259  11.477 -0.5032 -0.6190  0.3874
  866MPD2    C412763   4.120   1.258  11.612  0.6132 -0.0982 -0.2179
  866MPD2    C512764   4.171   1.157  11.693  0.0875 -0.0309 -0.2806
  866MPD2     H12765   4.177   1.135  11.312  1.8588 -0.9372 -0.1805
  866MPD2    H112766   4.059   1.333  11.661 -0.3666 -0.4103 -0.9815
  866MPD2    H212767   4.243   0.955  11.682 -0.1573 -0.1990 -0.4782
  866MPD2    H312768   4.154   1.160  11.800 -0.0235 -1.9541 -0.2502
  866MPD2     N12769   4.059   1.359  11.408  0.4251  0.1895 -0.2498
  866MPD2    H512770   4.004   1.428  11.457 -0.9549 -0.4390 -0.9087
  866MPD2    N112771   4.272   0.921  11.439  0.0263 -0.1277  0.3657
  866MPD2    H712772   4.288   0.849  11.508  1.1437 -2.0613 -1.9292
  867MPD2     C12773   1.516   0.883  16.443  0.7628 -0.7356  0.4844
  867MPD2    C112774   1.591   0.824  16.543 -0.2821 -0.5412 -0.0847
  867MPD2    C212775   1.618   0.902  16.660 -0.6136  0.8424 -0.1084
  867MPD2    C312776   1.570   1.031  16.669 -0.0589 -0.4185  0.4635
  867MPD2    C412777   1.500   1.088  16.569 -0.8340  0.3582  0.6177
  867MPD2    C512778   1.482   1.012  16.459  0.5742 -0.3397  0.0177
  867MPD2     H12779   1.670   0.857  16.745 -2.2829 -0.9904 -0.0530
  867MPD2    H112780   1.469   1.192  16.576 -0.5910  0.3509  1.8389
  867MPD2    H212781   1.512   0.832  16.347 -0.2256 -0.3044  0.3026
  867MPD2    H312782   1.450   1.053  16.364 -0.0135  0.4554  0.5635
  867MPD2     N12783   1.590   1.108  16.786  0.0637 -0.2152  0.6208
  867MPD2    H512784   1.558   1.204  16.779 -1.7815 -0.9626 -1.4082
  867MPD2    N112785   1.634   0.691  16.519 -0.1108  0.1769  0.0032
  867MPD2    H712786   1.615   0.654  16.426  0.3443  0.1699 -0.0890
  868MPD2     C12787   3.572   3.486  12.957 -0.4006  0.0715  0.1750
  868MPD2    C112788   3.646   3.601  12.935 -0.4280 -0.4776 -0.3339
  868MPD2    C212789   3.593   3.724  12.967 -0.1216  0.2682 -0.7815
  868MPD2    C312790   3.470   3.727  13.033  0.2711  0.2095 -0.1263
  868MPD2    C412791   3.403   3.609  13.058 -0.4747 -0.2289  0.4925
  868MPD2    C512792   3.449   3.490  13.017  0.3064 -0.4531  0.4573
  868MPD2     H12793   3.646   3.817  12.950 -1.5300  1.4039  0.9169
  868MPD2    H112794   3.314   3.613  13.121  0.2443  0.9062  1.4357
  868MPD2    H212795   3.624   3.393  12.936  0.7312  1.1363 -1.7175
  868MPD2    H312796   3.399   3.394  13.026 -0.4083 -0.1757 -0.5109
  868MPD2     N12797   3.433   3.852  13.095 -0.2662 -0.7242 -0.7304
  868MPD2    H512798   3.495   3.931  13.085 -0.3986 -0.6866 -1.2362
  868MPD2    N112799   3.780   3.588  12.888 -0.2399 -0.0084 -0.2560
  868MPD2    H712800   3.827   3.498  12.879  0.3344  0.4460 -1.9605
  869MPD2     C12801   0.117   3.048   1.804 -0.4298 -0.4100 -0.4428
  869MPD2    C112802   0.094   3.135   1.698 -0.4249  1.0132  0.3570
  869MPD2    C212803   0.126   3.097   1.571  0.7049  0.4071  0.2366
  869MPD2    C312804   0.205   2.985   1.557 -0.0056 -0.4627 -0.0879
  869MPD2    C412805   0.227   2.897   1.665 -0.3586  0.1745 -0.1726
  869MPD2    C512806   0.183   2.930   1.785 -0.0907  0.6376 -0.0084
  869MPD2     H12807   0.117   3.154   1.479 -0.0702 -1.2836 -0.7456
  869MPD2    H112808   0.290   2.810   1.651 -0.4831 -0.2743  2.1655
  869MPD2    H212809   0.073   3.070   1.900 -0.1474  0.7440 -0.5766
  869MPD2    H312810   0.207   2.861   1.866 -1.1496 -0.1662 -0.3752
  869MPD2     N12811   0.248   2.957   1.422 -0.3553 -0.2124 -0.4545
  869MPD2    H512812   0.208   3.015   1.350 -0.2558 -1.9279 -1.9099
  869MPD2    N112813   0.036   3.258   1.710  0.1733 -0.3815  0.5675
  869MPD2    H712814   0.005   3.305   1.625  1.1585 -1.3465 -0.3351
  870MPD2     C12815   4.393   1.962   1.642  0.2114 -0.5507 -0.0194
  870MPD2    C112816   4.363   1.836   1.600  0.0561 -0.3775  1.0677
  870MPD2    C212817   4.296   1.819   1.487  0.9251 -0.5768 -0.3939
  870MPD2    C312818   4.253   1.922   1.414 -0.1823 -0.0465 -0.1170
  870MPD2    C412819   4.276   2.053   1.456  0.2581  0.5708  0.0648
  870MPD2    C512820   4.355   2.071   1.568 -0.0683 -0.0192 -0.1124
  870MPD2     H12821   4.275   1.719   1.453  2.2132 -0.3989 -1.7244
  870MPD2    H112822   4.234   2.136   1.400 -2.0088 -0.2443  0.5349
  870MPD2    H212823   4.442   1.986   1.735  0.7784  0.9119 -0.6836
  870MPD2    H312824   4.382   2.171   1.599  2.1219 -0.6050 -0.0695
  870MPD2     N12825   4.168   1.897   1.301 -0.3733 -0.0144  0.4408
  870MPD2    H512826   4.138   1.800   1.294  0.8384 -0.3331 -0.4425
  870MPD2    N112827   4.413   1.732   1.687 -0.0140  0.0874  0.4231
  870MPD2    H712828   4.462   1.760   1.771 -0.1285  1.3966  0.0535
  871MPD2     C12829   0.638   1.106  16.246  0.2265 -0.0280 -0.3629
  871MPD2    C112830   0.740   1.064  16.317 -0.0970  0.4235  0.3923
  871MPD2    C212831   0.833   0.972  16.265 -0.7625  0.7395  0.6594
  871MPD2    C312832   0.831   0.941  16.130  0.6068  0.4070 -0.2006
  871MPD2    C412833   0.734   1.002  16.052  0.8184 -0.4098 -0.2449
  871MPD2    C512834   0.638   1.076  16.115  0.0631 -0.6199  0.0437
  871MPD2     H12835   0.909   0.931  16.330 -0.5579 -1.9795 -1.2724
  871MPD2    H112836   0.721   0.987  15.945 -0.0884  0.7498 -0.2939
  871MPD2    H212837   0.565   1.177  16.284 -0.1111 -0.9991  0.8212
  871MPD2    H312838   0.563   1.129  16.057  1.2413  1.6401  0.6163
  871MPD2     N12839   0.921   0.843  16.079  0.2145  0.2624  0.1496
  871MPD2    H512840   0.985   0.805  16.148 -0.6723 -0.4839  0.5748
  871MPD2    N112841   0.753   1.112  16.447  0.6803  0.2927 -0.2306
  871MPD2    H712842   0.702   1.194  16.476 -0.2394  0.2022 -1.5712
  872MPD2     C12843   1.338   3.050  13.336  0.8688 -0.2421  0.3967
  872MPD2    C112844   1.403   3.106  13.441  0.6576 -0.3963 -0.1391
  872MPD2    C212845   1.341   3.122  13.561 -0.2761  0.2892 -0.3899
  872MPD2    C312846   1.214   3.080  13.582 -0.2133 -1.1650 -0.0016
  872MPD2    C412847   1.146   3.026  13.474  0.6809  0.0207 -0.2989
  872MPD2    C512848   1.211   3.015  13.357  0.0769  0.3040 -0.4978
  872MPD2     H12849   1.407   3.166  13.635  0.1358  0.2827 -0.7599
  872MPD2    H112850   1.049   2.977  13.477  0.7451 -0.2235 -2.2550
  872MPD2    H212851   1.383   3.030  13.239  0.6025 -0.5943  0.3444
  872MPD2    H312852   1.157   2.974  13.272  1.5566 -0.3702 -1.0978
  872MPD2     N12853   1.163   3.074  13.716  0.3226 -0.1732 -0.1373
  872MPD2    H512854   1.095   2.999  13.724 -1.8257  1.8892  0.7665
  872MPD2    N112855   1.529   3.160  13.437 -0.3055 -0.8790 -0.6026
  872MPD2    H712856   1.560   3.190  13.529  0.8061  0.1256 -1.2969
  873MPD2     C12857   3.193   3.348   0.411 -0.5831  0.1045 -0.1739
  873MPD2    C112858   3.264   3.314   0.522 -1.0256  0.0361  0.4820
  873MPD2    C212859   3.314   3.189   0.536 -0.2907 -0.7354  0.3721
  873MPD2    C312860   3.288   3.083   0.446  0.3828  0.4311  0.3714
  873MPD2    C412861   3.232   3.125   0.328 -1.3287 -0.1352 -0.2503
  873MPD2    C512862   3.178   3.253   0.319  0.6276  0.7388 -0.1425
  873MPD2     H12863   3.372   3.163   0.624  0.2995 -0.3281  0.1002
  873MPD2    H112864   3.214   3.055   0.246 -2.7650 -1.6361  1.3419
  873MPD2    H212865   3.153   3.449   0.397  1.5727  1.0218  0.4036
  873MPD2    H312866   3.121   3.268   0.229  0.2668  1.2868  0.1776
  873MPD2     N12867   3.300   2.944   0.476  0.3728 -0.6578 -0.4083
  873MPD2    H512868   3.255   2.880   0.411  0.4955 -3.5694  2.3813
  873MPD2    N112869   3.264   3.402   0.630  0.6458 -0.0616  0.2878
  873MPD2    H712870   3.199   3.479   0.638 -1.1599 -1.4611 -0.7092
  874MPD2     C12871   3.046   3.463  16.198  0.2359  0.2180 -0.7200
  874MPD2    C112872   3.161   3.437  16.277  0.1522 -0.1309 -0.1997
  874MPD2    C212873   3.278   3.505  16.248  0.0247  0.0088  0.6805
  874MPD2    C312874   3.284   3.605  16.152 -0.1389 -1.1014 -0.0660
  874MPD2    C412875   3.166   3.636  16.085 -0.6132  0.5129  0.0453
  874MPD2    C512876   3.056   3.561  16.101  0.5961 -0.2012 -0.3795
  874MPD2     H12877   3.373   3.482  16.294  0.7595 -1.7971 -1.7737
  874MPD2    H112878   3.154   3.724  16.022 -2.4643  1.3023  1.5130
  874MPD2    H212879   2.955   3.403  16.196  0.6697 -0.4625  0.2534
  874MPD2    H312880   2.979   3.565  16.025 -0.0207 -4.1893  0.0266
  874MPD2     N12881   3.409   3.673  16.129 -0.2737  0.1816  0.3785
  874MPD2    H512882   3.489   3.660  16.190  0.7197 -1.4739 -1.2507
  874MPD2    N112883   3.151   3.333  16.368 -0.4031  0.4090  0.0319
  874MPD2    H712884   3.058   3.299  16.390  0.1683 -0.8352  0.5741
  875MPD2     C12885   4.311   1.794  14.428 -0.2785 -0.1269  0.3184
  875MPD2    C112886   4.259   1.685  14.490  0.0949  0.2722 -0.4919
  875MPD2    C212887   4.252   1.679  14.631 -0.1224  0.8676 -0.9460
  875MPD2    C312888   4.323   1.772  14.711  0.6789 -0.0616 -0.3903
  875MPD2    C412889   4.379   1.880  14.645 -0.1134  0.1207 -0.0145
  875MPD2    C512890   4.372   1.890  14.510 -0.2337  0.1433 -0.2333
  875MPD2     H12891   4.198   1.604  14.688 -1.2126  1.6756 -0.9018
  875MPD2    H112892   4.447   1.949  14.696 -1.5601 -0.4211  2.6462
  875MPD2    H212893   4.314   1.802  14.320 -0.1153  0.6618  0.3799
  875MPD2    H312894   4.415   1.983  14.475 -1.2903  0.4939 -0.6286
  875MPD2     N12895   4.328   1.788  14.855  0.3666  0.0689 -0.2397
  875MPD2    H512896   4.389   1.860  14.894  0.4461 -0.0564 -0.1298
  875MPD2    N112897   4.189   1.594  14.406 -0.0995 -0.1020 -0.7301
  875MPD2    H712898   4.168   1.625  14.312 -0.2746 -1.2556 -1.0682
  876MPD2     C12899   2.910   2.767  16.072  0.1704  0.9797  0.1572
  876MPD2    C112900   3.025   2.718  16.014  0.1702  0.1965 -0.7406
  876MPD2    C212901   3.051   2.582  16.037 -0.0186  0.3071  0.3762
  876MPD2    C312902   2.960   2.498  16.104 -0.0328  0.4716 -0.1923
  876MPD2    C412903   2.840   2.554  16.160 -0.2411 -0.3982 -0.3444
  876MPD2    C512904   2.822   2.689  16.149 -0.6659 -0.0813 -0.6121
  876MPD2     H12905   3.141   2.539  15.993 -0.0898  0.4145  0.1252
  876MPD2    H112906   2.763   2.491  16.204 -0.6115 -0.1171 -0.5879
  876MPD2    H212907   2.883   2.872  16.061  0.5972  1.2892  2.1586
  876MPD2    H312908   2.736   2.745  16.185 -0.5488 -0.6848  0.6113
  876MPD2     N12909   2.978   2.361  16.093 -0.6519 -0.4435 -0.4207
  876MPD2    H512910   3.066   2.333  16.050  0.2052 -1.0156  1.7024
  876MPD2    N112911   3.109   2.806  15.936 -0.2125  0.6233  0.0063
  876MPD2    H712912   3.070   2.891  15.898  3.3551  2.0021 -0.5863
  877MPD2     C12913   3.011   3.226  15.378  0.5461 -0.1393  0.3360
  877MPD2    C112914   3.143   3.234  15.378 -0.1330  0.1466 -0.3876
  877MPD2    C212915   3.211   3.261  15.265  0.3839  0.1822 -0.0762
  877MPD2    C312916   3.135   3.286  15.153 -0.1048 -0.5001  0.0538
  877MPD2    C412917   3.003   3.303  15.155 -0.5026 -0.1394  0.2539
  877MPD2    C512918   2.938   3.265  15.272 -0.4297 -0.3931 -0.3237
  877MPD2     H12919   3.318   3.249  15.255 -0.1282 -1.4652 -3.3474
  877MPD2    H112920   2.938   3.319  15.070 -1.6613  3.1326  1.7485
  877MPD2    H212921   2.961   3.191  15.468  1.0747  0.0102  0.6824
  877MPD2    H312922   2.830   3.274  15.275 -0.4132 -0.1817 -0.3408
  877MPD2     N12923   3.180   3.277  15.027  0.5650  0.1640 -0.2850
  877MPD2    H512924   3.114   3.260  14.952 -0.6450  1.7223  0.4260
  877MPD2    N112925   3.232   3.195  15.490 -0.0123  0.1750 -0.2036
  877MPD2    H712926   3.330   3.188  15.464  0.2147  2.0084  0.1992
  878MPD2     C12927   2.415   2.252  12.972  0.0391 -0.6017 -0.2363
  878MPD2    C112928   2.527   2.322  12.950  0.3436  0.1004  0.2306
  878MPD2    C212929   2.574   2.412  13.046 -0.1326  0.2943 -0.2509
  878MPD2    C312930   2.511   2.407  13.172 -0.4748  0.5806 -0.1691
  878MPD2    C412931   2.396   2.331  13.193  0.2892 -0.4586 -0.4805
  878MPD2    C512932   2.349   2.255  13.092  0.0570 -0.1385  0.7036
  878MPD2     H12933   2.665   2.471  13.040 -0.7816  1.3238  0.0449
  878MPD2    H112934   2.357   2.309  13.292 -2.3468 -0.0353 -1.4431
  878MPD2    H212935   2.372   2.194  12.891 -0.4745 -1.4800  0.6631
  878MPD2    H312936   2.270   2.182  13.105 -0.2944 -0.3654 -2.7736
  878MPD2     N12937   2.560   2.500  13.265  0.3798  0.0995 -0.3029
  878MPD2    H512938   2.646   2.552  13.248 -0.8937  2.6486  1.0737
  878MPD2    N112939   2.594   2.301  12.825 -0.1498  0.1276 -0.2272
  878MPD2    H712940   2.537   2.245  12.763 -0.5688 -1.2673  1.4104
  879MPD2     C12941   3.178   3.867  17.298 -1.0329 -0.8917 -0.4677
  879MPD2    C112942   3.189   3.962  17.196  0.0476  0.4964 -0.8009
  879MPD2    C212943   3.178   3.921  17.066 -0.5151  0.2820  0.1980
  879MPD2    C312944   3.163   3.787  17.037 -0.5160 -0.0239  0.4834
  879MPD2    C412945   3.174   3.695  17.141  0.5608  0.0125 -0.8338
  879MPD2    C512946   3.192   3.732  17.269  0.2123 -0.7727 -0.9177
  879MPD2     H12947   3.174   3.994  16.986  1.1242 -0.8106 -0.8528
  879MPD2    H112948   3.186   3.589  17.124  2.0754 -0.4218  2.9949
  879MPD2    H212949   3.196   3.893  17.401 -1.1179  0.8529 -0.8999
  879MPD2    H312950   3.217   3.661  17.347 -0.7009  0.4313  0.4832
  879MPD2     N12951   3.150   3.732  16.908 -0.3212  0.7970 -0.0191
  879MPD2    H512952   3.109   3.639  16.904  1.3170  0.2256 -3.4724
  879MPD2    N112953   3.187   4.096  17.233  1.0896  0.1824  0.2392
  879MPD2    H712954   3.202   4.110  17.333 -1.1665 -0.3401  0.6480
  880MPD2     C12955   4.521   0.703   0.645  0.1917 -0.1322  0.4900
  880MPD2    C112956   4.515   0.760   0.518 -0.0768 -0.0355 -0.0413
  880MPD2    C212957   4.582   0.696   0.412  1.0514  0.2977  0.0758
  880MPD2    C312958   4.667   0.594   0.433 -0.0727  0.0108 -0.1455
  880MPD2    C412959   4.680   0.541   0.560  0.0931 -0.4644  1.1802
  880MPD2    C512960   4.590   0.588   0.660  0.1666 -0.1145  0.2927
  880MPD2     H12961   4.577   0.719   0.307  0.3989 -2.9535 -0.6192
  880MPD2    H112962   0.016   0.467   0.587  1.5754 -0.3828 -2.7041
  880MPD2    H212963   4.468   0.733   0.734 -0.1231  0.3589  0.1349
  880MPD2    H312964   4.609   0.552   0.760 -3.9067  0.8025  1.3565
  880MPD2     N12965   4.734   0.556   0.323 -0.1107  0.0503 -0.2220
  880MPD2    H512966   4.704   0.598   0.235 -1.9120 -1.5783 -0.3984
  880MPD2    N112967   4.430   0.865   0.494 -0.1322  0.8470 -0.0703
  880MPD2    H712968   4.394   0.918   0.572  0.2487 -0.6554  1.1190
  881MPD2     C12969   4.354   1.811   0.008 -0.2359 -0.0053  0.0615
  881MPD2    C112970   4.359   1.698  17.683 -0.2541 -0.1137  0.3193
  881MPD2    C212971   4.339   1.581  17.748  0.5311  0.1858 -0.0887
  881MPD2    C312972   4.296   1.585   0.129  1.0491 -0.4068 -0.0202
  881MPD2    C412973   4.275   1.704   0.196  0.0638  0.4435  0.1185
  881MPD2    C512974   4.301   1.819   0.134  0.2839 -0.5358  0.0634
  881MPD2     H12975   4.347   1.489  17.691 -3.5703  0.5704 -1.3119
  881MPD2    H112976   4.247   1.710   0.300  0.7199  1.3078  0.2464
  881MPD2    H212977   4.379   1.907  17.714 -0.6711  0.5211  0.9655
  881MPD2    H312978   4.310   1.921   0.170  1.2238 -0.2671 -0.9218
  881MPD2     N12979   4.279   1.470   0.208  0.7275  0.3899 -0.2915
  881MPD2    H512980   4.250   1.487   0.304 -1.4608 -5.1620  0.0165
  881MPD2    N112981   4.441   1.708  17.569 -0.2377  0.4719  0.0588
  881MPD2    H712982   4.474   1.797  17.532 -1.8514  1.2781  0.5423
  882MPD2     C12983   3.139   3.173  14.178 -0.3412  1.1440  0.6549
  882MPD2    C112984   3.092   3.237  14.295 -0.0883 -0.3795 -0.0283
  882MPD2    C212985   2.959   3.283  14.288 -0.3971 -0.9486 -0.6748
  882MPD2    C312986   2.880   3.276  14.182  1.0851 -0.5708  0.0668
  882MPD2    C412987   2.928   3.204  14.075  0.3188 -0.0635  0.6888
  882MPD2    C512988   3.053   3.155  14.072  0.2287  0.7597  0.2052
  882MPD2     H12989   2.933   3.326  14.384  0.7097  1.1714 -1.3032
  882MPD2    H112990   2.873   3.200  13.982  0.2121  1.5357  0.6739
  882MPD2    H212991   3.240   3.133  14.177  0.0347  2.0479  2.7091
  882MPD2    H312992   3.096   3.098  13.990 -2.3181 -0.3210 -0.3816
  882MPD2     N12993   2.749   3.322  14.177 -0.0013 -0.3087  0.0407
  882MPD2    H512994   2.696   3.295  14.095 -0.6219  2.5387 -0.5022
  882MPD2    N112995   3.189   3.241  14.397  0.8628 -0.3169 -0.7623
  882MPD2    H712996   3.276   3.193  14.374 -0.0464 -2.2185 -0.2719
  883MPD2     C12997   0.060   3.106  15.865  0.0499 -0.5257  0.0735
  883MPD2    C112998   0.028   3.241  15.867 -0.4665 -0.7564  0.3552
  883MPD2    C212999   0.090   3.317  15.960 -0.2666  0.4166 -0.1998
  883MPD2    C313000   0.177   3.262  16.050  0.3038  0.5050  0.0659
  883MPD2    C413001   0.192   3.126  16.057  0.6206 -1.1189  0.4198
  883MPD2    C513002   0.143   3.050  15.953 -0.4842  1.0621 -0.0630
  883MPD2     H13003   0.069   3.423  15.968  3.1127  1.0739  0.0136
  883MPD2    H113004   0.264   3.076  16.121  1.4981  2.7886  2.4411
  883MPD2    H213005   0.018   3.043  15.787  1.9260 -0.3676 -1.0562
  883MPD2    H313006   0.157   2.942  15.947 -3.2644  0.6754  0.1427
  883MPD2     N13007   0.251   3.355  16.133 -0.5629  0.3204 -0.1759
  883MPD2    H513008   0.258   3.454  16.114  2.7524  0.5444  2.1684
  883MPD2    N113009   4.682   3.302  15.767 -0.3562 -0.1911  0.1553
  883MPD2    H713010   4.676   3.403  15.775 -1.8561 -0.4683  2.6715
  884MPD2     C13011   2.158   3.851  15.226 -0.4031  0.0699 -0.4109
  884MPD2    C113012   2.094   3.840  15.103  0.0258  0.7998 -0.1885
  884MPD2    C213013   1.959   3.878  15.091 -0.3189  0.7578 -0.4136
  884MPD2    C313014   1.890   3.937  15.203  0.1757 -0.9191  0.0856
  884MPD2    C413015   1.953   3.943  15.327 -0.1674 -0.1778 -0.2136
  884MPD2    C513016   2.084   3.892  15.339 -0.5238 -0.5935 -0.0188
  884MPD2     H13017   1.903   3.851  15.002  0.3923  0.4451 -0.7655
  884MPD2    H113018   1.907   3.979  15.417 -0.0031 -0.3541 -0.0587
  884MPD2    H213019   2.255   3.804  15.239 -2.0679 -2.3155  3.3196
  884MPD2    H313020   2.132   3.892  15.436 -0.7138  1.8012  0.0782
  884MPD2     N13021   1.752   3.976  15.187  0.1120 -0.2488 -0.2084
  884MPD2    H513022   1.714   3.966  15.093 -0.2699  0.7499 -0.1646
  884MPD2    N113023   2.159   3.792  14.986 -0.3941 -0.1865 -0.5338
  884MPD2    H713024   2.100   3.790  14.904 -1.2994  0.2119  0.1025
  885MPD2     C13025   0.153   4.135  17.602  0.6663  0.0026 -0.0066
  885MPD2    C113026   0.291   4.139  17.594  0.3599 -0.4397  0.1582
  885MPD2    C213027   0.345   4.178  17.473  0.0907 -0.1190  0.7834
  885MPD2    C313028   0.272   4.217  17.367  0.3186  1.4587 -0.2905
  885MPD2    C413029   0.132   4.212  17.375  0.4077  0.1191 -0.3435
  885MPD2    C513030   0.076   4.160  17.490 -0.2866  0.0166 -0.4794
  885MPD2     H13031   0.453   4.185  17.469  0.1105 -0.1476  1.2146
  885MPD2    H113032   0.067   4.250  17.297 -2.0193 -0.8274  1.2286
  885MPD2    H213033   0.098   4.094  17.685 -1.1084  0.5585 -0.9138
  885MPD2    H313034   4.706   4.159  17.501  0.0590  0.0327  2.8578
  885MPD2     N13035   0.338   4.255  17.249  0.5756 -1.0256  0.0768
  885MPD2    H513036   0.439   4.250  17.239  0.3979 -0.3516 -2.0807
  885MPD2    N113037   0.369   4.126  17.716  0.4205  0.7073  0.0462
  885MPD2    H713038   0.319   4.132   0.055 -0.8999 -2.7824 -0.4551
  886MPD2     C13039   1.556   2.523  15.498 -0.6428  0.2314 -0.0518
  886MPD2    C113040   1.687   2.566  15.489 -0.0492 -0.3045 -0.2380
  886MPD2    C213041   1.715   2.691  15.437  0.3820 -0.5930 -1.1329
  886MPD2    C313042   1.615   2.764  15.373  0.5196 -0.4267 -0.1448
  886MPD2    C413043   1.488   2.725  15.377 -0.3523 -0.3197  0.1129
  886MPD2    C513044   1.461   2.611  15.448 -1.5172 -0.0616 -0.0182
  886MPD2     H13045   1.815   2.733  15.433 -0.2936  0.9833 -1.5297
  886MPD2    H113046   1.403   2.774  15.332 -1.1291 -2.3370 -0.6380
  886MPD2    H213047   1.520   2.440  15.557 -0.3619  0.2446  0.1354
  886MPD2    H313048   1.355   2.592  15.458 -1.4823  0.5485  1.5362
  886MPD2     N13049   1.652   2.882  15.312  0.7632 -0.0013 -0.0411
  886MPD2    H513050   1.752   2.901  15.315  1.3943 -2.9300 -2.5075
  886MPD2    N113051   1.799   2.497  15.552 -0.1392 -0.1870  0.6365
  886MPD2    H713052   1.882   2.553  15.568  1.0427 -2.0789  1.0609
  887MPD2     C13053   2.419   2.558  15.954 -0.2600  0.3368 -0.6014
  887MPD2    C113054   2.314   2.608  15.876  0.2250  0.3503 -0.2431
  887MPD2    C213055   2.319   2.733  15.825  0.9424 -0.0316 -0.3594
  887MPD2    C313056   2.430   2.821  15.853 -0.3109 -0.5226 -0.3871
  887MPD2    C413057   2.532   2.772  15.934 -0.1598 -0.2612 -0.6256
  887MPD2    C513058   2.523   2.640  15.979  0.4721 -0.4433 -1.2014
  887MPD2     H13059   2.242   2.769  15.758 -2.1425 -2.0281  2.1221
  887MPD2    H113060   2.621   2.831  15.948 -1.5522  1.6008  0.4760
  887MPD2    H213061   2.422   2.456  15.991  1.4276 -0.1268 -1.9685
  887MPD2    H313062   2.595   2.593  16.046 -0.3581  0.1109  0.0838
  887MPD2     N13063   2.436   2.952  15.789  0.7216  0.4452  0.4536
  887MPD2    H513064   2.358   2.978  15.729  1.2029  0.2993 -0.2362
  887MPD2    N113065   2.204   2.528  15.841  0.3292  0.9179 -0.3299
  887MPD2    H713066   2.133   2.563  15.778  0.2334  0.7441 -0.3162
  888MPD2     C13067   4.184   2.583  14.816  0.5404  0.7063 -0.5039
  888MPD2    C113068   4.141   2.638  14.933  0.4660  0.2389  0.1346
  888MPD2    C213069   4.156   2.777  14.964 -0.3224 -0.2857 -0.0017
  888MPD2    C313070   4.215   2.866  14.870  0.4755  0.0463  0.5131
  888MPD2    C413071   4.269   2.806  14.759  0.2658  0.2320  0.4389
  888MPD2    C513072   4.260   2.668  14.736  0.0274  0.0586 -0.5083
  888MPD2     H13073   4.137   2.818  15.062  0.2787 -0.0471  0.0205
  888MPD2    H113074   4.319   2.864  14.683 -0.4387 -0.4329 -0.5398
  888MPD2    H213075   4.178   2.477  14.792  1.0204  0.9422 -1.6295
  888MPD2    H313076   4.317   2.628  14.653 -0.7953 -1.0832 -0.5341
  888MPD2     N13077   4.219   2.998  14.905 -0.5048 -0.2519 -0.2210
  888MPD2    H513078   4.186   3.018  14.999 -1.8411 -0.9894 -0.5309
  888MPD2    N113079   4.077   2.563  15.033 -0.4284  0.0608  0.1485
  888MPD2    H713080   4.078   2.606  15.125  1.6117 -0.2463  0.2580
  889MPD2     C13081   4.255   2.289  13.227  0.8068  0.7608 -0.0847
  889MPD2    C113082   4.151   2.202  13.273  0.9980  0.1028  0.0544
  889MPD2    C213083   4.052   2.261  13.359 -0.8113  0.7375  0.2371
  889MPD2    C313084   4.052   2.395  13.387 -0.4754  0.1340  0.9664
  889MPD2    C413085   4.152   2.473  13.343  0.2326 -0.6955  0.2605
  889MPD2    C513086   4.252   2.424  13.267 -0.0916 -0.5278 -0.3167
  889MPD2     H13087   3.961   2.205  13.379 -1.2797  0.8090 -1.6627
  889MPD2    H113088   4.158   2.579  13.362 -1.6039 -0.4475 -0.5039
  889MPD2    H213089   4.335   2.258  13.160 -1.2687 -1.1996 -1.6318
  889MPD2    H313090   4.336   2.489  13.247  0.6204 -1.2381  0.3820
  889MPD2     N13091   3.959   2.448  13.481  0.0323  0.1928  0.3610
  889MPD2    H513092   3.877   2.391  13.498  1.4654 -1.9570  0.0845
  889MPD2    N113093   4.111   2.079  13.210  0.0215 -0.4122  0.3863
  889MPD2    H713094   4.043   2.029  13.266 -1.6321  1.8009  0.3707
  890MPD2     C13095   3.217   3.825  14.486 -0.3161 -0.0891  0.5884
  890MPD2    C113096   3.300   3.915  14.546 -0.2798 -0.2873 -0.0561
  890MPD2    C213097   3.363   3.876  14.668  0.6105  0.1357 -0.2384
  890MPD2    C313098   3.334   3.753  14.734  0.4060 -0.4709  0.2573
  890MPD2    C413099   3.250   3.673  14.669 -0.2741 -0.1543  0.8389
  890MPD2    C513100   3.194   3.703  14.546  0.3598 -0.2662  0.0050
  890MPD2     H13101   3.445   3.929  14.716 -0.0599  0.0955  0.9668
  890MPD2    H113102   3.220   3.577  14.709  1.3278 -0.7951  0.5194
  890MPD2    H213103   3.154   3.850  14.402 -0.0057  1.4665  0.8222
  890MPD2    H313104   3.133   3.635  14.489 -1.1613  0.7581  0.4194
  890MPD2     N13105   3.393   3.735  14.863 -0.3633  0.0590  0.2605
  890MPD2    H513106   3.470   3.793  14.895  1.2133 -2.4940  1.0827
  890MPD2    N113107   3.316   4.048  14.492  0.2778 -0.1395 -0.7873
  890MPD2    H713108   3.252   4.059  14.413 -2.0516  1.1488  1.2845
  891MPD2     C13109   1.243   2.761  16.768 -0.8419  0.4092 -0.4149
  891MPD2    C113110   1.128   2.696  16.814 -0.2920  0.1270 -0.1051
  891MPD2    C213111   1.144   2.584  16.901 -0.3939  0.1170 -0.1687
  891MPD2    C313112   1.275   2.548  16.944  0.2017  0.2043  0.1819
  891MPD2    C413113   1.386   2.610  16.893  0.2192 -0.4544 -0.0828
  891MPD2    C513114   1.367   2.715  16.806 -0.1875  0.0016 -0.7439
  891MPD2     H13115   1.064   2.534  16.955 -0.7411  0.2451 -0.5579
  891MPD2    H113116   1.486   2.588  16.930  0.7376 -1.2443 -1.9909
  891MPD2    H213117   1.239   2.850  16.706 -2.0825  0.1608 -0.7000
  891MPD2    H313118   1.460   2.757  16.772 -0.0095 -0.6758 -1.0910
  891MPD2     N13119   1.284   2.452  17.041  0.7387 -0.6457 -0.0748
  891MPD2    H513120   1.205   2.410  17.088  0.8895 -0.8447  0.0021
  891MPD2    N113121   1.003   2.736  16.758 -0.6462 -0.6790 -0.5973
  891MPD2    H713122   1.001   2.829  16.717  0.1948 -0.4659 -0.1582
  892MPD2     C13123   2.137   3.421  14.931 -0.3206 -1.0035 -0.1587
  892MPD2    C113124   2.066   3.485  14.835  0.7565 -0.4655  0.1713
  892MPD2    C213125   2.116   3.477  14.705  0.2849 -0.9347 -0.2954
  892MPD2    C313126   2.225   3.408  14.670 -0.3091 -0.5284 -0.3990
  892MPD2    C413127   2.282   3.332  14.771  0.2974 -0.1541 -0.2690
  892MPD2    C513128   2.241   3.336  14.899  0.9556  0.2719 -0.9316
  892MPD2     H13129   2.055   3.526  14.630 -0.1199 -2.7541 -1.1794
  892MPD2    H113130   2.363   3.264  14.750 -0.3776 -0.7443 -0.9606
  892MPD2    H213131   2.112   3.432  15.036 -1.3367  0.3073 -0.5431
  892MPD2    H313132   2.292   3.272  14.969  0.1660  0.6910  0.0330
  892MPD2     N13133   2.282   3.399  14.540 -0.3348  0.0571 -0.4604
  892MPD2    H513134   2.371   3.350  14.531  0.3629  1.2218  0.0796
  892MPD2    N113135   1.934   3.538  14.860  0.3499 -0.5622 -0.5895
  892MPD2    H713136   1.890   3.578  14.777 -0.3743  0.8984  0.4965
  893MPD2     C13137   3.862   2.853   0.777 -0.2121 -0.2381  0.6005
  893MPD2    C113138   3.970   2.773   0.772  0.2912  0.4813  0.1690
  893MPD2    C213139   3.980   2.673   0.681 -0.5072 -0.4560  0.3170
  893MPD2    C313140   3.871   2.644   0.598  0.7284 -0.6229 -0.1550
  893MPD2    C413141   3.754   2.723   0.604  0.3408 -0.1138 -0.7126
  893MPD2    C513142   3.757   2.828   0.690 -0.2197  0.0669  0.2714
  893MPD2     H13143   4.072   2.615   0.686 -0.4989 -0.3407  1.6584
  893MPD2    H113144   3.675   2.717   0.530 -1.2313 -0.5437  1.0011
  893MPD2    H213145   3.859   2.944   0.836  1.8644  0.6653 -0.6811
  893MPD2    H313146   3.675   2.897   0.699 -0.3004  0.1621 -1.3466
  893MPD2     N13147   3.885   2.546   0.496 -0.8555 -0.8612 -0.2660
  893MPD2    H513148   3.826   2.555   0.414  0.0237 -0.5542 -0.8696
  893MPD2    N113149   4.077   2.812   0.854  0.4462 -0.4439 -0.5433
  893MPD2    H713150   4.063   2.901   0.901 -0.3245 -0.1581 -1.2943
  894MPD2     C13151   1.665   4.051   1.305 -0.3955 -0.1337  0.1831
  894MPD2    C113152   1.547   4.121   1.294  0.2335 -0.0487  0.0707
  894MPD2    C213153   1.546   4.252   1.241 -0.3259  0.2339 -0.1745
  894MPD2    C313154   1.662   4.324   1.239 -0.1221  0.4690  0.3267
  894MPD2    C413155   1.781   4.257   1.262 -0.0557  0.4489 -0.8488
  894MPD2    C513156   1.782   4.121   1.292  0.0389  0.0070 -0.1180
  894MPD2     H13157   1.455   4.309   1.224 -0.3601  1.0791  2.7575
  894MPD2    H113158   1.880   4.300   1.247  1.9137 -3.3906  1.2883
  894MPD2    H213159   1.681   3.948   1.336 -0.7033 -0.5607 -1.1207
  894MPD2    H313160   1.874   4.064   1.300  0.0136 -0.2706 -1.7987
  894MPD2     N13161   1.657   4.458   1.211  0.5585 -0.4453  0.5120
  894MPD2    H513162   1.575   4.502   1.170  2.0697  0.7701 -1.2091
  894MPD2    N113163   1.427   4.059   1.328 -0.0153 -0.8396 -0.5314
  894MPD2    H713164   1.347   4.122   1.332  2.1397  1.9616 -1.1319
  895MPD2     C13165   1.087   2.777  13.920 -0.4722 -0.0990  0.8128
  895MPD2    C113166   1.024   2.770  13.794 -0.7371  0.1170  0.2115
  895MPD2    C213167   1.104   2.738  13.686  0.0670  0.3688 -0.2085
  895MPD2    C313168   1.240   2.757  13.695  0.1912  0.3626  1.0503
  895MPD2    C413169   1.297   2.765  13.819  0.1417 -0.3117 -0.4004
  895MPD2    C513170   1.223   2.786  13.932 -0.6249 -0.0401 -0.5271
  895MPD2     H13171   1.059   2.733  13.588 -0.4134 -0.2742  0.0478
  895MPD2    H113172   1.401   2.744  13.837  0.0721  1.1810  1.6439
  895MPD2    H213173   1.020   2.783  14.005 -0.5157 -1.6523  0.8915
  895MPD2    H313174   1.268   2.778  14.030  1.2751 -1.6065 -1.5391
  895MPD2     N13175   1.316   2.735  13.576 -0.7479 -0.1754 -0.2254
  895MPD2    H513176   1.261   2.698  13.499 -0.7694 -0.8974  0.1342
  895MPD2    N113177   0.881   2.782  13.780 -0.1596  0.2250 -0.7768
  895MPD2    H713178   0.856   2.799  13.683  2.7489 -0.8193 -1.7263
  896MPD2     C13179   4.069   0.187   1.482 -0.1738 -0.0533 -0.1173
  896MPD2    C113180   4.047   0.246   1.356  0.5675 -0.8221  0.2790
  896MPD2    C213181   3.936   0.204   1.282 -0.5041 -0.0180 -0.4525
  896MPD2    C313182   3.855   0.102   1.329  0.0944  0.8993 -0.7791
  896MPD2    C413183   3.872   0.050   1.457 -0.0888  0.2872  0.3433
  896MPD2    C513184   3.985   0.089   1.528 -0.1317  0.5484  0.0371
  896MPD2     H13185   3.908   0.252   1.189  0.0183  0.9346 -0.1178
  896MPD2    H113186   3.804   4.710   1.488  0.5637 -0.9422 -1.3134
  896MPD2    H213187   4.143   0.240   1.540 -0.9001 -0.2254  0.9656
  896MPD2    H313188   4.006   0.051   1.628 -2.9221  1.2755  0.8792
  896MPD2     N13189   3.736   0.076   1.251 -0.0478  0.1662  0.0586
  896MPD2    H513190   3.732   0.127   1.163 -2.3174  0.0987  0.1316
  896MPD2    N113191   4.128   0.356   1.317 -0.1098  0.0955 -0.5082
  896MPD2    H713192   4.204   0.391   1.374  0.2479 -0.0119 -0.9216
  897MPD2     C13193   0.112   2.473  10.690  0.9828  0.0255  0.1141
  897MPD2    C113194   0.033   2.418  10.589 -0.0703 -0.6889  0.4345
  897MPD2    C213195   4.657   2.355  10.628  0.5115 -0.4933  0.5202
  897MPD2    C313196   4.634   2.341  10.764  0.7321 -0.2112  0.3583
  897MPD2    C413197   4.700   2.415  10.856  0.4321 -0.7336 -0.2035
  897MPD2    C513198   0.080   2.477  10.824  0.2653 -0.8328  0.1296
  897MPD2     H13199   4.588   2.303  10.562  0.1738  0.8466 -0.1671
  897MPD2    H113200   4.687   2.402  10.963 -0.9964  0.7230 -0.2080
  897MPD2    H213201   0.206   2.520  10.663 -0.5020  2.0662 -1.5396
  897MPD2    H313202   0.139   2.526  10.900 -0.7838 -0.9617  1.0366
  897MPD2     N13203   4.513   2.281  10.796  0.3362 -0.0790 -0.1095
  897MPD2    H513204   4.452   2.259  10.718 -0.6111 -0.1879  0.6664
  897MPD2    N113205   0.069   2.440  10.452  0.1944  0.4405 -0.2231
  897MPD2    H713206   0.138   2.506  10.417 -0.1454  0.2819 -1.2079
  898MPD2     C13207   1.967   2.938  17.313 -0.4765 -0.0221 -0.6225
  898MPD2    C113208   1.987   3.036  17.406 -0.3521 -0.3966  0.4318
  898MPD2    C213209   1.911   3.157  17.402 -0.1186 -0.1520  0.1330
  898MPD2    C313210   1.826   3.177  17.294  0.1020  0.1165 -0.3050
  898MPD2    C413211   1.810   3.078  17.206 -0.0454 -0.1248 -0.8691
  898MPD2    C513212   1.887   2.968  17.210 -0.5788  0.1376  0.1092
  898MPD2     H13213   1.929   3.232  17.478 -0.9990  0.2861 -0.0953
  898MPD2    H113214   1.742   3.097  17.123 -0.5487  0.5390 -0.3035
  898MPD2    H213215   2.020   2.843  17.312  0.7378  0.5961  3.9782
  898MPD2    H313216   1.887   2.900  17.125 -0.9275  1.1896 -0.7433
  898MPD2     N13217   1.745   3.291  17.277 -0.4284 -0.2339  0.0754
  898MPD2    H513218   1.679   3.297  17.201  2.1871 -2.2590 -2.3794
  898MPD2    N113219   2.080   3.023  17.511  0.5511  0.2379 -0.3469
  898MPD2    H713220   2.106   3.111  17.555 -0.4112  0.0035  0.6988
  899MPD2     C13221   2.647   3.694  16.675 -0.2204 -0.5862 -0.5095
  899MPD2    C113222   2.634   3.749  16.799  0.0778  0.0985 -0.3481
  899MPD2    C213223   2.581   3.665  16.895  0.5959 -0.5834  0.0910
  899MPD2    C313224   2.543   3.537  16.869 -0.3347  0.5731 -0.8355
  899MPD2    C413225   2.559   3.484  16.744 -0.3944  0.0873  0.2729
  899MPD2    C513226   2.603   3.567  16.647 -0.1656  0.5693  0.8060
  899MPD2     H13227   2.552   3.710  16.990 -1.3288  0.1153 -0.8140
  899MPD2    H113228   2.518   3.389  16.710  0.6913  0.5425 -2.3271
  899MPD2    H213229   2.657   3.766  16.596 -0.2648  0.2891  0.2784
  899MPD2    H313230   2.596   3.530  16.545 -1.5278 -0.8710  1.4086
  899MPD2     N13231   2.486   3.446  16.969  0.0356 -0.0666 -0.9702
  899MPD2    H513232   2.458   3.355  16.933  2.2245 -1.4035  0.7306
  899MPD2    N113233   2.684   3.877  16.823 -0.5071  0.3852 -0.3087
  899MPD2    H713234   2.725   3.927  16.744  0.6854  1.4317  0.9589
  900MPD2     C13235   2.054   0.123  12.314  0.0042 -0.7403  0.3420
  900MPD2    C113236   2.024   0.057  12.430  0.1430 -0.3756 -0.7349
  900MPD2    C213237   1.908   0.088  12.497  0.5074  0.0520  0.3573
  900MPD2    C313238   1.822   0.178  12.437 -0.2689  0.2018 -0.2587
  900MPD2    C413239   1.844   0.234  12.314 -0.1075 -0.1780  0.0341
  900MPD2    C513240   1.962   0.197  12.248  0.2952  0.1416  0.2313
  900MPD2     H13241   1.874   0.034  12.584  0.2736 -0.0319  0.2142
  900MPD2    H113242   1.775   0.306  12.271 -1.4295  0.7970  3.8670
  900MPD2    H213243   2.143   0.090  12.261 -0.1154 -0.9505  0.2735
  900MPD2    H313244   1.984   0.237  12.149  1.2266  2.3000  1.3175
  900MPD2     N13245   1.699   0.214  12.505 -0.7671  0.3937  0.3127
  900MPD2    H513246   1.704   0.187  12.602  1.1270 -0.1777  0.0470
  900MPD2    N113247   2.123   4.700  12.464  0.7816  0.2510 -0.4722
  900MPD2    H713248   2.192   4.687  12.391  1.7074 -0.7131  0.5833
  901MPD2     C13249   2.463   3.766  12.908 -0.3650 -0.0258  0.4988
  901MPD2    C113250   2.569   3.813  12.836  0.2076 -0.3657  0.3030
  901MPD2    C213251   2.558   3.943  12.793 -0.2991  0.2542 -0.3079
  901MPD2    C313252   2.446   4.018  12.818 -0.4292 -0.0167 -0.8813
  901MPD2    C413253   2.348   3.966  12.896 -1.0096  0.1398 -0.4142
  901MPD2    C513254   2.352   3.840  12.943 -0.0001  0.4526  0.6516
  901MPD2     H13255   2.647   3.987  12.750  0.4351 -0.4870  0.4523
  901MPD2    H113256   2.260   4.027  12.916 -0.8082  0.4446 -0.4666
  901MPD2    H213257   2.459   3.662  12.937 -1.3922 -1.1155 -3.5747
  901MPD2    H313258   2.271   3.787  12.991 -0.6754  1.4143  0.5815
  901MPD2     N13259   2.434   4.154  12.766  0.3479 -0.3037 -0.0156
  901MPD2    H513260   2.504   4.182  12.697 -0.3384  0.8687 -0.2388
  901MPD2    N113261   2.684   3.726  12.830  0.0579  0.2416 -0.4330
  901MPD2    H713262   2.675   3.630  12.862  1.8989 -0.0563 -0.8186
  902MPD2     C13263   1.665   2.833  13.139  0.5294  1.1050  0.2118
  902MPD2    C113264   1.600   2.859  13.021 -0.7144 -0.5347 -0.4536
  902MPD2    C213265   1.603   2.764  12.923 -0.0112  0.2040  1.2677
  902MPD2    C313266   1.666   2.645  12.944  0.5500  0.1115 -0.3670
  902MPD2    C413267   1.736   2.614  13.057  1.0849  0.8392 -0.0609
  902MPD2    C513268   1.728   2.706  13.158  0.7098  0.4393 -0.6459
  902MPD2     H13269   1.554   2.791  12.830  0.6530  1.9681  1.4196
  902MPD2    H113270   1.803   2.529  13.062 -0.8529 -0.6492  0.4816
  902MPD2    H213271   1.668   2.897  13.227  1.1760  1.5380 -0.1294
  902MPD2    H313272   1.774   2.691  13.255 -1.4641 -0.6112  0.2264
  902MPD2     N13273   1.683   2.567  12.832  0.2443  0.2592 -0.5217
  902MPD2    H513274   1.648   2.602  12.743 -0.2723 -1.7745 -1.1372
  902MPD2    N113275   1.524   2.977  13.005 -0.1381 -0.1870  0.0791
  902MPD2    H713276   1.543   3.051  13.072  1.6377 -0.0385 -0.5843
  903MPD2     C13277   1.757   2.900  12.299 -0.1679 -0.8612  0.0976
  903MPD2    C113278   1.660   2.802  12.284 -0.2616 -0.1258  0.1960
  903MPD2    C213279   1.553   2.834  12.204 -0.6585 -0.0674 -0.0674
  903MPD2    C313280   1.532   2.962  12.160  0.1305 -0.3494  0.6061
  903MPD2    C413281   1.626   3.058  12.178 -0.2137 -0.1354 -0.0517
  903MPD2    C513282   1.737   3.026  12.247 -0.0944 -0.1147  1.3282
  903MPD2     H13283   1.473   2.761  12.195  2.1810 -3.1054 -0.8070
  903MPD2    H113284   1.613   3.164  12.158 -5.0602 -0.5187  1.1763
  903MPD2    H213285   1.846   2.897  12.361 -0.4377  2.4784  0.6649
  903MPD2    H313286   1.805   3.105  12.275 -1.3541  0.5874  2.4360
  903MPD2     N13287   1.407   2.986  12.106 -0.1908 -0.3058  0.5040
  903MPD2    H513288   1.347   2.906  12.092  0.0599 -0.5093  0.6029
  903MPD2    N113289   1.674   2.669  12.332  0.9195 -0.1450  0.2366
  903MPD2    H713290   1.619   2.597  12.288  0.9934 -0.4112  0.5800
  904MPD2     C13291   1.122   1.877  13.895  0.1735  0.1124  0.0069
  904MPD2    C113292   1.087   1.992  13.960 -0.1577 -0.4904 -1.2448
  904MPD2    C213293   1.176   2.060  14.035  0.5104 -0.6368  0.4913
  904MPD2    C313294   1.307   2.018  14.039 -0.2040  0.7194  0.2069
  904MPD2    C413295   1.348   1.918  13.959 -0.6005  0.0163 -0.4432
  904MPD2    C513296   1.255   1.851  13.883 -0.0805 -0.0343 -0.1752
  904MPD2     H13297   1.150   2.153  14.082 -0.5784 -1.0742  0.7444
  904MPD2    H113298   1.445   1.870  13.963 -0.2294  0.5528 -2.9770
  904MPD2    H213299   1.054   1.813  13.840  0.0819  2.4685 -2.5707
  904MPD2    H313300   1.290   1.759  13.836 -1.1253  0.7557 -2.5040
  904MPD2     N13301   1.392   2.094  14.123 -0.2975 -0.1450 -0.0437
  904MPD2    H513302   1.343   2.149  14.192  2.7853  1.6097  0.7372
  904MPD2    N113303   0.956   2.048  13.951  0.1830 -0.8042  0.0473
  904MPD2    H713304   0.959   2.146  13.977 -1.0284 -0.4466 -1.1331
  905MPD2     C13305   0.886   2.172  13.253 -0.0976 -0.7489 -0.5846
  905MPD2    C113306   0.904   2.260  13.356  0.4840 -0.2045  0.3846
  905MPD2    C213307   1.003   2.356  13.336  0.0625 -0.0991 -0.1616
  905MPD2    C313308   1.083   2.361  13.216 -0.1730  0.1351 -0.4410
  905MPD2    C413309   1.065   2.261  13.127  0.1926 -0.1033  0.0655
  905MPD2    C513310   0.965   2.172  13.141 -0.1211 -0.6722  0.2054
  905MPD2     H13311   1.034   2.429  13.409 -1.3848  0.4456 -0.1156
  905MPD2    H113312   1.110   2.280  13.030  1.8174 -2.4816  0.3640
  905MPD2    H213313   0.811   2.094  13.256 -1.5060  0.6952  1.6067
  905MPD2    H313314   0.944   2.115  13.050  0.6680 -0.3862 -0.1511
  905MPD2     N13315   1.183   2.459  13.189  0.5618  0.4599  0.1735
  905MPD2    H513316   1.227   2.451  13.098 -0.5680  1.1129 -0.4293
  905MPD2    N113317   0.820   2.236  13.473 -0.4203 -0.2592 -0.2231
  905MPD2    H713318   0.771   2.148  13.484  0.5552 -0.6586  0.9229
  906MPD2     C13319   3.081   2.413  11.106 -0.4528 -0.1159  0.9447
  906MPD2    C113320   3.092   2.292  11.041  0.0121 -0.1179  0.0628
  906MPD2    C213321   3.077   2.171  11.113 -0.4964  0.2350 -0.3119
  906MPD2    C313322   3.027   2.166  11.240  0.0258  0.4772 -0.7406
  906MPD2    C413323   3.017   2.285  11.300 -0.3013  0.2113 -0.4195
  906MPD2    C513324   3.042   2.408  11.236  0.1545  0.4957 -0.0882
  906MPD2     H13325   3.097   2.076  11.063 -1.3267 -0.9494  1.6286
  906MPD2    H113326   2.979   2.287  11.402  0.8731 -0.4494  0.0261
  906MPD2    H213327   3.079   2.512  11.062 -1.5943 -1.1774 -1.4245
  906MPD2    H313328   3.027   2.501  11.288  1.9173  0.6491  0.1409
  906MPD2     N13329   2.996   2.058  11.314  0.5002 -0.7623 -0.1101
  906MPD2    H513330   2.991   2.069  11.414 -1.7096  0.3029 -0.3445
  906MPD2    N113331   3.120   2.288  10.900 -0.1579 -0.6056 -0.1247
  906MPD2    H713332   3.107   2.195  10.860 -2.4220  0.5663 -2.1252
  907MPD2     C13333   2.292   1.583  15.514 -0.1417  0.0964  0.2997
  907MPD2    C113334   2.248   1.454  15.525  0.1276  0.2432  0.0773
  907MPD2    C213335   2.301   1.359  15.613 -0.1414  0.5205  0.1188
  907MPD2    C313336   2.403   1.405  15.700  0.2374 -0.0630  0.1212
  907MPD2    C413337   2.458   1.531  15.683 -0.5644  0.5146 -0.2593
  907MPD2    C513338   2.407   1.615  15.586  0.0877  0.2320  0.0790
  907MPD2     H13339   2.252   1.262  15.615 -0.6207  0.7739  0.5011
  907MPD2    H113340   2.544   1.553  15.744  0.4138 -1.5340 -0.8983
  907MPD2    H213341   2.245   1.651  15.443  1.0996  0.8152  0.1715
  907MPD2    H313342   2.446   1.715  15.570 -2.3667  0.7192 -2.8243
  907MPD2     N13343   2.445   1.314  15.800  0.2949  0.3382  0.7598
  907MPD2    H513344   2.421   1.215  15.792  0.2824  0.4885 -1.1660
  907MPD2    N113345   2.131   1.412  15.454  0.1805 -0.5696  0.1694
  907MPD2    H713346   2.108   1.314  15.463 -0.2425 -0.5653 -0.7690
  908MPD2     C13347   4.302   2.014   9.695  0.0338 -0.1804 -0.1845
  908MPD2    C113348   4.427   1.978   9.741  0.9491 -0.3724  0.6903
  908MPD2    C213349   4.505   2.078   9.807 -0.4275  0.2751 -0.1458
  908MPD2    C313350   4.454   2.203   9.827  0.1419  1.0191 -0.2776
  908MPD2    C413351   4.325   2.233   9.787 -0.3430  0.1196 -0.1502
  908MPD2    C513352   4.259   2.142   9.716  0.5359  0.2311 -0.2663
  908MPD2     H13353   4.603   2.053   9.846 -0.4262  1.0067  0.3103
  908MPD2    H113354   4.283   2.333   9.777 -1.3269 -0.2112  0.7350
  908MPD2    H213355   4.237   1.951   9.636  0.0377 -0.5380  0.1926
  908MPD2    H313356   4.166   2.166   9.666  0.9813 -1.0076 -1.6930
  908MPD2     N13357   4.536   2.300   9.894 -0.6001  0.3368 -0.4354
  908MPD2    H513358   4.633   2.275   9.909 -1.0168 -1.2116 -0.3200
  908MPD2    N113359   4.462   1.846   9.730  0.6191  0.5192 -0.1301
  908MPD2    H713360   4.400   1.780   9.685  1.9267 -0.5444 -0.3833
  909MPD2     C13361   4.714   4.642  11.034 -0.1109 -0.2414 -0.1543
  909MPD2    C113362   0.069   4.715  11.101 -0.4922 -0.6194  0.1641
  909MPD2    C213363   0.045   0.008  11.234  0.3501  0.3634 -0.4614
  909MPD2    C313364   4.661   4.711  11.302 -0.0129  0.6231  0.2515
  909MPD2    C413365   4.561   4.647  11.232 -0.5140  0.4092  0.6493
  909MPD2    C513366   4.602   4.617  11.101 -0.1569 -0.3326 -0.7051
  909MPD2     H13367   0.121   0.050  11.298  1.1681 -0.8429 -0.6422
  909MPD2    H113368   4.466   4.610  11.270  0.1867 -0.7318  1.3034
  909MPD2    H213369   4.721   4.622  10.928  1.2460  1.8715 -0.4630
  909MPD2    H313370   4.528   4.576  11.033 -2.0329 -1.5725  2.0419
  909MPD2     N13371   4.643   0.015  11.434 -0.3290  0.7933  0.3291
  909MPD2    H513372   4.728   0.042  11.484 -1.8010  1.6283  2.3674
  909MPD2    N113373   0.185   0.025  11.039 -0.4647 -0.3855  0.1026
  909MPD2    H713374   0.234   0.097  11.091 -2.3894  1.5719 -0.7891
  910MPD2     C13375   1.501   2.063  15.796 -0.7086  0.4808 -0.4700
  910MPD2    C113376   1.571   1.977  15.713  0.5057  0.1205  0.2981
  910MPD2    C213377   1.544   1.988  15.575  0.3137  0.6008  0.0561
  910MPD2    C313378   1.466   2.094  15.519  0.4778 -0.3996 -0.0656
  910MPD2    C413379   1.414   2.186  15.607 -0.5423  0.0201  0.3844
  910MPD2    C513380   1.423   2.164  15.743  0.2616  0.7279 -0.3259
  910MPD2     H13381   1.587   1.923  15.500  0.5833  1.5362 -0.5946
  910MPD2    H113382   1.378   2.282  15.573 -1.2455  0.0104  1.1266
  910MPD2    H213383   1.503   2.057  15.905 -1.9946  0.8728 -0.4227
  910MPD2    H313384   1.385   2.239  15.811  1.0409  0.2176  0.6650
  910MPD2     N13385   1.436   2.117  15.385  0.3722  0.6097 -0.2617
  910MPD2    H513386   1.369   2.192  15.379  0.6185  1.0667  2.8751
  910MPD2    N113387   1.649   1.871  15.766  0.7630  0.4426  0.0010
  910MPD2    H713388   1.649   1.864  15.867 -1.4370 -0.8673 -0.0653
  911MPD2     C13389   4.074   2.305  16.414  0.2924  0.2766  0.6306
  911MPD2    C113390   4.152   2.407  16.372  0.4693  0.1712  0.5026
  911MPD2    C213391   4.106   2.521  16.315  0.3063  0.0418 -0.2534
  911MPD2    C313392   3.967   2.530  16.294  0.0266 -0.1442 -0.1889
  911MPD2    C413393   3.886   2.417  16.319 -0.1175 -0.5436 -0.4717
  911MPD2    C513394   3.945   2.313  16.380  0.1727  0.1757 -1.0157
  911MPD2     H13395   4.172   2.603  16.289 -1.8104  2.4302  1.8868
  911MPD2    H113396   3.779   2.408  16.306 -0.0572 -0.4955 -1.0154
  911MPD2    H213397   4.118   2.219  16.464  0.4094  0.3299  0.6195
  911MPD2    H313398   3.877   2.231  16.399  1.9667 -0.9559  0.3955
  911MPD2     N13399   3.892   2.646  16.254 -0.2109 -0.7015 -0.2418
  911MPD2    H513400   3.794   2.624  16.244 -0.0074 -2.3260  1.1930
  911MPD2    N113401   4.290   2.382  16.411 -0.1362  0.2734  0.4640
  911MPD2    H713402   4.310   2.292  16.452 -1.2992 -0.0532  0.2897
  912MPD2     C13403   3.642   2.462  15.572  0.3625  0.3806  0.2459
  912MPD2    C113404   3.671   2.468  15.697 -0.0262 -0.4776 -0.3773
  912MPD2    C213405   3.677   2.349  15.765  0.0069 -0.0474 -0.2777
  912MPD2    C313406   3.636   2.232  15.709 -0.4888  0.0281  0.4840
  912MPD2    C413407   3.593   2.231  15.576  0.4641  0.3066  0.2675
  912MPD2    C513408   3.609   2.350  15.505  0.0911 -0.6039  0.4261
  912MPD2     H13409   3.712   2.344  15.867 -2.8387 -1.2635  0.6407
  912MPD2    H113410   3.548   2.141  15.535 -2.4630  0.9921  2.0480
  912MPD2    H213411   3.639   2.555  15.515 -1.9756  0.0318 -0.1706
  912MPD2    H313412   3.577   2.354  15.401 -0.6136 -0.5008  0.6468
  912MPD2     N13413   3.631   2.115  15.789 -0.1795 -0.5596 -0.3185
  912MPD2    H513414   3.664   2.122  15.885 -1.3190  1.4281 -0.0884
  912MPD2    N113415   3.718   2.594  15.754 -0.2627 -0.1205 -0.2416
  912MPD2    H713416   3.732   2.665  15.683  2.1614  2.0042  2.3759
  913MPD2     C13417   0.102   4.014  10.577  0.1069  0.2708 -0.0945
  913MPD2    C113418   0.013   4.039  10.679  0.2949  0.1131 -0.3162
  913MPD2    C213419   4.622   4.082  10.643  0.5919 -0.1594 -0.2736
  913MPD2    C313420   4.590   4.118  10.507  0.1558 -0.2620 -0.4388
  913MPD2    C413421   4.689   4.098  10.413 -0.1515 -0.0457  0.4191
  913MPD2    C513422   0.075   4.052  10.448  0.5983  0.5722  0.1532
  913MPD2     H13423   4.551   4.090  10.725 -0.4870 -0.2344 -1.1871
  913MPD2    H113424   4.666   4.118  10.309  0.7632  0.6404  0.3494
  913MPD2    H213425   0.198   3.968  10.597 -0.0615  0.5564  1.3883
  913MPD2    H313426   0.154   4.053  10.373  1.0085 -0.4244  0.5703
  913MPD2     N13427   4.464   4.158  10.454 -0.0907  0.4506  0.0382
  913MPD2    H513428   4.462   4.179  10.355 -0.1855 -0.1216 -0.0798
  913MPD2    N113429   0.060   4.009  10.812  0.7065  0.1905 -0.4910
  913MPD2    H713430   0.156   3.976  10.823  0.1803 -0.9287  0.8260
  914MPD2     C13431   2.573   3.520  12.160  0.4713 -0.3985 -0.0994
  914MPD2    C113432   2.564   3.630  12.249  0.2320 -0.0622  0.2374
  914MPD2    C213433   2.666   3.635  12.340 -0.6301 -0.4879  1.0739
  914MPD2    C313434   2.778   3.547  12.333  0.3212 -0.3822  0.2236
  914MPD2    C413435   2.784   3.445  12.244  0.4448 -0.2426 -0.2930
  914MPD2    C513436   2.680   3.430  12.159  0.0571 -0.0184 -0.4769
  914MPD2     H13437   2.665   3.714  12.415 -0.2129  0.4109  0.1284
  914MPD2    H113438   2.860   3.368  12.240  1.1486  0.3239  1.9682
  914MPD2    H213439   2.500   3.503  12.082  0.0653  1.8017 -0.1808
  914MPD2    H313440   2.671   3.329  12.120 -0.4884 -0.3588  0.5263
  914MPD2     N13441   2.882   3.564  12.433 -0.2942  0.4094  0.3515
  914MPD2    H513442   2.868   3.643  12.496  0.4390  0.5981  0.2687
  914MPD2    N113443   2.456   3.721  12.245  0.3153 -0.5208  0.1230
  914MPD2    H713444   2.388   3.712  12.170  1.9657 -1.3023 -1.2927
  915MPD2     C13445   0.680   4.060  15.765  0.5644 -0.0170  0.2618
  915MPD2    C113446   0.565   4.116  15.718 -0.2742  0.4364 -0.8909
  915MPD2    C213447   0.481   4.188  15.799  0.2436 -0.1419  0.0805
  915MPD2    C313448   0.512   4.194  15.931  0.4010  0.5332 -0.1662
  915MPD2    C413449   0.629   4.133  15.984 -0.2339 -0.0129  0.2518
  915MPD2    C513450   0.717   4.070  15.897 -0.1080 -0.1563  0.1642
  915MPD2     H13451   0.387   4.234  15.769  0.5136 -0.4371 -1.2096
  915MPD2    H113452   0.660   4.150  16.087  0.9256 -0.0831 -0.0942
  915MPD2    H213453   0.749   4.008  15.699  0.8736 -0.9361  1.3159
  915MPD2    H313454   0.815   4.033  15.926  0.7091  0.0925 -2.2769
  915MPD2     N13455   0.412   4.246  16.013  0.2789  0.6774  0.2997
  915MPD2    H513456   0.331   4.299  15.981  0.5526 -0.0614 -1.6657
  915MPD2    N113457   0.538   4.094  15.582  0.6758 -0.1740 -0.4536
  915MPD2    H713458   0.590   4.016  15.541 -0.4450 -0.5277 -1.1844
  916MPD2     C13459   3.102   2.198  15.500  0.0347 -0.2768  0.2278
  916MPD2    C113460   3.151   2.096  15.581 -0.1058  0.3387 -0.6272
  916MPD2    C213461   3.258   2.021  15.536 -0.4743 -0.2945 -0.2667
  916MPD2    C313462   3.319   2.046  15.420 -0.4257  0.1981  0.2151
  916MPD2    C413463   3.276   2.155  15.341 -0.1135  0.6756 -0.3343
  916MPD2    C513464   3.159   2.228  15.377 -0.3212 -0.7335 -0.6409
  916MPD2     H13465   3.300   1.941  15.595  1.1084  0.7669  0.0512
  916MPD2    H113466   3.327   2.174  15.247  1.4551 -0.2834  0.3222
  916MPD2    H213467   3.006   2.244  15.524 -0.9842 -1.2883 -1.9530
  916MPD2    H313468   3.122   2.304  15.308 -1.0683 -0.3382  0.2068
  916MPD2     N13469   3.426   1.964  15.380  0.3383 -0.0469 -0.0399
  916MPD2    H513470   3.435   1.883  15.440 -0.1815  1.6022  2.2575
  916MPD2    N113471   3.090   2.082  15.711  0.0456 -0.2848  0.0914
  916MPD2    H713472   3.010   2.143  15.725 -0.2493 -0.4263 -0.9491
  917MPD2     C13473   3.329   4.709  10.994  0.3209 -0.0517  0.1130
  917MPD2    C113474   3.439   4.680  11.075  0.3288  0.3206 -0.0010
  917MPD2    C213475   3.568   4.709  11.031  0.1543  0.4309  0.0221
  917MPD2    C313476   3.591   0.030  10.907 -0.0895  0.4766 -0.2029
  917MPD2    C413477   3.484   0.056  10.832  0.3295 -0.6299 -0.3120
  917MPD2    C513478   3.357   0.039  10.882  0.1102  0.4566 -0.0359
  917MPD2     H13479   3.652   4.689  11.096 -1.0273 -1.2770  1.0107
  917MPD2    H113480   3.495   0.100  10.733  0.6321  2.1862  0.9634
  917MPD2    H213481   3.228   4.695  11.029  0.5442 -3.6752 -0.6513
  917MPD2    H313482   3.270   0.073  10.827  0.5290 -0.1670 -1.0752
  917MPD2     N13483   3.717   0.069  10.859 -0.4574 -0.6497 -0.4319
  917MPD2    H513484   3.728   0.123  10.774 -0.6578  2.2205  1.3851
  917MPD2    N113485   3.416   4.622  11.204  0.1723  0.3660  0.9854
  917MPD2    H713486   3.324   4.584  11.221  0.4124 -1.0016 -0.7401
  918MPD2     C13487   3.893   4.619  12.067 -0.0076 -0.5289  0.0620
  918MPD2    C113488   3.938   4.551  11.953  0.3212 -0.2515 -0.4025
  918MPD2    C213489   3.845   4.527  11.853  0.1755  0.1001 -0.1490
  918MPD2    C313490   3.712   4.567  11.863 -1.0558  0.2248  0.0433
  918MPD2    C413491   3.667   4.615  11.980 -0.1737  0.7477 -0.1234
  918MPD2    C513492   3.763   4.650  12.074  1.2552 -0.3878  0.2860
  918MPD2     H13493   3.872   4.479  11.759  0.9759 -0.1238  0.1932
  918MPD2    H113494   3.565   4.652  11.992 -1.1282 -1.9862  0.2309
  918MPD2    H213495   3.960   4.645  12.148 -1.2311  0.8508  0.6162
  918MPD2    H313496   3.730   4.694  12.167 -0.0331  0.5930 -0.6386
  918MPD2     N13497   3.623   4.533  11.753  0.6587 -0.3662  0.2409
  918MPD2    H513498   3.665   4.508  11.664  1.9997 -0.7442  0.9760
  918MPD2    N113499   4.076   4.513  11.936  0.7093 -0.1925  0.2041
  918MPD2    H713500   4.104   4.478  11.844 -1.4772  2.3462 -1.4151
  919MPD2     C13501   4.295   3.490  11.863  0.1460  0.5281 -0.4087
  919MPD2    C113502   4.301   3.408  11.753  0.1929  0.0760  0.2932
  919MPD2    C213503   4.271   3.464  11.634 -0.4316 -0.7591 -0.7022
  919MPD2    C313504   4.226   3.591  11.622  0.6056 -0.7014  0.2769
  919MPD2    C413505   4.212   3.666  11.735 -0.7293  0.2292  0.0086
  919MPD2    C513506   4.258   3.621  11.856 -0.3367  0.1597 -0.3413
  919MPD2     H13507   4.270   3.410  11.540  1.7378 -0.2171 -1.0321
  919MPD2    H113508   4.168   3.765  11.735 -3.2341 -0.8901  0.2961
  919MPD2    H213509   4.332   3.460  11.960 -2.1717 -0.7767  0.0681
  919MPD2    H313510   4.246   3.673  11.950  0.9113 -1.7453  0.8835
  919MPD2     N13511   4.171   3.641  11.499  0.1944 -0.9718  0.1802
  919MPD2    H513512   4.128   3.732  11.491  1.7105 -0.3655 -0.9846
  919MPD2    N113513   4.332   3.266  11.759  0.4208  0.1824  0.0299
  919MPD2    H713514   4.333   3.208  11.676  0.4480  1.0378 -0.5789
  920MPD2     C13515   3.253   3.759  11.070  0.0105  0.0318  0.1027
  920MPD2    C113516   3.340   3.764  10.961 -0.0121  0.6522  0.5191
  920MPD2    C213517   3.477   3.745  10.976  0.5642  0.0385  0.8042
  920MPD2    C313518   3.530   3.729  11.103  0.5028 -0.6161  0.3395
  920MPD2    C413519   3.445   3.726  11.214  0.0353 -0.1724  0.1696
  920MPD2    C513520   3.309   3.745  11.197 -0.7288 -0.1032  0.4893
  920MPD2     H13521   3.544   3.751  10.890  0.0151  1.3179  0.4681
  920MPD2    H113522   3.481   3.705  11.314  1.0820  3.8365  0.6241
  920MPD2    H213523   3.150   3.792  11.062 -0.6578 -2.0881  0.0160
  920MPD2    H313524   3.242   3.754  11.282 -0.7744  0.0051  0.4418
  920MPD2     N13525   3.670   3.729  11.111 -0.1270 -0.1130  0.7480
  920MPD2    H513526   3.722   3.723  11.024 -1.5643 -0.4065 -0.0902
  920MPD2    N113527   3.298   3.772  10.828  0.0885 -0.6664 -0.1271
  920MPD2    H713528   3.364   3.745  10.757  1.0395  0.2707  0.4144
  921MPD2     C13529   0.372   2.399  16.987  0.9570 -0.3805  0.0337
  921MPD2    C113530   0.329   2.494  16.889  0.7677 -0.6000 -0.3222
  921MPD2    C213531   0.203   2.468  16.824 -0.2592  0.0063 -0.3515
  921MPD2    C313532   0.128   2.359  16.872  0.1501  0.0136  0.5652
  921MPD2    C413533   0.171   2.271  16.971 -0.6341 -0.6811  0.3648
  921MPD2    C513534   0.296   2.297  17.023  0.1730  0.4194 -0.3777
  921MPD2     H13535   0.173   2.536  16.745 -0.6116  1.7457  1.2861
  921MPD2    H113536   0.120   2.178  16.993  0.6864 -2.1080 -2.6747
  921MPD2    H213537   0.469   2.409  17.035  0.9110 -0.9183  0.2341
  921MPD2    H313538   0.339   2.227  17.093 -1.6496 -1.2529 -0.9160
  921MPD2     N13539   0.015   2.319  16.802 -0.8591  0.4372  0.5470
  921MPD2    H513540   4.724   2.222  16.815  0.8312 -0.1466 -0.0809
  921MPD2    N113541   0.426   2.590  16.851  0.9478 -0.2501 -0.2466
  921MPD2    H713542   0.513   2.589  16.902  0.6863  3.0948  0.2783
  922MPD2     C13543   1.027   0.750  17.012 -0.0330 -0.4067 -0.9311
  922MPD2    C113544   0.920   0.724  17.098 -0.3988  0.6435  0.1563
  922MPD2    C213545   0.839   0.617  17.068  0.1119 -0.1109  0.1925
  922MPD2    C313546   0.859   0.530  16.958 -0.4491 -0.5365  0.0865
  922MPD2    C413547   0.976   0.555  16.883  0.0399 -0.2993  0.2455
  922MPD2    C513548   1.057   0.658  16.914 -0.2051  0.0312 -0.0828
  922MPD2     H13549   0.752   0.593  17.128 -0.3813 -0.4090 -0.6439
  922MPD2    H113550   1.005   0.492  16.800 -1.4983  1.1256 -1.3860
  922MPD2    H213551   1.094   0.835  17.024  0.8696 -1.1094 -0.9827
  922MPD2    H313552   1.140   0.662  16.844  0.0333 -0.2738  0.1844
  922MPD2     N13553   0.765   0.426  16.934 -0.5587 -0.2304 -0.2999
  922MPD2    H513554   0.683   0.417  16.993 -0.6016  0.1182 -0.3055
  922MPD2    N113555   0.879   0.807  17.203 -0.5176  0.0013 -0.1859
  922MPD2    H713556   0.795   0.785  17.255  1.2113 -2.2480  1.6716
  923MPD2     C13557   2.338   2.816   9.176  0.1306  0.3351  0.3255
  923MPD2    C113558   2.293   2.927   9.237 -0.0307  0.1882  0.0216
  923MPD2    C213559   2.381   3.020   9.287 -0.3009  0.0430 -0.7482
  923MPD2    C313560   2.520   3.000   9.290 -0.1293 -0.4023  0.2401
  923MPD2    C413561   2.565   2.900   9.210  0.5696 -0.6407  0.4144
  923MPD2    C513562   2.475   2.810   9.161 -0.2698  0.1008 -0.2535
  923MPD2     H13563   2.350   3.114   9.332 -0.1130 -0.2664  0.0164
  923MPD2    H113564   2.667   2.882   9.179 -0.0787 -0.8207 -1.6084
  923MPD2    H213565   2.275   2.736   9.140 -0.6293  0.5980  1.0748
  923MPD2    H313566   2.522   2.736   9.097 -2.0121 -0.9325 -0.3366
  923MPD2     N13567   2.618   3.088   9.348 -0.5932  0.3026  0.0449
  923MPD2    H513568   2.716   3.062   9.335 -0.0116  1.7096  1.7361
  923MPD2    N113569   2.154   2.929   9.251 -0.0479 -0.0838  0.4668
  923MPD2    H713570   2.114   2.847   9.207  2.7892 -2.2278  1.8843
  924MPD2     C13571   2.530   0.434  15.829 -0.0609 -0.1367  0.3607
  924MPD2    C113572   2.473   0.502  15.935 -0.5788  0.0835  0.8748
  924MPD2    C213573   2.511   0.636  15.957 -0.5825  0.2270  0.1813
  924MPD2    C313574   2.611   0.700  15.880 -0.3560  0.7147 -0.2831
  924MPD2    C413575   2.671   0.629  15.779 -0.3880 -0.3723  0.2635
  924MPD2    C513576   2.619   0.506  15.751  0.1803  0.5181 -0.1556
  924MPD2     H13577   2.469   0.687  16.044 -0.2718 -2.2544  1.8034
  924MPD2    H113578   2.758   0.665  15.727  0.3077 -0.1579  1.5595
  924MPD2    H213579   2.486   0.340  15.796 -0.1633  0.1528 -0.3439
  924MPD2    H313580   2.659   0.437  15.677 -0.6546 -0.4990  0.3468
  924MPD2     N13581   2.649   0.837  15.900 -0.0628  0.4806 -0.1844
  924MPD2    H513582   2.704   0.887  15.830  2.3611  1.2920  2.3074
  924MPD2    N113583   2.368   0.439  16.006  0.6763  0.3728  0.0817
  924MPD2    H713584   2.318   0.364  15.960 -0.4066  1.6151 -0.7596
  925MPD2     C13585   1.275   3.177  14.566 -0.1532  0.7897 -0.6909
  925MPD2    C113586   1.152   3.224  14.530  0.0590 -0.5501 -0.0895
  925MPD2    C213587   1.078   3.313  14.606 -0.0094 -0.0591 -0.8444
  925MPD2    C313588   1.116   3.349  14.732  0.0834 -0.1113  0.0980
  925MPD2    C413589   1.248   3.307  14.769 -0.6493  0.6946  0.3377
  925MPD2    C513590   1.324   3.223  14.688 -0.1504 -0.4103  0.5305
  925MPD2     H13591   0.983   3.347  14.567 -0.1356  2.3666  1.5857
  925MPD2    H113592   1.293   3.331  14.865 -1.7858 -1.3724  1.3799
  925MPD2    H213593   1.327   3.097  14.515 -1.2273  1.1821 -2.3815
  925MPD2    H313594   1.415   3.179  14.726 -0.3260 -0.6193  0.7082
  925MPD2     N13595   1.035   3.434  14.808 -0.0975  0.1152 -0.1072
  925MPD2    H513596   0.938   3.441  14.780  0.2689  2.9630 -0.6560
  925MPD2    N113597   1.109   3.191  14.399  0.5049 -0.2963 -0.3909
  925MPD2    H713598   1.016   3.222  14.371  0.4541 -2.6164 -2.7792
  926MPD2     C13599   0.347   1.313  12.503 -0.4160 -0.7408 -0.2740
  926MPD2    C113600   0.282   1.435  12.486 -0.8003  0.5033  0.7068
  926MPD2    C213601   0.282   1.491  12.355  0.0630  0.2233  0.7389
  926MPD2    C313602   0.344   1.427  12.249  0.3777  0.8092 -0.1172
  926MPD2    C413603   0.414   1.307  12.270  0.5372 -0.9613  0.0290
  926MPD2    C513604   0.417   1.257  12.396 -0.3788 -0.1855  0.5422
  926MPD2     H13605   0.252   1.594  12.338  0.3144  0.3193  0.8780
  926MPD2    H113606   0.478   1.260  12.197  2.1277  0.2806  0.6170
  926MPD2    H213607   0.359   1.267  12.600 -1.1675 -0.2573  0.0505
  926MPD2    H313608   0.487   1.175  12.408 -0.9151 -0.7892 -0.4504
  926MPD2     N13609   0.347   1.487  12.125 -0.5381 -0.6365  0.3042
  926MPD2    H513610   0.408   1.445  12.055 -0.8174 -1.6618  0.6795
  926MPD2    N113611   0.236   1.520  12.590 -0.2771  0.0552  0.4445
  926MPD2    H713612   0.212   1.615  12.564  0.7153  0.2443  0.2499
  927MPD2     C13613   4.484   3.440  17.304  0.4528 -0.3578  0.1112
  927MPD2    C113614   4.430   3.564  17.283 -0.4481 -0.4754  0.4644
  927MPD2    C213615   4.517   3.663  17.223  0.3547 -0.0132  0.0428
  927MPD2    C313616   4.641   3.630  17.171  0.4585  0.3195  0.3248
  927MPD2    C413617   4.686   3.501  17.194 -0.2187 -0.3709 -0.2975
  927MPD2    C513618   4.604   3.410  17.257  0.5980 -0.3076  0.0674
  927MPD2     H13619   4.479   3.762  17.202  0.2320  0.3052  1.7195
  927MPD2    H113620   0.051   3.479  17.169  0.2238  0.8767  0.3918
  927MPD2    H213621   4.430   3.361  17.355  0.0895 -1.9032 -2.7106
  927MPD2    H313622   4.637   3.310  17.284  1.8294  0.4659  1.4311
  927MPD2     N13623   4.709   3.733  17.101 -0.4631 -0.4779 -0.3905
  927MPD2    H513624   4.665   3.825  17.097  1.1875  0.2926 -0.5831
  927MPD2    N113625   4.305   3.595  17.343 -0.1977 -0.4123  0.3522
  927MPD2    H713626   4.258   3.525  17.400  0.5660 -0.1121  1.3528
  928MPD2     C13627   2.223   2.066   1.022 -0.1183 -0.0702  0.3660
  928MPD2    C113628   2.286   2.184   1.056  0.0033 -0.5720 -0.0929
  928MPD2    C213629   2.380   2.236   0.969 -0.4908  0.1928 -0.4473
  928MPD2    C313630   2.426   2.174   0.852 -1.0943 -0.0453  0.2538
  928MPD2    C413631   2.361   2.058   0.824  0.3290  0.2609 -0.0275
  928MPD2    C513632   2.251   2.014   0.899  0.3586  0.0334  0.3848
  928MPD2     H13633   2.411   2.338   0.990 -0.9424  0.2805 -0.2111
  928MPD2    H113634   2.390   2.002   0.736  0.3403  1.5762 -0.8647
  928MPD2    H213635   2.172   2.001   1.092  0.5990  2.0375  2.8401
  928MPD2    H313636   2.189   1.933   0.861  0.5599 -0.1478  0.4428
  928MPD2     N13637   2.524   2.231   0.767  0.5128  0.5974 -0.1515
  928MPD2    H513638   2.557   2.192   0.679 -1.5785 -1.0767 -0.2003
  928MPD2    N113639   2.239   2.246   1.170 -0.9424 -0.0180 -0.5084
  928MPD2    H713640   2.164   2.192   1.213 -0.1130 -0.3580  0.5178
  929MPD2     C13641   2.786   2.496   9.984 -0.4828  0.0162 -0.6181
  929MPD2    C113642   2.655   2.479   9.969  0.3015 -0.8164 -0.2671
  929MPD2    C213643   2.580   2.579   9.921 -0.2309  0.5730 -0.3319
  929MPD2    C313644   2.644   2.688   9.858  0.0225 -0.2774 -0.2258
  929MPD2    C413645   2.782   2.703   9.857  0.5920 -1.1988  0.3432
  929MPD2    C513646   2.849   2.608   9.928  0.5147  0.2834  0.1762
  929MPD2     H13647   2.478   2.574   9.887 -0.5030  1.7001  0.3132
  929MPD2    H113648   2.827   2.793   9.815 -1.2121 -0.8334 -0.8172
  929MPD2    H213649   2.844   2.420  10.036  1.2612  1.4675 -0.4487
  929MPD2    H313650   2.955   2.622   9.943  0.4193 -0.8093  1.9084
  929MPD2     N13651   2.566   2.779   9.779  0.7272 -0.4016 -0.5674
  929MPD2    H513652   2.465   2.770   9.787  0.2859  2.8834 -2.3729
  929MPD2    N113653   2.600   2.353   9.999 -0.3680 -0.0293 -0.1759
  929MPD2    H713654   2.667   2.284  10.032 -2.0116 -0.7884  1.5775
  930MPD2     C13655   3.784   4.407  13.915  0.2872  0.2752  0.0080
  930MPD2    C113656   3.915   4.394  13.904 -0.0514  0.3848  0.6971
  930MPD2    C213657   3.973   4.319  13.804  0.4607  0.1059  0.1194
  930MPD2    C313658   3.893   4.245  13.717 -0.0955 -0.6169  0.2982
  930MPD2    C413659   3.755   4.256  13.734 -0.0911  0.6161 -0.3458
  930MPD2    C513660   3.699   4.335  13.837 -0.1549  0.3786  0.5323
  930MPD2     H13661   4.081   4.304  13.808  0.2867 -1.5676 -1.9042
  930MPD2    H113662   3.689   4.199  13.669 -0.5580 -0.6026  1.1975
  930MPD2    H213663   3.728   4.461  13.990 -0.5143  0.7732 -0.9502
  930MPD2    H313664   3.596   4.326  13.871 -0.5624  0.5460 -0.6241
  930MPD2     N13665   3.944   4.170  13.608  0.3427  0.5381 -0.0069
  930MPD2    H513666   3.872   4.132  13.547  0.1149 -0.6622  1.0091
  930MPD2    N113667   4.003   4.471  13.984  0.4324 -0.3084 -0.2641
  930MPD2    H713668   4.101   4.447  13.971  0.9417  1.2389  0.6461
  931MPD2     C13669   4.078   3.165  17.668 -0.5250  0.3541 -0.6095
  931MPD2    C113670   4.047   3.286  17.731 -0.4531  0.0072 -0.2372
  931MPD2    C213671   4.080   3.298   0.111  0.0684  0.3840 -0.1060
  931MPD2    C313672   4.137   3.198   0.186  0.1582  0.5952 -0.2588
  931MPD2    C413673   4.166   3.082   0.122 -0.0236  0.0143 -0.8298
  931MPD2    C513674   4.140   3.068  17.738 -0.0653 -0.1392 -0.6295
  931MPD2     H13675   4.076   3.396   0.156 -1.0739 -0.0601  0.7707
  931MPD2    H113676   4.209   2.999   0.178 -0.3760  0.9937  0.8993
  931MPD2    H213677   4.059   3.152  17.562  1.2487 -0.5460 -0.8156
  931MPD2    H313678   4.168   2.973  17.694  2.3148 -0.0801  0.7728
  931MPD2     N13679   4.178   3.204   0.323 -0.4179 -0.1054  0.5061
  931MPD2    H513680   4.232   3.124   0.355 -3.7640 -1.0160  3.8284
  931MPD2    N113681   3.997   3.389  17.650  1.0154  0.6090  0.2935
  931MPD2    H713682   4.003   3.375  17.550 -0.7328 -1.8597  0.5272
  932MPD2     C13683   0.790   2.755  11.328  0.1979 -0.0502  0.2371
  932MPD2    C113684   0.867   2.799  11.423 -0.1992 -0.1812 -0.4845
  932MPD2    C213685   0.835   2.761  11.554 -0.3012 -0.3297  0.1282
  932MPD2    C313686   0.736   2.675  11.584 -0.1500 -0.0789 -0.7360
  932MPD2    C413687   0.667   2.615  11.480  0.2685  0.0122  0.5913
  932MPD2    C513688   0.696   2.659  11.349  0.0655 -0.2123  0.3046
  932MPD2     H13689   0.898   2.804  11.631 -1.9576  0.5230  0.9901
  932MPD2    H113690   0.578   2.555  11.492 -0.2587  0.1148 -2.8439
  932MPD2    H213691   0.791   2.803  11.231 -2.9099 -1.2934 -0.4077
  932MPD2    H313692   0.646   2.617  11.262 -1.8898  2.0354  0.3361
  932MPD2     N13693   0.695   2.632  11.710  0.1795  0.5741 -0.1433
  932MPD2    H513694   0.644   2.545  11.721  0.4949  0.4314  0.1795
  932MPD2    N113695   0.965   2.895  11.406  0.0120  0.2146  0.4186
  932MPD2    H713696   1.015   2.928  11.488 -0.2337  2.7166 -0.4350
  933MPD2     C13697   1.966   2.327   0.832  0.1746  0.0928  0.0236
  933MPD2    C113698   1.971   2.454   0.892 -0.5911  0.4621 -0.6565
  933MPD2    C213699   1.969   2.559   0.805 -0.3843 -0.1789  0.0711
  933MPD2    C313700   1.987   2.550   0.666  0.4184  0.1506 -0.2270
  933MPD2    C413701   2.008   2.421   0.619  0.1545 -0.3661  0.4730
  933MPD2    C513702   1.987   2.318   0.701 -0.7717 -0.2688  0.5528
  933MPD2     H13703   1.968   2.664   0.831 -0.4010 -0.3711  0.8278
  933MPD2    H113704   2.042   2.397   0.519  1.6348  0.0492  0.8843
  933MPD2    H213705   1.972   2.233   0.886  0.5534 -0.2111 -0.5508
  933MPD2    H313706   2.002   2.216   0.667  0.1380  0.5286 -1.4841
  933MPD2     N13707   1.998   2.668   0.591  0.1550 -0.1972  0.4207
  933MPD2    H513708   1.994   2.753   0.647 -0.9230 -1.6649  2.5756
  933MPD2    N113709   1.953   2.456   1.031  0.6040  0.1641  0.3860
  933MPD2    H713710   1.946   2.367   1.080 -1.5063  0.7096  1.0872
  934MPD2     C13711   3.187   0.139   1.441  0.0133 -0.0170 -0.0586
  934MPD2    C113712   3.211   0.005   1.423  0.1654  0.1413 -0.5701
  934MPD2    C213713   3.131   4.661   1.347  0.2221  0.4726  0.1380
  934MPD2    C313714   3.022   4.710   1.273 -0.6989 -0.4243  0.2925
  934MPD2    C413715   3.002   0.109   1.278 -0.2007 -0.0689 -0.6306
  934MPD2    C513716   3.089   0.184   1.357  0.2884 -0.5216 -0.1056
  934MPD2     H13717   3.154   4.555   1.343 -3.6127 -0.3671  0.4957
  934MPD2    H113718   2.911   0.141   1.230 -2.1701 -1.6884  2.0265
  934MPD2    H213719   3.254   0.207   1.492 -1.0191 -0.3245  1.7007
  934MPD2    H313720   3.066   0.290   1.362 -1.1006 -0.7988 -0.5016
  934MPD2     N13721   2.935   4.634   1.189 -0.3250  0.1115 -0.3654
  934MPD2    H513722   2.852   4.686   1.160  0.6895  2.1143  0.3052
  934MPD2    N113723   3.307   4.677   1.503 -0.2813 -0.2797  0.3488
  934MPD2    H713724   3.303   4.576   1.508  0.8349 -0.4009 -1.3592
  935MPD2     C13725   3.084   3.813   0.642  0.5055 -0.1135 -0.4620
  935MPD2    C113726   2.944   3.816   0.656  0.1193  0.2234  0.2884
  935MPD2    C213727   2.885   3.925   0.709 -0.5959  0.3247  0.4093
  935MPD2    C313728   2.964   4.028   0.766  0.5974 -0.5528  1.8081
  935MPD2    C413729   3.101   4.021   0.760  0.4404 -0.1869  0.4393
  935MPD2    C513730   3.157   3.917   0.694 -0.1704  0.3339 -0.6251
  935MPD2     H13731   2.777   3.933   0.711 -0.7123 -0.4859 -1.9128
  935MPD2    H113732   3.156   4.100   0.811  0.0522  0.5665 -0.2989
  935MPD2    H213733   3.136   3.742   0.579  1.2561  0.0738 -0.0585
  935MPD2    H313734   3.264   3.915   0.677  0.3504  2.0074  2.5617
  935MPD2     N13735   2.917   4.138   0.838 -0.4718  0.2893  0.2758
  935MPD2    H513736   2.982   4.200   0.884 -2.6724  2.9368 -0.1733
  935MPD2    N113737   2.864   3.711   0.610 -0.7424  0.1745  0.8002
  935MPD2    H713738   2.764   3.717   0.624 -0.9466 -1.8084  0.1931
  936MPD2     C13739   1.650   0.595  12.525  0.4182  0.5910  1.0868
  936MPD2    C113740   1.673   0.709  12.600 -0.1452  0.6458 -0.7200
  936MPD2    C213741   1.635   0.827  12.542  0.0235  0.8083 -1.1020
  936MPD2    C313742   1.562   0.833  12.422  0.0012 -0.6164  0.0769
  936MPD2    C413743   1.546   0.718  12.346 -0.3342 -0.7708  0.5938
  936MPD2    C513744   1.593   0.598  12.397 -0.3177  0.1438 -0.0361
  936MPD2     H13745   1.659   0.915  12.601 -1.1575 -0.7389  1.7064
  936MPD2    H113746   1.497   0.710  12.250 -2.6146  1.0940  1.6069
  936MPD2    H213747   1.690   0.502  12.564 -1.1285 -0.8878 -0.8227
  936MPD2    H313748   1.579   0.501  12.351 -2.1668  0.3634  0.0528
  936MPD2     N13749   1.535   0.963  12.386 -0.2722 -0.3030  0.0353
  936MPD2    H513750   1.566   1.033  12.452 -1.8500  0.7443 -0.3208
  936MPD2    N113751   1.722   0.723  12.735  0.3798 -0.0114  0.1348
  936MPD2    H713752   1.742   0.820  12.759 -1.7229 -0.1104  2.3009
  937MPD2     C13753   4.624   2.713  11.419  0.3742  0.5738 -0.3070
  937MPD2    C113754   4.566   2.835  11.421 -0.9585 -0.8225  0.6654
  937MPD2    C213755   4.621   2.935  11.349  1.0109  0.7108  0.3632
  937MPD2    C313756   4.721   2.910  11.256 -0.2953  0.1027 -0.1927
  937MPD2    C413757   0.020   2.774  11.240 -0.5387  0.6233 -0.2118
  937MPD2    C513758   4.711   2.678  11.321 -0.4758 -0.1567  0.2780
  937MPD2     H13759   4.600   3.039  11.372 -2.2878  0.5450 -1.8606
  937MPD2    H113760   0.098   2.747  11.170 -1.1230 -0.7796 -0.3195
  937MPD2    H213761   4.589   2.631  11.481  1.5116 -0.3554 -0.8905
  937MPD2    H313762   0.012   2.577  11.317  0.5280  0.2384  0.2377
  937MPD2     N13763   0.053   3.010  11.188 -0.1611  0.5760  0.7043
  937MPD2    H513764   0.033   3.105  11.218  1.4306  0.6766  1.4951
  937MPD2    N113765   4.480   2.873  11.528 -0.8164  0.0175 -0.8222
  937MPD2    H713766   4.451   2.970  11.517  1.2896  0.7794  0.2408
  938MPD2     C13767   2.262   4.097   0.518 -0.8508  0.5905  0.0760
  938MPD2    C113768   2.224   4.192   0.612  0.4230 -0.3132 -0.0736
  938MPD2    C213769   2.122   4.167   0.703 -0.6447  0.3656 -0.1363
  938MPD2    C313770   2.056   4.045   0.687 -0.3125  0.8191 -0.9495
  938MPD2    C413771   2.081   3.958   0.589  0.6055 -0.8696 -0.5437
  938MPD2    C513772   2.187   3.981   0.510 -0.0502 -0.1222 -0.0150
  938MPD2     H13773   2.092   4.240   0.777  2.0133  1.1170  0.2023
  938MPD2    H113774   2.040   3.858   0.592  1.1327 -1.0833 -0.4213
  938MPD2    H213775   2.346   4.112   0.451 -0.1185  1.8670  1.2681
  938MPD2    H313776   2.203   3.909   0.431 -1.4509  0.5803 -0.9498
  938MPD2     N13777   1.943   4.012   0.767 -0.5988 -0.8958  0.8938
  938MPD2    H513778   1.896   3.924   0.747 -0.6085 -0.4788 -0.9108
  938MPD2    N113779   2.284   4.323   0.612 -0.0368  0.5257 -0.5977
  938MPD2    H713780   2.242   4.384   0.682  1.2062 -0.1437  0.7260
  939MPD2     C13781   3.820   0.658   1.329  0.2895 -0.3775  0.3652
  939MPD2    C113782   3.819   0.777   1.253  0.7012 -0.7862  0.2060
  939MPD2    C213783   3.803   0.764   1.115  0.2793 -0.1176  0.3104
  939MPD2    C313784   3.787   0.645   1.054 -0.0718 -0.6226 -0.7227
  939MPD2    C413785   3.789   0.532   1.131  0.2376 -0.2463  0.2468
  939MPD2    C513786   3.808   0.534   1.266  0.5535  0.1071 -0.8106
  939MPD2     H13787   3.800   0.848   1.047 -1.5717 -0.3665  0.0774
  939MPD2    H113788   3.786   0.435   1.083  1.9058 -0.6389  0.9621
  939MPD2    H213789   3.831   0.664   1.437 -0.6951 -0.8264  0.4852
  939MPD2    H313790   3.814   0.442   1.323 -0.5909  0.4997 -0.0424
  939MPD2     N13791   3.750   0.648   0.919  0.3329 -0.7947 -0.2918
  939MPD2    H513792   3.742   0.742   0.882  0.3987 -0.0086  1.6417
  939MPD2    N113793   3.830   0.902   1.317 -0.5025  0.7364  0.3906
  939MPD2    H713794   3.818   0.902   1.418  2.3852  0.4798  0.7341
  940MPD2     C13795   2.419   1.521  13.556 -0.8187 -0.4904  0.3117
  940MPD2    C113796   2.316   1.483  13.477 -0.3649  0.5700 -0.1639
  940MPD2    C213797   2.339   1.462  13.336  0.5956 -0.3340  0.1486
  940MPD2    C313798   2.461   1.482  13.277  0.8021 -1.0572 -0.6798
  940MPD2    C413799   2.565   1.509  13.363 -0.3200 -0.8629 -0.0010
  940MPD2    C513800   2.542   1.534  13.495 -0.0862 -0.6815 -0.2364
  940MPD2     H13801   2.247   1.435  13.285  0.6299 -3.0793  1.4958
  940MPD2    H113802   2.668   1.522  13.330 -1.4387  2.1462 -2.2634
  940MPD2    H213803   2.411   1.550  13.660 -0.8797 -0.6827  0.3621
  940MPD2    H313804   2.623   1.583  13.548 -1.4403  1.2409  0.0609
  940MPD2     N13805   2.483   1.472  13.135 -0.1869 -0.7076  0.0235
  940MPD2    H513806   2.578   1.488  13.101 -0.9320 -0.0839 -1.7822
  940MPD2    N113807   2.185   1.460  13.533  0.5647  0.0423 -0.2015
  940MPD2    H713808   2.111   1.443  13.465  0.2306  0.4732  0.0525
  941MPD2     C13809   1.017   0.710  10.470  0.6675  0.2424  0.0225
  941MPD2    C113810   1.133   0.658  10.532 -0.0445 -0.0214  0.2645
  941MPD2    C213811   1.120   0.581  10.645 -0.0244 -0.5556  0.1891
  941MPD2    C313812   1.002   0.544  10.699  0.9638  0.0079  0.1153
  941MPD2    C413813   0.890   0.591  10.634  0.3082 -1.3250  0.4572
  941MPD2    C513814   0.896   0.675  10.528  0.0606  0.2590 -0.5079
  941MPD2     H13815   1.215   0.548  10.685 -0.8177 -0.5451  2.0977
  941MPD2    H113816   0.793   0.567  10.676  0.4963 -1.0532  1.0557
  941MPD2    H213817   1.020   0.780  10.388 -1.6930 -0.4236 -0.6156
  941MPD2    H313818   0.802   0.714  10.492 -0.1527  0.1634 -0.0576
  941MPD2     N13819   0.993   0.463  10.812  0.2889 -0.3652  0.0964
  941MPD2    H513820   0.904   0.460  10.861 -1.1065 -1.5955 -2.4783
  941MPD2    N113821   1.261   0.697  10.495  0.2663 -0.2698 -0.2461
  941MPD2    H713822   1.336   0.665  10.557 -0.9671  0.6645  1.7158
  942MPD2     C13823   1.399   1.932   9.593  0.4958 -0.5053 -0.2086
  942MPD2    C113824   1.434   2.050   9.651  0.0537  0.0464  0.2425
  942MPD2    C213825   1.554   2.111   9.615  1.0216  0.5959 -0.2968
  942MPD2    C313826   1.647   2.043   9.540 -0.0613  0.3589  0.9181
  942MPD2    C413827   1.610   1.929   9.477  0.4795 -0.6393 -0.4339
  942MPD2    C513828   1.485   1.878   9.501  0.4496 -0.5376  0.2145
  942MPD2     H13829   1.579   2.203   9.668 -1.7244  0.9553  0.3419
  942MPD2    H113830   1.673   1.875   9.407 -0.8429  0.8059 -2.7507
  942MPD2    H213831   1.311   1.875   9.622  1.3804 -0.4594  2.5092
  942MPD2    H313832   1.450   1.794   9.442 -1.8386  0.8733 -0.4277
  942MPD2     N13833   1.767   2.101   9.493  0.0994  0.2415  0.1361
  942MPD2    H513834   1.817   2.046   9.425 -2.0270 -1.4431 -0.0669
  942MPD2    N113835   1.352   2.122   9.741 -0.2302  0.6492  0.5414
  942MPD2    H713836   1.375   2.218   9.764 -1.2216  0.8373  0.7502
  943MPD2     C13837   4.512   0.107   9.048  0.3207  0.6005 -0.1022
  943MPD2    C113838   4.494   0.002   9.132 -0.2476 -0.7030 -0.0701
  943MPD2    C213839   4.514   4.605   9.082  0.3043 -0.4329 -0.4331
  943MPD2    C313840   4.568   4.583   8.956 -0.0261  0.7200 -0.4878
  943MPD2    C413841   4.595   4.698   8.881  0.1151 -0.0137 -0.3048
  943MPD2    C513842   4.563   0.088   8.919 -0.1879 -0.2667  0.1277
  943MPD2     H13843   4.487   4.522   9.146  1.1369  0.8265  1.5475
  943MPD2    H113844   4.648   4.685   8.787  0.6485  1.2895 -0.1932
  943MPD2    H213845   4.502   0.210   9.081 -0.2211  0.1482  1.1432
  943MPD2    H313846   4.596   0.168   8.854 -1.3740 -0.3938 -0.6241
  943MPD2     N13847   4.598   4.455   8.908  0.3928 -0.0968  0.1502
  943MPD2    H513848   4.647   4.444   8.820  0.0221  0.4703 -0.1280
  943MPD2    N113849   4.449   0.021   9.268  0.3423 -0.2816  0.1469
  943MPD2    H713850   4.412   4.676   9.312  1.8289 -0.5246  0.9614
  944MPD2     C13851   0.179   4.401  10.385 -0.3411  0.3425 -0.0530
  944MPD2    C113852   0.232   4.374  10.508 -0.1874 -0.1657 -0.1623
  944MPD2    C213853   0.155   4.391  10.619 -0.0041  0.3870  0.7928
  944MPD2    C313854   0.022   4.423  10.606  0.6148 -0.1220  0.4075
  944MPD2    C413855   4.707   4.456  10.481 -0.0553 -0.0924 -0.6088
  944MPD2    C513856   0.050   4.439  10.371  0.2301 -0.3181  0.7315
  944MPD2     H13857   0.196   4.369  10.717 -1.2219  0.4125  1.3092
  944MPD2    H113858   4.602   4.471  10.460 -0.1584 -0.0292 -0.0557
  944MPD2    H213859   0.224   4.379  10.289 -0.8428  0.2120 -0.2576
  944MPD2    H313860   4.736   4.455  10.278 -0.6308  2.7521  1.7466
  944MPD2     N13861   4.684   4.399  10.722 -0.3957 -0.3319 -0.3436
  944MPD2    H513862   4.735   4.365  10.802 -1.0326  1.4272  0.7945
  944MPD2    N113863   0.370   4.339  10.507 -0.3301 -0.0230 -0.0556
  944MPD2    H713864   0.413   4.344  10.415  0.1645  0.2768  0.1923
    1TMC1    C113865   3.514   4.730  14.353  0.2309 -1.1863 -0.4884
    1TMC1    C213866   3.516   4.604  14.293  0.4553 -0.6562 -0.4436
    1TMC1    C313867   3.620   4.524  14.308 -0.1363 -0.0694 -0.1003
    1TMC1    C413868   3.623   0.037  14.426 -0.2370  1.0493  0.1063
    1TMC1    C513869   3.733   4.687  14.421  0.2178 -0.0706  0.3432
    1TMC1    C613870   3.737   4.565  14.363  0.4784 -0.3755 -0.8187
    1TMC1     C13871   3.387   0.062  14.363 -0.0844 -0.0814 -0.2920
    1TMC1     O13872   3.286   4.729  14.342 -0.3822  0.6268  0.4550
    1TMC1     H13873   3.429   4.569  14.238  0.5633  0.5394 -1.3769
    1TMC1    H113874   3.619   0.135  14.472  0.5866  1.0131  0.2685
    1TMC1    H213875   3.824   4.501  14.368  1.9900  1.6670 -1.4347
    1TMC1    C713876   3.863   0.008  14.443  0.3684 -0.6318 -0.3248
    1TMC1    C813877   3.596   4.390  14.267  0.3734 -0.1535 -0.0455
    1TMC1    O113878   3.967   4.689  14.414  0.1604  0.0384  0.5010
    1TMC1    O213879   3.492   4.347  14.208  0.4540  0.4116  0.0196
    1TMC1    O313880   3.851   0.095  14.548  0.0968 -0.2503 -0.0188
    1TMC1    H313881   3.763   0.103  14.593  0.5053  0.9911  0.5760
    1TMC1    O513882   3.649   4.317  14.371 -0.0079 -0.1654 -0.0833
    1TMC1    H513883   3.698   4.369  14.437 -0.5034  0.6186 -0.3345
    2MPD2     C13884   3.040   0.432  14.448 -0.5953  0.2095 -0.0576
    2MPD2    C113885   3.163   0.486  14.402  0.0175  0.3642  0.0631
    2MPD2    C213886   3.276   0.404  14.398 -0.4884  0.3094  0.5330
    2MPD2    C313887   3.269   0.268  14.429  0.3587  0.5208 -0.7897
    2MPD2    C413888   3.144   0.215  14.459 -0.0864  0.4210 -0.3755
    2MPD2    C513889   3.034   0.297  14.478  0.1144  0.1489  0.4536
    2MPD2     H13890   3.366   0.441  14.352 -0.1411  0.8263  1.6471
    2MPD2    H113891   3.128   0.110  14.483  2.5407 -0.0437 -0.7099
    2MPD2    H213892   2.946   0.484  14.460 -1.3018 -0.6284 -2.0514
    2MPD2    H313893   2.942   0.252  14.515  0.3417  0.0368  0.8767
    2MPD2     N13894   3.389   0.194  14.398 -0.4673 -0.4765 -0.0416
    2MPD2    H513895   3.476   0.243  14.379 -0.6656 -0.4883 -1.0210
    2MPD2    N113896   3.157   0.619  14.360  0.0033 -0.3739 -0.4135
    2MPD2    H713897   3.064   0.657  14.367  0.2973  0.5180 -1.3644
    3TMC2    C113898   3.212   0.815  14.266  0.1080  0.2210  0.4685
    3TMC2    C213899   3.168   0.882  14.376  0.6976  0.0238  0.3616
    3TMC2    C313900   3.187   1.014  14.384  0.0495  0.4546 -0.1038
    3TMC2    C413901   3.276   0.877  14.162 -0.5041  1.2738 -0.1128
    3TMC2    C513902   3.295   1.010  14.178  0.4916  0.3321 -0.0055
    3TMC2    C613903   3.254   1.076  14.284 -0.4439 -0.3836 -0.0005
    3TMC2     C13904   3.250   0.688  14.289 -0.1402  0.3389 -0.0511
    3TMC2     O13905   3.359   0.654  14.247  0.3033  0.5110 -0.2323
    3TMC2     H13906   3.131   0.839  14.469  2.4469 -3.1153 -0.3944
    3TMC2    H113907   3.310   0.825  14.074  3.2299  3.9421 -0.2435
    3TMC2    H213908   3.287   1.178  14.299  0.6915 -1.0693  2.1034
    3TMC2    C713909   3.413   1.052  14.107  0.6764 -0.1094 -0.1623
    3TMC2    C813910   3.097   1.082  14.470 -0.2954  0.5974 -0.7276
    3TMC2    O113911   3.492   0.967  14.076 -0.0556  0.5290 -0.1198
    3TMC2    O213912   3.105   1.057  14.587  0.7687  0.2799 -0.4068
    3TMC2    O513913   3.078   1.199  14.407  0.0280  0.7359  0.3420
    3TMC2    H513914   3.065   1.192  14.311 -1.5609  3.6223  0.3465
    4TMC2    C113915   3.276   1.991  13.840 -0.4708  0.2035 -0.5769
    4TMC2    C213916   3.342   2.022  13.725  0.0927  0.0436 -0.0906
    4TMC2    C313917   3.454   1.945  13.691  0.4966  0.8693  0.2919
    4TMC2    C413918   3.314   1.890  13.929 -0.4392 -0.4560  0.2814
    4TMC2    C513919   3.426   1.824  13.887 -0.3163 -0.5775 -0.5561
    4TMC2    C613920   3.498   1.847  13.772  0.0771 -0.4715  0.2158
    4TMC2     C13921   3.143   2.046  13.862  0.1365  0.3575  0.7638
    4TMC2     O13922   3.086   2.031  13.969  0.5038  0.0907 -0.3494
    4TMC2     H13923   3.326   2.100  13.652 -0.8059  0.5802  0.6791
    4TMC2    H113924   3.265   1.871  14.024  0.5427 -0.6295  0.7481
    4TMC2    H213925   3.586   1.794  13.739  0.5475  0.9858 -0.8660
    4TMC2    C713926   3.439   1.697  13.960  0.5026  0.5639 -0.2493
    4TMC2    C813927   3.541   1.992  13.578  0.5672 -0.4912 -0.2370
    4TMC2    O113928   3.345   1.662  14.027  0.4335  0.1426  0.3823
    4TMC2    O213929   3.520   2.108  13.537  0.5676 -0.2294  0.7430
    4TMC2    O513930   3.577   1.891  13.502 -0.2326 -0.1162  0.3120
    4TMC2    H513931   3.562   1.803  13.543  2.1373 -0.0393  1.3760
    5MPD2     C13932   2.695   2.248  13.710 -0.1379 -0.6152  0.1736
    5MPD2    C113933   2.764   2.197  13.602 -0.6751  0.4742 -0.2757
    5MPD2    C213934   2.893   2.160  13.616 -0.0339  0.3148  0.9561
    5MPD2    C313935   2.950   2.146  13.736  0.3865 -0.9898 -0.1769
    5MPD2    C413936   2.878   2.192  13.847 -0.3440  0.5996 -0.3978
    5MPD2    C513937   2.747   2.237  13.832 -0.7063  0.1362 -0.6323
    5MPD2     H13938   2.950   2.123  13.531 -0.4971 -0.3535  0.9391
    5MPD2    H113939   2.920   2.183  13.947  0.5673  1.2279 -0.7159
    5MPD2    H213940   2.595   2.286  13.702  1.2238  2.3954 -2.3186
    5MPD2    H313941   2.692   2.277  13.916 -0.5644 -0.3778 -0.2978
    5MPD2     N13942   3.089   2.095  13.747 -0.1579 -0.7376  0.3017
    5MPD2    H513943   3.135   2.071  13.659  1.6681  0.9467  0.8010
    5MPD2    N113944   2.695   2.165  13.487 -0.3486  0.2426 -0.2864
    5MPD2    H713945   2.595   2.162  13.501 -0.4282 -0.3985 -0.9669
    6MPD1     C13946   1.179   2.443  12.785  0.9793 -0.1848  0.0467
    6MPD1    C113947   1.278   2.476  12.873  0.5905 -0.1717  0.6565
    6MPD1    C213948   1.360   2.369  12.908 -0.0550 -0.2633 -0.9079
    6MPD1    C313949   1.343   2.242  12.855 -0.2611 -0.7286  0.5168
    6MPD1    C413950   1.249   2.214  12.758 -0.8292 -0.1616 -0.4334
    6MPD1    C513951   1.167   2.318  12.727 -0.1204 -0.3934 -0.1599
    6MPD1     H13952   1.446   2.393  12.968 -2.7530  1.1896  2.3716
    6MPD1    H113953   1.231   2.116  12.715  0.3071 -1.6264  2.4193
    6MPD1    H213954   1.113   2.522  12.749  0.6984 -0.1476  0.6483
    6MPD1    H313955   1.093   2.294  12.651 -1.1568 -0.3698  0.8497
    6MPD1     N13956   1.422   2.131  12.900  0.2741  0.0445 -0.6603
    6MPD1    H513957   1.409   2.047  12.845  1.2646 -0.5560  0.0288
    6MPD1    N113958   1.283   2.604  12.924  0.2238 -0.5657  0.5801
    6MPD1    H613959   1.370   2.652  12.945 -1.3556  2.9320 -1.0125
    6MPD1    H713960   1.227   2.669  12.871 -1.0649 -0.4096  2.1183
    7MPD2     C13961   1.947   1.795  13.542  0.4485 -0.4490 -0.2000
    7MPD2    C113962   1.989   1.815  13.411  0.1524 -0.1677 -0.2515
    7MPD2    C213963   2.120   1.838  13.380 -0.4764 -0.3403 -0.0500
    7MPD2    C313964   2.223   1.822  13.477  0.5932  0.1743  0.8155
    7MPD2    C413965   2.185   1.800  13.603  0.4780  0.7665 -0.4528
    7MPD2    C513966   2.047   1.788  13.634  0.4400 -0.1992  0.2795
    7MPD2     H13967   2.147   1.870  13.280  2.0856  1.5493  1.2574
    7MPD2    H113968   2.257   1.801  13.684 -1.8804  1.4696  1.6251
    7MPD2    H213969   1.848   1.782  13.583  0.4183  1.1818  0.2498
    7MPD2    H313970   2.027   1.779  13.740 -0.9410 -2.6362 -0.1937
    7MPD2     N13971   2.360   1.829  13.442 -0.0154  0.4613  0.1501
    7MPD2    H513972   2.432   1.846  13.512  0.3602 -1.8767  0.3351
    7MPD2    N113973   1.902   1.833  13.302  0.6306  0.2341  0.3728
    7MPD2    H713974   1.950   1.842  13.213  0.0447  2.2622  0.2639
    8TMC3    C113975   2.541   1.845  13.287 -0.0889 -0.1403 -0.2819
    8TMC3    C213976   2.584   1.958  13.354 -0.3437  0.1927 -0.4280
    8TMC3    C313977   2.651   2.056  13.283 -0.5549  0.0518 -0.2160
    8TMC3    C413978   2.578   1.818  13.158 -0.1283 -0.5516  0.5660
    8TMC3    C513979   2.645   1.919  13.094  0.4031 -0.7298 -0.2052
    8TMC3    C613980   2.675   2.038  13.150 -0.1584  0.4805  0.1803
    8TMC3     C13981   2.403   1.818  13.311  0.5097 -0.8052  0.1475
    8TMC3     O13982   2.342   1.778  13.210  0.3661  0.3813 -0.4270
    8TMC3     H13983   2.537   1.976  13.449 -0.5258  0.5893 -0.5957
    8TMC3    H113984   2.556   1.727  13.103  2.6558  0.7041 -2.6941
    8TMC3    H213985   2.709   2.125  13.095  1.2164  0.0524  0.3539
    8TMC3    C713986   2.584   1.930  12.963 -0.5530 -0.2033 -0.7170
    8TMC3    C813987   2.747   2.142  13.362  0.5096  0.5989 -0.1152
    8TMC3    O113988   2.645   1.977  12.868 -0.4573 -0.7278  0.4135
    8TMC3    O213989   2.844   2.191  13.307 -0.3995 -0.3362  0.5087
    9TMC3    C113990   1.586   2.006  13.014 -0.1152 -0.5489 -0.3730
    9TMC3    C213991   1.651   1.957  12.904 -0.0901  0.1407 -1.0945
    9TMC3    C313992   1.759   1.876  12.936 -0.4919 -0.5105 -0.0296
    9TMC3    C413993   1.616   1.970  13.146  0.3975 -1.0479  0.1612
    9TMC3    C513994   1.714   1.877  13.165  0.3325  0.1869  0.4069
    9TMC3    C613995   1.789   1.830  13.056 -0.1410  0.4492 -0.1945
    9TMC3     C13996   1.512   2.128  13.007 -0.0800 -0.3071 -0.0380
    9TMC3     O13997   1.510   2.195  13.110 -0.0096 -0.5351  0.6358
    9TMC3     H13998   1.649   2.006  12.808 -1.2871  0.9388 -0.6516
    9TMC3    H113999   1.581   2.018  13.237 -0.5594 -1.1317 -0.1612
    9TMC3    H214000   1.863   1.753  13.078  0.7153  0.6738 -2.3059
    9TMC3    C714001   1.763   1.851  13.301  0.9417 -0.1902  0.2221
    9TMC3    C814002   1.869   1.894  12.838  0.1680  0.1241 -0.6777
    9TMC3    O114003   1.681   1.859  13.390  0.3010  0.2299 -0.1856
    9TMC3    O214004   1.843   1.947  12.730 -0.2702 -0.5701 -0.0359
   10MPD2     C14005   2.372   1.936  12.744 -0.4519  0.3045  0.2214
   10MPD2    C114006   2.348   1.913  12.880 -0.8848 -0.2364  0.2324
   10MPD2    C214007   2.224   1.880  12.926 -0.3883  0.4204  0.0876
   10MPD2    C314008   2.116   1.877  12.837 -0.2511  0.4091  0.7591
   10MPD2    C414009   2.138   1.898  12.703 -0.0712 -0.8902  0.7343
   10MPD2    C514010   2.265   1.923  12.659 -0.2157 -0.2632  0.1398
   10MPD2     H14011   2.208   1.882  13.033  1.8917 -1.3058  0.4468
   10MPD2    H114012   2.056   1.886  12.634 -1.5178  3.3046  1.6937
   10MPD2    H214013   2.471   1.948  12.704  0.5703 -1.5648  2.1668
   10MPD2    H314014   2.276   1.945  12.553 -3.4414 -0.8048 -0.2920
   10MPD2     N14015   1.988   1.869  12.898  0.2870 -0.0128 -0.1660
   10MPD2    H514016   1.983   1.856  12.999  0.2473  0.6063 -0.0821
   10MPD2    N114017   2.447   1.906  12.979  0.2248  0.0849  0.2140
   10MPD2    H714018   2.404   1.881  13.067 -1.8503  1.3331 -0.4417
   11MPD2     C14019   3.633   1.212  13.980  1.1147  0.0605  0.0114
   11MPD2    C114020   3.518   1.270  14.035 -0.4606 -0.5412  0.0121
   11MPD2    C214021   3.496   1.405  14.028  0.5056  0.6404  0.2087
   11MPD2    C314022   3.577   1.488  13.951  0.7366  0.2351  0.6657
   11MPD2    C414023   3.698   1.431  13.911  0.0775 -0.6300  0.4457
   11MPD2    C514024   3.720   1.301  13.921 -0.0671 -0.5035  0.3973
   11MPD2     H14025   3.404   1.440  14.074 -0.3318 -2.5351  0.9207
   11MPD2    H114026   3.775   1.495  13.870 -0.7568  0.4403  0.5287
   11MPD2    H214027   3.657   1.108  13.994  0.4748 -0.2433 -1.0793
   11MPD2    H314028   3.815   1.265  13.882  0.4545  1.3814 -0.0923
   11MPD2     N14029   3.551   1.620  13.921  0.4718  0.8218  0.4747
   11MPD2    H514030   3.625   1.660  13.863  1.1601  0.2509  0.9610
   11MPD2    N114031   3.429   1.193  14.110  0.3452 -0.3526  0.1621
   11MPD2    H714032   3.354   1.244  14.155 -0.5838  0.2820 -2.1195
    1MPD1     C14033   1.201   2.401  17.595  0.2930  0.7312 -0.5827
    1MPD1    C114034   1.306   2.451  17.522  0.4026  0.0954 -0.2347
    1MPD1    C214035   1.283   2.554  17.434 -0.0800 -0.3456  0.0412
    1MPD1    C314036   1.151   2.600  17.413  0.4771  0.8041  0.1546
    1MPD1    C414037   1.045   2.546  17.486 -0.2980  0.1816  0.2493
    1MPD1    C514038   1.074   2.447  17.575 -0.4370 -0.0680  0.7486
    1MPD1     H14039   1.359   2.589  17.365 -1.1678  1.8341 -0.0581
    1MPD1    H114040   0.943   2.578  17.466 -0.7095 -1.5802 -0.4327
    1MPD1    H214041   1.216   2.324  17.670 -1.3069 -0.9062 -1.9489
    1MPD1    H314042   0.987   2.411  17.630  0.9656  2.8527  4.8881
    1MPD1     N14043   1.119   2.691  17.309  0.1366  0.7159 -0.5356
    1MPD1    H514044   1.022   2.710  17.285  0.8010  1.5604 -2.5622
    1MPD1    N114045   1.432   2.382  17.531  0.0464 -0.0680  0.0449
    1MPD1    H614046   1.516   2.424  17.491 -0.3152  0.9001  0.3023
    1MPD1    H714047   1.461   2.325  17.610 -0.1793 -0.7828 -0.3857
    2MPD1     C14048   1.774   3.123  16.699  0.1926  0.0039 -0.4645
    2MPD1    C114049   1.776   3.014  16.788  0.1127 -0.1878  0.0577
    2MPD1    C214050   1.663   2.989  16.860 -0.4686  0.0584  0.1543
    2MPD1    C314051   1.544   3.063  16.838 -0.8757 -0.7058 -0.7976
    2MPD1    C414052   1.544   3.163  16.747 -0.6232 -0.7087  0.7183
    2MPD1    C514053   1.660   3.197  16.680 -0.5515  0.4589  0.1597
    2MPD1     H14054   1.667   2.907  16.932 -0.1105 -0.9437 -1.0127
    2MPD1    H114055   1.460   3.230  16.731 -1.4456 -2.0305 -0.4630
    2MPD1    H214056   1.855   3.158  16.636 -1.0391  1.1185 -1.4311
    2MPD1    H314057   1.666   3.278  16.608 -0.3264  1.3330  1.1517
    2MPD1     N14058   1.432   3.038  16.918  0.8307  0.1032  0.1588
    2MPD1    H514059   1.447   2.975  16.996  0.7513  0.2695  0.3063
    2MPD1    N114060   1.901   2.957  16.811 -0.8463  0.1800 -0.8263
    2MPD1    H614061   1.896   2.863  16.850 -1.5200 -0.6067 -2.8325
    2MPD1    H714062   1.939   2.930  16.721  1.9877 -0.2684  0.5127
    3TMC3    C114063   1.200   3.034  16.991  1.1976  0.8445  0.5906
    3TMC3    C214064   1.067   3.033  16.956 -0.2152  0.1550  0.2493
    3TMC3    C314065   0.975   2.962  17.031  0.4586 -0.2623 -0.2795
    3TMC3    C414066   1.238   2.959  17.095  0.5836 -0.9498  0.0372
    3TMC3    C514067   1.148   2.878  17.164  1.1484 -0.1484 -0.2259
    3TMC3    C614068   1.012   2.883  17.136  0.2035 -0.2868 -0.2270
    3TMC3     C14069   1.302   3.087  16.899 -0.7980  0.9654 -0.3697
    3TMC3     O14070   1.247   3.154  16.811  0.7121 -0.1026 -0.0189
    3TMC3     H14071   1.040   3.107  16.881 -0.0721  1.1414  1.1793
    3TMC3    H114072   1.342   2.954  17.126  0.7241 -1.0096 -0.4529
    3TMC3    H214073   0.935   2.840  17.198  0.8946  1.3962  1.7705
    3TMC3    C714074   1.211   2.766  17.238 -0.4774 -1.0675 -0.0606
    3TMC3    C814075   0.836   2.951  16.988  0.3200 -0.1371 -0.2517
    3TMC3    O114076   1.331   2.761  17.245 -0.3221 -0.0480 -0.2408
    3TMC3    O214077   0.765   2.861  17.034  0.1654  0.2714 -0.0045
    4MPD1     C14078   0.469   3.095  16.657 -0.7933  0.5581  0.2598
    4MPD1    C114079   0.592   3.093  16.590  0.6217 -0.3661  0.4366
    4MPD1    C214080   0.705   3.074  16.664 -0.2371 -0.3076 -0.2081
    4MPD1    C314081   0.702   3.032  16.796 -0.1830  0.9153  0.1694
    4MPD1    C414082   0.580   3.008  16.855 -0.4817  0.4218 -0.5083
    4MPD1    C514083   0.467   3.054  16.787 -0.5138 -0.9441  0.0888
    4MPD1     H14084   0.801   3.098  16.621 -0.8719 -0.1551 -1.5454
    4MPD1    H114085   0.562   2.956  16.948  0.3430 -0.0523 -0.6201
    4MPD1    H214086   0.378   3.105  16.599 -0.6507 -2.6631 -0.5049
    4MPD1    H314087   0.371   3.026  16.830 -1.4816  0.4647 -1.1735
    4MPD1     N14088   0.819   3.023  16.871  0.3482 -0.1358  0.1183
    4MPD1    H514089   0.907   3.056  16.833  1.3909 -2.4723  0.5383
    4MPD1    N114090   0.599   3.159  16.463  0.2144  0.1546 -0.0592
    4MPD1    H614091   0.512   3.152  16.411 -0.2461  0.1865  0.7219
    4MPD1    H714092   0.663   3.096  16.415  2.6519  3.2751 -0.9359
    1TCq1    O114093   1.843   2.276  11.061 -0.0732  0.3429  0.2835
    1TCq1    C114094   1.721   2.314  11.020  0.6701 -0.0531  0.0628
    1TCq1    O214095   1.613   2.271  11.060 -0.3650  0.5722  0.1786
    1TCq1    C214096   1.735   2.425  10.943  0.6201 -0.0319 -0.0749
    1TCq1    C314097   1.645   2.527  10.973  0.0172  0.5913 -0.3255
    1TCq1    C414098   1.645   2.648  10.906 -0.7298  0.9295  0.6702
    1TCq1    C514099   1.749   2.665  10.815 -0.3465 -0.2033  0.3509
    1TCq1    C614100   1.835   2.560  10.786  1.3723 -0.0084  0.3102
    1TCq1    C714101   1.831   2.443  10.851 -0.4839  0.5606  0.1295
    1TCq1    C814102   1.946   2.574  10.684 -0.0526 -0.9181  0.2794
    1TCq1    O414103   1.973   2.480  10.614  0.0719 -0.6145  0.5815
    1TCq1    C914104   1.581   2.760  10.953  0.0375 -0.3022 -0.0995
    1TCq1    O514105   1.607   2.872  10.902  0.4160 -0.2531  0.6968
    1TCq1    O614106   1.508   2.732  11.051 -0.4242 -0.0402 -0.0491
    1TCq1    H114107   1.904   2.352  11.047  2.1277 -1.5487 -0.6126
    1TCq1    H214108   1.590   2.509  11.065 -1.1887  0.9155 -0.9777
    1TCq1    H314109   1.751   2.761  10.765  2.9503  1.0864  2.9120
    1TCq1    H414110   1.888   2.364  10.803 -1.6090  0.7288 -1.4429
    2MPD1     C14111   2.264   2.872  10.428 -0.0130 -0.0527  0.1974
    2MPD1    C114112   2.222   2.938  10.537  0.1300  0.8261 -0.2224
    2MPD1    C214113   2.153   2.868  10.627 -0.2728 -0.5577 -0.4493
    2MPD1    C314114   2.113   2.741  10.604 -0.3150  0.1980 -0.6197
    2MPD1    C414115   2.159   2.672  10.494 -0.2918  0.0325 -0.2328
    2MPD1    C514116   2.239   2.741  10.409  0.3431 -0.2335  0.5161
    2MPD1     H14117   2.126   2.902  10.726 -0.7542 -2.0260 -0.0650
    2MPD1    H114118   2.150   2.564  10.491  1.6429 -0.0864 -1.6005
    2MPD1    H214119   2.338   2.913  10.360  0.6132  0.1360  0.9917
    2MPD1    H314120   2.297   2.694  10.330  1.8722 -1.4442  2.3608
    2MPD1     N14121   2.009   2.696  10.690 -0.1452 -0.4670 -1.0521
    2MPD1    H514122   1.983   2.757  10.767 -3.4461  0.4864 -2.9210
    2MPD1    N114123   2.288   3.059  10.572 -0.2399  0.4410  0.1351
    2MPD1    H614124   2.225   3.111  10.632 -0.0633  0.2279  0.4990
    2MPD1    H714125   2.304   3.116  10.489  1.9467 -1.2024 -0.5905
    1TMC1    C114126   4.671   1.930   1.408  0.8749  0.2923  0.5210
    1TMC1    C214127   0.011   2.040   1.435  0.1891 -0.0018  1.1878
    1TMC1    C314128   0.108   2.022   1.529  0.1047  0.2959  0.6068
    1TMC1    C414129   4.686   1.813   1.477  0.4490 -0.6030 -0.6214
    1TMC1    C514130   0.056   1.803   1.561 -0.4549 -0.3114  0.2137
    1TMC1    C614131   0.139   1.901   1.589 -0.6674 -0.5259 -0.8183
    1TMC1     C14132   4.593   1.920   1.281 -0.5061  0.0855 -0.2194
    1TMC1     O14133   4.566   2.028   1.223  0.1199 -0.3393  0.3418
    1TMC1     H14134   0.007   2.128   1.372  0.3028 -1.9777 -1.5605
    1TMC1    H114135   4.623   1.727   1.458  1.5531 -1.2409 -1.3852
    1TMC1    H214136   0.224   1.886   1.654 -0.6967  0.3385 -0.5831
    1TMC1    C714137   0.076   1.675   1.622 -0.0462  0.2608 -0.3639
    1TMC1    C814138   0.215   2.123   1.532  0.4628 -0.2174 -0.0696
    1TMC1    O114139   4.725   1.590   1.623 -0.3154 -0.6249  0.0728
    1TMC1    O214140   0.333   2.103   1.561 -0.0938  0.2975  0.1697
    1TMC1    O314141   0.206   1.643   1.613 -0.4111 -0.4332  0.2533
    1TMC1    H314142   0.264   1.715   1.579 -0.4160 -1.3765 -1.7914
    1TMC1    O514143   0.143   2.231   1.575 -0.1241  0.3725  1.0435
    1TMC1    H514144   0.045   2.231   1.581 -0.1306  0.8337  0.9685
    2MPD1     C14145   4.352   1.709   0.887 -0.0628 -0.0256 -0.5155
    2MPD1    C114146   4.396   1.606   0.965 -0.0318  0.3121  0.0618
    2MPD1    C214147   4.467   1.637   1.087 -0.1732  0.7263  0.3432
    2MPD1    C314148   4.478   1.765   1.129  0.3235 -0.6444  0.3303
    2MPD1    C414149   4.410   1.861   1.058 -0.6980  0.3790 -0.2604
    2MPD1    C514150   4.350   1.835   0.941 -0.4866 -0.2074 -0.3168
    2MPD1     H14151   4.509   1.557   1.148 -2.3186 -0.4071  0.3630
    2MPD1    H114152   4.394   1.960   1.098 -2.0982 -0.2622  0.7749
    2MPD1    H214153   4.313   1.697   0.787 -0.8642 -0.8848 -0.1039
    2MPD1    H314154   4.304   1.920   0.893  0.2384 -0.1961 -0.9863
    2MPD1     N14155   4.555   1.794   1.244 -1.0104 -0.4092 -0.3458
    2MPD1    H514156   4.603   1.716   1.288 -0.0777 -1.0225 -2.4781
    2MPD1    N114157   4.402   1.475   0.916  0.0399 -0.8019 -0.2006
    2MPD1    H614158   4.318   1.458   0.861 -0.5479  0.0676  0.4408
    2MPD1    H714159   4.398   1.412   0.996 -1.3038 -2.9718 -1.9745
    1MPD1     C14160   3.327   2.801  11.734 -0.0475  0.6407 -0.4585
    1MPD1    C114161   3.346   2.877  11.622 -0.7057 -0.4491 -0.1065
    1MPD1    C214162   3.406   2.999  11.639  0.3511 -0.6902  0.0275
    1MPD1    C314163   3.469   3.038  11.750  0.1533  0.0330  0.1217
    1MPD1    C414164   3.462   2.945  11.854 -0.3975  0.7497 -0.2463
    1MPD1    C514165   3.377   2.840  11.852 -0.2347  0.5072  0.4045
    1MPD1     H14166   3.412   3.077  11.563 -0.2660  1.6550  2.3831
    1MPD1    H114167   3.505   2.959  11.953 -1.1728  0.4675  0.1307
    1MPD1    H214168   3.267   2.711  11.731 -0.1387  0.6790  0.3129
    1MPD1    H314169   3.364   2.777  11.939 -0.1653  0.4959  0.4063
    1MPD1     N14170   3.541   3.160  11.764  0.2202  0.3672  0.0001
    1MPD1    H514171   3.531   3.226  11.688  0.5275 -0.8120 -1.0677
    1MPD1    N114172   3.281   2.848  11.499 -0.0571 -0.7788  0.2859
    1MPD1    H614173   3.279   2.748  11.480 -1.0408 -1.0732  1.9215
    1MPD1    H714174   3.320   2.897  11.419 -0.0238 -0.3208  0.5855
    2MPD1     C14175   2.808   3.203  11.466  0.7807 -0.4382  0.5278
    2MPD1    C114176   2.778   3.247  11.341 -0.1057 -0.2116 -0.1766
    2MPD1    C214177   2.865   3.218  11.231 -0.3442  0.0119 -0.1047
    2MPD1    C314178   2.987   3.154  11.254 -0.5896  0.1480  0.5449
    2MPD1    C414179   3.014   3.109  11.378  0.4236 -0.3087  0.1484
    2MPD1    C514180   2.923   3.138  11.483 -0.6570  0.0311 -0.9565
    2MPD1     H14181   2.838   3.253  11.132  0.3428  0.3625 -0.1615
    2MPD1    H114182   3.108   3.066  11.412 -0.4570 -0.4902  2.3856
    2MPD1    H214183   2.750   3.207  11.557  1.6922 -2.6892  1.2120
    2MPD1    H314184   2.945   3.099  11.582 -2.2561 -2.0079 -1.4255
    2MPD1     N14185   3.079   3.109  11.153  0.1071  0.0485 -0.4306
    2MPD1    H514186   3.152   3.049  11.187  0.4134 -0.3095 -1.7062
    2MPD1    N114187   2.648   3.294  11.317 -0.0656 -0.4661 -0.8929
    2MPD1    H614188   2.647   3.365  11.244  0.3051 -0.1787 -0.6207
    2MPD1    H714189   2.606   3.334  11.401  0.4828 -1.7200 -0.0217
    3MPD1     C14190   3.162   2.659  10.132  0.0816  0.1119  0.1892
    3MPD1    C114191   3.264   2.636  10.216 -0.2523  0.6071 -0.1423
    3MPD1    C214192   3.270   2.673  10.351 -0.0592  0.4702  0.2799
    3MPD1    C314193   3.165   2.741  10.405 -0.1975 -0.1088 -0.2065
    3MPD1    C414194   3.059   2.765  10.321  0.3074  0.3181 -0.2253
    3MPD1    C514195   3.061   2.730  10.188 -0.3039 -0.0940  1.2214
    3MPD1     H14196   3.360   2.646  10.405 -0.6536 -0.5417  0.7592
    3MPD1    H114197   2.973   2.822  10.354  0.6940  0.2600  0.9024
    3MPD1    H214198   3.160   2.625  10.029 -3.2740 -1.1445  0.6388
    3MPD1    H314199   2.980   2.766  10.125 -0.5578  1.5415  2.4852
    3MPD1     N14200   3.176   2.786  10.542  0.0445  0.3096 -0.1310
    3MPD1    H514201   3.259   2.761  10.595  0.9715  0.8675 -1.3197
    3MPD1    N114202   3.358   2.541  10.171 -0.0883 -0.3007 -0.0636
    3MPD1    H614203   3.447   2.540  10.221 -0.8607 -2.3049  1.2778
    3MPD1    H714204   3.377   2.529  10.072 -0.3853 -1.3327  0.0010
    4MPD2     C14205   3.696   3.397  11.224  0.4809  0.3526  0.7820
    4MPD2    C114206   3.796   3.355  11.307  0.1053 -0.1043  0.3760
    4MPD2    C214207   3.901   3.275  11.254  1.0413 -0.6496 -0.6141
    4MPD2    C314208   3.901   3.253  11.115  0.0718 -0.0071 -0.3870
    4MPD2    C414209   3.798   3.288  11.034 -1.1520  0.6943 -0.0132
    4MPD2    C514210   3.697   3.364  11.089  0.0743  0.5185 -0.0289
    4MPD2     H14211   3.986   3.253  11.318  0.0295 -2.7202  0.0479
    4MPD2    H114212   3.794   3.276  10.926 -0.7224 -0.3660  0.0853
    4MPD2    H214213   3.619   3.464  11.261  2.6431  3.2907 -0.0975
    4MPD2    H314214   3.630   3.415  11.022 -1.4989  0.2991  1.3787
    4MPD2     N14215   4.016   3.204  11.054 -0.5737 -0.5516  0.1043
    4MPD2    H514216   4.009   3.193  10.953  0.1310  1.0796 -0.1128
    4MPD2    N114217   3.803   3.386  11.445 -0.3575 -0.2254 -0.2729
    4MPD2    H714218   3.888   3.361  11.493 -0.0547  1.5390  0.0976
    5TMC3    C114219   3.740   3.444  11.657 -0.1663 -0.1682  0.5366
    5TMC3    C214220   3.643   3.397  11.732 -0.5952 -0.1698 -0.8604
    5TMC3    C314221   3.688   3.316  11.836 -0.6569  0.7633 -0.1930
    5TMC3    C414222   3.873   3.432  11.672 -0.0192 -0.2560 -0.3036
    5TMC3    C514223   3.911   3.341  11.762 -0.8152  0.3398  0.3443
    5TMC3    C614224   3.825   3.294  11.857 -0.8728  0.4206  0.5733
    5TMC3     C14225   3.698   3.434  11.519 -0.3616 -0.4785 -0.9627
    5TMC3     O14226   3.577   3.432  11.498  0.2496  0.4932  0.1974
    5TMC3     H14227   3.538   3.412  11.710 -0.7332  0.5634  0.2952
    5TMC3    H114228   3.947   3.487  11.615 -0.3347 -0.4950 -0.9463
    5TMC3    H214229   3.857   3.258  11.954 -2.3740  0.6964  1.1732
    5TMC3    C714230   3.977   3.230  11.697 -0.4338  0.1006  0.5933
    5TMC3    C814231   3.610   3.204  11.879 -0.1671  0.1050  0.0347
    5TMC3    O114232   4.027   3.255  11.588 -0.2451 -0.1493 -0.0831
    5TMC3    O214233   3.661   3.136  11.968 -0.0706  0.1492 -0.2156
    6TMC3    C114234   3.148   3.042  10.936  0.8757  0.3849 -0.2893
    6TMC3    C214235   3.101   3.017  10.809 -0.0348  0.3797  0.2315
    6TMC3    C314236   3.140   2.898  10.750  0.2875 -0.2075  0.2652
    6TMC3    C414237   3.230   2.956  11.006  0.4062  0.2370  0.4689
    6TMC3    C514238   3.264   2.837  10.946  0.1938  0.5209 -0.5224
    6TMC3    C614239   3.216   2.807  10.818 -0.7265  0.0791 -0.4069
    6TMC3     C14240   3.071   3.130  11.015 -0.2265 -0.2392 -0.2387
    6TMC3     O14241   2.985   3.192  10.953  0.2955 -0.3144 -0.0026
    6TMC3     H14242   3.039   3.088  10.758 -3.3570 -2.7845 -0.1423
    6TMC3    H114243   3.270   2.990  11.101 -2.2900  1.2143  1.2556
    6TMC3    H214244   3.251   2.720  10.764 -3.4231 -0.4178 -1.4002
    6TMC3    C714245   3.396   2.789  10.986 -0.7079  0.5086  0.1416
    6TMC3    C814246   3.094   2.877  10.615 -0.1225 -0.8615  0.1183
    6TMC3    O114247   3.468   2.865  11.052 -0.4407  0.0969  0.2254
    6TMC3    O214248   2.997   2.941  10.569  0.1970 -0.3544 -0.1410
    7MPD2     C14249   3.898   2.755  11.538  0.3084  0.2421  0.0080
    7MPD2    C114250   3.992   2.846  11.493  0.0076 -0.2874  0.1750
    7MPD2    C214251   3.996   2.964  11.557 -0.1494  0.2776  0.4403
    7MPD2    C314252   3.919   2.993  11.671  0.3872 -0.1936  0.0780
    7MPD2    C414253   3.843   2.897  11.727  0.1436  0.9593  0.3544
    7MPD2    C514254   3.825   2.779  11.651  0.5307  0.3040 -0.1695
    7MPD2     H14255   4.065   3.033  11.511 -0.0952  1.4041  2.2021
    7MPD2    H114256   3.770   2.925  11.803  0.1770 -0.8180  1.0569
    7MPD2    H214257   3.868   2.665  11.485 -1.1522 -0.4517  1.9848
    7MPD2    H314258   3.750   2.711  11.689  1.4801  0.7808  2.5312
    7MPD2     N14259   3.920   3.115  11.743 -0.1673  0.5112  0.7779
    7MPD2    H514260   3.863   3.119  11.827  0.6995 -0.4631  1.4296
    7MPD2    N114261   4.063   2.808  11.377 -0.0676 -0.2026 -0.9020
    7MPD2    H714262   4.046   2.722  11.324 -0.8068  0.3719 -1.5964
    8TMC3    C114263   4.207   2.842  11.193 -0.9685 -0.2124 -0.2633
    8TMC3    C214264   4.110   2.775  11.125  0.0659  0.0719  0.3477
    8TMC3    C314265   4.055   2.835  11.020  0.1458  1.3023 -0.0309
    8TMC3    C414266   4.252   2.954  11.134  0.2005 -0.2389 -0.1070
    8TMC3    C514267   4.174   3.031  11.056 -0.2100  0.0181 -0.1765
    8TMC3    C614268   4.080   2.967  10.985 -0.6879 -0.6386  0.1059
    8TMC3     C14269   4.172   2.875  11.327 -0.3287 -0.4727 -0.0885
    8TMC3     O14270   4.235   2.958  11.389 -0.3885  0.1623  0.9493
    8TMC3     H14271   4.078   2.677  11.159 -0.5502  0.4201  0.7788
    8TMC3    H114272   4.322   3.011  11.195 -0.8295  0.9530 -0.0393
    8TMC3    H214273   4.027   3.011  10.902 -0.1476 -0.1364  0.0288
    8TMC3    C714274   4.135   3.162  11.118 -0.9349 -0.5983 -0.5539
    8TMC3    C814275   3.920   2.798  10.980 -0.1085 -0.2841 -0.4205
    8TMC3    O114276   4.191   3.201  11.223  0.4087  0.8326  0.3073
    8TMC3    O214277   3.839   2.881  10.939 -0.0167  0.1629  0.9345
    9MPD2     C14278   3.781   2.460  10.951 -0.1519 -0.0875 -0.1462
    9MPD2    C114279   3.784   2.592  10.960 -0.4972  0.7376 -0.9477
    9MPD2    C214280   3.662   2.661  10.960 -0.4244 -0.2904 -0.5803
    9MPD2    C314281   3.540   2.591  10.947  0.2469  0.1869 -0.2671
    9MPD2    C414282   3.547   2.455  10.921 -0.2491 -0.4992  0.5541
    9MPD2    C514283   3.666   2.392  10.931 -0.0982 -0.2744 -0.4916
    9MPD2     H14284   3.647   2.768  10.964 -0.6060 -0.2827 -1.5280
    9MPD2    H114285   3.453   2.407  10.896  0.5871 -2.3249  0.9018
    9MPD2    H214286   3.871   2.400  10.948 -0.5279 -0.6139 -1.0237
    9MPD2    H314287   3.674   2.286  10.913  1.5336 -0.1803 -0.3479
    9MPD2     N14288   3.416   2.662  10.941  0.0208  0.1611 -0.0807
    9MPD2    H514289   3.339   2.600  10.920 -0.3419  0.3334  0.7574
    9MPD2    N114290   3.906   2.659  10.974  0.3506 -0.3814 -0.1717
    9MPD2    H714291   3.988   2.599  10.980  0.8902  0.6204  2.4544
    1MPD1     C14292   3.483   2.247  17.012  0.0462  0.2796  0.9101
    1MPD1    C114293   3.409   2.252  16.898  0.6770 -0.2133 -0.2204
    1MPD1    C214294   3.378   2.133  16.826 -0.9510  0.2199 -0.2299
    1MPD1    C314295   3.435   2.022  16.876 -0.7005 -0.2970 -0.2883
    1MPD1    C414296   3.528   2.021  16.979 -0.0223  0.1070  0.3887
    1MPD1    C514297   3.538   2.127  17.058  0.3193 -0.6376  0.2558
    1MPD1     H14298   3.304   2.140  16.748 -0.1133 -1.1329 -1.1453
    1MPD1    H114299   3.565   1.931  17.025  0.3647  0.0248 -0.0827
    1MPD1    H214300   3.504   2.339  17.066  1.1268  0.2228  0.5753
    1MPD1    H314301   3.594   2.127  17.151 -0.4382 -2.6848  0.7067
    1MPD1     N14302   3.403   1.899  16.820  0.3453 -0.7266 -0.2666
    1MPD1    H514303   3.461   1.817  16.838 -0.6303 -1.6867 -1.4782
    1MPD1    N114304   3.344   2.371  16.854  0.4322  0.0777  0.1907
    1MPD1    H614305   3.314   2.361  16.758  1.1883  0.6859 -0.1117
    1MPD1    H714306   3.410   2.449  16.865  1.0040 -0.4824  0.7845
    2TMC2    C114307   3.339   1.649  16.480  0.1102  0.2186 -0.1796
    2TMC2    C214308   3.209   1.603  16.478 -0.7684  0.0962  0.3118
    2TMC2    C314309   3.132   1.619  16.589  0.0144  0.3851 -0.1105
    2TMC2    C414310   3.386   1.711  16.588  0.1210 -0.1394  0.2163
    2TMC2    C514311   3.301   1.734  16.695  0.6002 -0.9514 -0.4078
    2TMC2    C614312   3.180   1.677  16.703 -0.4438  0.1159 -0.0684
    2TMC2     C14313   3.421   1.639  16.369  1.0238 -0.0014 -0.0115
    2TMC2     O14314   3.536   1.675  16.376 -0.3605  0.8952 -0.3387
    2TMC2     H14315   3.165   1.554  16.392 -1.3887  0.0864  0.6390
    2TMC2    H114316   3.481   1.763  16.591 -0.3681  0.7781 -0.3604
    2TMC2    H214317   3.114   1.699  16.786  1.2848  0.8184  1.1232
    2TMC2    C714318   3.296   1.878  16.737 -0.4781  0.3911 -1.1717
    2TMC2    C814319   3.019   1.526  16.590 -0.6370 -0.6551 -0.1735
    2TMC2    O114320   3.210   1.950  16.694  0.5700 -0.2960  0.0092
    2TMC2    O214321   3.051   1.405  16.586 -0.1799  0.1974  0.5531
    2TMC2    O514322   2.931   1.578  16.675 -0.0454  0.7745 -0.1917
    2TMC2    H514323   2.929   1.674  16.655 -2.5164  0.2315 -2.6217
    3MPD1     C14324   3.503   1.520  15.875 -0.4790  0.2361  0.0513
    3MPD1    C114325   3.389   1.604  15.881 -0.6734 -0.2892  0.8746
    3MPD1    C214326   3.335   1.633  16.010 -0.1507  0.8993 -0.3133
    3MPD1    C314327   3.398   1.599  16.126 -0.6174 -0.0419 -0.6435
    3MPD1    C414328   3.516   1.523  16.114 -0.7002 -0.2046 -0.1660
    3MPD1    C514329   3.566   1.488  15.996 -0.0989 -0.0515 -0.0334
    3MPD1     H14330   3.246   1.694  16.019 -1.0213 -0.5326  0.7794
    3MPD1    H114331   3.568   1.492  16.204  0.3886  0.3949 -0.5876
    3MPD1    H214332   3.551   1.494  15.782  0.3480  1.3090  0.1845
    3MPD1    H314333   3.655   1.427  15.989  0.6333  1.0537 -0.3172
    3MPD1     N14334   3.349   1.640  16.252 -0.0227 -0.5083  0.4667
    3MPD1    H514335   3.249   1.659  16.253 -0.3526 -2.3198  2.6581
    3MPD1    N114336   3.325   1.644  15.767  0.0183 -0.5359  0.4563
    3MPD1    H614337   3.391   1.657  15.691 -1.5454 -0.9204 -0.9923
    3MPD1    H714338   3.281   1.734  15.785  0.7785 -0.0201 -0.2425
    1TMC1    C114339   2.840   1.270  13.064 -0.1251 -0.4482 -0.6499
    1TMC1    C214340   2.721   1.210  13.034  0.0095  0.0964 -0.7198
    1TMC1    C314341   2.727   1.093  12.972  0.3723 -0.0006 -0.0825
    1TMC1    C414342   2.961   1.215  13.043 -0.0814  0.2601 -0.1643
    1TMC1    C514343   2.963   1.098  12.974  0.2411  0.2252 -0.5339
    1TMC1    C614344   2.845   1.036  12.936 -0.0325  0.3881 -0.0791
    1TMC1     C14345   2.837   1.401  13.119 -0.8287  0.8649  0.3289
    1TMC1     O14346   2.753   1.488  13.081  0.3060  0.3607  0.1045
    1TMC1     H14347   2.630   1.255  13.071  0.9160 -0.3344  2.0249
    1TMC1    H114348   3.054   1.253  13.085 -0.3190  1.9691 -1.2096
    1TMC1    H214349   2.856   0.941  12.885 -1.6643  0.5610 -0.7369
    1TMC1    C714350   3.086   1.046  12.934 -0.4702 -0.2527 -0.2449
    1TMC1    C814351   2.607   1.026  12.941 -0.0625  0.4365  0.0764
    1TMC1    O114352   3.101   0.928  12.907  0.3213 -0.1610 -0.6123
    1TMC1    O214353   2.501   1.085  12.916 -0.2512 -0.1527  0.0362
    1TMC1    O314354   3.151   1.150  12.872  0.1540  0.0126  0.2401
    1TMC1    H314355   3.110   1.239  12.863 -2.5823 -1.2224  0.3918
    1TMC1    O514356   2.617   0.904  12.979  1.2999  0.2282  0.2423
    1TMC1    H514357   2.699   0.897  13.032  3.0314 -2.6191 -2.7876
    2MPD2     C14358   2.898   1.648  13.279  0.2392 -0.1425  0.9180
    2MPD2    C114359   2.926   1.519  13.309  0.1404 -0.4374  0.9165
    2MPD2    C214360   2.957   1.489  13.443  0.2343  0.0731 -0.7153
    2MPD2    C314361   2.968   1.591  13.535 -0.2876 -0.2424 -0.4105
    2MPD2    C414362   2.934   1.719  13.498  0.1697 -0.4624  1.1956
    2MPD2    C514363   2.905   1.757  13.366 -0.3233  0.2577  0.2296
    2MPD2     H14364   2.979   1.387  13.472 -0.4692  0.0080 -0.4036
    2MPD2    H114365   2.945   1.804  13.566  0.1337 -1.3553  2.3157
    2MPD2    H214366   2.874   1.669  13.175 -0.0846  2.5104  1.5173
    2MPD2    H314367   2.890   1.859  13.332 -2.4102 -0.4859 -1.0907
    2MPD2     N14368   3.002   1.556  13.667  0.1984  0.4207  0.4817
    2MPD2    H514369   3.017   1.458  13.684 -0.1858  0.3506  0.4261
    2MPD2    N114370   2.907   1.402  13.233 -0.0467  0.3795  0.5395
    2MPD2    H714371   2.949   1.315  13.266 -2.6578 -1.6860 -1.5594
    3TCq1    O114372   3.097   1.612  14.357 -0.4430  0.4188 -0.2559
    3TCq1    C114373   3.059   1.684  14.251  0.5469  0.2794 -0.4123
    3TCq1    O214374   2.994   1.787  14.257  0.7423  0.2155 -0.3664
    3TCq1    C214375   3.069   1.600  14.132  0.6195  0.4801 -0.2541
    3TCq1    C314376   3.053   1.466  14.149  0.2910  0.1960  0.7451
    3TCq1    C414377   3.035   1.392  14.031  0.9071 -0.4188  0.4117
    3TCq1    C514378   3.047   1.439  13.905 -0.4439 -0.1341 -0.1054
    3TCq1    C614379   3.055   1.579  13.898  0.0526 -0.4690  0.2730
    3TCq1    C714380   3.071   1.657  14.007  0.4765  0.0508 -0.5749
    3TCq1    C814381   3.010   1.643  13.776  0.6717 -0.5114  0.0967
    3TCq1    O414382   3.011   1.763  13.771 -0.0877 -0.4640 -0.3246
    3TCq1    C914383   3.010   1.247  14.046 -0.9026  0.7152 -0.0443
    3TCq1    O514384   3.034   1.199  14.158  0.0916 -0.8264  0.5434
    3TCq1    O614385   2.954   1.193  13.949 -0.0289 -0.1108 -0.0549
    3TCq1    H114386   3.158   1.539  14.333 -0.2629  0.1915  0.8743
    3TCq1    H214387   3.049   1.407  14.240 -1.6897  2.4706  2.1360
    3TCq1    H314388   3.032   1.381  13.815  2.2126  1.8783 -1.8565
    3TCq1    H414389   3.076   1.765  14.001  0.7758  0.1527  1.3135
    1MPD2     C14390   0.587   1.331  15.347 -0.5214  0.2202  0.0578
    1MPD2    C114391   0.615   1.377  15.220 -0.8172 -0.5902  0.1968
    1MPD2    C214392   0.740   1.407  15.183  0.5750  1.2812 -0.4966
    1MPD2    C314393   0.844   1.400  15.270 -0.3243  0.1041 -0.4325
    1MPD2    C414394   0.819   1.356  15.397 -0.2123  0.4587 -0.0445
    1MPD2    C514395   0.691   1.331  15.436  0.4287  0.3890  0.1166
    1MPD2     H14396   0.766   1.440  15.083 -0.5202  0.6902 -0.9839
    1MPD2    H114397   0.900   1.337  15.468  1.5592  0.5380 -2.0516
    1MPD2    H214398   0.486   1.304  15.373 -0.7726  0.6287 -0.5028
    1MPD2    H314399   0.685   1.281  15.533  0.7626  3.6897  1.8306
    1MPD2     N14400   0.966   1.439  15.222  0.3752 -0.2060 -0.0239
    1MPD2    H514401   0.965   1.466  15.124  0.0808  2.4781  0.7137
    1MPD2    N114402   0.506   1.377  15.133  0.3189  0.2457  0.4911
    1MPD2    H714403   0.415   1.358  15.174  0.2854 -0.0323  0.2869
    2TMC3    C114404   0.384   1.410  14.935  0.2908  0.0899 -0.0434
    2TMC3    C214405   0.419   1.381  14.803  0.0054  0.1675 -0.5032
    2TMC3    C314406   0.394   1.474  14.705 -0.7432 -0.0165  0.8267
    2TMC3    C414407   0.307   1.520  14.962 -0.4125  0.3834  0.7972
    2TMC3    C514408   0.268   1.597  14.859 -0.3302 -0.4088  0.5016
    2TMC3    C614409   0.314   1.578  14.729  0.1470 -0.9378  0.1806
    2TMC3     C14410   0.513   1.411  14.999  0.5401  0.3800  0.7407
    2TMC3     O14411   0.613   1.417  14.928 -0.3381  0.2482 -0.1976
    2TMC3     H14412   0.492   1.302  14.789  0.7051  0.4692  1.4672
    2TMC3    H114413   0.280   1.536  15.066 -1.0388  1.2583  0.4992
    2TMC3    H214414   0.307   1.650  14.648  1.0625 -1.4699 -0.3696
    2TMC3    C714415   0.232   1.729  14.892  0.4443 -0.3107  0.5668
    2TMC3    C814416   0.495   1.504  14.605 -0.0578  0.0918  0.2580
    2TMC3    O114417   0.277   1.758  15.002  0.1535  0.1734  0.4178
    2TMC3    O214418   0.467   1.570  14.507  0.0952  0.3337 -0.6150
    3TCq1    O114419   0.480   2.764  15.316 -0.5789  0.1194 -0.0105
    3TCq1    C114420   0.405   2.742  15.213 -0.0931 -0.3106 -0.4425
    3TCq1    O214421   0.314   2.817  15.182  0.4094 -0.0047 -0.4013
    3TCq1    C214422   0.402   2.597  15.193 -0.2304  0.5580  0.0485
    3TCq1    C314423   0.530   2.537  15.189 -0.3650  0.6368  0.2107
    3TCq1    C414424   0.542   2.417  15.124 -0.2487 -0.5590 -0.3591
    3TCq1    C514425   0.436   2.367  15.053  0.0366 -0.8815 -0.1122
    3TCq1    C614426   0.316   2.432  15.052 -0.5246  0.2452 -0.9135
    3TCq1    C714427   0.297   2.546  15.122  0.2155  0.3026 -0.2195
    3TCq1    C814428   0.200   2.370  14.995  0.5758 -0.1327 -0.5075
    3TCq1    O414429   0.092   2.433  14.980  0.5350 -0.1162  0.0957
    3TCq1    C914430   0.667   2.336  15.121 -0.6101  0.2595 -0.2418
    3TCq1    O514431   0.767   2.407  15.155 -0.1307  0.2607  0.3478
    3TCq1    O614432   0.663   2.229  15.057  0.0007  0.5947 -0.3866
    3TCq1    H114433   0.542   2.694  15.347  0.6071  0.7736 -0.9094
    3TCq1    H214434   0.621   2.589  15.216  0.3168  0.7916 -2.4645
    3TCq1    H314435   0.452   2.273  15.000  0.8830 -1.0513  0.4402
    3TCq1    H414436   0.201   2.596  15.125  1.2028  2.0721  2.1600
    4MPD2     C14437   0.033   2.189  14.829 -0.0822  0.0417  0.1217
    4MPD2    C114438   0.135   2.151  14.904 -1.2808 -0.0578 -0.2151
    4MPD2    C214439   0.174   2.021  14.902  0.2752  0.0317  0.6137
    4MPD2    C314440   0.116   1.935  14.813 -0.1553  0.5083 -0.1752
    4MPD2    C414441   0.017   1.975  14.723  0.5435  0.1348  0.1063
    4MPD2    C514442   4.710   2.103  14.744 -0.5838  0.1250 -0.0142
    4MPD2     H14443   0.253   1.985  14.967  0.5814 -1.6286 -0.6922
    4MPD2    H114444   4.719   1.904  14.649  2.3533  0.4629 -1.0880
    4MPD2    H214445   4.732   2.290  14.831 -0.8813 -0.2472 -0.7099
    4MPD2    H314446   4.614   2.124  14.699  0.3317  1.3823 -1.3529
    4MPD2     N14447   0.157   1.795  14.802 -0.1941  0.1464 -0.9009
    4MPD2    H514448   0.128   1.752  14.715  0.0071  0.2714 -1.0314
    4MPD2    N114449   0.219   2.236  14.976  0.3271 -0.0548  0.0829
    4MPD2    H714450   0.293   2.198  15.034 -0.5289 -0.0157  1.2206
    5TMC2    C114451   1.193   1.547  14.960  0.3830  0.2645  0.2440
    5TMC2    C214452   1.288   1.447  14.948  0.5385  0.2886 -1.3674
    5TMC2    C314453   1.344   1.400  15.062 -0.4157  0.3322 -0.0018
    5TMC2    C414454   1.144   1.562  15.090 -0.4988 -0.1333  0.0581
    5TMC2    C514455   1.184   1.489  15.199 -0.2640  0.3046  0.6126
    5TMC2    C614456   1.295   1.412  15.188  0.2114  0.0192  0.1662
    5TMC2     C14457   1.071   1.522  14.886  0.0764 -0.4767  0.4586
    5TMC2     O14458   0.973   1.500  14.953  0.3997  0.4133 -0.2964
    5TMC2     H14459   1.333   1.439  14.850 -0.5062  1.2934 -1.9315
    5TMC2    H114460   1.082   1.647  15.112 -0.5445  0.3470 -1.9794
    5TMC2    H214461   1.317   1.343  15.269 -0.6127 -0.4480 -0.0014
    5TMC2    C714462   1.080   1.439  15.291 -0.1871 -0.2554 -0.1210
    5TMC2    C814463   1.463   1.321  15.035 -0.0204  0.0394 -0.4526
    5TMC2    O114464   1.110   1.395  15.405 -0.2463 -0.3913 -0.7129
    5TMC2    O214465   1.495   1.286  14.923  0.3283  0.3680  0.2489
    5TMC2    O514466   1.524   1.296  15.152 -0.2651 -0.2319  0.0354
    5TMC2    H514467   1.493   1.346  15.230  4.1209 -0.3688  1.8635
    6MPD2     C14468   0.746   1.608  14.495 -0.3315  0.4678 -0.2101
    6MPD2    C114469   0.738   1.534  14.611  0.5898 -0.3461  0.6459
    6MPD2    C214470   0.845   1.512  14.697  0.4787 -0.0162  0.7796
    6MPD2    C314471   0.962   1.572  14.672  0.5862  0.4717 -0.4165
    6MPD2    C414472   0.980   1.640  14.550 -0.0640  0.4058 -0.0928
    6MPD2    C514473   0.876   1.655  14.470 -0.2794  0.3792 -0.1218
    6MPD2     H14474   0.815   1.446  14.777 -0.3720  0.1354  0.5901
    6MPD2    H114475   1.075   1.681  14.520  0.2429 -0.3994 -0.2125
    6MPD2    H214476   0.672   1.623  14.417  1.0449 -1.0007 -1.8190
    6MPD2    H314477   0.885   1.710  14.377 -0.5668  0.9159  0.1671
    6MPD2     N14478   1.081   1.563  14.759 -0.0439 -0.2269  0.1590
    6MPD2    H514479   1.168   1.609  14.734 -0.7775  2.1434  2.0433
    6MPD2    N114480   0.617   1.487  14.659  0.6454  0.1307 -0.0601
    6MPD2    H714481   0.617   1.435  14.746  0.5123 -1.4876 -1.0328
  945NH3     N114482   0.153   3.514   8.148 -0.0073 -0.0091 -0.2804
  945NH3     H214483   0.142   3.420   8.110  0.8601 -1.1435  2.2528
  945NH3     H314484   0.203   3.504   8.236  0.7083 -1.4725 -0.8522
  945NH3     H414485   0.222   3.560   8.091 -1.0748 -0.2935 -1.8017
  946SOD     NA14486   2.158   4.005  16.112  0.1076 -0.1381 -0.5897
  947SOD     NA14487   2.584   1.194  13.713  0.0536  0.0577 -0.0874
  948SOD     NA14488   2.505   1.712   7.746 -0.1937 -0.1658  0.0423
  949SOD     NA14489   4.274   1.593   8.609  0.3004  0.0023  0.3612
  950SOD     NA14490   3.250   4.710   7.199  0.1320 -0.0747 -0.0255
  951SOD     NA14491   1.739   2.688  10.181 -0.2610 -0.4529  0.3917
  952SOD     NA14492   4.330   3.020  16.071  0.0126  0.1118  0.0922
  953SOD     NA14493   1.123   2.555  14.666 -0.4431  0.3324 -0.8408
  954SOL     OW14494   0.518   1.564   5.064  0.0963  0.1779  0.0737
  954SOL    HW114495   0.460   1.638   5.046  0.1144 -0.1138 -1.1802
  954SOL    HW214496   0.486   1.495   5.007  0.7858 -0.2336  0.1773
  955SOL     OW14497   1.310   3.640  10.036  0.8202 -0.0492 -0.4096
  955SOL    HW114498   1.275   3.551  10.029  1.3837 -0.2733 -0.3456
  955SOL    HW214499   1.317   3.651  10.131 -0.1093  0.0027 -0.3453
  956SOL     OW14500   3.862   2.333  17.302 -0.4406 -0.0446  0.6001
  956SOL    HW114501   3.771   2.346  17.328 -0.8187  0.5344 -1.0280
  956SOL    HW214502   3.860   2.244  17.266 -0.8011 -0.1044  0.7603
  957SOL     OW14503   3.116   4.404   5.358  0.3891  0.5644 -0.2955
  957SOL    HW114504   3.160   4.378   5.277  2.3373 -1.6467  1.4691
  957SOL    HW214505   3.056   4.331   5.370 -1.7073  1.7412 -3.6322
  958SOL     OW14506   4.313   1.809   2.000  0.4032 -0.1064 -0.3644
  958SOL    HW114507   4.377   1.863   2.046 -0.4193  0.3218  0.2716
  958SOL    HW214508   4.256   1.879   1.968  1.8757  1.2389 -0.0475
  959SOL     OW14509   0.404   2.227  15.860  0.0624 -0.3202 -0.1201
  959SOL    HW114510   0.312   2.199  15.857  0.2941 -1.1683  0.6401
  959SOL    HW214511   0.444   2.172  15.793  0.3399  0.3985 -0.5494
  960SOL     OW14512   3.502   3.826  17.289  0.0577 -0.3041  0.0851
  960SOL    HW114513   3.534   3.861  17.206  0.7068  0.2325  0.5569
  960SOL    HW214514   3.439   3.890  17.322  0.8121 -0.7697  2.4508
  961SOL     OW14515   1.192   0.052   1.451  0.0477 -0.0583 -0.0588
  961SOL    HW114516   1.138   4.715   1.477  1.6419 -0.7363  1.3186
  961SOL    HW214517   1.131   0.125   1.445  0.9178  0.5858 -1.1969
  962SOL     OW14518   0.282   1.694   5.979 -0.2917 -0.0052 -0.1608
  962SOL    HW114519   0.190   1.692   5.952  0.4734  1.4925 -2.9716
  962SOL    HW214520   0.327   1.688   5.895  1.2594 -0.8666  0.7314
  963SOL     OW14521   4.314   2.157   5.474  0.5556 -0.3351  0.1644
  963SOL    HW114522   4.408   2.166   5.482  0.5781 -1.0647  0.7681
  963SOL    HW214523   4.306   2.105   5.394 -1.6167 -0.5891  0.5249
  964SOL     OW14524   3.203   0.251  13.763 -0.4335  0.2326 -0.1706
  964SOL    HW114525   3.151   0.205  13.698  0.0162 -0.4451 -0.0503
  964SOL    HW214526   3.236   0.182  13.820  0.9257  1.0684  0.0708
  965SOL     OW14527   1.391   4.264   2.548 -0.0763  0.5269  0.0440
  965SOL    HW114528   1.295   4.270   2.544 -0.0799 -0.8704 -2.2683
  965SOL    HW214529   1.402   4.310   2.465 -0.1071  0.7406  0.1587
  966SOL     OW14530   3.075   2.593   7.778  0.8676 -0.2344 -0.0501
  966SOL    HW114531   3.116   2.578   7.863  1.3843 -0.0758 -0.2742
  966SOL    HW214532   3.148   2.623   7.724 -0.4023  1.7430 -0.6611
  967SOL     OW14533   2.193   0.245   2.755 -0.2563 -0.3351 -0.0011
  967SOL    HW114534   2.168   0.173   2.813  0.0224 -0.9126 -0.5951
  967SOL    HW214535   2.176   0.198   2.673  1.4189  0.7847 -0.9965
  968SOL     OW14536   2.634   0.653   0.488 -0.0498 -0.1610 -0.1515
  968SOL    HW114537   2.656   0.683   0.576  1.2892  0.5454 -0.7093
  968SOL    HW214538   2.553   0.698   0.464  2.1049  3.9625  0.2685
  969SOL     OW14539   4.232   2.328   8.924  0.1716 -0.0199  0.4993
  969SOL    HW114540   4.237   2.312   8.830 -2.2553 -1.7661  0.6753
  969SOL    HW214541   4.322   2.336   8.954  1.1220 -1.7321 -1.9072
  970SOL     OW14542   0.548   0.409   0.570  0.4699  0.2717 -0.3871
  970SOL    HW114543   0.611   0.341   0.595  2.2544  2.9103  2.3871
  970SOL    HW214544   0.500   0.418   0.653  1.4958  0.3216  0.2034
  971SOL     OW14545   4.314   3.901   9.501  0.4273 -0.2761 -0.2283
  971SOL    HW114546   4.308   3.844   9.425 -1.6761  0.3134 -0.5010
  971SOL    HW214547   4.405   3.931   9.504 -0.8087  3.4456 -0.4916
  972SOL     OW14548   2.694   2.688   7.258  0.4822  0.1560  0.0324
  972SOL    HW114549   2.713   2.633   7.335 -1.7664  2.0450  1.9375
  972SOL    HW214550   2.714   2.779   7.281 -0.2739  0.7348 -1.6054
  973SOL     OW14551   2.791   1.327   6.789 -0.4162 -0.0394  0.1473
  973SOL    HW114552   2.717   1.341   6.849  0.3272  1.9334  0.5776
  973SOL    HW214553   2.832   1.413   6.796 -1.4768  0.3182  2.2035
  974SOL     OW14554   1.141   0.164   6.753  0.4450  0.4608  0.4092
  974SOL    HW114555   1.098   0.211   6.825  2.1000  1.0154  1.0404
  974SOL    HW214556   1.096   0.080   6.758  0.6034  0.3160 -0.7399
  975SOL     OW14557   0.693   2.775   8.924 -0.0697 -0.2243  0.0983
  975SOL    HW114558   0.771   2.765   8.980 -0.1504 -0.2693  0.2025
  975SOL    HW214559   0.732   2.786   8.837  0.0969  1.5121  0.3964
  976SOL     OW14560   0.317   0.630   3.846  0.1505 -0.2191  0.1622
  976SOL    HW114561   0.381   0.638   3.917 -1.4098 -0.1969  1.5829
  976SOL    HW214562   0.263   0.559   3.879  1.8327 -1.4108  0.3591
  977SOL     OW14563   2.301   0.363  17.332 -0.0159  0.6133 -0.1379
  977SOL    HW114564   2.256   0.394  17.411  0.2445 -1.5023  0.8587
  977SOL    HW214565   2.351   0.438  17.302  0.3944  0.5881  0.4758
  978SOL     OW14566   0.291   1.021   5.600 -0.1870 -0.0207 -0.0311
  978SOL    HW114567   0.294   0.958   5.528  0.0449 -1.3808  1.1670
  978SOL    HW214568   0.257   1.092   5.546  1.0966  0.9513  0.4350
  979SOL     OW14569   1.479   0.397  10.260 -0.0810  0.5233  0.2723
  979SOL    HW114570   1.392   0.357  10.259  0.1807 -0.0642  1.4954
  979SOL    HW214571   1.504   0.380  10.351  0.8533  0.2305 -0.0354
  980SOL     OW14572   3.566   3.335  16.773  0.3739  0.4272  0.3821
  980SOL    HW114573   3.611   3.284  16.706  0.8107 -0.4002  1.2976
  980SOL    HW214574   3.635   3.368  16.830  1.4960  1.1975 -1.4766
  981SOL     OW14575   0.281   0.463  11.269 -0.9758  0.3348  0.0050
  981SOL    HW114576   0.259   0.556  11.263  0.2252  0.7222  1.5258
  981SOL    HW214577   0.310   0.434  11.182  0.4933 -2.8474  1.5506
  982SOL     OW14578   3.019   1.282   1.163 -0.0052  0.5953 -0.1647
  982SOL    HW114579   2.959   1.207   1.156  0.5367  0.2110 -0.6512
  982SOL    HW214580   3.054   1.294   1.075 -2.4244  0.0048 -1.2036
  983SOL     OW14581   1.029   4.212   2.211 -0.6646  0.3349 -0.2157
  983SOL    HW114582   0.995   4.156   2.281 -1.6436 -0.9671 -1.7694
  983SOL    HW214583   1.123   4.192   2.211 -0.6825  0.2658 -0.5267
  984SOL     OW14584   3.299   2.713   6.677  0.0039 -0.3423  0.3562
  984SOL    HW114585   3.223   2.674   6.720 -0.4420  0.9412  0.7248
  984SOL    HW214586   3.310   2.795   6.726 -1.3317  0.2217 -0.2909
  985SOL     OW14587   0.417   1.574   4.288  0.0241 -0.2293  0.3880
  985SOL    HW114588   0.460   1.630   4.224 -3.6427  0.9882 -1.0403
  985SOL    HW214589   0.334   1.623   4.288  0.3928  0.3899  2.2631
  986SOL     OW14590   0.050   2.602   8.868 -0.7972 -0.2891  0.4527
  986SOL    HW114591   0.047   2.576   8.776 -1.3388  2.6479 -0.3647
  986SOL    HW214592   0.058   2.519   8.916 -1.3602 -1.1047 -0.8920
  987SOL     OW14593   0.975   1.436   8.318 -0.7125  0.0134 -0.3692
  987SOL    HW114594   0.921   1.511   8.294 -2.1753 -1.1143 -0.5959
  987SOL    HW214595   0.962   1.367   8.252  1.3962 -0.9484  0.2011
  988SOL     OW14596   3.808   4.134   8.697  0.0303 -0.2810  0.0320
  988SOL    HW114597   3.879   4.071   8.704 -0.8186 -1.3379 -0.9267
  988SOL    HW214598   3.747   4.068   8.729 -1.8296  0.4797 -2.0147
  989SOL     OW14599   4.564   4.478  14.913 -0.0984  0.2688  1.0313
  989SOL    HW114600   4.636   4.525  14.955 -0.7891  0.5180  1.9613
  989SOL    HW214601   4.497   4.541  14.886 -0.4303 -0.9331 -0.9906
  990SOL     OW14602   1.531   4.220   3.010 -0.8084 -0.4046  0.2453
  990SOL    HW114603   1.491   4.218   3.096  3.1846  1.0299  2.1164
  990SOL    HW214604   1.453   4.235   2.956 -0.9394 -3.2878 -0.4033
  991SOL     OW14605   0.440   4.263   7.658 -0.6080 -0.0288 -0.5124
  991SOL    HW114606   0.510   4.201   7.638 -1.9228 -1.5733 -0.3222
  991SOL    HW214607   0.488   4.345   7.649  1.1989 -0.7715  2.2255
  992SOL     OW14608   2.915   2.125   5.061  0.6260  0.1736 -0.1972
  992SOL    HW114609   2.888   2.080   4.981  2.5405  1.9067 -1.8279
  992SOL    HW214610   2.893   2.216   5.038  2.8684 -0.1017 -3.3367
  993SOL     OW14611   4.613   3.339   7.909 -0.3914  0.2912 -0.4218
  993SOL    HW114612   4.681   3.310   7.848 -0.7531 -0.1896 -0.5950
  993SOL    HW214613   4.531   3.322   7.863  1.2324  2.7316 -4.1697
  994SOL     OW14614   2.775   2.056  12.660 -0.0354  0.1371  0.7394
  994SOL    HW114615   2.734   2.023  12.740  2.7558 -2.1845  1.2294
  994SOL    HW214616   2.724   2.012  12.593 -0.2465  0.1709  0.8789
  995SOL     OW14617   1.091   4.581   6.493 -0.3053 -0.1471  1.1259
  995SOL    HW114618   1.010   4.557   6.538 -1.9737 -0.1256 -1.8407
  995SOL    HW214619   1.105   4.670   6.525  1.5508  0.0949 -0.3434
  996SOL     OW14620   3.019   0.787   4.130 -0.6358 -0.0458 -0.1185
  996SOL    HW114621   3.020   0.726   4.204 -2.2033 -1.3424 -1.1482
  996SOL    HW214622   2.926   0.785   4.106 -1.3827  0.1544  2.7085
  997SOL     OW14623   3.180   2.316   2.117  0.3237 -0.1176 -0.8712
  997SOL    HW114624   3.246   2.247   2.123 -1.9668 -2.3995 -2.5293
  997SOL    HW214625   3.124   2.270   2.055  0.5373 -0.3377 -0.8995
  998SOL     OW14626   0.480   2.120   9.744  0.2033  0.0467 -0.1084
  998SOL    HW114627   0.490   2.157   9.831 -0.8889  0.1569 -0.0423
  998SOL    HW214628   0.570   2.087   9.734  0.1036 -1.3067  3.3851
  999SOL     OW14629   3.780   1.153  14.622  0.4696  0.5151  0.1408
  999SOL    HW114630   3.741   1.109  14.697 -0.7273  0.6682 -0.3945
  999SOL    HW214631   3.741   1.240  14.634 -1.1481 -0.3958  1.4041
 1000SOL     OW14632   4.689   3.803   2.482  0.7571  0.1494 -0.1808
 1000SOL    HW114633   4.725   3.715   2.475  1.5761  0.6483 -2.4054
 1000SOL    HW214634   4.645   3.806   2.567 -0.3736 -0.2633 -0.7417
 1001SOL     OW14635   3.554   3.584   1.975 -0.2350 -0.3902  0.1644
 1001SOL    HW114636   3.467   3.611   2.005 -0.2602 -0.1895 -0.0964
 1001SOL    HW214637   3.561   3.499   2.020  1.5602 -0.0996  0.4362
 1002SOL     OW14638   4.548   0.911   1.813 -0.1789  0.0874  0.7102
 1002SOL    HW114639   4.470   0.966   1.818 -1.1886 -1.3698  1.0222
 1002SOL    HW214640   4.616   0.973   1.786  0.3217  0.7458  3.4781
 1003SOL     OW14641   4.272   2.651  10.156 -0.5487 -0.3012 -0.1803
 1003SOL    HW114642   4.279   2.741  10.125 -0.8414 -0.3013 -0.2418
 1003SOL    HW214643   4.286   2.604  10.074 -1.2758 -1.4194  0.3273
 1004SOL     OW14644   2.186   4.509   2.078 -0.3386 -0.1767 -0.1516
 1004SOL    HW114645   2.256   4.517   2.013 -2.3957  0.6927 -2.2685
 1004SOL    HW214646   2.151   4.424   2.055  0.2227 -0.4582  0.0374
 1005SOL     OW14647   0.922   1.314   4.428  0.5643  0.1601 -0.1120
 1005SOL    HW114648   0.858   1.338   4.495  0.3377  1.0183 -0.6311
 1005SOL    HW214649   0.865   1.321   4.352  0.9155 -0.6170 -0.4434
 1006SOL     OW14650   1.660   0.553   3.547  0.1818 -0.2224  0.9611
 1006SOL    HW114651   1.595   0.514   3.605 -0.0884 -0.0106  0.7989
 1006SOL    HW214652   1.726   0.578   3.612  2.4573 -0.1748 -1.3459
 1007SOL     OW14653   0.474   3.789   5.890 -0.3990 -0.1121 -0.0215
 1007SOL    HW114654   0.476   3.831   5.976  1.5041 -0.7031  0.2220
 1007SOL    HW214655   0.461   3.861   5.829  2.0799  1.0446  0.8221
 1008SOL     OW14656   4.044   2.054   1.710 -0.0407 -0.6644 -0.0255
 1008SOL    HW114657   4.065   1.974   1.661  1.5155 -1.4128  1.8806
 1008SOL    HW214658   4.132   2.076   1.739 -0.4762 -0.5060  1.1889
 1009SOL     OW14659   2.768   4.483   4.346  0.1363  0.4100  0.7711
 1009SOL    HW114660   2.787   4.576   4.362  0.1914  0.3417  1.1038
 1009SOL    HW214661   2.802   4.440   4.424  0.0231 -0.7817  0.1515
 1010SOL     OW14662   1.064   0.498   9.250  0.0244 -0.0684 -0.2754
 1010SOL    HW114663   1.013   0.544   9.316  2.2036 -0.6499  1.8123
 1010SOL    HW214664   1.122   0.439   9.299  0.7559  0.8141 -0.0688
 1011SOL     OW14665   4.298   2.392   0.758 -0.0363 -0.0390  0.1776
 1011SOL    HW114666   4.270   2.473   0.800 -3.3134 -0.6235 -0.8331
 1011SOL    HW214667   4.216   2.374   0.712  0.3989  1.6667 -1.2746
 1012SOL     OW14668   4.333   3.850   3.664  0.3447  0.0912  0.0076
 1012SOL    HW114669   4.306   3.823   3.577  0.5813 -0.2460  0.0360
 1012SOL    HW214670   4.383   3.930   3.647  1.1351 -0.3827  0.0825
 1013SOL     OW14671   1.338   0.298   7.159  0.4765  0.0553  0.3502
 1013SOL    HW114672   1.351   0.389   7.132  0.6287 -0.3042 -0.7895
 1013SOL    HW214673   1.391   0.253   7.093 -0.4104 -2.2527  1.2114
 1014SOL     OW14674   4.157   0.207   6.422  0.0289 -0.1405 -0.0290
 1014SOL    HW114675   4.154   0.159   6.339 -1.5422  0.7454 -0.4744
 1014SOL    HW214676   4.250   0.230   6.424  0.4154 -1.5722 -0.9410
 1015SOL     OW14677   2.755   0.390   4.312  0.0083 -0.1320 -0.1555
 1015SOL    HW114678   2.807   0.462   4.349  0.6090 -1.2094  1.1420
 1015SOL    HW214679   2.771   0.322   4.378  0.7152 -0.1655 -0.3634
 1016SOL     OW14680   3.634   2.226   5.813  0.1667  0.6160 -0.5848
 1016SOL    HW114681   3.611   2.319   5.801 -0.3261  0.7159  1.1431
 1016SOL    HW214682   3.680   2.235   5.896  2.1154  2.1018 -1.8111
 1017SOL     OW14683   2.391   1.957   8.660  0.0723  0.5270  0.2571
 1017SOL    HW114684   2.335   1.886   8.693  0.6250  0.2818  0.6719
 1017SOL    HW214685   2.380   1.944   8.566  1.0035  0.4194  0.1644
 1018SOL     OW14686   1.231   4.389   5.868  0.1948 -0.0499 -0.8329
 1018SOL    HW114687   1.297   4.411   5.803  2.0615  4.1288  2.5283
 1018SOL    HW214688   1.184   4.467   5.897 -0.6340 -0.9050  0.1834
 1019SOL     OW14689   0.545   1.576   4.534  0.4006 -0.2728 -0.3315
 1019SOL    HW114690   0.486   1.602   4.605  1.7876  1.3133  0.2642
 1019SOL    HW214691   0.480   1.580   4.465 -2.8361 -0.9356  2.6972
 1020SOL     OW14692   2.085   2.297  11.800 -0.1350 -0.5442 -0.2080
 1020SOL    HW114693   2.028   2.243  11.746 -0.9108 -0.4094  0.4784
 1020SOL    HW214694   2.157   2.237  11.821 -0.8791 -0.9601  1.1432
 1021SOL     OW14695   2.970   2.262   5.741 -0.1111  0.0470  0.1990
 1021SOL    HW114696   2.977   2.328   5.671  1.5208 -1.3822 -0.9945
 1021SOL    HW214697   2.926   2.189   5.696  1.6487  0.1171 -1.6540
 1022SOL     OW14698   0.863   4.277  16.402 -0.0320  0.5417 -0.5203
 1022SOL    HW114699   0.849   4.215  16.331 -0.6163 -1.7842  1.5932
 1022SOL    HW214700   0.872   4.226  16.483 -0.0601  1.2058 -0.1021
 1023SOL     OW14701   2.260   3.663  16.347  0.2449 -0.2410  0.8941
 1023SOL    HW114702   2.236   3.704  16.430  4.4549  3.1406  0.4478
 1023SOL    HW214703   2.315   3.722  16.295 -0.3278  0.6696  1.3064
 1024SOL     OW14704   1.716   3.749  14.277  0.3717 -0.2328  0.1516
 1024SOL    HW114705   1.673   3.739  14.192 -1.2000 -1.2736  1.0679
 1024SOL    HW214706   1.666   3.828  14.296  0.3532 -0.6141  1.6786
 1025SOL     OW14707   4.502   1.449   6.271  0.1450 -0.0860 -0.0992
 1025SOL    HW114708   4.434   1.481   6.211 -0.4326 -1.8308 -0.3691
 1025SOL    HW214709   4.569   1.517   6.273 -0.2600  0.2888  0.4942
 1026SOL     OW14710   4.729   2.236  17.629  0.3980 -0.1720 -0.0810
 1026SOL    HW114711   0.012   2.329  17.615  1.2620 -0.0555  1.8925
 1026SOL    HW214712   0.014   2.231  17.722 -1.3606  0.5632  0.3802
 1027SOL     OW14713   4.255   0.114  16.668 -0.1091  0.0105 -0.4123
 1027SOL    HW114714   4.200   0.144  16.740 -0.5612 -0.0624 -0.7264
 1027SOL    HW214715   4.286   0.197  16.632  1.7411 -0.5759 -0.1950
 1028SOL     OW14716   2.695   2.397   3.854 -0.1821 -0.0946 -0.2518
 1028SOL    HW114717   2.678   2.351   3.937 -1.4530  0.6913 -0.0774
 1028SOL    HW214718   2.645   2.341   3.795 -0.8416 -0.0304  0.2476
 1029SOL     OW14719   0.661   1.720  15.428  0.2122  1.1165 -0.1041
 1029SOL    HW114720   0.688   1.628  15.419  0.4405  1.0951  0.7719
 1029SOL    HW214721   0.656   1.741  15.335 -1.5666 -0.5515 -0.4000
 1030SOL     OW14722   2.428   0.671   4.960 -0.0444  0.0234 -0.2318
 1030SOL    HW114723   2.523   0.671   4.971 -0.4236 -3.7519  3.2740
 1030SOL    HW214724   2.417   0.580   4.931  3.5594 -0.8325  1.0703
 1031SOL     OW14725   1.884   2.722   4.980 -0.3194 -0.4262  0.0522
 1031SOL    HW114726   1.959   2.781   4.970 -1.4370  0.9159 -0.4731
 1031SOL    HW214727   1.857   2.756   5.066 -0.3157  1.1712 -0.5688
 1032SOL     OW14728   1.080   0.144   6.487 -0.1166 -0.2215 -0.3702
 1032SOL    HW114729   1.118   0.222   6.447 -2.7454  1.6484  0.7821
 1032SOL    HW214730   1.126   0.129   6.569 -1.7152 -2.0294  0.1934
 1033SOL     OW14731   3.077   2.388   9.546 -0.3920  0.3282 -0.1206
 1033SOL    HW114732   3.127   2.388   9.628 -1.7581 -2.8584  0.7190
 1033SOL    HW214733   3.046   2.478   9.552  4.5387  2.0001  0.6428
 1034SOL     OW14734   3.583   1.501   4.515 -0.6128  0.2808 -0.3875
 1034SOL    HW114735   3.554   1.410   4.515  1.4189 -0.3805 -0.8448
 1034SOL    HW214736   3.673   1.495   4.482 -0.0937 -0.2034  1.1241
 1035SOL     OW14737   2.710   1.504   6.416 -0.3935 -0.1650 -0.6471
 1035SOL    HW114738   2.659   1.584   6.433 -1.8819 -1.7597  2.3032
 1035SOL    HW214739   2.779   1.516   6.480 -0.4478 -1.4313 -0.3516
 1036SOL     OW14740   0.282   2.591   9.556  0.6107 -0.9544  0.2023
 1036SOL    HW114741   0.256   2.609   9.646  1.2070 -0.0880  0.1981
 1036SOL    HW214742   0.229   2.515   9.531  0.3466 -1.2823  1.7452
 1037SOL     OW14743   0.475   2.442   5.719 -0.1633 -0.1646  0.0517
 1037SOL    HW114744   0.432   2.410   5.799  0.7895 -2.3706 -0.3154
 1037SOL    HW214745   0.463   2.534   5.739  0.5972 -0.2371  0.8126
 1038SOL     OW14746   0.889   2.940   3.872  0.2746 -0.3121 -0.2590
 1038SOL    HW114747   0.809   2.976   3.909  1.3997  0.2222  1.6565
 1038SOL    HW214748   0.902   3.015   3.813 -2.9544  1.1792  0.9389
 1039SOL     OW14749   0.078   4.315  15.508  0.7074 -0.2990  0.1081
 1039SOL    HW114750   0.090   4.402  15.548  1.1050 -0.0821 -0.4796
 1039SOL    HW214751   0.171   4.294  15.496  0.1749 -1.8372 -1.1907
 1040SOL     OW14752   0.723   1.970   9.559 -0.0174 -0.2330 -0.1745
 1040SOL    HW114753   0.714   1.915   9.637  2.5082 -1.9593 -1.0971
 1040SOL    HW214754   0.745   1.903   9.494  1.4699  1.5178 -1.4850
 1041SOL     OW14755   0.999   3.958   3.488  0.1053  0.0495 -0.5864
 1041SOL    HW114756   0.964   4.025   3.547 -0.3215 -0.6460 -0.0525
 1041SOL    HW214757   0.965   3.875   3.522  0.4508 -0.0319 -0.4390
 1042SOL     OW14758   3.677   1.157   9.085  0.5892  0.4665 -0.0039
 1042SOL    HW114759   3.731   1.078   9.089  1.0927  0.8656  1.1153
 1042SOL    HW214760   3.665   1.172   9.179  0.3212 -0.0305  0.0433
 1043SOL     OW14761   0.305   2.115  10.872 -0.4041 -0.3121 -0.4906
 1043SOL    HW114762   0.228   2.148  10.918 -0.9735 -0.6892 -1.1878
 1043SOL    HW214763   0.264   2.054  10.812 -2.5638  1.5463 -0.9023
 1044SOL     OW14764   2.927   4.495   9.500 -0.5642  0.0446  0.5489
 1044SOL    HW114765   2.921   4.591   9.498 -3.1847 -0.1356  0.2678
 1044SOL    HW214766   2.978   4.482   9.420 -0.0552 -1.8517  1.1858
 1045SOL     OW14767   2.124   1.733  14.029  0.2167  0.8112  0.4784
 1045SOL    HW114768   2.086   1.680  13.960 -0.0953  0.1876  1.1309
 1045SOL    HW214769   2.045   1.760  14.076 -0.3671  0.9464 -0.5973
 1046SOL     OW14770   0.284   4.097   1.138  0.1153 -0.6892  0.7433
 1046SOL    HW114771   0.368   4.131   1.110 -0.6937  0.3021 -0.4614
 1046SOL    HW214772   0.312   4.010   1.165  1.7104 -0.4917 -0.2992
 1047SOL     OW14773   0.375   2.111   6.767 -0.1339 -0.1725 -0.2087
 1047SOL    HW114774   0.286   2.138   6.743 -0.7805  1.5565  4.1231
 1047SOL    HW214775   0.401   2.041   6.707  2.7736  0.6528  0.1116
 1048SOL     OW14776   4.536   1.140  16.878 -0.5369 -0.3294  0.5697
 1048SOL    HW114777   4.554   1.156  16.971  0.4105 -0.2330  0.3639
 1048SOL    HW214778   4.495   1.053  16.874 -1.0658 -0.2773  4.6241
 1049SOL     OW14779   2.976   4.097   4.832 -0.4299  0.1686 -0.1517
 1049SOL    HW114780   2.943   4.041   4.762  1.0096 -0.0801 -0.6258
 1049SOL    HW214781   2.899   4.123   4.883  0.1189  1.7289 -0.1124
 1050SOL     OW14782   0.258   0.179   7.215 -0.1347  0.2814  0.1618
 1050SOL    HW114783   0.214   0.255   7.252 -0.2992  0.5359 -0.5680
 1050SOL    HW214784   0.187   0.148   7.159  1.0908 -0.6953 -0.8669
 1051SOL     OW14785   3.674   2.876   4.989 -0.1744 -0.3620  0.6758
 1051SOL    HW114786   3.651   2.794   5.034  2.9487 -2.2343 -1.1702
 1051SOL    HW214787   3.594   2.926   5.005 -1.2283 -1.8617  0.1937
 1052SOL     OW14788   3.894   0.473   8.898 -0.3635  0.3363 -0.4306
 1052SOL    HW114789   3.860   0.384   8.904 -0.1965  0.2414 -0.9060
 1052SOL    HW214790   3.985   0.469   8.868 -0.4506  2.7754 -1.0281
 1053SOL     OW14791   0.522   3.294   7.158 -0.9710 -0.5714  0.1045
 1053SOL    HW114792   0.431   3.322   7.173 -1.0952 -2.4805  2.9833
 1053SOL    HW214793   0.511   3.215   7.105 -2.1798 -1.6980  2.0429
 1054SOL     OW14794   3.867   2.942   1.668 -0.6748 -0.2145 -0.3825
 1054SOL    HW114795   3.832   2.884   1.600  0.7697 -0.0449 -1.2815
 1054SOL    HW214796   3.919   3.001   1.613 -2.8607  0.2694 -1.9568
 1055SOL     OW14797   4.203   1.578   0.536 -0.0139  0.2402 -0.1380
 1055SOL    HW114798   4.111   1.582   0.564  0.2655 -0.8143  0.9527
 1055SOL    HW214799   4.236   1.668   0.542 -1.0612  0.5882  0.5140
 1056SOL     OW14800   2.990   2.832  13.923 -0.7888  0.0736  0.3288
 1056SOL    HW114801   3.079   2.801  13.908 -0.8010  0.3734 -0.3512
 1056SOL    HW214802   2.938   2.756  13.896  2.3436 -0.8528 -2.9980
 1057SOL     OW14803   3.137   1.466   5.022 -0.3260  0.3303 -0.4256
 1057SOL    HW114804   3.128   1.505   4.936 -1.9839  1.5035  0.2803
 1057SOL    HW214805   3.049   1.429   5.033 -0.8680  1.4034 -1.1447
 1058SOL     OW14806   0.678   1.727   5.795 -0.8356 -0.0030  0.2355
 1058SOL    HW114807   0.720   1.813   5.793  0.2587 -0.5427 -0.0969
 1058SOL    HW214808   0.713   1.690   5.877 -0.6339 -0.8842 -0.2473
 1059SOL     OW14809   1.595   3.195   3.778  0.3052 -0.2815 -0.3938
 1059SOL    HW114810   1.624   3.151   3.698  0.7908  0.8693 -0.8415
 1059SOL    HW214811   1.586   3.117   3.833 -2.1818  0.8870  0.9004
 1060SOL     OW14812   1.667   1.162   3.708  0.7868  0.3132 -0.1592
 1060SOL    HW114813   1.619   1.237   3.673 -0.1390 -0.9323 -1.5611
 1060SOL    HW214814   1.657   1.096   3.640 -0.0418  1.1611 -0.8550
 1061SOL     OW14815   4.148   2.846   8.373 -0.2690 -0.4544  0.2260
 1061SOL    HW114816   4.118   2.931   8.339 -0.8610 -0.6903  0.1535
 1061SOL    HW214817   4.235   2.843   8.334 -0.3030 -0.8454  0.1871
 1062SOL     OW14818   1.548   0.033  15.771  0.0693 -0.3576  0.0932
 1062SOL    HW114819   1.472   4.714  15.760  0.2949 -0.7648  0.6020
 1062SOL    HW214820   1.521   0.113  15.727 -1.6309  0.2708  2.2792
 1063SOL     OW14821   1.333   0.547   1.597  0.3276 -0.0658  0.1154
 1063SOL    HW114822   1.299   0.523   1.684  1.0203  0.6112  0.5765
 1063SOL    HW214823   1.343   0.466   1.548 -1.7521  0.7002 -1.5728
 1064SOL     OW14824   3.968   1.647   0.342 -0.2395  0.5141  0.4290
 1064SOL    HW114825   3.967   1.691   0.427 -0.7629  0.6257  0.3660
 1064SOL    HW214826   4.000   1.716   0.284  2.0641 -1.8966 -1.1369
 1065SOL     OW14827   0.814   3.403   5.803 -0.5385 -0.2897  0.0047
 1065SOL    HW114828   0.762   3.437   5.875  1.0239 -1.3097  1.5925
 1065SOL    HW214829   0.797   3.471   5.737 -0.6985 -0.9568 -0.6464
 1066SOL     OW14830   4.036   0.708   5.848 -0.4307  0.6567  0.5443
 1066SOL    HW114831   4.059   0.800   5.860  1.7005  0.1972  0.0472
 1066SOL    HW214832   4.092   0.676   5.776  0.9280 -1.0587  2.3694
 1067SOL     OW14833   4.027   1.217   3.912 -0.0954  0.3228 -0.0461
 1067SOL    HW114834   4.063   1.147   3.857  0.5252 -0.2029  1.0292
 1067SOL    HW214835   4.048   1.185   4.000  1.2814 -0.3562 -0.6245
 1068SOL     OW14836   2.839   3.150   5.901  0.2226  0.0108  0.6848
 1068SOL    HW114837   2.923   3.135   5.857  0.0924 -1.5069  0.9436
 1068SOL    HW214838   2.872   3.132   5.989 -0.7173  1.5781  1.3480
 1069SOL     OW14839   4.610   2.048  15.213  0.1782  0.1519 -0.0332
 1069SOL    HW114840   4.603   2.053  15.308 -0.9410 -0.6694 -0.0714
 1069SOL    HW214841   4.622   2.141  15.195 -4.4197  0.2201 -2.6977
 1070SOL     OW14842   0.834   1.638   1.504 -0.2541  0.0896  0.7800
 1070SOL    HW114843   0.909   1.594   1.464  0.5478  2.2733 -0.0653
 1070SOL    HW214844   0.766   1.603   1.446 -0.8699  0.0311  1.5411
 1071SOL     OW14845   0.794   1.994   4.257 -0.2983 -0.8189 -0.1529
 1071SOL    HW114846   0.799   2.060   4.327  0.9340  0.4632 -1.4437
 1071SOL    HW214847   0.863   2.028   4.200  0.5852 -0.3648  1.1813
 1072SOL     OW14848   3.514   0.164   7.910  0.0562 -0.1911 -0.2803
 1072SOL    HW114849   3.590   0.189   7.857  1.1689  0.2537  1.5327
 1072SOL    HW214850   3.558   0.102   7.968 -0.9161  1.9951  2.8137
 1073SOL     OW14851   2.270   2.324  14.244  0.0600  0.0467  0.2241
 1073SOL    HW114852   2.347   2.319  14.189  2.2268  0.3847  3.2349
 1073SOL    HW214853   2.203   2.289  14.185 -0.2792  2.9258 -1.0869
 1074SOL     OW14854   2.056   2.021  14.295 -0.1438 -0.5745  0.1920
 1074SOL    HW114855   2.051   2.058  14.207 -1.5590 -2.1558 -0.3921
 1074SOL    HW214856   2.151   2.030  14.307 -0.0837 -0.1859 -0.5884
 1075SOL     OW14857   4.425   2.842   4.778  0.4924 -0.4039  0.1297
 1075SOL    HW114858   4.469   2.912   4.826  1.5457 -1.4027  0.6281
 1075SOL    HW214859   4.456   2.762   4.822 -3.1186 -1.2249  1.1272
 1076SOL     OW14860   2.710   3.652   3.624 -0.1099 -0.2433 -0.3176
 1076SOL    HW114861   2.615   3.664   3.628 -0.0090  0.4617 -0.0226
 1076SOL    HW214862   2.730   3.685   3.537  1.1777  1.0915  0.4652
 1077SOL     OW14863   3.414   2.489  12.997  0.2133 -0.1898  0.1520
 1077SOL    HW114864   3.441   2.480  13.089 -1.2632  0.1504  0.6245
 1077SOL    HW214865   3.320   2.472  12.991  0.3144 -0.6173 -0.2081
 1078SOL     OW14866   2.164   0.414   0.734  0.5235  0.3285  0.6594
 1078SOL    HW114867   2.088   0.369   0.768  0.7570 -0.6502 -0.1107
 1078SOL    HW214868   2.217   0.341   0.702  0.2734  0.1092  0.7565
 1079SOL     OW14869   4.700   2.469   3.096 -0.1541  0.0295 -0.0773
 1079SOL    HW114870   4.649   2.538   3.139 -1.7113 -1.1778  0.0435
 1079SOL    HW214871   4.630   2.432   3.042  0.3870  1.3658 -1.6694
 1080SOL     OW14872   4.246   3.934   4.788  0.0430 -0.2948  0.7403
 1080SOL    HW114873   4.187   4.009   4.798  0.8200  0.6446 -1.8773
 1080SOL    HW214874   4.231   3.894   4.874  1.9945 -0.0370  1.2028
 1081SOL     OW14875   4.257   2.713  13.034 -0.0863  0.0275 -0.1249
 1081SOL    HW114876   4.244   2.776  12.963 -2.2649  0.7277  0.8923
 1081SOL    HW214877   4.294   2.643  12.981  0.6392 -0.3176  0.8282
 1082SOL     OW14878   1.978   3.897  13.469  0.5681 -0.2855 -0.2459
 1082SOL    HW114879   1.970   3.867  13.559  1.2400 -2.0692 -0.7935
 1082SOL    HW214880   1.962   3.818  13.418  2.9957 -0.0700 -1.3339
 1083SOL     OW14881   0.927   3.310  17.059  0.4021 -0.0371  0.6331
 1083SOL    HW114882   0.938   3.359  16.978  0.4821  1.4107  1.5155
 1083SOL    HW214883   0.879   3.230  17.039  1.1630 -0.3606  0.1491
 1084SOL     OW14884   2.334   4.147   8.234  0.1509  0.4174  0.0842
 1084SOL    HW114885   2.352   4.148   8.329  2.2266  2.8967 -0.3224
 1084SOL    HW214886   2.258   4.090   8.225  1.0908 -1.0865  1.6793
 1085SOL     OW14887   4.566   0.700   4.617  0.4024 -0.2827  0.0453
 1085SOL    HW114888   4.614   0.625   4.581 -2.2178 -1.5665 -0.7886
 1085SOL    HW214889   4.638   0.756   4.646 -0.5679 -0.2888  2.4284
 1086SOL     OW14890   4.619   1.068  12.537 -0.1242  0.3123  0.0274
 1086SOL    HW114891   4.631   1.123  12.459  0.3365 -2.3289 -1.7833
 1086SOL    HW214892   4.530   1.038  12.519 -0.1685  1.0178 -0.9210
 1087SOL     OW14893   1.537   3.994   9.780 -0.5080  0.3569  0.2071
 1087SOL    HW114894   1.548   3.993   9.875 -0.1626 -2.6736  0.1104
 1087SOL    HW214895   1.610   4.049   9.751 -0.5928 -0.2662 -1.1847
 1088SOL     OW14896   3.256   0.406   9.454 -0.3067  0.3665  0.2543
 1088SOL    HW114897   3.245   0.434   9.545 -0.0624 -1.2189  0.7677
 1088SOL    HW214898   3.166   0.376   9.440 -0.0886  0.4974 -1.3904
 1089SOL     OW14899   2.453   3.575   4.697 -0.1566 -0.3649  0.2074
 1089SOL    HW114900   2.415   3.500   4.651 -1.5652  1.5077 -1.6351
 1089SOL    HW214901   2.538   3.574   4.652 -0.3373  0.2896 -0.1401
 1090SOL     OW14902   4.059   3.270   2.542 -0.1550 -0.6881  0.3698
 1090SOL    HW114903   3.969   3.238   2.537 -1.2742  2.5040  0.2480
 1090SOL    HW214904   4.045   3.359   2.511  0.9772 -0.6981 -0.1497
 1091SOL     OW14905   4.694   2.859   4.517 -0.0602  0.2178 -0.5502
 1091SOL    HW114906   4.615   2.846   4.464 -0.5841 -0.0239  0.2827
 1091SOL    HW214907   4.690   2.783   4.575 -4.1495  0.6127 -0.2684
 1092SOL     OW14908   0.357   1.813  13.449 -0.1612 -0.8770  0.0384
 1092SOL    HW114909   0.284   1.872  13.431 -0.0681 -0.1605  1.9997
 1092SOL    HW214910   0.411   1.803  13.370 -1.1427 -1.9752 -0.5032
 1093SOL     OW14911   2.622   3.231   9.031 -0.0627  0.3150 -0.0999
 1093SOL    HW114912   2.699   3.187   9.067 -0.1914  1.2384  1.3123
 1093SOL    HW214913   2.619   3.198   8.942  0.1891 -0.2320  0.0980
 1094SOL     OW14914   2.711   2.446  17.449  0.1510 -0.0828  0.6499
 1094SOL    HW114915   2.634   2.425  17.395 -1.8741  2.4083  2.5713
 1094SOL    HW214916   2.679   2.515  17.507  2.9487  0.5524  1.4032
 1095SOL     OW14917   4.512   3.850   5.014 -0.1761 -0.2571  0.6884
 1095SOL    HW114918   4.591   3.841   4.960 -1.2930 -0.0588 -0.9856
 1095SOL    HW214919   4.529   3.799   5.094  1.8250  1.1961  1.1922
 1096SOL     OW14920   0.705   2.977   6.549 -0.1499  0.0314 -0.2594
 1096SOL    HW114921   0.724   2.988   6.456 -1.1838  0.5548 -0.4011
 1096SOL    HW214922   0.658   2.894   6.560  0.0555  0.1749  1.8168
 1097SOL     OW14923   1.074   3.571   8.410  0.2973  0.1600 -0.0413
 1097SOL    HW114924   0.987   3.596   8.442  1.3496  1.4797  1.7995
 1097SOL    HW214925   1.126   3.631   8.464  1.1472  1.1308 -1.9680
 1098SOL     OW14926   4.490   3.951  12.981 -0.2609  0.2179 -0.2634
 1098SOL    HW114927   4.561   3.888  12.991 -2.1496 -1.7307  0.9999
 1098SOL    HW214928   4.520   4.030  13.025 -2.8519  1.3256 -0.4593
 1099SOL     OW14929   3.418   4.083   1.676 -0.3108  0.1550 -0.9236
 1099SOL    HW114930   3.471   4.004   1.670 -1.0347 -0.4241  0.3305
 1099SOL    HW214931   3.368   4.074   1.595  0.0951 -1.4947 -0.9855
 1100SOL     OW14932   3.326   0.837   4.354 -0.0843  0.3336 -0.1436
 1100SOL    HW114933   3.316   0.887   4.273 -2.6103 -0.5229 -0.3476
 1100SOL    HW214934   3.371   0.899   4.411 -0.4481  0.6560 -0.2053
 1101SOL     OW14935   3.229   4.071   6.653  0.0099 -0.2293 -0.3168
 1101SOL    HW114936   3.182   4.154   6.662  0.2822 -0.3212  2.0527
 1101SOL    HW214937   3.316   4.111   6.646  0.7722 -1.8451  0.1174
 1102SOL     OW14938   0.300   1.175   2.954 -0.1098 -0.1551  0.1735
 1102SOL    HW114939   0.270   1.231   2.883  0.8940  1.6150  1.1290
 1102SOL    HW214940   0.309   1.091   2.910 -1.2443 -0.0614 -0.2285
 1103SOL     OW14941   3.348   2.686   5.919  0.1557 -0.0225  0.2667
 1103SOL    HW114942   3.252   2.682   5.916  0.1515 -0.5190  1.2748
 1103SOL    HW214943   3.372   2.653   6.005 -1.7095  1.6608  1.4541
 1104SOL     OW14944   2.792   0.456   6.271  0.1850 -0.1134 -0.5516
 1104SOL    HW114945   2.748   0.522   6.217 -1.1112  0.0331  0.6745
 1104SOL    HW214946   2.834   0.417   6.194 -2.0123 -1.0165 -1.2793
 1105SOL     OW14947   0.517   1.269  13.484  0.0590  0.1714  0.0164
 1105SOL    HW114948   0.564   1.265  13.567  0.2266  1.7568  0.0019
 1105SOL    HW214949   0.470   1.351  13.496  0.8352  0.4926  0.7856
 1106SOL     OW14950   2.502   0.721  13.757 -0.7360 -0.1332  0.4056
 1106SOL    HW114951   2.524   0.642  13.807  0.0728 -0.7124 -0.8744
 1106SOL    HW214952   2.456   0.682  13.683 -0.1504 -0.9285  0.4538
 1107SOL     OW14953   1.470   1.255   2.139  0.1246 -0.1891 -0.0555
 1107SOL    HW114954   1.423   1.174   2.120 -0.8138  0.6819 -1.4406
 1107SOL    HW214955   1.412   1.284   2.209  2.4164  2.9691  0.5382
 1108SOL     OW14956   0.611   3.981   3.921 -0.1129 -0.2445 -1.2950
 1108SOL    HW114957   0.649   4.049   3.977  2.5371 -2.6772 -0.1556
 1108SOL    HW214958   0.609   3.914   3.990 -0.3708  0.5950 -0.4887
 1109SOL     OW14959   4.568   0.239   7.281 -0.6310 -0.0073  0.4591
 1109SOL    HW114960   4.539   0.149   7.296 -0.5772 -0.2891 -1.0481
 1109SOL    HW214961   4.598   0.256   7.370 -0.1549  1.6280 -0.0191
 1110SOL     OW14962   4.175   4.451   7.574 -0.3847  0.0539  0.2863
 1110SOL    HW114963   4.230   4.491   7.507 -1.0517 -1.0549 -0.9200
 1110SOL    HW214964   4.136   4.386   7.515 -1.4555  1.3900 -0.4651
 1111SOL     OW14965   3.639   4.566   7.130  0.0744  0.2502  0.4484
 1111SOL    HW114966   3.725   4.597   7.160  1.5172 -4.1636  0.8885
 1111SOL    HW214967   3.654   4.476   7.102 -0.3794  0.6275 -0.9952
 1112SOL     OW14968   2.795   3.193   6.531 -0.0662  0.5985 -0.0633
 1112SOL    HW114969   2.739   3.187   6.609  0.8176 -0.4601  0.4757
 1112SOL    HW214970   2.728   3.215   6.467  1.0446 -1.1716 -1.8223
 1113SOL     OW14971   0.498   1.714   9.688 -0.1820  0.0232  0.3379
 1113SOL    HW114972   0.514   1.634   9.736 -1.7373 -1.1133 -1.0246
 1113SOL    HW214973   0.556   1.775   9.735  1.1148 -0.3207 -0.8133
 1114SOL     OW14974   2.950   3.990   2.246  0.1474 -0.1773 -0.2180
 1114SOL    HW114975   2.868   4.037   2.267  0.4271 -0.2671  1.0481
 1114SOL    HW214976   2.908   3.904   2.247 -0.9268  0.3436 -0.1601
 1115SOL     OW14977   2.990   0.629  13.726  0.0826 -0.2541 -0.3775
 1115SOL    HW114978   3.070   0.603  13.772  1.3264  2.7426 -0.8638
 1115SOL    HW214979   2.972   0.556  13.665  1.3168 -0.7707 -0.1240
 1116SOL     OW14980   2.364   4.344   4.759  0.1288  0.0947  0.2358
 1116SOL    HW114981   2.291   4.402   4.736  0.1569  0.0334 -0.0117
 1116SOL    HW214982   2.338   4.267   4.709  1.2949  0.3416 -0.7417
 1117SOL     OW14983   1.969   2.784   2.732 -0.4701 -0.1504  0.4677
 1117SOL    HW114984   1.987   2.868   2.774 -1.6289 -1.0822  2.7801
 1117SOL    HW214985   2.020   2.802   2.652 -1.6543 -1.7554 -0.6422
 1118SOL     OW14986   2.775   1.440  15.587 -0.6266  0.4573  0.4046
 1118SOL    HW114987   2.721   1.477  15.517 -2.5921  0.4981  1.9196
 1118SOL    HW214988   2.781   1.512  15.650  0.7584  1.8145 -1.2991
 1119SOL     OW14989   2.065   0.993   6.797  0.1728 -0.2439  0.4127
 1119SOL    HW114990   2.133   0.929   6.778  0.6750  0.4323 -0.1047
 1119SOL    HW214991   2.012   0.981   6.718  1.4263 -0.9610 -0.3178
 1120SOL     OW14992   1.950   1.920  15.355  0.3865  0.8559  0.2150
 1120SOL    HW114993   1.891   1.847  15.337  1.6715 -0.1199 -0.0513
 1120SOL    HW214994   1.958   1.905  15.449  2.5212  0.2614 -0.0439
 1121SOL     OW14995   4.067   4.604  11.494  0.2787  0.0870 -0.4759
 1121SOL    HW114996   4.144   4.595  11.437  0.8730 -1.5675  0.5755
 1121SOL    HW214997   4.086   4.680  11.549 -0.0312 -1.4014  1.6847
 1122SOL     OW14998   3.516   0.444   3.172 -0.3910  0.3464 -0.0939
 1122SOL    HW114999   3.480   0.533   3.174  1.2628  0.9965  0.9386
 1122SOL    HW215000   3.588   0.455   3.234  0.3113 -0.4812 -0.7627
 1123SOL     OW15001   2.379   0.441   2.820 -0.3778  0.0808 -0.4130
 1123SOL    HW115002   2.323   0.366   2.802 -0.8418  0.5372 -0.8572
 1123SOL    HW215003   2.367   0.464   2.913 -2.5298  3.1373 -1.4279
 1124SOL     OW15004   2.088   3.089  12.278  0.2418  0.2110 -0.1160
 1124SOL    HW115005   2.039   3.163  12.241 -1.5184 -0.3152  1.1643
 1124SOL    HW215006   2.095   3.044  12.194 -0.9075 -1.2382  0.5780
 1125SOL     OW15007   0.318   2.793  13.213  0.4300 -0.4966  0.0420
 1125SOL    HW115008   0.372   2.737  13.270 -0.0217 -0.6989  0.2772
 1125SOL    HW215009   0.342   2.767  13.124  0.1450 -0.2113 -0.1184
 1126SOL     OW15010   0.054   4.044   4.126  0.3354  0.2037  0.1683
 1126SOL    HW115011   4.737   4.066   4.052  0.2998 -1.7307 -0.3652
 1126SOL    HW215012   4.729   4.041   4.198  1.6284  1.3783  1.3668
 1127SOL     OW15013   4.102   1.894  10.218  0.1115  0.2578  0.1816
 1127SOL    HW115014   4.131   1.807  10.245  1.2620  1.0186  1.4052
 1127SOL    HW215015   4.069   1.921  10.303 -1.4118 -0.3447 -0.2103
 1128SOL     OW15016   0.462   1.069   8.274 -0.1246 -0.2676  0.3719
 1128SOL    HW115017   0.441   0.987   8.319 -1.7337  0.7367  1.4552
 1128SOL    HW215018   0.554   1.047   8.261 -0.5592 -0.7774 -1.7326
 1129SOL     OW15019   2.872   0.812   5.501  0.6596 -0.1862  0.1165
 1129SOL    HW115020   2.919   0.810   5.584  1.0095  0.2371 -0.0708
 1129SOL    HW215021   2.947   0.813   5.442  0.2898  0.8763 -0.3328
 1130SOL     OW15022   1.258   3.691   9.480 -0.2941 -0.0287  0.4499
 1130SOL    HW115023   1.317   3.736   9.541  0.4068 -0.9244  0.4448
 1130SOL    HW215024   1.298   3.717   9.398 -0.1577 -0.5339  0.3547
 1131SOL     OW15025   2.907   3.733   3.821 -0.2549  0.1521 -0.3146
 1131SOL    HW115026   2.837   3.722   3.757  1.2047 -4.7072 -1.1241
 1131SOL    HW215027   2.858   3.684   3.888  0.7673  1.1326  1.1634
 1132SOL     OW15028   3.458   2.640  14.789 -0.5033 -0.2595 -0.1183
 1132SOL    HW115029   3.378   2.606  14.749 -0.1102 -1.3632  0.0236
 1132SOL    HW215030   3.462   2.731  14.761 -1.0213 -0.1242  0.2489
 1133SOL     OW15031   0.575   4.555  15.071  0.2310 -0.2741  0.3387
 1133SOL    HW115032   0.572   4.519  15.159  0.9011 -1.4323 -0.1143
 1133SOL    HW215033   0.494   4.533  15.026  1.1595 -2.8029 -0.1170
 1134SOL     OW15034   4.472   2.033   8.630  0.1153  0.6623  0.3243
 1134SOL    HW115035   4.419   2.112   8.646  0.2993  0.8845 -0.1567
 1134SOL    HW215036   4.509   2.060   8.546  0.0707 -2.9521 -0.8527
 1135SOL     OW15037   3.838   3.772  14.590 -0.2198  0.2541 -0.0604
 1135SOL    HW115038   3.920   3.805  14.626 -0.1947  0.3205 -0.1794
 1135SOL    HW215039   3.878   3.735  14.511  1.5414  0.2412  0.8416
 1136SOL     OW15040   3.331   4.490  15.311 -0.4104  0.0511  0.2857
 1136SOL    HW115041   3.382   4.550  15.256 -2.6082  0.9732 -0.7160
 1136SOL    HW215042   3.396   4.419  15.318 -1.2711 -0.6357  1.2696
 1137SOL     OW15043   0.080   3.036   2.523  0.0459 -0.2816 -0.0346
 1137SOL    HW115044   0.019   2.964   2.507  0.3352 -0.4908 -0.2166
 1137SOL    HW215045   0.132   3.039   2.442  0.8661 -0.9654  0.4670
 1138SOL     OW15046   1.686   3.048   3.562 -0.4970 -0.1817  0.2632
 1138SOL    HW115047   1.733   3.072   3.482 -0.8113 -2.8354 -0.6999
 1138SOL    HW215048   1.722   2.967   3.596 -0.1862 -0.8238 -1.5717
 1139SOL     OW15049   1.546   4.252   4.730 -0.7380  0.7018  0.1633
 1139SOL    HW115050   1.503   4.169   4.751  1.9879 -0.9186 -0.5819
 1139SOL    HW215051   1.484   4.304   4.679  0.1945 -0.4785 -2.1919
 1140SOL     OW15052   2.835   0.638   1.670  0.0217 -0.0784 -0.3696
 1140SOL    HW115053   2.899   0.584   1.716  0.7133 -0.6751 -2.0322
 1140SOL    HW215054   2.835   0.590   1.587  2.9226  0.9327 -0.9520
 1141SOL     OW15055   1.194   0.336   6.319 -0.0837  0.1745 -0.2831
 1141SOL    HW115056   1.160   0.407   6.264  0.6042  1.7320  1.2664
 1141SOL    HW215057   1.233   0.386   6.392 -0.5872 -1.9560  1.4398
 1142SOL     OW15058   3.346   4.472  12.674  0.4442 -0.8615 -0.0191
 1142SOL    HW115059   3.403   4.499  12.745 -0.3671 -2.5289  1.2579
 1142SOL    HW215060   3.319   4.553  12.631  1.1686  0.1530  1.4551
 1143SOL     OW15061   2.410   3.915   1.509 -0.4620  0.0532  0.1557
 1143SOL    HW115062   2.505   3.916   1.496 -0.5992  0.7469 -0.7982
 1143SOL    HW215063   2.407   3.831   1.554 -0.9922  0.5702  1.0969
 1144SOL     OW15064   0.032   0.896   7.419 -0.1896 -0.9033 -0.4561
 1144SOL    HW115065   0.055   0.983   7.453 -0.3562 -1.9204  2.2220
 1144SOL    HW215066   0.116   0.851   7.403  0.6455  0.3760  0.3264
 1145SOL     OW15067   2.565   1.501   4.315 -0.0437 -0.0004 -0.6022
 1145SOL    HW115068   2.632   1.530   4.377 -0.0423  0.4946 -0.8391
 1145SOL    HW215069   2.503   1.572   4.333  1.1912  0.8526  0.2747
 1146SOL     OW15070   3.542   3.237   4.941  0.5616 -0.0393 -0.1422
 1146SOL    HW115071   3.476   3.212   4.876 -0.9522  1.2474  0.8750
 1146SOL    HW215072   3.536   3.162   4.999 -2.7710 -0.2335 -0.7434
 1147SOL     OW15073   4.314   2.794  16.124  0.3673 -0.2611  0.3043
 1147SOL    HW115074   4.232   2.826  16.159 -0.5086 -0.5150 -1.4936
 1147SOL    HW215075   4.333   2.705  16.152  0.7173 -0.6151 -1.0553
 1148SOL     OW15076   3.877   2.075  17.291 -0.6908  0.2398 -0.4992
 1148SOL    HW115077   3.873   2.018  17.368  2.2268 -0.7991 -1.1340
 1148SOL    HW215078   3.897   2.004  17.229 -3.5052 -1.6020  0.6958
 1149SOL     OW15079   1.031   0.870   4.620  0.1475 -0.1523 -0.5919
 1149SOL    HW115080   1.057   0.962   4.611  1.1827 -0.2191  1.8439
 1149SOL    HW215081   0.936   0.868   4.604 -0.0003 -0.0006  0.2503
 1150SOL     OW15082   1.136   2.459  15.901  0.7896 -0.2352  0.2499
 1150SOL    HW115083   1.136   2.385  15.841 -1.1201  1.5272 -1.9509
 1150SOL    HW215084   1.221   2.500  15.887  0.8097  0.1090  1.3381
 1151SOL     OW15085   3.357   0.571   1.883  0.2011  0.1257 -0.3560
 1151SOL    HW115086   3.365   0.526   1.799 -0.0091  0.9440 -0.8137
 1151SOL    HW215087   3.323   0.658   1.862 -0.0482 -0.8081 -3.9446
 1152SOL     OW15088   4.346   2.568   2.300 -0.4202  0.1509  0.2464
 1152SOL    HW115089   4.281   2.566   2.370  2.8320  0.1780  3.2538
 1152SOL    HW215090   4.327   2.482   2.262 -0.0288  0.1550  0.0408
 1153SOL     OW15091   3.268   4.652   2.581  0.4163 -0.3381  0.0067
 1153SOL    HW115092   3.179   4.650   2.545  1.1990 -0.1419 -1.9604
 1153SOL    HW215093   3.239   4.673   2.670 -1.4756  0.2773 -0.7655
 1154SOL     OW15094   4.389   1.212   6.009 -0.2720  0.9150 -0.5326
 1154SOL    HW115095   4.302   1.195   5.972 -0.4648  3.4313 -1.2018
 1154SOL    HW215096   4.432   1.249   5.933  0.1638 -2.3170 -1.8910
 1155SOL     OW15097   2.634   1.978  16.276 -0.0460  0.1429  0.1064
 1155SOL    HW115098   2.640   2.042  16.205  2.6506 -0.7214 -0.4491
 1155SOL    HW215099   2.545   1.948  16.259 -0.2341  1.7513 -1.8220
 1156SOL     OW15100   2.568   3.351   6.423  0.1585 -0.3157 -0.6548
 1156SOL    HW115101   2.630   3.424   6.425  0.4091 -0.4991 -1.9373
 1156SOL    HW215102   2.497   3.390   6.475  0.2733 -2.4643  1.1219
 1157SOL     OW15103   0.504   4.387  13.239 -0.1980 -0.4252  0.7119
 1157SOL    HW115104   0.535   4.324  13.173  0.1235  0.3641  0.1105
 1157SOL    HW215105   0.465   4.451  13.179 -1.6677 -2.1042 -0.1428
 1158SOL     OW15106   1.530   3.872   7.235 -0.3871 -0.0885  0.6678
 1158SOL    HW115107   1.546   3.876   7.141 -2.3344  0.3971  0.3614
 1158SOL    HW215108   1.570   3.954   7.263  0.0001  0.4705 -1.5434
 1159SOL     OW15109   3.896   2.372   2.075 -0.0525  0.0150 -0.3420
 1159SOL    HW115110   3.857   2.312   2.012  0.9151  2.1254 -2.9297
 1159SOL    HW215111   3.940   2.428   2.011 -2.1936 -0.1284 -1.9437
 1160SOL     OW15112   2.137   0.721  13.420  0.5038  0.5423 -0.1468
 1160SOL    HW115113   2.049   0.702  13.451  0.8380 -1.2678 -0.2906
 1160SOL    HW215114   2.148   0.811  13.450 -0.9691  0.5767  0.2910
 1161SOL     OW15115   1.561   3.723   6.256 -0.1322  0.0516 -0.1717
 1161SOL    HW115116   1.541   3.630   6.247 -1.9197  0.2241  2.0003
 1161SOL    HW215117   1.540   3.762   6.172  2.6122  1.3438 -0.2744
 1162SOL     OW15118   4.109   4.363   6.021 -0.1940 -0.3038 -0.2436
 1162SOL    HW115119   4.142   4.380   6.109 -0.7460  1.0636 -0.3028
 1162SOL    HW215120   4.014   4.361   6.031 -0.4648  1.1966 -2.4739
 1163SOL     OW15121   3.844   3.451  13.656  0.1723 -0.4113  0.7394
 1163SOL    HW115122   3.935   3.471  13.637  0.7591 -1.4905  2.4002
 1163SOL    HW215123   3.814   3.426  13.569 -1.5095 -1.6404  1.6584
 1164SOL     OW15124   1.972   3.549  10.413  0.5006  0.6416  0.2399
 1164SOL    HW115125   1.911   3.611  10.452  1.9459  2.7293 -0.8499
 1164SOL    HW215126   2.018   3.606  10.352 -0.4168  0.5713 -0.5129
 1165SOL     OW15127   4.383   3.082   8.394  0.1624 -0.7979  0.7728
 1165SOL    HW115128   4.455   3.039   8.349  0.0156  0.5943 -0.7889
 1165SOL    HW215129   4.309   3.083   8.333  0.4895  0.9633  0.4087
 1166SOL     OW15130   0.616   2.216   6.301  0.2952  0.1568 -0.2883
 1166SOL    HW115131   0.607   2.272   6.225  0.3190 -2.2532 -2.0793
 1166SOL    HW215132   0.705   2.241   6.328  0.6159  0.8305 -2.0012
 1167SOL     OW15133   2.529   1.951   3.996  0.2083  0.2864 -0.6502
 1167SOL    HW115134   2.609   1.903   4.019 -0.0956  0.5548  0.9797
 1167SOL    HW215135   2.475   1.885   3.952 -1.7932  0.4805  1.5387
 1168SOL     OW15136   2.114   1.523   4.397 -0.0127  0.2790 -0.5075
 1168SOL    HW115137   2.074   1.536   4.483  2.0629  0.4045  0.4400
 1168SOL    HW215138   2.053   1.485   4.335 -1.4746  0.5872  0.7358
 1169SOL     OW15139   2.321   4.127   1.665  0.1082 -0.7413  0.0096
 1169SOL    HW115140   2.351   4.038   1.647 -0.0843 -1.0822  1.3551
 1169SOL    HW215141   2.321   4.131   1.760  0.1575  1.0862 -0.0772
 1170SOL     OW15142   0.101   4.495  14.805  0.5338  0.5163 -0.1606
 1170SOL    HW115143   0.091   4.561  14.736  2.9984  0.5143 -0.5325
 1170SOL    HW215144   0.014   4.490  14.843  0.4693  1.0364 -0.2422
 1171SOL     OW15145   0.568   0.484   6.308  0.2121 -0.5458  0.0414
 1171SOL    HW115146   0.474   0.501   6.321  0.2880 -0.7214  0.8144
 1171SOL    HW215147   0.593   0.537   6.233  1.5791 -1.6752 -0.2948
 1172SOL     OW15148   0.184   2.019   5.041 -0.2558  0.3698 -0.7737
 1172SOL    HW115149   0.115   1.984   4.984 -0.2955 -1.4260  0.3901
 1172SOL    HW215150   0.257   2.050   4.987  0.7201 -2.0256 -0.8123
 1173SOL     OW15151   1.926   0.059   6.778  0.0293  0.0373  0.3830
 1173SOL    HW115152   1.994   0.034   6.715 -0.4802 -0.2225 -0.0690
 1173SOL    HW215153   1.926   0.155   6.769  2.6578 -0.0417 -0.3352
 1174SOL     OW15154   1.131   4.188   7.093  0.3588  0.1970 -0.3113
 1174SOL    HW115155   1.089   4.207   7.177  1.2341 -0.9814  0.3904
 1174SOL    HW215156   1.197   4.122   7.113  0.4582 -0.1558 -1.8615
 1175SOL     OW15157   1.824   1.269   6.899 -0.3991 -0.2380  0.6579
 1175SOL    HW115158   1.763   1.332   6.936  1.2279  0.4898  2.1225
 1175SOL    HW215159   1.819   1.199   6.964 -0.9482  0.4084  1.3051
 1176SOL     OW15160   4.560   1.057  17.435 -0.7661 -0.2941  0.0948
 1176SOL    HW115161   4.604   0.980  17.471  2.2080  0.0269 -2.8156
 1176SOL    HW215162   4.545   1.121  17.504 -1.0865  0.1367 -0.3676
 1177SOL     OW15163   2.061   2.651  15.610 -0.3621 -1.0926  0.5132
 1177SOL    HW115164   2.090   2.663  15.519  2.1711  0.2757  1.5133
 1177SOL    HW215165   2.003   2.727  15.614  1.6552  0.4590 -0.0460
 1178SOL     OW15166   1.724   3.942   4.822 -0.5282 -0.3298  0.1140
 1178SOL    HW115167   1.764   4.016   4.775  1.8681 -1.4966  0.3026
 1178SOL    HW215168   1.652   3.906   4.770 -0.9149 -0.4939  0.7742
 1179SOL     OW15169   1.333   2.886   6.761 -0.0350 -0.5789 -0.0680
 1179SOL    HW115170   1.357   2.822   6.828  0.4044 -0.2856  0.0508
 1179SOL    HW215171   1.372   2.853   6.681 -1.4578  0.4208 -1.1724
 1180SOL     OW15172   2.620   1.380  12.234 -0.0265  0.0068 -0.6480
 1180SOL    HW115173   2.706   1.414  12.258 -0.1369 -0.8051  0.8580
 1180SOL    HW215174   2.563   1.450  12.266  0.3270 -0.0783  0.1526
 1181SOL     OW15175   1.552   2.171   2.356  0.2067 -0.8119  0.2646
 1181SOL    HW115176   1.498   2.247   2.377  0.8984  0.3313 -2.0890
 1181SOL    HW215177   1.502   2.106   2.405 -1.1079 -1.4442 -1.9402
 1182SOL     OW15178   4.737   1.225  13.304  0.1571 -0.2022 -0.1468
 1182SOL    HW115179   0.077   1.181  13.270  0.3739 -0.4088  0.6055
 1182SOL    HW215180   4.680   1.216  13.227  0.8653  0.3838 -0.7385
 1183SOL     OW15181   4.147   4.432   5.650  0.1563 -0.0548  0.5550
 1183SOL    HW115182   4.093   4.471   5.719  1.9235  2.4234  0.5537
 1183SOL    HW215183   4.144   4.343   5.685 -0.5480  0.0104  0.6574
 1184SOL     OW15184   1.615   2.215   1.272  0.1353 -0.4446  0.2493
 1184SOL    HW115185   1.580   2.129   1.295  0.6081 -0.8159 -0.4160
 1184SOL    HW215186   1.531   2.260   1.280 -0.5177 -1.8198  1.0493
 1185SOL     OW15187   1.541   0.802   3.532 -0.0164 -0.1767 -0.1496
 1185SOL    HW115188   1.456   0.786   3.491 -0.3489 -1.6659  1.1050
 1185SOL    HW215189   1.584   0.716   3.527  0.1497 -0.2084  1.8392
 1186SOL     OW15190   1.739   0.107   8.891  0.6842 -0.6396 -0.1215
 1186SOL    HW115191   1.678   0.045   8.930  0.5091 -2.5143 -3.4365
 1186SOL    HW215192   1.720   0.190   8.935 -0.5012 -0.6131 -0.6828
 1187SOL     OW15193   1.878   1.635   9.200  0.3817 -0.0012  0.1157
 1187SOL    HW115194   1.815   1.698   9.165  0.5108 -0.2990 -0.6729
 1187SOL    HW215195   1.897   1.676   9.284 -2.0269 -0.3644  0.8486
 1188SOL     OW15196   1.696   1.076   4.467 -0.8768 -0.5186 -0.0967
 1188SOL    HW115197   1.679   1.058   4.374 -0.1605 -1.8936  0.0375
 1188SOL    HW215198   1.746   1.157   4.460  1.2571 -1.7217  1.0503
 1189SOL     OW15199   1.818   3.460   3.619  0.5662  0.1162 -0.3773
 1189SOL    HW115200   1.863   3.439   3.537  1.1264  2.1046 -0.5945
 1189SOL    HW215201   1.770   3.542   3.602  1.3633  0.6676  0.0420
 1190SOL     OW15202   2.418   1.385   6.058  0.3483 -0.1395  0.0781
 1190SOL    HW115203   2.462   1.309   6.096  2.4306  1.0556  0.0188
 1190SOL    HW215204   2.480   1.455   6.076 -1.3453  1.5988 -0.7939
 1191SOL     OW15205   4.502   4.234   7.885  0.0337 -0.8885  0.6436
 1191SOL    HW115206   4.425   4.238   7.828  1.6815  0.7537 -1.5030
 1191SOL    HW215207   4.457   4.254   7.966  1.9165 -0.1852  1.5048
 1192SOL     OW15208   3.992   4.323   3.926 -0.5667  0.5565 -0.0087
 1192SOL    HW115209   4.038   4.239   3.923 -1.3378  0.2199 -2.2993
 1192SOL    HW215210   3.949   4.310   4.010 -0.2456  0.3395  0.1227
 1193SOL     OW15211   3.668   4.235   9.834  0.4038  0.9128 -0.2762
 1193SOL    HW115212   3.583   4.191   9.828  2.1981 -2.3692 -1.9210
 1193SOL    HW215213   3.648   4.285   9.914  0.3784  2.4209 -1.2373
 1194SOL     OW15214   3.728   3.598   4.265  0.1451 -0.1117  0.0612
 1194SOL    HW115215   3.757   3.545   4.339  0.3515  0.7175  0.5705
 1194SOL    HW215216   3.795   3.569   4.202  0.1245 -1.9764  0.8962
 1195SOL     OW15217   1.432   2.624  16.283 -0.1127 -0.1050 -0.1894
 1195SOL    HW115218   1.405   2.710  16.315 -0.7213 -0.7392  0.9966
 1195SOL    HW215219   1.503   2.653  16.225  1.9542 -2.0454  1.3674
 1196SOL     OW15220   3.533   1.243   4.474 -0.1544  0.4540  0.1793
 1196SOL    HW115221   3.568   1.189   4.403  0.9147  1.4803 -0.0725
 1196SOL    HW215222   3.492   1.173   4.525 -0.0872 -0.2824 -0.7817
 1197SOL     OW15223   2.384   4.547   2.850 -0.4047 -0.5308 -0.3696
 1197SOL    HW115224   2.462   4.601   2.834 -0.0522 -1.0939 -0.5371
 1197SOL    HW215225   2.311   4.607   2.837  0.2575  0.4912  0.6191
 1198SOL     OW15226   3.280   4.252   8.154  0.3444  0.1488 -0.2883
 1198SOL    HW115227   3.328   4.171   8.167  0.3908  0.0982 -0.7629
 1198SOL    HW215228   3.335   4.313   8.202  0.9131  1.5675 -2.6949
 1199SOL     OW15229   2.425   2.327   8.829 -0.1557  0.1969  0.3021
 1199SOL    HW115230   2.488   2.263   8.863 -1.9259 -2.1455 -0.8424
 1199SOL    HW215231   2.464   2.359   8.748 -1.0739  1.5142  0.3850
 1200SOL     OW15232   2.310   0.919   4.102  0.1973  0.0501  0.1768
 1200SOL    HW115233   2.245   0.886   4.039 -0.0472 -0.5718  0.7585
 1200SOL    HW215234   2.278   0.875   4.181 -1.7375 -0.7408 -1.0396
 1201SOL     OW15235   0.403   1.137   8.636 -0.0597 -0.2877  0.2525
 1201SOL    HW115236   0.420   1.062   8.693  0.3152 -0.9982 -0.8062
 1201SOL    HW215237   0.488   1.156   8.598 -0.1685  2.2598  1.2272
 1202SOL     OW15238   0.977   0.329   6.957 -0.2487 -1.0134  0.2848
 1202SOL    HW115239   0.889   0.316   6.922 -0.1234 -1.5527  0.1652
 1202SOL    HW215240   0.988   0.277   7.037  0.0967 -1.0340  0.2261
 1203SOL     OW15241   2.098   3.156   8.708  0.3977  0.1344  0.2934
 1203SOL    HW115242   2.150   3.102   8.648  0.6596 -2.0065  2.4225
 1203SOL    HW215243   2.008   3.125   8.693  1.7800 -2.6085 -2.5227
 1204SOL     OW15244   4.444   1.491   8.472 -0.0311  0.0667 -0.2706
 1204SOL    HW115245   4.432   1.398   8.452 -1.5501  0.0624  0.6883
 1204SOL    HW215246   4.516   1.516   8.413 -0.6447  0.6576 -0.7716
 1205SOL     OW15247   1.181   3.309  16.486  0.1658 -0.1192  0.1925
 1205SOL    HW115248   1.254   3.319  16.548  0.7306 -1.3403 -0.2756
 1205SOL    HW215249   1.232   3.285  16.408  0.2701  3.1092 -0.7696
 1206SOL     OW15250   1.344   3.386   2.535 -0.3179  0.2718  0.2537
 1206SOL    HW115251   1.338   3.455   2.468 -1.2003  0.7613  0.8400
 1206SOL    HW215252   1.429   3.422   2.562  2.0151 -1.7730 -4.2897
 1207SOL     OW15253   0.800   0.150   2.724  0.3338 -0.4213  0.1562
 1207SOL    HW115254   0.821   0.057   2.710 -3.6870 -1.3017  0.0525
 1207SOL    HW215255   0.740   0.162   2.650  0.5824  0.8200  0.1607
 1208SOL     OW15256   1.068   3.629  13.010  0.7658  0.0640  0.4154
 1208SOL    HW115257   1.055   3.535  13.021 -1.0253  0.1386 -0.9748
 1208SOL    HW215258   1.018   3.635  12.929  2.0353 -0.5337 -0.4076
 1209SOL     OW15259   0.437   2.126   7.820 -0.7627 -0.0872  0.2574
 1209SOL    HW115260   0.460   2.101   7.910 -0.2396 -1.3816 -0.2222
 1209SOL    HW215261   0.443   2.039   7.780  0.9759  0.0098  0.3110
 1210SOL     OW15262   1.620   4.065   4.148 -0.6166 -0.2679  0.5330
 1210SOL    HW115263   1.551   4.103   4.094  0.3605 -2.1652 -2.0438
 1210SOL    HW215264   1.606   4.091   4.239 -1.1675 -0.0372  0.3777
 1211SOL     OW15265   4.702   4.444   4.875  0.1789  0.5914 -0.0106
 1211SOL    HW115266   4.637   4.390   4.830  1.3556  0.2705 -1.2935
 1211SOL    HW215267   4.673   4.530   4.844 -3.1918 -0.6204 -0.2102
 1212SOL     OW15268   4.649   0.666   6.621 -0.2487  0.1613  0.0141
 1212SOL    HW115269   4.663   0.750   6.578  3.6573 -0.4598  0.0701
 1212SOL    HW215270   4.725   0.619   6.589 -1.5774 -1.9671 -0.0063
 1213SOL     OW15271   1.504   2.275   6.852  0.3624  0.0656  0.3647
 1213SOL    HW115272   1.528   2.320   6.771  0.0080  0.0332  0.2426
 1213SOL    HW215273   1.547   2.190   6.843  0.2297  0.1153 -0.7557
 1214SOL     OW15274   0.173   2.976   9.131  0.5322 -0.4541  0.3367
 1214SOL    HW115275   0.090   3.020   9.151 -0.4786 -2.4225  0.4649
 1214SOL    HW215276   0.236   3.046   9.147  0.5710 -0.3084 -0.4589
 1215SOL     OW15277   0.719   0.238   2.452  0.5026 -0.0835 -0.4478
 1215SOL    HW115278   0.728   0.174   2.382  0.2384 -0.5943 -0.0144
 1215SOL    HW215279   0.628   0.267   2.447  0.6632  0.8386  1.9965
 1216SOL     OW15280   4.720   4.506   3.528  0.2454 -0.1013  0.4093
 1216SOL    HW115281   4.694   4.569   3.461  0.9921  0.8116  0.9772
 1216SOL    HW215282   0.055   4.546   3.576  1.6115 -3.1480  0.8497
 1217SOL     OW15283   3.257   2.690   6.219 -0.0830 -0.3573  0.4720
 1217SOL    HW115284   3.202   2.703   6.297 -0.7640 -0.4029  0.0045
 1217SOL    HW215285   3.246   2.774   6.173 -0.0638 -0.7074 -0.1639
 1218SOL     OW15286   2.076   1.898  12.351 -0.0190  0.2619 -0.2019
 1218SOL    HW115287   2.153   1.851  12.319  1.0636  1.0465  1.2736
 1218SOL    HW215288   2.027   1.825  12.388  0.1211  0.1452 -0.2495
 1219SOL     OW15289   0.125   0.664   6.121 -0.4049  0.6258 -0.8458
 1219SOL    HW115290   0.168   0.699   6.042 -0.0433  1.0851 -0.4476
 1219SOL    HW215291   0.086   0.749   6.141 -1.8086 -0.4401  0.8667
 1220SOL     OW15292   2.284   2.600   3.402  0.3263 -0.0739 -0.4568
 1220SOL    HW115293   2.201   2.578   3.360 -0.3778  0.2048  0.7870
 1220SOL    HW215294   2.321   2.511   3.409 -0.1666 -0.2823 -0.4916
 1221SOL     OW15295   1.762   1.211   7.502 -0.3243  0.3550  0.0600
 1221SOL    HW115296   1.679   1.174   7.473  0.4776 -0.1754 -1.5503
 1221SOL    HW215297   1.736   1.281   7.562  3.7435  1.4275  0.5738
 1222SOL     OW15298   1.678   0.640   6.451  0.0175 -0.2969 -0.2862
 1222SOL    HW115299   1.732   0.621   6.374  4.3829 -1.4772  3.1157
 1222SOL    HW215300   1.597   0.594   6.427 -1.0805 -0.0624  2.9137
 1223SOL     OW15301   2.024   0.953   8.495 -0.3749 -0.0298  0.1548
 1223SOL    HW115302   2.087   0.954   8.423 -2.2407  1.3306 -1.3993
 1223SOL    HW215303   2.081   0.954   8.573  0.1817 -0.6362 -0.2406
 1224SOL     OW15304   2.973   4.461   8.626  0.6954 -0.0847 -0.2698
 1224SOL    HW115305   2.883   4.435   8.609  0.0995  0.8547  1.4293
 1224SOL    HW215306   3.013   4.376   8.607  2.7071  0.3958  1.7910
 1225SOL     OW15307   0.210   4.199  16.704  0.0447  0.3300 -0.2488
 1225SOL    HW115308   0.173   4.286  16.690 -0.1498  0.8692  3.6967
 1225SOL    HW215309   0.130   4.149  16.720  0.7209 -1.2431 -1.7317
 1226SOL     OW15310   3.576   2.725  11.308  0.2875  0.0380  0.7255
 1226SOL    HW115311   3.537   2.747  11.223 -0.4106 -1.2774  0.7080
 1226SOL    HW215312   3.598   2.812  11.343 -0.1641 -0.0712  1.2874
 1227SOL     OW15313   0.252   3.300   2.643 -0.2024  0.4739 -0.0735
 1227SOL    HW115314   0.218   3.270   2.559 -0.5679  0.2998  0.1359
 1227SOL    HW215315   0.175   3.303   2.700  0.1348  0.9464  0.3597
 1228SOL     OW15316   2.422   4.486   4.454 -0.3460  0.0536  0.1483
 1228SOL    HW115317   2.428   4.581   4.447 -2.4993  0.0733 -1.5323
 1228SOL    HW215318   2.440   4.484   4.548  3.5942  2.5615 -0.5796
 1229SOL     OW15319   0.091   2.645   8.335 -0.3576 -0.0449  0.5983
 1229SOL    HW115320   0.027   2.577   8.319  0.9591 -1.2797  0.5528
 1229SOL    HW215321   0.061   2.666   8.423 -1.1417 -0.1054  0.3410
 1230SOL     OW15322   1.506   0.062   2.672  0.2996 -0.4405 -0.8509
 1230SOL    HW115323   1.436   0.015   2.717 -1.4211 -0.2403 -3.2681
 1230SOL    HW215324   1.573   4.733   2.680  1.0427  0.4562  0.4422
 1231SOL     OW15325   2.556   0.541   2.597  0.2337 -0.1234  0.5451
 1231SOL    HW115326   2.536   0.528   2.504 -0.5662 -2.2170  1.0020
 1231SOL    HW215327   2.483   0.499   2.642  0.9684 -1.5724  0.3742
 1232SOL     OW15328   4.249   4.116   6.253 -0.1803 -0.5515 -0.4806
 1232SOL    HW115329   4.316   4.091   6.190  0.3879 -0.2056 -0.0192
 1232SOL    HW215330   4.266   4.209   6.242 -0.5337 -0.4253  0.0573
 1233SOL     OW15331   2.723   1.862   0.356 -0.9645  0.2991  0.0922
 1233SOL    HW115332   2.693   1.895   0.271 -1.1781  1.8613  0.7804
 1233SOL    HW215333   2.737   1.768   0.355 -2.1705  0.1216  0.2936
 1234SOL     OW15334   2.884   0.022   4.370  0.9612 -0.6228  0.5114
 1234SOL    HW115335   2.897   0.068   4.453 -1.8879 -0.7542  1.0305
 1234SOL    HW215336   2.952   0.058   4.311 -0.8933  0.9578 -0.6719
 1235SOL     OW15337   0.809   3.160   6.269 -0.0893 -0.1445 -0.0150
 1235SOL    HW115338   0.826   3.187   6.178 -2.3208  1.2375 -0.0031
 1235SOL    HW215339   0.808   3.064   6.259  1.2428  0.1364 -3.0987
 1236SOL     OW15340   1.645   2.415   0.022  0.3277  0.5610 -0.1885
 1236SOL    HW115341   1.678   2.327   0.000 -0.0915  0.1704  0.7791
 1236SOL    HW215342   1.552   2.397   0.031  0.9936 -3.3077 -0.8457
 1237SOL     OW15343   1.711   3.124   6.336  0.5187  0.1137 -0.1134
 1237SOL    HW115344   1.777   3.072   6.290  1.0767  1.7799 -1.1793
 1237SOL    HW215345   1.730   3.104   6.428  0.7576  2.8030  0.4027
 1238SOL     OW15346   3.734   2.816   4.581 -0.0135  0.2140  0.1496
 1238SOL    HW115347   3.782   2.740   4.547  0.2383 -0.3087  1.6896
 1238SOL    HW215348   3.675   2.772   4.640 -1.6257 -1.0311 -2.3837
 1239SOL     OW15349   1.057   2.851   4.074  0.5953  0.5325 -0.2951
 1239SOL    HW115350   1.105   2.784   4.026 -0.4026 -0.6853  0.3934
 1239SOL    HW215351   1.011   2.891   4.000 -1.0324  2.0196  1.5195
 1240SOL     OW15352   1.710   1.343   0.160  0.4727  0.2619  0.2179
 1240SOL    HW115353   1.746   1.405   0.224  1.0656 -1.0003  1.1310
 1240SOL    HW215354   1.795   1.299   0.157 -1.1799 -3.0171  1.5955
 1241SOL     OW15355   1.016   4.146   6.016  0.1945 -0.1943  0.1940
 1241SOL    HW115356   0.940   4.160   6.072 -0.1333 -0.2343 -0.2339
 1241SOL    HW215357   1.081   4.183   6.076  0.8595 -0.3860 -0.4063
 1242SOL     OW15358   2.896   3.560  14.506  0.4865 -0.1553  0.7393
 1242SOL    HW115359   2.813   3.519  14.482  0.4542  0.0662  0.4669
 1242SOL    HW215360   2.966   3.494  14.504 -0.9903 -1.6523 -1.1324
 1243SOL     OW15361   0.028   3.509   7.386  0.2106  0.5101 -0.3578
 1243SOL    HW115362   0.080   3.496   7.465 -0.0123  2.0562  0.0409
 1243SOL    HW215363   4.697   3.569   7.413 -0.3804 -0.6823  0.7790
 1244SOL     OW15364   0.999   0.641  12.994  0.3648 -0.0442 -0.1013
 1244SOL    HW115365   1.088   0.609  13.004 -0.5830 -2.6714 -0.1045
 1244SOL    HW215366   0.946   0.597  13.061  0.9989 -1.2943 -0.4301
 1245SOL     OW15367   0.301   3.875   1.893  0.1900 -0.2697 -0.2592
 1245SOL    HW115368   0.266   3.949   1.842 -0.9497 -0.9959 -0.5263
 1245SOL    HW215369   0.221   3.825   1.908 -0.5525 -0.0079 -3.4146
 1246SOL     OW15370   1.719   4.608   7.496 -0.0760 -0.1759  0.0160
 1246SOL    HW115371   1.718   4.563   7.581  0.0803 -0.4406 -0.1243
 1246SOL    HW215372   1.760   4.691   7.520 -0.2666  0.4015 -1.6692
 1247SOL     OW15373   1.988   2.443   8.989 -0.1172 -0.0896 -0.0367
 1247SOL    HW115374   1.925   2.506   8.955 -0.9840 -0.5769  0.6716
 1247SOL    HW215375   2.029   2.402   8.913  0.7039  1.3069 -0.3539
 1248SOL     OW15376   3.156   2.535   8.894  0.5267 -0.1383  0.3618
 1248SOL    HW115377   3.123   2.472   8.957 -0.8460 -0.4436 -0.6549
 1248SOL    HW215378   3.071   2.576   8.877  1.8596  2.3612 -0.2979
 1249SOL     OW15379   2.906   2.416  13.089  0.1205 -0.2798  0.1274
 1249SOL    HW115380   2.864   2.354  13.148 -1.8192  0.9919  0.1135
 1249SOL    HW215381   2.846   2.427  13.015  1.4925  0.4862 -0.8704
 1250SOL     OW15382   4.269   1.542   2.595 -0.0163 -0.0365 -0.1205
 1250SOL    HW115383   4.350   1.565   2.550 -0.9369  0.3412 -1.5825
 1250SOL    HW215384   4.212   1.528   2.519 -0.7061 -2.0062  0.7493
 1251SOL     OW15385   0.861   0.401  12.252  0.1856 -0.3081 -0.4715
 1251SOL    HW115386   0.893   0.384  12.164  0.4934 -1.1134 -0.2009
 1251SOL    HW215387   0.777   0.356  12.257  0.2042 -0.1534  1.5334
 1252SOL     OW15388   4.165   2.752   9.853 -0.3266  0.4343 -0.5165
 1252SOL    HW115389   4.175   2.834   9.804 -0.8822  0.8875  0.1410
 1252SOL    HW215390   4.142   2.801   9.932  2.4790  1.6896 -0.4543
 1253SOL     OW15391   2.276   4.274  16.753 -0.8746  0.1281  0.2205
 1253SOL    HW115392   2.245   4.206  16.693 -1.3487  0.2949  0.2753
 1253SOL    HW215393   2.362   4.290  16.715 -0.7729  1.4829  1.0480
 1254SOL     OW15394   3.667   3.266   3.469  0.4152  0.0983  0.0277
 1254SOL    HW115395   3.643   3.340   3.413  1.3327 -0.7637 -1.5182
 1254SOL    HW215396   3.758   3.258   3.438 -0.0813  1.9846 -1.9430
 1255SOL     OW15397   4.275   1.194   3.151 -0.0464  0.4959  0.3693
 1255SOL    HW115398   4.197   1.139   3.161 -0.9270  1.6649 -0.0607
 1255SOL    HW215399   4.277   1.251   3.228  0.0121  1.1987 -0.1586
 1256SOL     OW15400   2.310   0.682  14.573  0.4678 -0.1014  0.3208
 1256SOL    HW115401   2.347   0.711  14.490  0.6391 -0.6661  0.2003
 1256SOL    HW215402   2.233   0.637  14.539  1.0438 -1.5476  0.9498
 1257SOL     OW15403   0.941   1.068   4.075  0.0380  0.0918 -0.2758
 1257SOL    HW115404   0.958   1.011   4.150  0.4487 -1.4321 -1.5236
 1257SOL    HW215405   0.965   1.012   4.002  2.3891  1.3512 -0.4579
 1258SOL     OW15406   4.230   1.965   8.412  0.3972  0.8402 -0.3024
 1258SOL    HW115407   4.236   1.979   8.318  1.3216  0.0470 -0.3565
 1258SOL    HW215408   4.205   2.050   8.450 -0.6370  1.5048 -2.4676
 1259SOL     OW15409   2.265   1.978   5.190  0.3735 -0.8488 -0.4461
 1259SOL    HW115410   2.273   2.065   5.228  0.6925 -0.7204 -0.8133
 1259SOL    HW215411   2.271   1.932   5.273 -0.4332 -2.7066 -1.4039
 1260SOL     OW15412   0.567   0.712   9.703  0.1232  0.0352  0.1600
 1260SOL    HW115413   0.476   0.712   9.732 -0.2922 -2.5779 -1.2277
 1260SOL    HW215414   0.588   0.783   9.765  0.0955 -1.0409  1.4048
 1261SOL     OW15415   1.468   2.698   8.167 -0.1077  0.2178 -0.1218
 1261SOL    HW115416   1.542   2.688   8.227  0.0543 -0.9092 -0.5088
 1261SOL    HW215417   1.474   2.623   8.108  1.4163  2.5431 -2.9249
 1262SOL     OW15418   4.255   3.530   5.749 -0.0740  0.4561  0.0791
 1262SOL    HW115419   4.343   3.504   5.774  0.4693  0.5957 -1.6525
 1262SOL    HW215420   4.205   3.459   5.788  2.3644 -1.6043 -0.5352
 1263SOL     OW15421   3.191   0.815  15.353 -0.5599  0.0935  0.8463
 1263SOL    HW115422   3.219   0.871  15.425  0.1526  2.3387 -1.1953
 1263SOL    HW215423   3.105   0.791  15.386 -0.9653 -0.2951 -0.4883
 1264SOL     OW15424   2.168   3.686   5.469 -0.3813  0.3673  0.1136
 1264SOL    HW115425   2.200   3.610   5.422 -0.9287 -1.0351  1.9862
 1264SOL    HW215426   2.097   3.650   5.521 -1.3693  1.8980 -0.1626
 1265SOL     OW15427   3.621   1.482  13.335  0.5364  0.5562 -0.2960
 1265SOL    HW115428   3.587   1.533  13.262  0.4410  0.0988 -0.5664
 1265SOL    HW215429   3.679   1.418  13.293 -0.3063 -0.1916 -0.3064
 1266SOL     OW15430   4.661   1.767  16.388  0.0344  0.6333 -0.2405
 1266SOL    HW115431   4.675   1.703  16.318 -1.9022  0.3704 -0.3723
 1266SOL    HW215432   4.695   1.844  16.342  0.6961  1.0568  0.9620
 1267SOL     OW15433   4.395   1.240   2.914 -0.5504  0.3353  0.7878
 1267SOL    HW115434   4.477   1.262   2.958 -0.3489  1.8538 -0.3467
 1267SOL    HW215435   4.352   1.209   2.994  0.9107  1.7778  2.1536
 1268SOL     OW15436   4.539   4.675   2.427 -0.4006  0.0013  0.2234
 1268SOL    HW115437   4.471   4.636   2.373 -1.4815  0.2182  1.4238
 1268SOL    HW215438   4.535   0.030   2.405  2.0532 -0.4165 -1.9178
 1269SOL     OW15439   4.277   3.112   8.642  0.1170 -0.1474 -0.1509
 1269SOL    HW115440   4.354   3.111   8.698  1.2701  0.3767 -1.7181
 1269SOL    HW215441   4.319   3.107   8.556 -0.5136  0.5932 -0.5003
 1270SOL     OW15442   2.296   4.224  14.661  0.6844  0.4828  0.2859
 1270SOL    HW115443   2.250   4.305  14.637  0.5949  0.9289  1.9310
 1270SOL    HW215444   2.287   4.180  14.577 -1.6909 -0.6225  1.1164
 1271SOL     OW15445   3.316   3.777   4.043  0.1190  0.2268  0.0141
 1271SOL    HW115446   3.244   3.834   4.072  0.0511  0.3336 -0.3734
 1271SOL    HW215447   3.350   3.757   4.131  0.9355 -0.3749 -0.4435
 1272SOL     OW15448   4.150   3.093   8.255 -0.4951  0.0185  0.0328
 1272SOL    HW115449   4.115   3.181   8.271  1.2498  1.1150 -2.2338
 1272SOL    HW215450   4.111   3.090   8.168  2.9715  0.6131 -1.5114
 1273SOL     OW15451   2.828   1.786  17.718 -0.5874 -0.0954 -0.1314
 1273SOL    HW115452   2.756   1.841  17.690 -0.8432 -0.7147 -0.6995
 1273SOL    HW215453   2.867   1.778  17.631 -1.1997 -0.3481 -0.3805
 1274SOL     OW15454   3.639   2.206   8.766 -0.4099 -0.4384  0.6021
 1274SOL    HW115455   3.726   2.191   8.801  0.3937 -0.2920 -1.3339
 1274SOL    HW215456   3.592   2.127   8.791  0.1378 -1.1575 -0.6138
 1275SOL     OW15457   4.178   1.618   8.419  0.5451 -0.0047 -0.0315
 1275SOL    HW115458   4.140   1.583   8.338 -0.8089  0.6683  0.3173
 1275SOL    HW215459   4.127   1.699   8.421 -0.0295 -0.2839 -2.7102
 1276SOL     OW15460   2.312   0.610   0.856 -0.4109  0.1418  0.2554
 1276SOL    HW115461   2.282   0.684   0.909 -0.5859  0.3752 -0.1685
 1276SOL    HW215462   2.233   0.569   0.820 -0.3529 -2.1289  2.7693
 1277SOL     OW15463   2.910   3.712   6.552 -0.0439  0.3620  0.0852
 1277SOL    HW115464   2.976   3.650   6.585 -0.2921  0.1280  0.1414
 1277SOL    HW215465   2.873   3.752   6.631 -2.3729 -3.2459  0.8233
 1278SOL     OW15466   2.026   4.424   1.688  0.3874  0.2426 -0.5070
 1278SOL    HW115467   1.935   4.425   1.656 -0.3405 -2.0546  1.5116
 1278SOL    HW215468   2.039   4.517   1.668 -0.2729  0.0216 -2.0413
 1279SOL     OW15469   4.475   1.436   4.505  0.8116 -0.5244  0.2007
 1279SOL    HW115470   4.503   1.406   4.592  1.2003 -0.0262  0.2453
 1279SOL    HW215471   4.381   1.437   4.526  0.7081 -0.9492 -0.2517
 1280SOL     OW15472   3.425   3.265   8.921 -0.4652  0.0213 -0.0976
 1280SOL    HW115473   3.457   3.259   9.011 -0.2951  0.0836 -0.1524
 1280SOL    HW215474   3.334   3.294   8.925 -1.4128 -2.6126 -2.2615
 1281SOL     OW15475   4.628   3.380   6.269 -0.2140 -0.0208  0.5163
 1281SOL    HW115476   4.576   3.364   6.190 -0.3137 -0.8306  0.7550
 1281SOL    HW215477   4.648   3.292   6.301  2.9410  0.7735  0.6961
 1282SOL     OW15478   4.218   3.280  13.340  0.8895  0.0812  0.3703
 1282SOL    HW115479   4.222   3.206  13.279 -0.9875  0.1377  0.1640
 1282SOL    HW215480   4.217   3.232  13.423  0.2204 -0.8518 -0.1818
 1283SOL     OW15481   1.531   1.456  15.387 -0.1714  0.4584 -0.4682
 1283SOL    HW115482   1.507   1.503  15.467 -1.0509 -0.8614  0.0381
 1283SOL    HW215483   1.602   1.515  15.364  1.6505 -2.1184 -1.4658
 1284SOL     OW15484   2.588   0.781  14.606 -0.6360 -0.2505  0.3045
 1284SOL    HW115485   2.556   0.691  14.617  2.5745 -1.5460 -0.8087
 1284SOL    HW215486   2.682   0.762  14.602 -0.8823 -1.4687  0.2631
 1285SOL     OW15487   1.071   0.578   3.363 -0.2659 -0.0985  0.5667
 1285SOL    HW115488   1.094   0.642   3.296  1.6583  1.5875  2.7993
 1285SOL    HW215489   1.160   0.557   3.393  0.6147  3.3506  0.4196
 1286SOL     OW15490   2.464   2.682  16.728 -0.8394 -0.3831  0.2880
 1286SOL    HW115491   2.558   2.695  16.715 -0.8993 -0.3194 -0.0901
 1286SOL    HW215492   2.443   2.594  16.698 -1.3378  0.0884 -0.7572
 1287SOL     OW15493   4.496   4.069   4.829  0.0263 -0.5465 -0.0743
 1287SOL    HW115494   4.423   4.007   4.830 -3.0451  3.0260  1.4211
 1287SOL    HW215495   4.546   4.040   4.905 -0.3737  0.8101  0.7168
 1288SOL     OW15496   4.598   0.963  16.160  0.3690 -0.3975 -0.3129
 1288SOL    HW115497   4.646   0.955  16.243  1.4607 -2.6110 -1.1658
 1288SOL    HW215498   4.639   0.883  16.129 -1.9681 -1.0525 -1.6283
 1289SOL     OW15499   1.418   3.121   3.010  0.1058  0.5160 -0.4868
 1289SOL    HW115500   1.391   3.212   2.993 -3.1543 -0.6894 -1.7412
 1289SOL    HW215501   1.509   3.130   2.982  0.2176  0.8815 -0.0082
 1290SOL     OW15502   4.732   2.456  15.396  0.0558 -0.6313 -0.1760
 1290SOL    HW115503   4.727   2.538  15.346 -2.7796  0.1485  1.4015
 1290SOL    HW215504   4.726   2.395  15.322  3.1795 -2.5955  1.2024
 1291SOL     OW15505   3.608   2.478   2.726 -0.0089 -0.1406  0.8205
 1291SOL    HW115506   3.594   2.572   2.722 -0.4931 -0.2861 -0.8665
 1291SOL    HW215507   3.647   2.469   2.639 -0.1292  0.9117  0.6655
 1292SOL     OW15508   0.987   0.700  16.503  0.0112  0.0211  0.1009
 1292SOL    HW115509   0.960   0.624  16.555  0.5506  1.6714  2.8097
 1292SOL    HW215510   0.936   0.766  16.552  0.0574  1.1057 -1.3212
 1293SOL     OW15511   4.366   1.302   9.206 -0.4365  0.3882 -0.3428
 1293SOL    HW115512   4.422   1.370   9.244  0.5517 -0.2465 -0.6630
 1293SOL    HW215513   4.276   1.336   9.209  0.4131  2.6032  0.2587
 1294SOL     OW15514   2.547   2.550   3.103 -0.5334  0.0887 -0.4917
 1294SOL    HW115515   2.460   2.512   3.120  0.4696 -0.5732  3.0365
 1294SOL    HW215516   2.529   2.625   3.045  0.2613  0.2213 -0.5568
 1295SOL     OW15517   1.962   3.139  12.566 -0.2202 -1.0364  0.0799
 1295SOL    HW115518   2.050   3.140  12.603 -0.4728  0.9334  0.6494
 1295SOL    HW215519   1.996   3.130  12.477 -0.0430 -0.2550  0.0655
 1296SOL     OW15520   2.366   0.530   4.357  0.2096  0.1551  0.3483
 1296SOL    HW115521   2.348   0.552   4.449 -0.9203 -0.2220  0.2160
 1296SOL    HW215522   2.407   0.610   4.326 -0.7107  1.0760  1.4994
 1297SOL     OW15523   2.646   1.949   8.400 -0.1471 -0.3441 -0.0636
 1297SOL    HW115524   2.709   1.977   8.466  0.3944  3.1891 -2.1171
 1297SOL    HW215525   2.678   1.995   8.323 -3.4699  0.7039 -0.8117
 1298SOL     OW15526   1.582   1.800   6.966  0.5073  0.4092  0.0942
 1298SOL    HW115527   1.530   1.794   6.886 -1.1414  1.6638  1.0516
 1298SOL    HW215528   1.535   1.732   7.014 -0.7379  0.8793 -0.4589
 1299SOL     OW15529   3.408   4.282   6.603  0.0587 -0.4657  0.1029
 1299SOL    HW115530   3.378   4.372   6.587 -0.4283 -0.9222 -1.5710
 1299SOL    HW215531   3.493   4.289   6.559 -0.6319 -0.3305 -1.2191
 1300SOL     OW15532   2.558   2.987   4.660 -0.4877  0.1868 -0.2863
 1300SOL    HW115533   2.484   2.981   4.721  0.6705  0.8239  1.1720
 1300SOL    HW215534   2.513   2.961   4.580 -0.7901  1.2347 -0.4476
 1301SOL     OW15535   0.260   1.322   9.262  1.0484  0.1480 -0.2915
 1301SOL    HW115536   0.185   1.380   9.247 -0.4182 -1.6210  0.2661
 1301SOL    HW215537   0.329   1.361   9.209  2.9523 -0.9251  1.4002
 1302SOL     OW15538   2.340   3.780  17.095  0.3727 -0.4814 -0.5744
 1302SOL    HW115539   2.432   3.764  17.113  0.4973  0.6083 -0.2478
 1302SOL    HW215540   2.321   3.841  17.166 -0.1798 -1.8697  0.4830
 1303SOL     OW15541   2.345   3.475   7.598 -0.4375  0.5995 -0.4147
 1303SOL    HW115542   2.425   3.427   7.623 -0.4238  0.0760 -1.4361
 1303SOL    HW215543   2.365   3.489   7.505 -0.6543 -0.1051 -0.5712
 1304SOL     OW15544   2.500   3.442   4.304  0.4087  0.2490 -0.1833
 1304SOL    HW115545   2.568   3.403   4.249 -0.9652 -0.1283 -1.6153
 1304SOL    HW215546   2.437   3.456   4.233 -2.3828 -0.9086  2.1117
 1305SOL     OW15547   1.269   3.489  13.727  0.3939 -0.1175  0.5822
 1305SOL    HW115548   1.229   3.551  13.788  0.9398 -0.7704  1.6034
 1305SOL    HW215549   1.245   3.402  13.760 -2.2020  0.6285  0.6538
 1306SOL     OW15550   3.303   4.027   1.127  0.5969  0.4963  0.0274
 1306SOL    HW115551   3.394   4.050   1.107 -0.1780  2.3521 -1.3843
 1306SOL    HW215552   3.260   4.106   1.095  0.2763  0.7049  0.9747
 1307SOL     OW15553   0.870   0.688  14.593 -0.4153 -0.1276  0.2406
 1307SOL    HW115554   0.778   0.712  14.582 -0.9656 -1.9060  0.9392
 1307SOL    HW215555   0.867   0.596  14.620  0.5952 -0.4221 -0.6429
 1308SOL     OW15556   3.115   2.437   6.635  0.4956  0.3953 -0.3123
 1308SOL    HW115557   3.147   2.381   6.705  1.0538  0.5494 -0.4461
 1308SOL    HW215558   3.146   2.397   6.553  0.8106 -1.2707  0.6256
 1309SOL     OW15559   2.977   4.487   9.221  0.2699 -0.1382  0.3554
 1309SOL    HW115560   3.003   4.520   9.135 -2.2315 -2.0201 -1.1280
 1309SOL    HW215561   2.888   4.521   9.234  0.7893  0.0513  3.3085
 1310SOL     OW15562   1.135   2.417   7.045 -0.8436 -0.1102 -0.0760
 1310SOL    HW115563   1.046   2.453   7.037 -0.7051  0.2193 -0.1176
 1310SOL    HW215564   1.174   2.491   7.091 -0.2187 -0.3213 -0.2679
 1311SOL     OW15565   3.724   3.468  16.924 -0.1138 -0.0914  0.2472
 1311SOL    HW115566   3.767   3.534  16.869 -0.2778  0.2882  0.5730
 1311SOL    HW215567   3.663   3.529  16.965 -0.1722  1.4047 -2.0530
 1312SOL     OW15568   3.429   0.339  14.082 -0.0845  0.4577 -0.0322
 1312SOL    HW115569   3.336   0.329  14.102 -0.0643  0.9435  0.3112
 1312SOL    HW215570   3.424   0.386  13.999 -0.8817 -0.4020 -0.4815
 1313SOL     OW15571   3.943   4.329   0.222  0.4600 -0.1463  0.1768
 1313SOL    HW115572   3.925   4.290   0.137  0.6312 -1.2486  0.6458
 1313SOL    HW215573   3.878   4.399   0.223  0.2606 -0.3026 -2.4072
 1314SOL     OW15574   3.773   0.094   4.790 -0.7510  0.2462 -0.1807
 1314SOL    HW115575   3.690   0.115   4.747 -0.5975  0.1464 -0.5316
 1314SOL    HW215576   3.837   0.133   4.731 -1.6145  1.6666 -0.1820
 1315SOL     OW15577   3.570   2.461   9.901 -0.0252  0.2735 -0.6114
 1315SOL    HW115578   3.572   2.464   9.997  1.7111 -0.9908 -0.6211
 1315SOL    HW215579   3.650   2.505   9.874  0.1966 -0.1198 -0.5849
 1316SOL     OW15580   1.900   1.550  13.972  0.0601 -0.0134  0.2193
 1316SOL    HW115581   1.817   1.537  14.018 -0.3989 -0.0615 -0.6279
 1316SOL    HW215582   1.879   1.634  13.930 -3.3956 -2.0039 -2.0573
 1317SOL     OW15583   1.227   0.637   9.039 -0.5721  0.5687  0.3267
 1317SOL    HW115584   1.167   0.628   8.966 -1.3766  3.3813  0.6195
 1317SOL    HW215585   1.187   0.567   9.090  0.6750 -0.4659 -0.1373
 1318SOL     OW15586   0.526   1.578   6.199  0.2862 -0.5859  0.1677
 1318SOL    HW115587   0.549   1.639   6.129 -2.3664 -1.5547 -1.5490
 1318SOL    HW215588   0.531   1.637   6.274 -2.8155 -1.3587  0.9495
 1319SOL     OW15589   4.254   0.761   4.811  0.6266  0.0117  0.0395
 1319SOL    HW115590   4.218   0.826   4.750 -1.9349 -0.7148  0.7842
 1319SOL    HW215591   4.233   0.682   4.761  1.1301 -0.7160  0.9844
 1320SOL     OW15592   3.506   3.030   3.467  0.4107 -0.1539 -0.5189
 1320SOL    HW115593   3.449   3.050   3.541  2.2252  1.9005  0.3225
 1320SOL    HW215594   3.565   3.104   3.474  0.0776  0.0251  0.3856
 1321SOL     OW15595   1.344   1.481   1.017  0.7766  0.6413  0.2810
 1321SOL    HW115596   1.287   1.513   0.947  0.8065 -2.9941 -1.3578
 1321SOL    HW215597   1.427   1.524   0.996  0.7736 -0.5632 -2.1296
 1322SOL     OW15598   2.194   1.023   9.234  0.0814  0.7300  0.1456
 1322SOL    HW115599   2.282   1.032   9.271 -0.5145 -1.8898  2.2806
 1322SOL    HW215600   2.179   1.115   9.216 -1.7746  0.2514 -0.7755
 1323SOL     OW15601   1.032   2.037   5.157  0.1193  0.0765 -0.2067
 1323SOL    HW115602   0.937   2.041   5.153 -0.0538 -1.6483  2.1456
 1323SOL    HW215603   1.045   1.953   5.201 -2.1345  1.5158  3.2123
 1324SOL     OW15604   2.008   1.031  11.104  0.2918 -0.3629  0.1153
 1324SOL    HW115605   2.095   0.991  11.094 -0.2678 -1.8270  1.0336
 1324SOL    HW215606   1.989   1.050  11.012 -1.2792  0.6559  0.6503
 1325SOL     OW15607   2.248   1.093  17.392  0.0039 -0.1399 -0.4892
 1325SOL    HW115608   2.200   1.013  17.376  0.7883 -0.5617 -0.7235
 1325SOL    HW215609   2.243   1.103  17.487 -0.7517  0.7389 -0.6214
 1326SOL     OW15610   3.222   1.792   4.285  0.0853  0.7495 -0.0260
 1326SOL    HW115611   3.262   1.875   4.311 -0.1071  1.2774 -1.4139
 1326SOL    HW215612   3.164   1.825   4.216  0.0651 -1.3111 -1.0010
 1327SOL     OW15613   0.963   2.273   9.079 -0.1500 -0.7946  0.3557
 1327SOL    HW115614   0.915   2.218   9.141 -0.8152 -1.0584 -0.3877
 1327SOL    HW215615   0.974   2.208   9.010 -1.4439  0.4854 -1.0582
 1328SOL     OW15616   2.031   1.518   0.702 -0.5361 -0.0838 -0.0732
 1328SOL    HW115617   2.051   1.450   0.767  0.5505 -0.0765 -0.3922
 1328SOL    HW215618   1.998   1.458   0.636 -2.4307  1.9224 -0.9384
 1329SOL     OW15619   2.699   3.827   6.791 -0.0714  0.0024  0.1857
 1329SOL    HW115620   2.649   3.832   6.873 -0.2545  2.4403 -0.0713
 1329SOL    HW215621   2.759   3.755   6.807 -1.8630 -1.7241 -0.8790
 1330SOL     OW15622   0.727   0.847   8.756  0.0909  0.1543 -0.1990
 1330SOL    HW115623   0.739   0.933   8.794  0.1073  1.1362 -2.4158
 1330SOL    HW215624   0.682   0.806   8.829  2.5454  0.7281  1.6184
 1331SOL     OW15625   3.379   2.595   9.240 -0.1881 -0.3221  0.0172
 1331SOL    HW115626   3.288   2.607   9.211  0.6609  0.3764 -2.4097
 1331SOL    HW215627   3.411   2.685   9.253  2.1563 -1.4424  1.8946
 1332SOL     OW15628   2.201   4.028   5.575  0.2529 -0.2810 -0.4732
 1332SOL    HW115629   2.228   4.026   5.484  1.4651  0.1786 -0.1224
 1332SOL    HW215630   2.245   3.950   5.609 -0.7829 -0.7088 -0.0985
 1333SOL     OW15631   0.471   3.006   7.117 -0.4075  0.2004  0.5786
 1333SOL    HW115632   0.507   2.980   7.032 -0.0423  0.6110  0.6008
 1333SOL    HW215633   0.433   2.924   7.147 -0.2806 -0.5531 -1.3471
 1334SOL     OW15634   1.004   0.788  10.128 -0.1179  0.3404 -0.3470
 1334SOL    HW115635   1.081   0.786  10.186 -0.7398  0.9081  0.5099
 1334SOL    HW215636   0.943   0.723  10.162  1.0691 -0.2496  0.6611
 1335SOL     OW15637   3.355   4.218   3.043 -0.3313  0.2545 -0.0746
 1335SOL    HW115638   3.331   4.138   3.090 -1.3227  0.1102 -0.8232
 1335SOL    HW215639   3.416   4.262   3.102  1.5983 -4.3508  1.4312
 1336SOL     OW15640   0.075   0.690   9.982  0.0732  0.3104 -0.2985
 1336SOL    HW115641   0.022   0.751  10.032  0.2585 -0.3387  0.6806
 1336SOL    HW215642   0.005   0.670   9.919 -1.7353 -2.0784  2.4672
 1337SOL     OW15643   4.724   2.739   3.994 -0.6043  0.1890  0.2812
 1337SOL    HW115644   0.003   2.671   4.059  3.1999  1.7112  0.8887
 1337SOL    HW215645   0.074   2.750   3.959 -1.3122 -0.4547 -1.7062
 1338SOL     OW15646   4.314   2.573   5.050  0.3126  0.0743  0.1136
 1338SOL    HW115647   4.281   2.497   5.099 -0.8666  0.7176  0.3144
 1338SOL    HW215648   4.236   2.629   5.053  1.7418  2.0590  0.0245
 1339SOL     OW15649   3.938   4.119   9.893  0.2846  0.0427  0.5374
 1339SOL    HW115650   3.853   4.155   9.869  0.8680  0.5749 -0.7388
 1339SOL    HW215651   4.001   4.184   9.861 -0.0201 -1.3779 -3.0032
 1340SOL     OW15652   1.028   0.210   8.332 -0.1350  0.0453  0.1504
 1340SOL    HW115653   1.015   0.163   8.414  0.9084 -1.1226 -0.3641
 1340SOL    HW215654   1.120   0.233   8.340 -0.3408  1.4475 -1.5415
 1341SOL     OW15655   4.072   0.643   7.570  0.2339  0.2203  0.3872
 1341SOL    HW115656   4.112   0.565   7.607  0.2035 -0.1234 -0.3056
 1341SOL    HW215657   4.129   0.640   7.493 -1.7763  2.0840 -1.1823
 1342SOL     OW15658   1.364   0.240   6.102 -0.1010  0.3924  0.1758
 1342SOL    HW115659   1.307   0.280   6.168 -0.8207  0.9020 -0.7634
 1342SOL    HW215660   1.430   0.198   6.158  0.8162  1.5613 -0.0317
 1343SOL     OW15661   4.038   0.020   6.582  0.0529  0.1500 -0.2407
 1343SOL    HW115662   4.082   4.695   6.524 -0.9639 -0.7264 -0.0556
 1343SOL    HW215663   4.083   0.100   6.552  1.0008  0.8742  3.1831
 1344SOL     OW15664   2.250   2.588  12.301  0.1307  0.6894 -0.6638
 1344SOL    HW115665   2.280   2.676  12.322  0.7769  0.0104  1.3017
 1344SOL    HW215666   2.324   2.555  12.250 -1.4491 -1.5780 -1.4701
 1345SOL     OW15667   0.485   3.750   8.851 -0.1472 -0.5897 -0.2986
 1345SOL    HW115668   0.403   3.726   8.895 -0.9944 -0.1684 -1.6378
 1345SOL    HW215669   0.498   3.817   8.918  0.0126  0.3530 -1.2800
 1346SOL     OW15670   2.900   2.202   3.733  0.1301 -0.3862 -0.3816
 1346SOL    HW115671   2.808   2.217   3.713 -0.8675 -3.5982  1.7298
 1346SOL    HW215672   2.941   2.243   3.657  1.7654  0.2902  0.8440
 1347SOL     OW15673   2.442   0.392  17.743 -0.4405  0.5212  0.2614
 1347SOL    HW115674   2.519   0.410  17.690 -0.6352 -1.8249 -0.8003
 1347SOL    HW215675   2.479   0.396   0.082 -1.6060 -0.2602  0.7835
 1348SOL     OW15676   0.308   2.683  12.645  0.3066  0.1084 -0.4308
 1348SOL    HW115677   0.369   2.610  12.655 -0.0062 -0.3296 -1.7012
 1348SOL    HW215678   0.367   2.754  12.622 -0.5016  1.0537  0.4233
 1349SOL     OW15679   0.480   4.313   9.128 -0.1344  0.0919 -0.2880
 1349SOL    HW115680   0.443   4.375   9.191 -1.7037 -1.2380  0.1298
 1349SOL    HW215681   0.438   4.343   9.048 -0.1199 -0.1887 -0.4025
 1350SOL     OW15682   1.362   3.206   8.495  0.0061  0.5269  0.2373
 1350SOL    HW115683   1.348   3.268   8.423  1.9111  0.3211 -0.2989
 1350SOL    HW215684   1.279   3.212   8.542  0.1231 -0.3171  0.5518
 1351SOL     OW15685   2.338   2.377   3.701 -0.5074 -0.0489  0.2683
 1351SOL    HW115686   2.337   2.429   3.781 -1.6302  0.2366  0.0706
 1351SOL    HW215687   2.360   2.291   3.736  0.0330  0.1349  0.3811
 1352SOL     OW15688   1.842   0.076   0.029  0.1135 -0.2724  0.1476
 1352SOL    HW115689   1.918   0.125  17.748 -0.1782 -0.3766 -0.7592
 1352SOL    HW215690   1.790   0.086  17.698  1.8879 -0.5264 -1.0266
 1353SOL     OW15691   1.949   0.463   6.384  0.3362  0.0949  0.5075
 1353SOL    HW115692   1.873   0.417   6.347  0.3515  1.5506 -1.3388
 1353SOL    HW215693   2.010   0.420   6.324 -0.4772  1.2610 -1.1628
 1354SOL     OW15694   1.846   1.851  12.188 -0.2355 -0.0350 -0.2660
 1354SOL    HW115695   1.937   1.859  12.217 -0.1260 -0.6600 -0.4275
 1354SOL    HW215696   1.869   1.763  12.157 -2.2607 -0.4602 -0.5351
 1355SOL     OW15697   3.743   4.079   8.425  0.0532  0.0709  0.5490
 1355SOL    HW115698   3.726   4.070   8.518  1.7897 -0.4948  0.8027
 1355SOL    HW215699   3.654   4.075   8.389  0.4797 -0.5685 -0.4366
 1356SOL     OW15700   2.088   3.151  16.850 -0.1162 -0.4818 -0.1245
 1356SOL    HW115701   2.030   3.075  16.844  0.0408 -0.4630 -1.6858
 1356SOL    HW215702   2.019   3.208  16.885 -0.4958 -2.1822  1.9159
 1357SOL     OW15703   3.165   1.135   9.005 -0.2659  0.5698  0.5539
 1357SOL    HW115704   3.209   1.202   8.952 -1.2654 -0.3513 -1.4260
 1357SOL    HW215705   3.220   1.063   8.976 -3.3100 -2.4145  2.1278
 1358SOL     OW15706   0.768   0.888   1.967 -0.1403  0.1070  0.2847
 1358SOL    HW115707   0.846   0.838   1.945  0.0762  0.3318  0.5479
 1358SOL    HW215708   0.809   0.962   2.012 -2.2642  0.5430  1.5067
 1359SOL     OW15709   3.189   1.622   2.690 -0.7981  0.0568  0.0161
 1359SOL    HW115710   3.222   1.621   2.780  0.3003 -0.3291 -0.3905
 1359SOL    HW215711   3.099   1.604   2.719 -0.1344  0.4221  2.2585
 1360SOL     OW15712   2.563   0.139   3.154  0.0640 -0.6502  0.0044
 1360SOL    HW115713   2.469   0.157   3.167  0.3043  0.4731  0.2118
 1360SOL    HW215714   2.604   0.217   3.192  1.4272 -0.0328 -2.7501
 1361SOL     OW15715   2.393   1.750   7.512 -0.2773 -0.0072 -0.5933
 1361SOL    HW115716   2.305   1.745   7.474 -0.5913 -0.2636  0.1834
 1361SOL    HW215717   2.441   1.780   7.434 -1.0993  2.2519 -0.2137
 1362SOL     OW15718   2.114   2.450  17.459 -0.4558  0.3740  0.1469
 1362SOL    HW115719   2.159   2.503  17.393 -0.9817 -1.5969 -1.8159
 1362SOL    HW215720   2.105   2.364  17.417  0.7814  1.5587 -2.5774
 1363SOL     OW15721   1.532   3.506   6.794  0.5969 -0.2181  0.5747
 1363SOL    HW115722   1.501   3.503   6.704  0.2157  0.0060  0.7007
 1363SOL    HW215723   1.625   3.516   6.774  0.7006 -0.4745  0.9145
 1364SOL     OW15724   0.631   0.269   6.531  0.1151  0.4619  0.2150
 1364SOL    HW115725   0.709   0.323   6.549  0.6606 -0.0344 -0.6724
 1364SOL    HW215726   0.564   0.306   6.588 -0.3264  2.2353 -1.4504
 1365SOL     OW15727   0.843   2.760   0.120 -0.3450 -0.2132  0.5872
 1365SOL    HW115728   0.759   2.779   0.078 -0.4910 -1.2842  0.4039
 1365SOL    HW215729   0.819   2.716   0.201  0.3803  0.7201  1.3171
 1366SOL     OW15730   0.607   3.924   2.510  0.1304  0.0743 -0.0645
 1366SOL    HW115731   0.693   3.884   2.524  1.0007  1.2765 -1.9517
 1366SOL    HW215732   0.564   3.861   2.452 -1.8531  0.6169  0.8156
 1367SOL     OW15733   0.385   4.110   6.317  0.7410 -0.3595  0.1951
 1367SOL    HW115734   0.300   4.086   6.280 -0.2537 -1.2955  3.0495
 1367SOL    HW215735   0.362   4.109   6.410 -0.6169  0.8627 -0.1195
 1368SOL     OW15736   4.086   2.706   7.056  0.1023  0.4523  0.0574
 1368SOL    HW115737   4.073   2.736   6.966  0.1289  1.9365  0.5348
 1368SOL    HW215738   4.171   2.748   7.072  1.5956 -1.9833 -1.5895
 1369SOL     OW15739   3.821   1.857  17.489  0.0621 -0.0014  0.3652
 1369SOL    HW115740   3.739   1.871  17.536  0.6632  2.3347  0.6853
 1369SOL    HW215741   3.884   1.881  17.556 -2.3580  1.6903  2.0272
 1370SOL     OW15742   3.810   1.170   5.828 -0.5594  0.5242 -0.2434
 1370SOL    HW115743   3.727   1.128   5.850 -0.0097  0.3781  1.5801
 1370SOL    HW215744   3.864   1.095   5.855  1.6132  2.4053  0.5958
 1371SOL     OW15745   3.466   2.528   4.484 -0.1421 -0.2372  0.3519
 1371SOL    HW115746   3.461   2.619   4.456  5.1837 -0.3619 -1.0453
 1371SOL    HW215747   3.378   2.489   4.481 -1.0222  1.7353  0.8158
 1372SOL     OW15748   3.736   1.121   5.334  0.2416 -0.2741 -0.2797
 1372SOL    HW115749   3.687   1.159   5.262 -0.1446 -2.2725 -1.0644
 1372SOL    HW215750   3.805   1.066   5.296 -1.8205 -2.0393 -1.4629
 1373SOL     OW15751   0.595   2.148   5.939 -0.0922  0.3719 -0.1251
 1373SOL    HW115752   0.659   2.151   5.867  0.4873  0.8277  0.4146
 1373SOL    HW215753   0.610   2.229   5.987 -1.0008  1.5738 -1.8499
 1374SOL     OW15754   0.259   2.497   4.889 -0.1044 -0.5159  0.0766
 1374SOL    HW115755   0.325   2.535   4.946 -1.9977  0.5538  1.5403
 1374SOL    HW215756   0.300   2.412   4.873  0.3250  0.0261 -1.7110
 1375SOL     OW15757   1.967   3.059  14.485 -0.1930 -0.2023 -0.0772
 1375SOL    HW115758   1.943   3.002  14.412  0.0197  0.9096 -1.0216
 1375SOL    HW215759   2.000   3.004  14.556 -1.8602  0.8041  1.4601
 1376SOL     OW15760   2.840   3.821  17.253 -0.3256 -0.2784  0.0344
 1376SOL    HW115761   2.778   3.828  17.180 -0.0361  2.2447  0.0402
 1376SOL    HW215762   2.843   3.726  17.268 -0.1788 -0.5476 -1.6402
 1377SOL     OW15763   3.716   3.429  14.993  0.1176 -0.2929 -0.4378
 1377SOL    HW115764   3.767   3.502  14.960 -0.9585  0.6359 -0.0443
 1377SOL    HW215765   3.646   3.423  14.928 -0.0027  1.8916 -0.5044
 1378SOL     OW15766   1.245   2.193  14.337 -0.2784 -0.0669  0.4858
 1378SOL    HW115767   1.228   2.180  14.430 -0.8590  0.3385  0.4394
 1378SOL    HW215768   1.166   2.247  14.326  0.8840  1.0556 -2.4010
 1379SOL     OW15769   2.452   1.895   4.350  0.2417  0.0932 -0.3074
 1379SOL    HW115770   2.381   1.950   4.317 -1.4422 -1.6087  0.4676
 1379SOL    HW215771   2.410   1.809   4.355  0.9320 -0.1635  1.3114
 1380SOL     OW15772   0.076   2.628   2.774 -0.2847 -0.6807 -0.5069
 1380SOL    HW115773   0.139   2.603   2.706 -1.0895  0.4085 -1.6468
 1380SOL    HW215774   0.124   2.639   2.856 -0.0933  3.5073 -1.1706
 1381SOL     OW15775   4.511   0.705   1.601 -0.7509  0.0444  0.3752
 1381SOL    HW115776   4.418   0.715   1.624 -0.1755  1.0412  2.2965
 1381SOL    HW215777   4.551   0.732   1.684  1.5109  0.8397 -1.0007
 1382SOL     OW15778   4.204   1.541   4.215 -0.5411  0.1391 -0.2769
 1382SOL    HW115779   4.241   1.597   4.284  1.4752  0.8413 -1.9319
 1382SOL    HW215780   4.123   1.525   4.264 -0.1977  1.9421  0.9006
 1383SOL     OW15781   3.694   4.602  14.775 -0.1560  0.1769  0.0683
 1383SOL    HW115782   3.599   4.598  14.767  0.0812 -3.6365 -0.8469
 1383SOL    HW215783   3.698   4.653  14.856  1.1048  0.9220 -0.4616
 1384SOL     OW15784   3.641   1.959  10.601  0.0599  0.0224  0.1395
 1384SOL    HW115785   3.657   1.970  10.695  0.3245  0.4442  0.0479
 1384SOL    HW215786   3.602   2.045  10.584  0.1918  0.3637  1.5431
 1385SOL     OW15787   0.294   0.903   0.887 -0.5095  0.7959 -0.0233
 1385SOL    HW115788   0.251   0.871   0.967  0.5251  1.0159  0.6138
 1385SOL    HW215789   0.353   0.967   0.926  0.4127  0.4705 -0.8962
 1386SOL     OW15790   3.538   3.352   2.381 -0.1987  0.6300  0.2490
 1386SOL    HW115791   3.525   3.447   2.377 -1.9095  0.3423 -1.1587
 1386SOL    HW215792   3.458   3.324   2.425 -0.7472 -1.9602 -2.3942
 1387SOL     OW15793   3.189   4.035   6.379  0.1217  0.2748  0.1109
 1387SOL    HW115794   3.175   4.129   6.369  2.1391  0.8490  2.8132
 1387SOL    HW215795   3.205   4.036   6.473  0.1350  1.3271  0.0954
 1388SOL     OW15796   3.007   1.636  14.619  0.0713 -0.0638 -0.3723
 1388SOL    HW115797   3.028   1.629  14.526  1.7080  2.0475 -0.1557
 1388SOL    HW215798   3.089   1.602  14.655 -0.6136 -0.9415  0.3514
 1389SOL     OW15799   4.686   1.059   2.242  0.0999  0.2648  0.1292
 1389SOL    HW115800   4.597   1.043   2.275 -0.3437  0.9210 -0.7130
 1389SOL    HW215801   4.683   1.037   2.149  0.4344  0.7966 -0.0061
 1390SOL     OW15802   2.593   0.074   4.313 -0.2382 -0.0554  0.1566
 1390SOL    HW115803   2.520   0.069   4.374  0.5232 -1.7454  0.9429
 1390SOL    HW215804   2.678   0.079   4.358 -0.8120  1.2781  1.0778
 1391SOL     OW15805   2.742   0.988   1.631  0.2143  0.1871 -0.0881
 1391SOL    HW115806   2.788   1.002   1.714  0.4531 -1.6154  0.0663
 1391SOL    HW215807   2.799   1.041   1.574  0.2132  1.9966  1.5958
 1392SOL     OW15808   3.239   0.745   6.719  0.9593  0.0897  0.0969
 1392SOL    HW115809   3.155   0.761   6.675  0.8988 -0.3935  0.0365
 1392SOL    HW215810   3.248   0.820   6.778 -2.6009 -0.2889  1.1269
 1393SOL     OW15811   1.562   2.260   4.558 -0.6418 -0.3132  0.0752
 1393SOL    HW115812   1.655   2.264   4.538 -0.7648  1.6069 -0.1141
 1393SOL    HW215813   1.569   2.224   4.647 -0.3230  1.5307  0.8040
 1394SOL     OW15814   2.537   1.463   0.073  0.0362  0.6943  0.0548
 1394SOL    HW115815   2.464   1.518   0.102 -0.5418  0.0957 -0.2696
 1394SOL    HW215816   2.522   1.462  17.728  0.1676  2.5238  0.0074
 1395SOL     OW15817   1.368   3.746   4.500 -0.3783  0.7018 -0.0045
 1395SOL    HW115818   1.377   3.675   4.563 -1.2559  0.7121  0.1318
 1395SOL    HW215819   1.455   3.784   4.486  0.1271 -0.9235 -1.1955
 1396SOL     OW15820   1.755   4.317   3.111  0.5038 -0.0318  0.1477
 1396SOL    HW115821   1.674   4.279   3.078 -0.0277 -1.5488  3.1899
 1396SOL    HW215822   1.814   4.244   3.091 -1.4713 -1.5928  0.1395
 1397SOL     OW15823   4.102   2.695   4.666 -0.3700 -0.1609 -0.7852
 1397SOL    HW115824   4.175   2.740   4.624 -0.9639  0.9758 -0.6058
 1397SOL    HW215825   4.049   2.766   4.703  1.7352  1.8263 -1.5857
 1398SOL     OW15826   0.632   3.880  17.435 -0.0801 -0.1799 -0.1968
 1398SOL    HW115827   0.727   3.870  17.434 -0.0431  0.0583  0.4989
 1398SOL    HW215828   0.616   3.936  17.512 -0.0867  0.1542 -0.4426
 1399SOL     OW15829   3.174   3.594  17.622 -0.2697 -0.3567  0.1164
 1399SOL    HW115830   3.131   3.674  17.653  0.9561  0.3311  0.0079
 1399SOL    HW215831   3.263   3.624  17.604  0.0373 -0.2755  1.7553
 1400SOL     OW15832   1.768   2.233   7.341  0.4917 -0.2216 -0.0232
 1400SOL    HW115833   1.796   2.267   7.426 -0.7089 -3.7942  1.7964
 1400SOL    HW215834   1.688   2.285   7.333  0.7809  0.2652  0.2618
 1401SOL     OW15835   2.182   1.168  14.600 -0.0895 -0.3313 -1.0308
 1401SOL    HW115836   2.210   1.082  14.633  2.3440 -0.4247 -3.3331
 1401SOL    HW215837   2.268   1.209  14.589  0.2760 -0.9643 -0.5424
 1402SOL     OW15838   3.551   3.103   2.023  0.6451  0.3776  0.0245
 1402SOL    HW115839   3.532   3.068   2.110  0.7534  1.2259  0.3941
 1402SOL    HW215840   3.631   3.052   2.009 -0.5408 -1.4220 -0.1885
 1403SOL     OW15841   1.725   3.799   8.912 -0.0714 -0.3541  0.1291
 1403SOL    HW115842   1.679   3.832   8.989  0.9403  1.6164 -0.1051
 1403SOL    HW215843   1.799   3.856   8.892  0.6878 -1.3286  0.1459
 1404SOL     OW15844   3.174   0.259  10.023 -0.2839  0.2641 -0.3269
 1404SOL    HW115845   3.192   0.166  10.034  3.4710  1.0272 -0.1660
 1404SOL    HW215846   3.121   0.286  10.098 -0.9114  0.0846 -0.7057
 1405SOL     OW15847   1.296   0.976   4.319  0.5590 -0.2698  0.3131
 1405SOL    HW115848   1.325   1.016   4.400 -2.7863  0.2007  1.2813
 1405SOL    HW215849   1.354   0.901   4.303  0.3114  0.0994 -2.3906
 1406SOL     OW15850   1.773   2.952   8.256  0.2022  0.2188 -0.0218
 1406SOL    HW115851   1.690   2.922   8.294 -0.2273  1.8778  0.3178
 1406SOL    HW215852   1.796   2.882   8.194  1.0758  0.8143 -0.3664
 1407SOL     OW15853   2.502   2.334  15.225 -0.6399 -0.4332 -0.7859
 1407SOL    HW115854   2.456   2.334  15.309  1.3719 -0.3770  0.3197
 1407SOL    HW215855   2.451   2.273  15.173 -1.1531  0.1120 -0.9223
 1408SOL     OW15856   0.610   2.831   5.213 -0.4843  0.2437  0.2207
 1408SOL    HW115857   0.518   2.837   5.187 -0.9542 -2.1540  1.3113
 1408SOL    HW215858   0.600   2.863   5.303  1.4758 -0.6862  0.7763
 1409SOL     OW15859   3.898   1.724  13.459  0.3739  0.3132  0.5825
 1409SOL    HW115860   3.922   1.678  13.540 -0.8283  2.7727  2.3298
 1409SOL    HW215861   3.847   1.662  13.408  1.8332 -1.1653  0.9264
 1410SOL     OW15862   4.481   0.847   8.399  0.2287 -0.4417 -0.2262
 1410SOL    HW115863   4.459   0.895   8.478  0.0911  2.1779 -1.8519
 1410SOL    HW215864   4.418   0.891   8.343 -0.0692 -0.2489  0.2660
 1411SOL     OW15865   2.088   3.908   5.331  0.1357 -0.1579 -0.0375
 1411SOL    HW115866   2.039   3.867   5.260  0.5304  0.0214 -0.4171
 1411SOL    HW215867   2.130   3.832   5.370 -2.1584 -2.2819 -1.7610
 1412SOL     OW15868   3.563   0.973   6.591  0.0800 -0.1429 -0.3911
 1412SOL    HW115869   3.481   1.021   6.605  0.6593  0.3239  1.4034
 1412SOL    HW215870   3.627   1.044   6.594  0.0248 -0.1027 -0.1364
 1413SOL     OW15871   4.153   4.575   6.773 -0.6654  0.3196  0.6713
 1413SOL    HW115872   4.063   4.599   6.753 -0.2309  1.1355 -0.2823
 1413SOL    HW215873   4.189   4.661   6.751 -0.1247 -0.0339  0.1760
 1414SOL     OW15874   1.438   2.238   7.372  0.1921  0.2241 -0.8550
 1414SOL    HW115875   1.348   2.226   7.343 -0.3430 -2.2797  1.8671
 1414SOL    HW215876   1.477   2.282   7.297  0.3340  0.0082 -0.9077
 1415SOL     OW15877   0.379   1.925   4.643  0.3973 -0.0266  0.4616
 1415SOL    HW115878   0.454   1.947   4.587 -2.4699  3.3795 -2.0433
 1415SOL    HW215879   0.334   1.871   4.578  1.5573  1.0038 -1.1921
 1416SOL     OW15880   4.127   4.225   7.402  0.1140 -0.0940 -0.3633
 1416SOL    HW115881   4.145   4.155   7.465 -1.8365 -0.6033 -0.3760
 1416SOL    HW215882   4.195   4.212   7.336 -0.9486  1.8827 -1.8325
 1417SOL     OW15883   3.719   2.922   9.828  0.1145  0.0311  0.2940
 1417SOL    HW115884   3.688   2.895   9.914 -1.3640  1.3885  0.1983
 1417SOL    HW215885   3.710   2.840   9.779 -0.9863 -0.3902  1.2062
 1418SOL     OW15886   1.118   4.617   2.535  0.1818  0.0439  0.1971
 1418SOL    HW115887   1.134   4.711   2.546  0.1221  0.2809 -1.7517
 1418SOL    HW215888   1.027   4.624   2.562 -0.1804  1.2143 -1.2984
 1419SOL     OW15889   2.183   2.007  17.462 -0.0501 -0.2410 -0.0886
 1419SOL    HW115890   2.140   2.056  17.392 -0.8050 -0.0459  0.5056
 1419SOL    HW215891   2.170   2.073  17.529 -0.1686 -2.1565  1.7898
 1420SOL     OW15892   1.986   2.374   7.126 -0.1502  0.2778 -0.6046
 1420SOL    HW115893   1.900   2.377   7.085  0.6165 -1.9706 -2.3515
 1420SOL    HW215894   2.032   2.423   7.060  1.8087 -1.6287 -0.6564
 1421SOL     OW15895   3.986   0.795   6.790 -0.2604  0.2416  0.1351
 1421SOL    HW115896   3.907   0.785   6.737  0.4353  3.4530 -1.4835
 1421SOL    HW215897   4.041   0.833   6.722  1.4643  0.7752  1.8223
 1422SOL     OW15898   3.361   3.498  16.834 -0.2481  0.4794 -0.7551
 1422SOL    HW115899   3.432   3.447  16.795 -2.0862 -1.7698 -1.1628
 1422SOL    HW215900   3.403   3.550  16.902 -0.9479  2.2585 -1.6860
 1423SOL     OW15901   3.793   2.724   8.491 -0.0669  0.4603 -0.0110
 1423SOL    HW115902   3.872   2.743   8.439  0.1156 -1.1965 -0.3223
 1423SOL    HW215903   3.741   2.803   8.475  0.3209  0.4104 -1.5455
 1424SOL     OW15904   1.307   3.834   4.925 -0.0545 -0.4090 -0.4035
 1424SOL    HW115905   1.264   3.917   4.901  1.4563  0.3850 -0.3548
 1424SOL    HW215906   1.313   3.852   5.019 -0.6146 -1.5343 -0.1541
 1425SOL     OW15907   1.590   3.325  13.777  0.0384  0.3401 -0.4290
 1425SOL    HW115908   1.520   3.265  13.801  1.4144 -0.9269  0.4348
 1425SOL    HW215909   1.666   3.283  13.819 -1.7820 -0.2736  2.2605
 1426SOL     OW15910   2.351   3.965   6.202  0.0015  0.3795 -0.7680
 1426SOL    HW115911   2.401   3.887   6.225 -2.0148 -0.8739 -0.6577
 1426SOL    HW215912   2.275   3.926   6.160 -1.0745  1.8791 -0.2083
 1427SOL     OW15913   2.378   2.566   5.641 -0.4457 -0.9405 -0.0940
 1427SOL    HW115914   2.326   2.505   5.693 -2.0960  0.6442  0.1227
 1427SOL    HW215915   2.382   2.644   5.695 -0.2087  0.3294 -1.9363
 1428SOL     OW15916   2.333   1.705  10.443  0.5657  0.3531  0.1191
 1428SOL    HW115917   2.279   1.704  10.522  0.9624  0.1367  0.3859
 1428SOL    HW215918   2.309   1.628  10.390 -1.2204  0.1503  1.2184
 1429SOL     OW15919   3.938   4.575   8.540  0.3652 -0.0717  0.0569
 1429SOL    HW115920   3.924   4.528   8.458  0.7999  0.3591 -0.2634
 1429SOL    HW215921   3.923   4.511   8.610  1.0237  0.8332  1.0156
 1430SOL     OW15922   2.859   1.092   3.829  0.1719 -0.5755 -0.0848
 1430SOL    HW115923   2.932   1.059   3.777  0.2899  1.0168 -0.9149
 1430SOL    HW215924   2.897   1.078   3.916  0.3146  0.9841  0.1047
 1431SOL     OW15925   2.097   0.925   5.413  0.4882 -0.2724 -0.2634
 1431SOL    HW115926   2.007   0.942   5.443  0.9363  2.4337 -0.4660
 1431SOL    HW215927   2.143   0.946   5.494 -0.8688  2.1365 -0.1192
 1432SOL     OW15928   0.634   1.570   7.889 -0.2257 -0.2203  0.4438
 1432SOL    HW115929   0.598   1.574   7.978 -1.0042 -0.2342  0.1190
 1432SOL    HW215930   0.711   1.512   7.896  0.0476  0.0826 -0.0455
 1433SOL     OW15931   4.518   4.417   5.325 -0.1122  0.2558 -0.2944
 1433SOL    HW115932   4.443   4.433   5.268 -1.1107 -1.0902  0.6503
 1433SOL    HW215933   4.472   4.441   5.405  0.2756  1.4965 -0.4414
 1434SOL     OW15934   3.803   4.107   3.614 -0.4071 -0.2310 -0.2529
 1434SOL    HW115935   3.715   4.100   3.578 -0.2831  1.2820 -0.8374
 1434SOL    HW215936   3.828   4.017   3.637 -2.5580 -0.5885  0.7042
 1435SOL     OW15937   1.817   3.416   7.825 -0.5360  0.1290 -0.3876
 1435SOL    HW115938   1.760   3.359   7.877  0.6035  0.0854  0.8477
 1435SOL    HW215939   1.775   3.418   7.740  1.6287  1.7749 -1.4130
 1436SOL     OW15940   2.198   4.426   6.057 -0.2702 -0.1953 -0.1207
 1436SOL    HW115941   2.239   4.359   6.111  2.8222  2.5054  0.9180
 1436SOL    HW215942   2.154   4.480   6.123 -1.7232  0.7099 -1.8002
 1437SOL     OW15943   2.855   2.840   2.013  0.7038  0.7275  0.2541
 1437SOL    HW115944   2.839   2.907   1.945  1.0189  0.6802  0.1340
 1437SOL    HW215945   2.783   2.858   2.073  0.2099 -1.2783  0.2599
 1438SOL     OW15946   4.565   2.460   7.536 -0.3331  0.4373 -0.1701
 1438SOL    HW115947   4.616   2.521   7.482  2.0249 -0.0854  1.4864
 1438SOL    HW215948   4.492   2.521   7.548 -1.5301 -1.0358 -0.0837
 1439SOL     OW15949   3.093   2.891   9.647 -0.4684 -0.4532 -0.3690
 1439SOL    HW115950   3.074   2.892   9.741  1.9326 -0.9091  0.1260
 1439SOL    HW215951   3.074   2.981   9.623  1.3591  0.2113  0.6352
 1440SOL     OW15952   2.354   1.574   6.355  0.2431 -0.2891  0.2673
 1440SOL    HW115953   2.320   1.622   6.431  1.2828  3.2110 -1.4612
 1440SOL    HW215954   2.433   1.624   6.333  1.0209 -1.5887  0.1175
 1441SOL     OW15955   1.401   4.163   3.982  0.1574 -0.5728  0.1569
 1441SOL    HW115956   1.341   4.089   3.986  0.6019 -0.7606  2.7808
 1441SOL    HW215957   1.453   4.154   3.902  0.1685  2.5707 -0.1890
 1442SOL     OW15958   3.773   4.499  11.518 -0.9675  0.2808  0.2784
 1442SOL    HW115959   3.764   4.553  11.439  0.6657  0.8642  0.4797
 1442SOL    HW215960   3.860   4.467  11.494 -1.4293  0.3914 -1.5155
 1443SOL     OW15961   4.505   3.361   7.221 -0.3267  0.1424  0.0817
 1443SOL    HW115962   4.505   3.280   7.272 -2.4038 -1.4304 -2.4626
 1443SOL    HW215963   4.433   3.414   7.255 -0.4009  0.1242 -0.0505
 1444SOL     OW15964   3.521   0.198   3.509 -0.0842  0.1032 -0.0198
 1444SOL    HW115965   3.605   0.238   3.484 -0.2857  0.1574 -0.6347
 1444SOL    HW215966   3.532   0.104   3.499  2.4926  0.4801 -0.5880
 1445SOL     OW15967   1.259   1.834  14.374 -0.0265 -0.4320 -0.4785
 1445SOL    HW115968   1.194   1.795  14.316 -1.8003  0.0771  1.2002
 1445SOL    HW215969   1.201   1.897  14.417 -3.2275 -1.9977 -2.5653
 1446SOL     OW15970   2.881   1.930   5.888 -0.3917 -0.0259 -0.7560
 1446SOL    HW115971   2.951   1.880   5.848  0.0284 -1.8067  2.2460
 1446SOL    HW215972   2.803   1.931   5.832  0.5592 -0.7046 -2.0833
 1447SOL     OW15973   0.572   3.792   7.014 -0.3762  0.2222 -0.4257
 1447SOL    HW115974   0.618   3.812   7.096  0.4916  1.0639 -1.1207
 1447SOL    HW215975   0.570   3.696   7.009  2.1202  0.1689 -0.3761
 1448SOL     OW15976   2.742   2.878   1.465  0.9463 -0.8032  0.2257
 1448SOL    HW115977   2.697   2.872   1.380  0.7661 -1.2392  0.3549
 1448SOL    HW215978   2.689   2.822   1.522 -0.5159  0.0437 -0.2713
 1449SOL     OW15979   1.271   1.159   7.901 -0.2867  0.4587 -0.0061
 1449SOL    HW115980   1.293   1.232   7.959 -2.0238  0.5077  0.5951
 1449SOL    HW215981   1.239   1.206   7.824  0.4123  1.3331  0.2402
 1450SOL     OW15982   2.595   1.067   6.597 -0.5422 -0.9030  0.0111
 1450SOL    HW115983   2.558   1.015   6.668 -0.4177 -0.4701  0.3871
 1450SOL    HW215984   2.603   1.001   6.527 -0.4158  0.8460 -1.6215
 1451SOL     OW15985   3.258   3.527   8.731  0.5527 -0.4546 -0.3223
 1451SOL    HW115986   3.188   3.592   8.739 -1.3532 -2.3995 -1.4205
 1451SOL    HW215987   3.208   3.446   8.742  2.1096 -1.3941 -0.0786
 1452SOL     OW15988   3.274   1.114  15.473 -0.3885  0.1814  0.5699
 1452SOL    HW115989   3.302   1.169  15.545  1.6328  1.4209 -1.1613
 1452SOL    HW215990   3.197   1.167  15.449 -0.1567 -1.0975 -2.9912
 1453SOL     OW15991   3.319   3.459   8.096  0.0175 -0.8914 -0.0306
 1453SOL    HW115992   3.323   3.537   8.041  1.0656 -0.1653  1.0760
 1453SOL    HW215993   3.225   3.443   8.106 -0.3737 -0.5444 -3.0215
 1454SOL     OW15994   1.361   3.147   1.614  0.0835  0.5670 -0.3230
 1454SOL    HW115995   1.386   3.059   1.585  0.2659  0.0684  1.3292
 1454SOL    HW215996   1.407   3.148   1.698 -1.2917 -1.3693  0.4309
 1455SOL     OW15997   1.133   4.565   8.570 -0.2609 -0.1701 -0.5705
 1455SOL    HW115998   1.072   4.606   8.632  0.1036 -0.6215  0.0885
 1455SOL    HW215999   1.183   4.641   8.543 -3.3499  2.4247  0.9740
 1456SOL     OW16000   0.945   1.506   0.094  0.0597  0.1427 -0.5465
 1456SOL    HW116001   0.979   1.416   0.103 -1.0071 -0.2722 -0.7190
 1456SOL    HW216002   1.001   1.545   0.027 -0.6228 -1.3181 -1.9730
 1457SOL     OW16003   1.289   3.767   2.636  0.2274  0.1237 -0.0681
 1457SOL    HW116004   1.341   3.838   2.598  0.2728 -0.5408 -1.2634
 1457SOL    HW216005   1.247   3.819   2.705 -0.7977  0.6427 -1.0867
 1458SOL     OW16006   3.291   1.248   3.086 -0.1090 -0.6406 -0.1004
 1458SOL    HW116007   3.304   1.153   3.095 -1.8400 -0.9045 -0.3161
 1458SOL    HW216008   3.210   1.249   3.035  1.4439  0.8587 -2.5404
 1459SOL     OW16009   2.362   4.120  11.573  0.2828 -0.3487  0.7262
 1459SOL    HW116010   2.412   4.199  11.595 -2.2410  1.4345  0.0175
 1459SOL    HW216011   2.437   4.081  11.528 -0.9270 -0.8125 -0.8857
 1460SOL     OW16012   3.481   1.462   1.058 -0.8420  0.0202  0.4258
 1460SOL    HW116013   3.447   1.546   1.087  1.8335  1.8036 -1.6217
 1460SOL    HW216014   3.559   1.464   1.112 -1.3518  0.9802  1.1171
 1461SOL     OW16015   1.068   1.936   6.917 -0.2011  0.2574 -0.3302
 1461SOL    HW116016   1.005   1.955   6.986  0.0832 -0.8311  0.2266
 1461SOL    HW216017   1.108   2.022   6.908 -1.7500  1.2141  1.8584
 1462SOL     OW16018   2.478   2.224   4.482  0.2240  0.1157  0.2898
 1462SOL    HW116019   2.457   2.292   4.417  0.2875  0.5860  0.7568
 1462SOL    HW216020   2.542   2.282   4.525  2.6372 -1.2037 -1.5391
 1463SOL     OW16021   3.445   2.333   8.496  0.2526 -0.0682  0.2760
 1463SOL    HW116022   3.438   2.427   8.510 -3.6663 -0.4166  0.7254
 1463SOL    HW216023   3.452   2.301   8.586 -2.7491  0.1028  0.5813
 1464SOL     OW16024   1.072   1.127   4.542 -0.3427 -0.2291 -0.2147
 1464SOL    HW116025   0.995   1.171   4.506  1.9520  1.7587 -2.6910
 1464SOL    HW216026   1.133   1.190   4.502 -2.8875  1.8747 -0.7821
 1465SOL     OW16027   1.339   2.530   2.234 -0.3885  0.6552 -0.0788
 1465SOL    HW116028   1.254   2.498   2.266 -0.7756  0.5365 -1.2299
 1465SOL    HW216029   1.373   2.555   2.320 -0.2626 -0.7560  0.2828
 1466SOL     OW16030   1.587   2.988  13.980  0.0438 -0.4603  0.6377
 1466SOL    HW116031   1.501   2.961  14.013 -1.5590  0.4487 -2.8743
 1466SOL    HW216032   1.613   3.051  14.047  4.4018 -1.3986 -0.1527
 1467SOL     OW16033   2.438   3.563   6.538  0.3351 -0.3029  0.0768
 1467SOL    HW116034   2.437   3.655   6.565 -2.0075  0.0638 -1.2366
 1467SOL    HW216035   2.386   3.575   6.458  0.8615 -3.9937 -0.8317
 1468SOL     OW16036   1.574   2.320   6.489  0.1381 -0.5402 -0.3756
 1468SOL    HW116037   1.515   2.392   6.510 -1.3141 -1.8375 -0.0399
 1468SOL    HW216038   1.652   2.339   6.541  0.2925 -0.2670 -0.7101
 1469SOL     OW16039   4.085   1.851   7.260  0.5400 -0.2320 -0.1697
 1469SOL    HW116040   4.178   1.827   7.257  1.2682  2.2107  2.8546
 1469SOL    HW216041   4.055   1.780   7.317  1.8077  0.0260  0.8348
 1470SOL     OW16042   1.758   1.303   1.521 -0.4282 -0.3972  0.3826
 1470SOL    HW116043   1.841   1.278   1.562 -0.1718  0.0007  0.1065
 1470SOL    HW216044   1.698   1.276   1.590  1.9255 -1.4619  2.0394
 1471SOL     OW16045   3.519   4.077   5.288 -0.1189 -0.5839 -0.1085
 1471SOL    HW116046   3.587   4.140   5.264 -0.2300  0.2023  1.7085
 1471SOL    HW216047   3.538   3.994   5.244  1.7551 -1.2938  2.0248
 1472SOL     OW16048   1.155   1.253  17.325  0.4779 -0.9252  0.5196
 1472SOL    HW116049   1.228   1.313  17.313 -0.2533 -0.4907 -1.6455
 1472SOL    HW216050   1.132   1.250  17.233  1.0967 -1.2100  0.3736
 1473SOL     OW16051   0.653   0.211  17.701  0.0829 -0.5572  0.2240
 1473SOL    HW116052   0.636   0.146   0.020  1.0511 -2.8303 -1.7305
 1473SOL    HW216053   0.572   0.210  17.650  0.5745  2.0449 -0.6153
 1474SOL     OW16054   0.633   4.460   4.701 -0.2305 -0.0146  0.1178
 1474SOL    HW116055   0.719   4.434   4.735 -1.2202  0.9199  3.3181
 1474SOL    HW216056   0.646   4.456   4.606 -1.4035 -2.3365  0.0560
 1475SOL     OW16057   4.379   3.165   4.231  0.0260  0.1928  0.4319
 1475SOL    HW116058   4.291   3.133   4.212  0.3177  0.1528 -0.8537
 1475SOL    HW216059   4.433   3.097   4.190 -0.3687  0.0831  0.1023
 1476SOL     OW16060   2.215   0.062   9.875  1.1478 -0.0236 -0.0846
 1476SOL    HW116061   2.253   0.146   9.852 -1.9548  1.3727 -0.1343
 1476SOL    HW216062   2.240   0.052   9.967  0.6568 -1.0267 -0.0632
 1477SOL     OW16063   0.597   2.747   2.470 -0.5738 -0.2961 -1.1496
 1477SOL    HW116064   0.541   2.777   2.541  1.5331 -0.4357  0.5882
 1477SOL    HW216065   0.675   2.799   2.491  0.8381 -2.0755 -1.8933
 1478SOL     OW16066   2.671   0.156   6.458 -0.4421  0.7516 -0.0063
 1478SOL    HW116067   2.579   0.129   6.465 -0.9999  1.7422 -3.4667
 1478SOL    HW216068   2.694   0.122   6.371  1.1111  2.3326 -0.2049
 1479SOL     OW16069   4.339   3.555   7.317  0.4402 -0.0516  0.0164
 1479SOL    HW116070   4.411   3.602   7.360  1.0807  1.9909 -3.2796
 1479SOL    HW216071   4.300   3.628   7.267 -0.9845 -0.2761  0.7999
 1480SOL     OW16072   0.649   2.680  15.494  0.5802 -0.1456  0.1478
 1480SOL    HW116073   0.691   2.685  15.580  1.1954 -0.4993 -0.1257
 1480SOL    HW216074   0.710   2.617  15.454 -1.2206 -1.7664 -0.0623
 1481SOL     OW16075   2.313   0.379   6.315 -0.3216 -0.0686  0.1484
 1481SOL    HW116076   2.238   0.379   6.255  1.1643  2.5428 -1.7189
 1481SOL    HW216077   2.386   0.381   6.254  1.4338 -2.3497  2.1520
 1482SOL     OW16078   1.063   3.511   5.052 -0.1391 -0.3184 -0.2831
 1482SOL    HW116079   1.101   3.426   5.073  0.0836  0.1788  1.2672
 1482SOL    HW216080   1.122   3.548   4.986 -1.6026  1.3740 -0.6139
 1483SOL     OW16081   3.276   3.616   5.842  0.2669  0.1031 -0.1740
 1483SOL    HW116082   3.363   3.634   5.807  0.7258  0.1041  0.9702
 1483SOL    HW216083   3.223   3.592   5.766 -0.4158 -0.7188  0.5669
 1484SOL     OW16084   4.342   0.158   6.780 -0.3377  0.4053  0.3282
 1484SOL    HW116085   4.401   0.233   6.786  0.2315 -0.3633  4.2615
 1484SOL    HW216086   4.358   0.119   6.694 -0.1480 -1.6922  1.3192
 1485SOL     OW16087   0.529   0.623   4.023 -0.8592 -0.3384  0.3042
 1485SOL    HW116088   0.468   0.613   4.096 -1.1580  0.7889  0.2220
 1485SOL    HW216089   0.583   0.549   4.049 -0.3579 -0.5547 -1.3588
 1486SOL     OW16090   3.119   1.352   0.448 -0.3852 -0.1534  0.3068
 1486SOL    HW116091   3.160   1.286   0.393  0.6157 -0.7872  1.8413
 1486SOL    HW216092   3.149   1.326   0.534  4.6847  0.9225 -1.1180
 1487SOL     OW16093   3.075   2.741  12.208  0.0482  0.4233  0.0223
 1487SOL    HW116094   3.170   2.744  12.196 -0.1491  1.6788 -1.2374
 1487SOL    HW216095   3.067   2.779  12.295  1.2499  3.2483 -1.0903
 1488SOL     OW16096   1.589   2.365   1.964  0.2942 -0.2785 -0.5074
 1488SOL    HW116097   1.502   2.344   1.997 -0.1748 -0.2598 -1.7310
 1488SOL    HW216098   1.567   2.407   1.881 -0.4343  0.3162 -0.0163
 1489SOL     OW16099   0.118   4.430  13.975  0.4283  0.0230 -0.3327
 1489SOL    HW116100   0.188   4.435  14.039  1.0621 -1.4516 -0.9198
 1489SOL    HW216101   0.088   4.521  13.981  0.7448  0.0749  0.4716
 1490SOL     OW16102   0.751   1.284  14.136  0.3325  0.0481  0.1797
 1490SOL    HW116103   0.697   1.312  14.210  0.9363  0.1609  0.5809
 1490SOL    HW216104   0.794   1.206  14.173 -0.5099 -0.1842  0.6726
 1491SOL     OW16105   4.155   2.451   3.966  0.4557 -0.0794  0.1189
 1491SOL    HW116106   4.097   2.402   4.024  0.2399 -0.0029 -0.0307
 1491SOL    HW216107   4.101   2.523   3.933 -0.9158 -1.2656 -0.1895
 1492SOL     OW16108   3.877   2.562   8.272 -0.3373 -0.3560  0.2116
 1492SOL    HW116109   3.927   2.544   8.352 -1.5854  0.2487  1.1106
 1492SOL    HW216110   3.794   2.516   8.285 -0.7904  0.0487 -1.2490
 1493SOL     OW16111   1.014   2.357   5.376  0.3538 -0.3333 -0.2795
 1493SOL    HW116112   0.925   2.392   5.374  0.0387 -1.0270  1.8255
 1493SOL    HW216113   1.043   2.414   5.304 -1.2060 -2.3385 -2.4688
 1494SOL     OW16114   3.730   2.096   7.608 -0.1090  0.1471  0.3990
 1494SOL    HW116115   3.712   2.015   7.656 -0.7178 -1.2401 -2.1084
 1494SOL    HW216116   3.655   2.152   7.629  1.1941  1.4055  1.7157
 1495SOL     OW16117   3.025   4.619   6.336 -0.2052  0.3818  0.0640
 1495SOL    HW116118   3.117   4.594   6.337 -0.3701 -0.0571  3.5841
 1495SOL    HW216119   3.009   4.713   6.331  2.2115  0.9539  2.9045
 1496SOL     OW16120   2.808   4.416  15.187  0.4324 -0.1559  0.5503
 1496SOL    HW116121   2.773   4.489  15.239 -1.5214  0.0569 -1.0894
 1496SOL    HW216122   2.727   4.381  15.152  1.8547 -2.2107 -0.7117
 1497SOL     OW16123   2.500   0.126   6.863 -0.6444  0.2949  0.2385
 1497SOL    HW116124   2.587   0.164   6.846  0.2293 -0.7324  2.3577
 1497SOL    HW216125   2.504   0.058   6.796 -0.1622  1.0828 -0.5436
 1498SOL     OW16126   3.208   1.070   1.238  0.1476  0.0313  0.7937
 1498SOL    HW116127   3.212   1.014   1.160  2.8398  0.2092  0.8036
 1498SOL    HW216128   3.174   1.150   1.200 -0.7173 -1.0601 -0.7272
 1499SOL     OW16129   2.682   2.794   0.298  0.2125  0.2565 -0.4805
 1499SOL    HW116130   2.596   2.773   0.333  1.2320 -1.8124  0.8263
 1499SOL    HW216131   2.707   2.874   0.344 -1.4773  0.6989 -0.3508
 1500SOL     OW16132   3.824   4.442   7.669  0.0519 -0.4369 -0.0174
 1500SOL    HW116133   3.775   4.455   7.588 -0.2495  0.2898  0.2797
 1500SOL    HW216134   3.838   4.534   7.693  1.3890 -0.1919 -1.7051
 1501SOL     OW16135   2.059   4.705   5.228  0.4834  0.1087  1.0340
 1501SOL    HW116136   1.984   4.652   5.200  0.1054  1.1559  0.0570
 1501SOL    HW216137   2.092   4.645   5.295 -0.8352 -0.8515  0.8236
 1502SOL     OW16138   4.251   0.109   8.826  0.3313  0.6953  0.1892
 1502SOL    HW116139   4.198   0.188   8.809  3.0530  2.7009  0.9683
 1502SOL    HW216140   4.342   0.139   8.823  1.8666 -4.0326  0.3725
 1503SOL     OW16141   1.719   4.430   5.918 -0.1938 -0.2476 -0.3015
 1503SOL    HW116142   1.765   4.450   5.837  1.1112  0.6689  0.6441
 1503SOL    HW216143   1.673   4.353   5.887  0.4817 -0.3050 -1.1541
 1504SOL     OW16144   1.753   1.466   4.837 -0.2527  0.4181  0.0285
 1504SOL    HW116145   1.718   1.475   4.925 -0.8003  0.6055 -0.2107
 1504SOL    HW216146   1.687   1.506   4.780  0.5573  2.4196  0.4896
 1505SOL     OW16147   1.330   1.355   6.374 -0.2777  0.2278 -0.0056
 1505SOL    HW116148   1.369   1.332   6.458 -2.2591  0.7394  1.0708
 1505SOL    HW216149   1.295   1.267   6.362 -1.7336  0.7739  0.2112
 1506SOL     OW16150   2.054   2.052   2.651 -0.0568 -0.4899  0.7721
 1506SOL    HW116151   1.959   2.043   2.646 -0.0909  0.7838 -1.0519
 1506SOL    HW216152   2.085   1.962   2.640 -1.0091 -0.8330  0.8936
 1507SOL     OW16153   2.718   0.751   6.884  0.2670 -0.3706 -0.3103
 1507SOL    HW116154   2.652   0.819   6.869  1.5986  1.2248  1.0346
 1507SOL    HW216155   2.732   0.731   6.791 -0.6535 -0.0089 -0.5291
 1508SOL     OW16156   2.660   0.895   1.059  0.5569 -0.0652  0.3115
 1508SOL    HW116157   2.594   0.933   1.001  0.0686 -0.2589  0.7353
 1508SOL    HW216158   2.611   0.822   1.098  2.2635 -1.7460 -0.6614
 1509SOL     OW16159   2.089   1.652   0.991  0.0771 -0.1229 -0.0684
 1509SOL    HW116160   2.026   1.582   0.974  0.6237 -0.3590 -1.1577
 1509SOL    HW216161   2.044   1.730   0.959 -0.4003 -0.9328 -1.3638
 1510SOL     OW16162   3.078   2.815   5.713  0.4038  0.0626 -0.5502
 1510SOL    HW116163   3.042   2.779   5.795 -1.8266  0.6894 -1.2441
 1510SOL    HW216164   3.122   2.738   5.678 -0.7242 -0.0812 -1.6507
 1511SOL     OW16165   0.747   2.725  10.816 -0.3537 -0.1229  0.6706
 1511SOL    HW116166   0.825   2.774  10.839 -1.2926  1.3180  0.7496
 1511SOL    HW216167   0.691   2.743  10.892  2.5028 -0.4604  2.8330
 1512SOL     OW16168   2.768   3.361   5.620  0.0858 -0.5137 -0.1274
 1512SOL    HW116169   2.765   3.265   5.622 -2.0134 -0.4772 -1.6718
 1512SOL    HW216170   2.816   3.367   5.537 -0.0566 -3.0034 -0.3905
 1513SOL     OW16171   4.415   2.753   8.582 -0.2662  0.2477  0.0086
 1513SOL    HW116172   4.384   2.735   8.493 -1.7668  1.7654  0.2281
 1513SOL    HW216173   4.344   2.795   8.630 -0.3190  1.0183 -0.7284
 1514SOL     OW16174   0.455   4.351   3.577 -0.1233 -0.4126 -0.8027
 1514SOL    HW116175   0.417   4.371   3.662  2.0624 -1.0058  0.3148
 1514SOL    HW216176   0.456   4.256   3.571  0.0629 -0.5078  0.8640
 1515SOL     OW16177   0.024   0.878  15.812 -0.0997  0.0990 -0.2595
 1515SOL    HW116178   0.074   0.854  15.734  1.8710  0.6296  0.8367
 1515SOL    HW216179   0.082   0.873  15.888  2.5057 -1.1902 -2.3051
 1516SOL     OW16180   2.854   1.788   6.552  0.6068 -0.5542 -0.0015
 1516SOL    HW116181   2.910   1.737   6.494  0.6803 -0.9379  0.4069
 1516SOL    HW216182   2.861   1.876   6.515  1.3562 -0.6140 -0.0131
 1517SOL     OW16183   3.138   1.756   3.596  0.4004 -0.1045  0.1128
 1517SOL    HW116184   3.111   1.820   3.661  0.0700 -1.2897  1.1400
 1517SOL    HW216185   3.127   1.800   3.512  1.4025 -0.3967 -0.1799
 1518SOL     OW16186   3.512   4.704  10.288 -0.4107  0.2926 -0.3492
 1518SOL    HW116187   3.565   0.024  10.233 -1.3647  0.5223 -1.0311
 1518SOL    HW216188   3.571   4.698  10.363 -0.8656  1.3501  0.1010
 1519SOL     OW16189   0.755   0.365   5.143  0.1321  0.0614  0.0120
 1519SOL    HW116190   0.668   0.325   5.144 -1.1028  2.7911  0.6405
 1519SOL    HW216191   0.724   0.449   5.174 -2.9752 -0.7027 -1.0298
 1520SOL     OW16192   0.294   4.369   1.874  0.2293  0.1185 -0.1531
 1520SOL    HW116193   0.211   4.372   1.826  0.1752 -0.8331 -0.1199
 1520SOL    HW216194   0.280   4.431   1.946 -2.2967 -1.7039  0.9641
 1521SOL     OW16195   4.247   0.213   3.083  0.0359 -0.0697  0.0209
 1521SOL    HW116196   4.185   0.203   3.011  0.0056 -0.4469  0.0995
 1521SOL    HW216197   4.229   0.131   3.128  3.4826 -1.2469 -0.7562
 1522SOL     OW16198   3.088   0.813   5.943 -0.2877 -0.2010  0.0727
 1522SOL    HW116199   3.093   0.721   5.967 -2.0955  0.1010  1.5747
 1522SOL    HW216200   3.080   0.857   6.028 -1.0592  1.3039 -0.7731
 1523SOL     OW16201   1.046   2.484   2.303  0.0336  0.5017  0.2883
 1523SOL    HW116202   0.989   2.469   2.227  3.1523  0.6489 -2.0561
 1523SOL    HW216203   1.003   2.421   2.361  3.3905 -2.0959 -0.0826
 1524SOL     OW16204   2.084   2.995   7.272  0.5967  0.8251 -0.4993
 1524SOL    HW116205   2.127   2.910   7.277 -0.6435  0.2655  1.0173
 1524SOL    HW216206   2.118   3.036   7.352  1.0916 -1.7794  0.6127
 1525SOL     OW16207   4.269   2.753   7.313  0.3778  0.2117 -0.3074
 1525SOL    HW116208   4.308   2.672   7.345  0.5853 -0.0150 -1.1382
 1525SOL    HW216209   4.321   2.771   7.234  1.0014 -2.4030 -0.5002
 1526SOL     OW16210   0.580   0.582   9.241 -0.6925 -0.1959  0.4896
 1526SOL    HW116211   0.496   0.609   9.206  0.4528  0.1532 -2.0149
 1526SOL    HW216212   0.594   0.643   9.313 -2.1350  0.1448  0.4810
 1527SOL     OW16213   0.096   1.696   4.804  0.6299  0.2033 -0.2959
 1527SOL    HW116214   0.085   1.675   4.711  1.4431  0.3020 -0.4173
 1527SOL    HW216215   0.080   1.789   4.813  2.0743  0.0640  3.7426
 1528SOL     OW16216   2.174   2.247   4.774  0.3017  0.6922 -0.1786
 1528SOL    HW116217   2.142   2.157   4.779 -1.5506  1.4343  1.1235
 1528SOL    HW216218   2.198   2.260   4.865 -0.6921 -0.0041  0.1901
 1529SOL     OW16219   2.251   0.246  15.823 -0.3657  0.0389  0.0239
 1529SOL    HW116220   2.182   0.180  15.816  0.1415 -0.7229  2.1395
 1529SOL    HW216221   2.322   0.195  15.784  0.6046  1.3919  0.0159
 1530SOL     OW16222   4.202   1.816   5.170 -0.4299  0.5371 -0.1112
 1530SOL    HW116223   4.138   1.784   5.106 -0.3168 -0.3180  0.1970
 1530SOL    HW216224   4.144   1.816   5.246  0.0040 -1.3367  0.2196
 1531SOL     OW16225   1.192   0.955  14.353 -0.4570  0.0465 -0.2406
 1531SOL    HW116226   1.233   0.931  14.436 -1.7046 -1.8251 -0.1454
 1531SOL    HW216227   1.246   0.906  14.290  1.2773 -0.0540  1.3505
 1532SOL     OW16228   2.032   3.932   7.697 -0.9424 -0.1664 -0.1286
 1532SOL    HW116229   2.061   3.842   7.714  1.1129  0.0675 -2.4743
 1532SOL    HW216230   1.960   3.905   7.640 -1.8674  2.6893 -0.2828
 1533SOL     OW16231   4.570   1.641   5.618 -0.6652  0.1622  0.1628
 1533SOL    HW116232   4.589   1.718   5.566  0.2374 -0.9800 -1.1781
 1533SOL    HW216233   4.495   1.671   5.670 -0.5493  1.4734 -0.4412
 1534SOL     OW16234   1.215   0.821   6.369  0.1520 -0.0970 -0.0023
 1534SOL    HW116235   1.174   0.784   6.447 -2.6931  0.1249 -1.3830
 1534SOL    HW216236   1.303   0.810   6.405  0.9429 -1.0530 -2.2494
 1535SOL     OW16237   3.882   2.941   1.098  0.6506  0.0081  0.0601
 1535SOL    HW116238   3.792   2.925   1.124  0.5803  0.0275 -0.1713
 1535SOL    HW216239   3.865   2.998   1.023 -0.3407 -1.1817 -0.6200
 1536SOL     OW16240   4.036   2.839   2.476  0.6926 -0.2339  0.1039
 1536SOL    HW116241   4.060   2.831   2.383 -1.0500 -0.2517 -0.3282
 1536SOL    HW216242   4.095   2.909   2.505  1.6115 -0.1880 -1.8638
 1537SOL     OW16243   2.448   3.234   1.809  0.5006 -0.0236  0.2586
 1537SOL    HW116244   2.402   3.165   1.856 -1.2222  1.8846  1.4056
 1537SOL    HW216245   2.466   3.183   1.729 -0.1240  0.1377  0.0133
 1538SOL     OW16246   0.382   3.822  17.320  0.2779  0.3262 -0.6375
 1538SOL    HW116247   0.424   3.818  17.234 -1.2221 -0.1065 -1.3453
 1538SOL    HW216248   0.456   3.848  17.375  0.3649 -1.8628  0.2727
 1539SOL     OW16249   4.526   1.822   2.560 -0.3549  0.4837  1.0275
 1539SOL    HW116250   4.602   1.840   2.615  0.3651 -0.2688  0.2776
 1539SOL    HW216251   4.465   1.876   2.611 -1.6518  0.9020 -0.9814
 1540SOL     OW16252   1.889   1.599   3.269  0.0664 -0.2739  0.3399
 1540SOL    HW116253   1.938   1.573   3.191  0.4871 -3.1230  1.5692
 1540SOL    HW216254   1.940   1.671   3.306 -1.0000  0.9891 -0.6351
 1541SOL     OW16255   3.803   3.816   1.729 -0.2491 -0.9607  0.8359
 1541SOL    HW116256   3.821   3.859   1.645  2.0209  0.3652  1.9779
 1541SOL    HW216257   3.709   3.833   1.736 -0.0618 -0.1095  1.2763
 1542SOL     OW16258   2.045   2.202   3.198  0.0339  0.7012 -0.4814
 1542SOL    HW116259   2.041   2.181   3.104  2.5977  0.1503 -0.4654
 1542SOL    HW216260   2.130   2.161   3.214 -0.2296  0.6531  0.7596
 1543SOL     OW16261   3.923   4.637   5.213 -0.2336 -0.2255  0.6774
 1543SOL    HW116262   3.970   4.608   5.291 -2.3698  1.6891  2.6811
 1543SOL    HW216263   3.980   4.705   5.176  1.0313 -3.0572 -2.6257
 1544SOL     OW16264   2.610   1.182   3.969 -0.1910  0.2182  0.3717
 1544SOL    HW116265   2.706   1.189   3.969 -0.1147 -0.7546  2.3006
 1544SOL    HW216266   2.593   1.274   3.987  2.8235  0.2644  2.9971
 1545SOL     OW16267   1.797   1.965   4.568 -0.3256 -0.0155 -0.0689
 1545SOL    HW116268   1.851   1.995   4.641 -0.8282 -0.8304  0.6429
 1545SOL    HW216269   1.721   1.941   4.620  2.5294 -3.0955  2.7160
 1546SOL     OW16270   3.909   0.439   5.150  0.0045  0.3876 -0.3731
 1546SOL    HW116271   3.939   0.395   5.071 -0.4878 -1.3089  0.3787
 1546SOL    HW216272   3.835   0.384   5.176  1.3940  0.2422  3.3135
 1547SOL     OW16273   1.594   4.388   3.416  0.1521 -0.2627 -0.5667
 1547SOL    HW116274   1.531   4.455   3.392  1.1775  0.9618  0.1805
 1547SOL    HW216275   1.613   4.418   3.505  1.9782 -0.5369 -0.8497
 1548SOL     OW16276   0.956   1.278   0.390  0.6635  0.0804 -0.0525
 1548SOL    HW116277   0.954   1.196   0.340 -0.3745 -0.7361  1.3438
 1548SOL    HW216278   0.867   1.301   0.362  0.5595  0.9763  0.9973
 1549SOL     OW16279   4.436   2.873   3.399  0.0077 -0.6388  0.2851
 1549SOL    HW116280   4.527   2.878   3.426 -0.3852 -1.6860  1.8014
 1549SOL    HW216281   4.418   2.965   3.381 -0.3010 -0.7327  0.1128
 1550SOL     OW16282   2.283   3.201  12.417  0.2472  0.0319  0.5295
 1550SOL    HW116283   2.354   3.170  12.361 -0.5507 -0.1668 -0.3745
 1550SOL    HW216284   2.209   3.168  12.366 -0.3896  0.8469  0.9128
 1551SOL     OW16285   2.018   3.540   9.411 -0.2172 -0.0777 -0.8372
 1551SOL    HW116286   2.017   3.561   9.317  1.9419 -1.1501 -1.1063
 1551SOL    HW216287   2.082   3.469   9.404 -1.5403 -1.7860  4.2149
 1552SOL     OW16288   2.380   0.441   3.105  0.4113  0.0156  0.1357
 1552SOL    HW116289   2.390   0.473   3.195  2.3151  0.6455 -0.3011
 1552SOL    HW216290   2.352   0.353   3.132  1.0558 -1.1215 -2.9682
 1553SOL     OW16291   0.411   4.424  10.939 -0.6032 -0.0139 -0.1492
 1553SOL    HW116292   0.407   4.361  10.866 -0.8029  0.3403 -0.4429
 1553SOL    HW216293   0.417   4.371  11.018  2.7337  0.4402 -0.0942
 1554SOL     OW16294   3.494   1.853  12.229 -0.2112 -0.6724  0.5046
 1554SOL    HW116295   3.530   1.941  12.235 -2.0824  0.0767  0.6737
 1554SOL    HW216296   3.546   1.811  12.297  0.8327 -1.6975 -0.9340
 1555SOL     OW16297   2.180   2.890   2.553  0.6253  0.0525 -0.8270
 1555SOL    HW116298   2.244   2.841   2.502  0.3296 -0.2302 -0.9287
 1555SOL    HW216299   2.133   2.939   2.485 -5.1897 -2.8234  1.0724
 1556SOL     OW16300   0.202   3.464   5.427 -0.1207  0.2154  0.1572
 1556SOL    HW116301   0.108   3.484   5.431  0.5773  3.2037  1.7237
 1556SOL    HW216302   0.228   3.515   5.350 -1.4388  0.3567 -0.1965
 1557SOL     OW16303   1.359   1.003   8.687  0.8109 -0.3817  0.1446
 1557SOL    HW116304   1.308   1.022   8.609  0.9306 -0.5362  0.0285
 1557SOL    HW216305   1.321   1.054   8.759  2.2198 -0.4405  0.9415
 1558SOL     OW16306   0.152   1.607   7.711 -0.5081 -0.3322 -0.0816
 1558SOL    HW116307   0.113   1.662   7.643  0.7316 -0.2315 -0.7042
 1558SOL    HW216308   0.235   1.573   7.680 -0.8999 -0.8653 -0.5500
 1559SOL     OW16309   3.538   0.640   4.937  0.3473  0.1437 -0.1493
 1559SOL    HW116310   3.504   0.554   4.964 -0.5761  1.3766  2.5475
 1559SOL    HW216311   3.623   0.643   4.979  0.0555  1.0197  0.3662
 1560SOL     OW16312   4.018   0.451  11.504 -0.4516 -0.2621  0.0009
 1560SOL    HW116313   4.104   0.409  11.511 -0.5871 -0.4111  0.7260
 1560SOL    HW216314   4.037   0.539  11.535 -0.0916 -1.1385  2.2535
 1561SOL     OW16315   4.274   0.650  14.273 -0.1759  0.0752 -0.4054
 1561SOL    HW116316   4.333   0.717  14.239 -0.4815  1.0313  0.9896
 1561SOL    HW216317   4.208   0.702  14.319 -1.1565  0.8020 -2.5874
 1562SOL     OW16318   4.708   0.696   2.757 -1.0866 -0.0430  0.0758
 1562SOL    HW116319   4.708   0.742   2.673 -1.1223 -1.1686 -0.5417
 1562SOL    HW216320   4.619   0.707   2.789 -0.7137  0.8963  0.7888
 1563SOL     OW16321   0.492   1.037  13.700  0.2053  0.2979  0.3718
 1563SOL    HW116322   0.485   1.110  13.761 -0.7723  1.3402 -0.9826
 1563SOL    HW216323   0.558   0.980  13.740 -1.5135 -1.6570  0.4325
 1564SOL     OW16324   1.558   4.398  11.489  0.4488 -0.1114 -0.1484
 1564SOL    HW116325   1.579   4.304  11.490  0.3888 -0.1286 -0.8203
 1564SOL    HW216326   1.465   4.399  11.471  0.6271 -1.1065 -1.1092
 1565SOL     OW16327   0.580   0.507  15.768 -0.2412 -0.3077 -0.2977
 1565SOL    HW116328   0.486   0.513  15.784 -0.2497 -1.0907 -0.0890
 1565SOL    HW216329   0.575   0.427  15.716  0.0754 -1.1641  0.9760
 1566SOL     OW16330   2.866   1.042   1.181  0.2458  0.2037 -0.2563
 1566SOL    HW116331   2.786   1.048   1.129 -0.6789  1.7133  1.3323
 1566SOL    HW216332   2.889   0.949   1.192 -0.7989  0.0796  0.9025
 1567SOL     OW16333   2.092   2.322   7.856  0.3829 -0.7433  0.2446
 1567SOL    HW116334   2.118   2.322   7.763 -1.7684  0.1360 -0.3527
 1567SOL    HW216335   2.144   2.386   7.906 -0.8436 -0.8098  1.5866
 1568SOL     OW16336   0.772   2.496   3.603 -0.4995  0.1298  0.4865
 1568SOL    HW116337   0.751   2.548   3.525  1.1080 -0.3275 -0.2542
 1568SOL    HW216338   0.802   2.567   3.660  0.1927 -1.5862  2.2552
 1569SOL     OW16339   1.650   0.705   2.236  0.9252 -0.0390 -0.8688
 1569SOL    HW116340   1.614   0.715   2.324  2.9342  2.8356 -0.3679
 1569SOL    HW216341   1.585   0.652   2.190  0.5829 -0.0265 -0.3994
 1570SOL     OW16342   2.987   3.361   6.597 -0.3114 -0.8352 -0.2959
 1570SOL    HW116343   3.033   3.368   6.514  2.2680 -0.6074  1.1684
 1570SOL    HW216344   2.916   3.300   6.573 -0.7233 -0.4484 -0.0672
 1571SOL     OW16345   0.837   0.008   1.789  0.8405 -0.5734  0.0726
 1571SOL    HW116346   0.742   0.007   1.784  0.8006  1.0016  0.5277
 1571SOL    HW216347   0.861   0.100   1.797 -1.2308 -0.1457  1.4783
 1572SOL     OW16348   3.714   4.073   5.985 -0.4520 -0.0579 -0.2270
 1572SOL    HW116349   3.688   4.151   5.936 -2.6367  0.9784  2.6011
 1572SOL    HW216350   3.763   4.107   6.060  1.5764  0.4467 -1.7786
 1573SOL     OW16351   3.674   3.399   1.801 -0.4250 -0.0688  0.0155
 1573SOL    HW116352   3.634   3.458   1.865 -0.7207 -0.7624  0.4607
 1573SOL    HW216353   3.758   3.384   1.845 -0.2086  1.3244  0.0995
 1574SOL     OW16354   0.289   0.867   5.365  0.5524  0.0297  0.1742
 1574SOL    HW116355   0.204   0.908   5.351 -0.3275 -1.3499  1.4381
 1574SOL    HW216356   0.315   0.839   5.277 -1.7069 -1.9075  0.0967
 1575SOL     OW16357   2.999   1.333   3.528 -0.1287  0.1217  0.4557
 1575SOL    HW116358   2.934   1.338   3.598  0.0918 -1.0748  0.7418
 1575SOL    HW216359   2.950   1.306   3.451  0.5283  2.2684 -0.7218
 1576SOL     OW16360   0.147   4.208   2.922 -0.4810 -0.2121  0.0481
 1576SOL    HW116361   0.088   4.218   2.847  0.0251 -0.1120 -0.3359
 1576SOL    HW216362   0.101   4.169   2.997  0.0097  0.7732  0.8526
 1577SOL     OW16363   1.352   0.821  12.915 -0.1656  0.7488  0.1245
 1577SOL    HW116364   1.311   0.737  12.934  0.1910  0.4547 -0.4082
 1577SOL    HW216365   1.340   0.869  12.997  0.4748  0.1781  0.5525
 1578SOL     OW16366   4.737   1.071  10.697  0.3699 -0.2677  0.3794
 1578SOL    HW116367   4.686   1.102  10.773 -1.8545  1.8348 -1.9627
 1578SOL    HW216368   0.072   1.029  10.742 -1.2054 -2.6593  0.6940
 1579SOL     OW16369   2.781   3.616   4.035  0.0221 -0.0071  0.4239
 1579SOL    HW116370   2.689   3.612   4.011  0.5244 -0.1185 -1.5216
 1579SOL    HW216371   2.804   3.531   3.997 -2.0817 -0.7018  0.7139
 1580SOL     OW16372   0.805   3.670   8.456  0.1389  0.4122  0.4527
 1580SOL    HW116373   0.775   3.594   8.407  0.8307 -0.0143  0.6901
 1580SOL    HW216374   0.763   3.670   8.542 -1.3281  0.5977 -0.2714
 1581SOL     OW16375   2.861   0.740   9.184  0.0499  0.7419  0.2408
 1581SOL    HW116376   2.928   0.802   9.155  0.2655 -0.9227 -2.8143
 1581SOL    HW216377   2.839   0.750   9.277  2.3616  0.3655  0.8452
 1582SOL     OW16378   4.512   3.630  12.922  0.2096 -0.1675  0.0677
 1582SOL    HW116379   4.475   3.610  12.835  0.5010  0.5627 -0.2308
 1582SOL    HW216380   4.581   3.687  12.886 -0.6226  0.1444 -1.0471
 1583SOL     OW16381   1.063   4.612   5.929 -0.0762  0.3732  0.3782
 1583SOL    HW116382   1.055   4.616   6.025  0.3117  0.8199  0.3929
 1583SOL    HW216383   1.074   4.704   5.906 -0.3550  0.0775 -0.8876
 1584SOL     OW16384   2.676   0.604   4.890 -0.5078 -0.0257 -0.0485
 1584SOL    HW116385   2.689   0.695   4.864  1.4746 -0.2468  0.1699
 1584SOL    HW216386   2.766   0.581   4.914 -0.2193 -0.1552 -1.2473
 1585SOL     OW16387   1.274   1.193   0.886 -0.2224 -0.2384 -0.3218
 1585SOL    HW116388   1.336   1.244   0.834 -1.3099  1.3758 -0.0426
 1585SOL    HW216389   1.332   1.187   0.961  0.4786 -2.1889 -1.0044
 1586SOL     OW16390   1.025   2.968   8.847  0.3719  0.6473 -0.3996
 1586SOL    HW116391   1.064   3.028   8.910 -0.8543  1.3260 -0.2757
 1586SOL    HW216392   1.073   2.888   8.866  0.6709  0.8891 -0.1466
 1587SOL     OW16393   0.845   3.163   3.715 -0.1517  0.0085 -0.1705
 1587SOL    HW116394   0.932   3.198   3.732 -0.8835  1.0346  1.4733
 1587SOL    HW216395   0.850   3.126   3.627  0.5870 -2.2082  0.7966
 1588SOL     OW16396   2.140   3.307  10.741  0.5409 -0.2039 -0.0931
 1588SOL    HW116397   2.147   3.295  10.836  0.6733  0.7702  0.0199
 1588SOL    HW216398   2.047   3.284  10.736 -0.0309  1.8294  1.2791
 1589SOL     OW16399   2.923   2.117  11.586 -0.4146 -0.3819 -0.5448
 1589SOL    HW116400   2.927   2.212  11.596 -2.5746 -0.5917  2.4418
 1589SOL    HW216401   2.962   2.085  11.667  1.7041 -0.5742 -1.6485
 1590SOL     OW16402   1.866   0.417   3.256 -0.0018  0.0160  0.0815
 1590SOL    HW116403   1.944   0.455   3.217 -0.0879 -0.7409 -0.8066
 1590SOL    HW216404   1.901   0.330   3.272  0.6700  0.5456  1.4631
 1591SOL     OW16405   3.374   0.596   9.129 -0.2916  0.1664  0.0618
 1591SOL    HW116406   3.421   0.522   9.167 -0.2470  0.4168  0.4798
 1591SOL    HW216407   3.416   0.612   9.044 -0.1575 -4.0247 -0.7044
 1592SOL     OW16408   2.223   1.913   7.986 -0.2955 -0.4399  0.0809
 1592SOL    HW116409   2.289   1.847   8.007  0.6446  0.2070 -0.8282
 1592SOL    HW216410   2.275   1.989   8.012  0.6532 -0.8513 -0.5958
 1593SOL     OW16411   4.311   2.106   7.352 -0.2767 -0.1423  0.1506
 1593SOL    HW116412   4.221   2.115   7.383 -0.5967 -0.9108 -0.5430
 1593SOL    HW216413   4.310   2.050   7.274  1.2417  0.7637 -0.5090
 1594SOL     OW16414   2.927   1.932  12.911 -0.1446 -0.0654  0.4769
 1594SOL    HW116415   2.965   1.970  12.832  2.3234  0.9366  2.1410
 1594SOL    HW216416   2.834   1.939  12.890  0.1851  1.6372 -0.4050
 1595SOL     OW16417   0.245   2.717   9.085  0.1625  0.6274 -0.0259
 1595SOL    HW116418   0.339   2.721   9.107 -0.7528  2.1166  3.6277
 1595SOL    HW216419   0.213   2.806   9.095  2.6591  1.1971  2.9621
 1596SOL     OW16420   4.526   3.622   5.191 -0.0901 -0.2911  0.0017
 1596SOL    HW116421   4.431   3.616   5.184 -0.2760  1.7866  0.6980
 1596SOL    HW216422   4.553   3.543   5.145  1.4235  1.2430 -1.7441
 1597SOL     OW16423   1.122   4.559   8.988 -0.1110  0.3556  0.0818
 1597SOL    HW116424   1.090   4.525   8.904 -3.6441 -0.0310  1.6110
 1597SOL    HW216425   1.121   4.484   9.047  0.1871  0.6807  0.4980
 1598SOL     OW16426   0.829   2.668  13.494 -0.1727  0.0714 -0.0150
 1598SOL    HW116427   0.822   2.654  13.399  0.4450  1.2613 -0.2368
 1598SOL    HW216428   0.862   2.588  13.535  0.9556  1.0390  0.9704
 1599SOL     OW16429   3.338   4.235   5.991 -0.6786 -0.9866 -0.2149
 1599SOL    HW116430   3.325   4.201   5.903 -2.9058 -1.8166  0.4395
 1599SOL    HW216431   3.346   4.159   6.048  1.8324  1.4958  2.7644
 1600SOL     OW16432   3.043   0.903   7.740  0.2971  0.4100 -0.6870
 1600SOL    HW116433   3.043   0.960   7.817  1.3206 -0.0489 -0.3481
 1600SOL    HW216434   3.039   0.815   7.777  3.8942  0.0829 -1.1032
 1601SOL     OW16435   0.953   4.291   5.470 -1.0947  0.3698  0.1561
 1601SOL    HW116436   0.985   4.201   5.482 -3.0493 -0.1624  1.5078
 1601SOL    HW216437   0.922   4.316   5.557 -1.6303  2.2831 -0.5752
 1602SOL     OW16438   0.406   1.905   9.064 -0.2907 -0.0575 -0.3405
 1602SOL    HW116439   0.336   1.840   9.062  0.0202 -0.2986 -2.9870
 1602SOL    HW216440   0.401   1.939   9.154 -0.7433 -2.2147  0.4365
 1603SOL     OW16441   4.051   3.119  10.416  0.4200 -0.1993  0.3968
 1603SOL    HW116442   4.044   3.178  10.342 -0.0769 -1.2316 -0.3826
 1603SOL    HW216443   3.968   3.140  10.460 -0.8529  0.9226 -2.5965
 1604SOL     OW16444   2.746   2.020  16.519 -0.2772  0.1545 -0.1288
 1604SOL    HW116445   2.697   2.034  16.439 -2.1461 -0.9629  0.8287
 1604SOL    HW216446   2.703   2.077  16.582  0.5832  0.9990 -0.2964
 1605SOL     OW16447   3.607   0.821   4.422 -0.1202  0.1177  0.0930
 1605SOL    HW116448   3.585   0.738   4.382  1.9674 -0.5325  0.2857
 1605SOL    HW216449   3.558   0.884   4.368 -2.1109 -1.1572  0.4358
 1606SOL     OW16450   3.171   0.185  12.335  0.2871  0.5705  0.1667
 1606SOL    HW116451   3.121   0.247  12.281 -0.2787  0.5429  0.6537
 1606SOL    HW216452   3.129   0.213  12.417  0.8873  1.2441  0.2384
 1607SOL     OW16453   0.293   2.132  11.770 -0.0969 -0.2224 -0.4340
 1607SOL    HW116454   0.307   2.091  11.855 -2.0321  0.6558  0.3060
 1607SOL    HW216455   0.384   2.150  11.747 -0.9244  1.8795 -2.0956
 1608SOL     OW16456   3.421   0.352   4.952  1.0601  0.2936  0.2908
 1608SOL    HW116457   3.398   0.338   5.044 -0.5712 -3.0600 -0.6516
 1608SOL    HW216458   3.516   0.347   4.963  1.3652  1.9656 -1.5100
 1609SOL     OW16459   3.900   1.661   6.926 -0.2048  0.0764 -0.4592
 1609SOL    HW116460   3.989   1.687   6.904 -0.3767  2.0303  1.1899
 1609SOL    HW216461   3.858   1.746   6.935 -2.8232 -1.0830 -1.6596
 1610SOL     OW16462   1.213   0.285  12.197  0.0838 -0.0417  0.3752
 1610SOL    HW116463   1.182   0.348  12.132 -0.0556  1.8558  2.2800
 1610SOL    HW216464   1.307   0.292  12.183 -0.0974  0.5435 -0.5374
 1611SOL     OW16465   4.504   4.368   6.611 -0.0220 -0.2101  0.0124
 1611SOL    HW116466   4.419   4.409   6.598  0.9796  2.5539  2.0748
 1611SOL    HW216467   4.531   4.408   6.694 -1.3793  0.2124  0.2521
 1612SOL     OW16468   3.248   0.991  15.725  0.1308  0.1707  0.2282
 1612SOL    HW116469   3.236   1.038  15.643 -2.2327 -1.1216 -0.1786
 1612SOL    HW216470   3.201   1.049  15.785 -3.2687 -2.7748  0.4470
 1613SOL     OW16471   1.030   3.290   4.594  0.0589  0.9384 -0.0999
 1613SOL    HW116472   1.038   3.198   4.618 -0.4990  0.8841 -0.1292
 1613SOL    HW216473   1.072   3.337   4.667  0.0769  0.1353  0.4077
 1614SOL     OW16474   3.215   0.839   9.792  0.0265  0.4618  0.1716
 1614SOL    HW116475   3.235   0.822   9.700 -3.2204 -0.5242 -0.3785
 1614SOL    HW216476   3.165   0.920   9.782  1.1552  0.9812 -1.2107
 1615SOL     OW16477   3.261   2.221   4.179  0.3966  0.3164  0.1945
 1615SOL    HW116478   3.317   2.161   4.130 -1.9501 -1.1311 -0.7345
 1615SOL    HW216479   3.176   2.198   4.142  1.3361  1.0069 -2.3716
 1616SOL     OW16480   3.327   3.014   7.562  0.1291 -0.2884  0.0980
 1616SOL    HW116481   3.411   3.048   7.593  0.6300  0.8520 -2.5345
 1616SOL    HW216482   3.268   3.077   7.604  0.8086  0.7288 -0.4621
 1617SOL     OW16483   2.982   0.396  11.496  0.2883  0.0764 -0.2578
 1617SOL    HW116484   2.966   0.332  11.566  0.8043  0.6013  0.3355
 1617SOL    HW216485   3.064   0.437  11.523 -0.9899  2.2164  0.3227
 1618SOL     OW16486   2.362   0.757  14.306  0.1150  0.0534  0.2994
 1618SOL    HW116487   2.275   0.790  14.282  0.4380  2.9192  3.0870
 1618SOL    HW216488   2.416   0.835  14.297 -0.7314  0.7197  0.9908
 1619SOL     OW16489   0.744   2.027  14.686  0.1991  0.7262 -0.1859
 1619SOL    HW116490   0.678   1.967  14.720 -0.6127  2.2642  0.9376
 1619SOL    HW216491   0.826   1.978  14.678 -0.6990 -0.7473 -0.1994
 1620SOL     OW16492   4.510   1.585  13.843 -0.0012  0.4357 -0.0797
 1620SOL    HW116493   4.485   1.493  13.852 -2.6498  1.2918  1.1234
 1620SOL    HW216494   4.482   1.604  13.753  0.5137 -0.4587 -0.4356
 1621SOL     OW16495   0.425   3.407   3.404  0.0869  0.3725 -0.0586
 1621SOL    HW116496   0.352   3.447   3.357 -1.1919 -1.8363  0.0274
 1621SOL    HW216497   0.397   3.316   3.391  1.9258 -0.3685  1.1473
 1622SOL     OW16498   2.423   3.769   9.538  0.3721 -0.5122 -0.6998
 1622SOL    HW116499   2.514   3.738   9.537 -0.4417 -2.9035 -0.7542
 1622SOL    HW216500   2.436   3.858   9.505  1.6124 -1.1039 -1.8583
 1623SOL     OW16501   3.625   3.298   5.617 -0.1665 -0.3313  0.4209
 1623SOL    HW116502   3.614   3.227   5.554  1.4775 -0.6288  0.4812
 1623SOL    HW216503   3.635   3.368   5.553  1.0098  0.2611  1.2502
 1624SOL     OW16504   4.601   2.347   6.240  0.2731 -0.2677  0.0694
 1624SOL    HW116505   4.680   2.304   6.207 -0.7637 -0.7699 -1.8050
 1624SOL    HW216506   4.630   2.438   6.235  0.7671 -0.4201  0.2668
 1625SOL     OW16507   2.335   1.701  12.285 -0.3052  0.4805 -0.0504
 1625SOL    HW116508   2.309   1.619  12.242  0.2627  0.6003 -0.6199
 1625SOL    HW216509   2.379   1.677  12.366  1.4743 -0.2584 -1.2435
 1626SOL     OW16510   1.910   2.891   0.735 -0.3280 -0.0208 -0.5138
 1626SOL    HW116511   1.942   2.959   0.794  1.3128  0.4950 -1.9869
 1626SOL    HW216512   1.828   2.871   0.782 -0.2864  1.2555  0.1070
 1627SOL     OW16513   2.367   0.928   4.522 -0.2325 -0.0814 -0.1921
 1627SOL    HW116514   2.378   0.868   4.596 -1.1192  0.5336  0.4477
 1627SOL    HW216515   2.325   1.004   4.563  1.8386  0.5731  0.7220
 1628SOL     OW16516   1.046   2.599   2.980  0.1194  0.1261 -0.0617
 1628SOL    HW116517   1.027   2.663   2.911 -0.5830  0.1585  0.1594
 1628SOL    HW216518   1.082   2.522   2.935 -0.4472 -0.2425  0.1170
 1629SOL     OW16519   1.566   3.652   9.367 -0.4339  0.2354 -0.3475
 1629SOL    HW116520   1.536   3.685   9.452  0.6709  0.0487  0.1159
 1629SOL    HW216521   1.639   3.710   9.348 -2.1324  2.2473 -0.6689
 1630SOL     OW16522   3.761   1.438   2.094  0.0893  0.1101  0.6114
 1630SOL    HW116523   3.730   1.526   2.073 -0.8511 -0.2968  0.2939
 1630SOL    HW216524   3.697   1.415   2.162 -2.5776  1.5083 -1.4266
 1631SOL     OW16525   1.388   2.046   0.600  0.2658  0.0116 -0.6393
 1631SOL    HW116526   1.394   2.128   0.552  0.7115 -0.6818 -1.7476
 1631SOL    HW216527   1.396   1.980   0.531  1.1884 -0.1917 -0.3486
 1632SOL     OW16528   1.717   1.780   9.032  0.0577 -0.4153  0.1214
 1632SOL    HW116529   1.751   1.821   8.953  1.0633 -2.8801 -0.6975
 1632SOL    HW216530   1.626   1.808   9.020 -0.0129  0.1519  1.8094
 1633SOL     OW16531   2.429   2.605  17.049 -0.5903  0.0089  0.1024
 1633SOL    HW116532   2.517   2.575  17.028 -0.8815 -0.2716 -0.7065
 1633SOL    HW216533   2.408   2.666  16.979  0.1745  0.5295  0.3262
 1634SOL     OW16534   4.280   2.017  11.952 -0.5565  0.0493 -0.2763
 1634SOL    HW116535   4.258   2.109  11.964 -0.6868  0.2669 -2.1776
 1634SOL    HW216536   4.237   2.008  11.867 -0.6774  1.1978 -0.3412
 1635SOL     OW16537   1.384   3.929   8.562  0.0517 -0.0788 -0.1130
 1635SOL    HW116538   1.450   3.873   8.602  0.4515 -0.2677 -1.0335
 1635SOL    HW216539   1.440   3.962   8.492  0.6937 -0.8037  0.0666
 1636SOL     OW16540   3.708   4.216   4.374  0.0112  0.1086 -0.0275
 1636SOL    HW116541   3.668   4.129   4.383 -0.6475  0.5419  1.2753
 1636SOL    HW216542   3.637   4.277   4.397  0.3079  0.0811  0.9925
 1637SOL     OW16543   2.867   0.783  14.412  0.0297 -0.3301  0.3418
 1637SOL    HW116544   2.817   0.724  14.355  0.5383 -1.6781  1.2854
 1637SOL    HW216545   2.882   0.853  14.347 -3.6302 -1.0139 -1.2493
 1638SOL     OW16546   2.927   1.978  12.403 -0.2327 -0.5031 -0.0994
 1638SOL    HW116547   2.838   1.947  12.386 -0.9923  0.3687  2.3528
 1638SOL    HW216548   2.924   2.067  12.367 -1.1162  0.4006  2.2033
 1639SOL     OW16549   4.551   3.648   7.461  0.2479  0.3024  0.3390
 1639SOL    HW116550   4.552   3.741   7.485 -1.1892  0.5819 -0.6532
 1639SOL    HW216551   4.551   3.612   7.550  0.7120 -2.3373 -0.7283
 1640SOL     OW16552   3.587   0.364  14.309  0.5254  0.5734 -0.4255
 1640SOL    HW116553   3.681   0.351  14.295  0.5163 -0.4395  0.4033
 1640SOL    HW216554   3.549   0.353  14.222 -2.6335 -2.7617  1.3404
 1641SOL     OW16555   0.579   4.722   1.625  0.1803  0.0844  0.0025
 1641SOL    HW116556   0.583   4.627   1.614  3.4656  0.2304 -0.2549
 1641SOL    HW216557   0.493   4.732   1.664  0.8334 -0.3331  1.5767
 1642SOL     OW16558   0.333   0.082  14.951  0.2271 -0.0749  0.1684
 1642SOL    HW116559   0.385   0.086  14.870  0.4889  1.3983  0.4278
 1642SOL    HW216560   0.342   4.726  14.971  0.1145 -0.2662 -0.6618
 1643SOL     OW16561   4.551   0.267   5.268  0.7061 -0.0418  0.6899
 1643SOL    HW116562   4.456   0.255   5.263  0.8335  0.8719 -3.8830
 1643SOL    HW216563   4.566   0.173   5.274 -1.9427 -0.6035 -1.1928
 1644SOL     OW16564   2.230   3.649   7.077  0.0674  0.1091  0.3011
 1644SOL    HW116565   2.174   3.614   7.007 -0.4192  1.6956 -0.1088
 1644SOL    HW216566   2.300   3.668   7.015 -1.2670 -2.3903 -2.0041
 1645SOL     OW16567   1.703   3.155  12.678  0.6354  0.2568 -0.1944
 1645SOL    HW116568   1.792   3.127  12.656  0.4774  0.0646 -0.5821
 1645SOL    HW216569   1.648   3.121  12.608 -0.1212  2.1619 -0.5458
 1646SOL     OW16570   1.276   0.926   8.040  0.0153 -0.3954 -0.4110
 1646SOL    HW116571   1.310   0.842   8.010  0.2181 -2.2468  4.8699
 1646SOL    HW216572   1.312   1.000   7.991  0.4348  0.1719  0.7433
 1647SOL     OW16573   3.164   1.125   4.773  0.1278 -0.0814 -0.1186
 1647SOL    HW116574   3.239   1.184   4.775  0.4517 -0.4880 -0.1536
 1647SOL    HW216575   3.134   1.136   4.863 -1.8770  1.5052 -0.9815
 1648SOL     OW16576   1.627   1.542   3.824 -0.0031  0.2702 -0.0153
 1648SOL    HW116577   1.611   1.460   3.777  1.2739 -1.1883  2.1063
 1648SOL    HW216578   1.620   1.606   3.753  0.2931 -2.2061 -2.2923
 1649SOL     OW16579   4.352   3.772   0.078  0.6542  0.0659  0.1554
 1649SOL    HW116580   4.310   3.700   0.125 -0.3524 -0.6750 -1.8909
 1649SOL    HW216581   4.412   3.725   0.020  0.0525  1.0383 -1.2774
 1650SOL     OW16582   0.350   0.093   5.282  0.2050  0.5540  0.0324
 1650SOL    HW116583   0.302   0.010   5.291  0.9281  0.1653  0.2612
 1650SOL    HW216584   0.407   0.062   5.212  1.4621  2.1706  0.3654
 1651SOL     OW16585   1.498   3.618   7.985  0.1396  0.0522 -0.4697
 1651SOL    HW116586   1.495   3.648   7.894  0.9628  2.0106  0.1376
 1651SOL    HW216587   1.409   3.610   8.020  0.0240  1.7068 -0.3961
 1652SOL     OW16588   1.698   1.618  14.152 -0.1868 -0.2090 -0.2020
 1652SOL    HW116589   1.616   1.667  14.159  0.9000  1.1766  2.6469
 1652SOL    HW216590   1.761   1.683  14.184 -0.8063 -0.1288  0.8348
 1653SOL     OW16591   1.793   3.264  14.002 -0.3409 -0.5379  0.2330
 1653SOL    HW116592   1.873   3.214  14.015 -0.2810 -0.0866  1.5127
 1653SOL    HW216593   1.720   3.212  14.036 -1.7660  0.7916 -0.7912
 1654SOL     OW16594   0.831   0.812   4.874  0.3437  0.1429  0.0275
 1654SOL    HW116595   0.886   0.882   4.907 -0.1408  0.0432  1.0304
 1654SOL    HW216596   0.819   0.845   4.785 -0.8601  0.1191  0.1863
 1655SOL     OW16597   2.991   3.139   4.062  0.2003 -0.2352  0.4159
 1655SOL    HW116598   3.083   3.153   4.086  0.2971  2.9220 -1.7212
 1655SOL    HW216599   3.007   3.064   4.004 -0.0468 -0.5436  0.7508
 1656SOL     OW16600   3.542   2.283  12.878 -0.0185 -0.0866  0.0875
 1656SOL    HW116601   3.454   2.250  12.899 -0.8602  2.2813  0.2926
 1656SOL    HW216602   3.523   2.375  12.896 -1.4059 -0.1287 -1.2496
 1657SOL     OW16603   1.097   1.699  14.197  0.1021  0.2410 -0.3039
 1657SOL    HW116604   1.140   1.614  14.192 -3.1082 -1.3445 -0.6309
 1657SOL    HW216605   1.022   1.663  14.151  0.5207  1.4406 -1.9349
 1658SOL     OW16606   2.880   3.491   6.094 -0.0955 -0.1148 -0.2890
 1658SOL    HW116607   2.912   3.408   6.128  0.1165  0.9287  2.1011
 1658SOL    HW216608   2.891   3.476   6.000 -0.6146 -0.4652 -0.2929
 1659SOL     OW16609   0.270   0.511   4.120  0.4762  0.3709  0.0560
 1659SOL    HW116610   0.223   0.429   4.103 -1.0718  1.2765  0.0286
 1659SOL    HW216611   0.265   0.520   4.215 -0.3775 -1.1636  0.1641
 1660SOL     OW16612   0.264   3.368  16.961 -0.5581  0.0576 -0.2885
 1660SOL    HW116613   0.258   3.447  17.015  0.7524 -0.6209  0.8520
 1660SOL    HW216614   0.222   3.303  17.018 -0.9087  0.3841 -0.1723
 1661SOL     OW16615   3.237   0.434   3.997 -0.0509  0.6538 -0.1044
 1661SOL    HW116616   3.163   0.474   3.951  0.1225  1.4794  0.3486
 1661SOL    HW216617   3.271   0.377   3.928 -1.3955 -0.4645  0.1636
 1662SOL     OW16618   0.747   0.017   5.766  0.4572  0.0955  0.1953
 1662SOL    HW116619   0.674   4.694   5.778 -0.4333  1.3484  1.1752
 1662SOL    HW216620   0.816   4.697   5.732  0.2933  1.2286 -2.0622
 1663SOL     OW16621   0.418   1.133   5.176 -0.5114 -0.2146  0.6394
 1663SOL    HW116622   0.484   1.201   5.179  0.8842 -1.4991 -1.0807
 1663SOL    HW216623   0.427   1.085   5.258  1.1811 -2.0866 -0.6385
 1664SOL     OW16624   3.792   4.014  13.418  0.1097  0.0243 -0.7121
 1664SOL    HW116625   3.734   3.950  13.458  2.2220 -1.5702 -0.1619
 1664SOL    HW216626   3.799   3.985  13.327 -1.6809  1.5830 -1.3269
 1665SOL     OW16627   1.595   0.892   8.582 -0.6858  0.3109  0.3126
 1665SOL    HW116628   1.572   0.800   8.589  1.2656 -0.2723 -1.0854
 1665SOL    HW216629   1.514   0.926   8.621 -1.8709  2.7358 -4.2468
 1666SOL     OW16630   1.564   2.545   0.575  0.5525  0.3698  0.0681
 1666SOL    HW116631   1.509   2.554   0.498  0.5611 -0.9815 -0.0949
 1666SOL    HW216632   1.618   2.473   0.542 -0.5123 -0.7782  0.8558
 1667SOL     OW16633   0.523   0.482   4.325  0.4511 -0.3107  0.4077
 1667SOL    HW116634   0.435   0.455   4.349  0.7517  0.3733  2.2680
 1667SOL    HW216635   0.576   0.403   4.337  0.9966 -0.0296 -0.1568
 1668SOL     OW16636   1.885   0.226   4.250 -0.0092  0.3085  0.1421
 1668SOL    HW116637   1.970   0.198   4.216 -0.3376  0.6326 -0.9529
 1668SOL    HW216638   1.846   0.140   4.258 -2.1029  1.2552  0.0006
 1669SOL     OW16639   3.665   1.878  11.484 -0.1323 -0.6807 -0.0085
 1669SOL    HW116640   3.673   1.783  11.477 -0.9031 -0.7526  0.0599
 1669SOL    HW216641   3.569   1.875  11.483 -0.0670 -2.7756  0.0968
 1670SOL     OW16642   1.368   3.415   4.378  0.1591  0.2874  0.2295
 1670SOL    HW116643   1.374   3.322   4.357 -0.0566  0.6463 -1.4320
 1670SOL    HW216644   1.352   3.448   4.289  0.3180 -1.3199 -0.4009
 1671SOL     OW16645   0.655   1.961   8.630  0.7340  0.6096 -0.2755
 1671SOL    HW116646   0.560   1.951   8.635  0.7880 -0.4923 -1.2891
 1671SOL    HW216647   0.674   1.966   8.724 -2.0998  1.2935  0.2498
 1672SOL     OW16648   3.383   0.136   2.421  0.2533 -0.3008 -0.3370
 1672SOL    HW116649   3.356   0.060   2.473  0.5694 -0.6852 -0.7356
 1672SOL    HW216650   3.314   0.196   2.449 -0.8739 -1.1969 -1.1972
 1673SOL     OW16651   0.578   1.282   7.370  0.4591 -0.4170  0.2536
 1673SOL    HW116652   0.499   1.264   7.420 -0.8855  2.6366 -0.7563
 1673SOL    HW216653   0.633   1.331   7.431  0.5294  1.6076 -1.4380
 1674SOL     OW16654   0.458   3.856   1.412  1.1875  0.2639  0.1995
 1674SOL    HW116655   0.406   3.915   1.466  0.1955 -0.9467  0.5589
 1674SOL    HW216656   0.402   3.778   1.406  0.8416  0.4767  0.6992
 1675SOL     OW16657   0.581   3.301  15.748 -0.6349  0.0824 -0.0873
 1675SOL    HW116658   0.630   3.231  15.706 -0.2045  0.8212 -0.8249
 1675SOL    HW216659   0.491   3.270  15.759 -0.6772  0.0721 -0.4786
 1676SOL     OW16660   1.135   4.657   2.000 -0.2715 -0.2675 -0.5939
 1676SOL    HW116661   1.208   4.611   1.959  0.4224 -0.5646  0.9999
 1676SOL    HW216662   1.135   4.625   2.090 -1.3063  0.2234 -0.4104
 1677SOL     OW16663   0.134   2.346   8.182  0.1083 -0.4147  0.3599
 1677SOL    HW116664   0.117   2.308   8.096 -0.5358 -1.5736  0.9952
 1677SOL    HW216665   0.047   2.360   8.220  0.0684  0.1017  0.0874
 1678SOL     OW16666   3.918   1.181  16.114 -0.1911  0.1841  0.4273
 1678SOL    HW116667   3.906   1.090  16.086  0.5256  0.4631 -0.7997
 1678SOL    HW216668   3.950   1.212  16.029  1.4024 -2.6998 -0.0280
 1679SOL     OW16669   2.941   3.414   5.417  0.1973  0.2820  0.5076
 1679SOL    HW116670   2.880   3.375   5.355 -0.0105  2.4499 -0.6566
 1679SOL    HW216671   2.978   3.491   5.373  1.0517 -0.5921 -0.2672
 1680SOL     OW16672   1.994   3.027   2.045  0.3276  0.2809  0.7567
 1680SOL    HW116673   1.914   3.070   2.016  1.1174  0.7622 -0.7372
 1680SOL    HW216674   1.964   2.942   2.074 -0.2574 -0.0228 -0.7667
 1681SOL     OW16675   1.604   1.420   7.323  0.6920  0.2168 -0.4673
 1681SOL    HW116676   1.686   1.443   7.367  1.9211 -1.9044 -1.6595
 1681SOL    HW216677   1.546   1.492   7.349  0.1312  0.3093 -2.0006
 1682SOL     OW16678   2.188   2.873   6.805  0.2711  0.1713  0.3618
 1682SOL    HW116679   2.242   2.814   6.753  0.6722  0.4839  0.4225
 1682SOL    HW216680   2.256   2.933   6.837 -0.1681 -0.0817  1.7721
 1683SOL     OW16681   3.010   4.609  13.112 -0.1086  0.7794  0.5124
 1683SOL    HW116682   2.926   4.648  13.136 -0.5507 -0.1460  0.4549
 1683SOL    HW216683   3.031   4.582  13.201  0.7157  2.2432  0.7620
 1684SOL     OW16684   1.328   1.325   5.704 -0.0729  0.3211 -0.0112
 1684SOL    HW116685   1.393   1.259   5.727  0.5808  1.1555  0.5095
 1684SOL    HW216686   1.324   1.325   5.608 -1.5378  1.4974  0.0403
 1685SOL     OW16687   2.589   3.214   6.177 -0.5587  0.1178  0.5380
 1685SOL    HW116688   2.580   3.238   6.270  2.4398  0.1423  0.7988
 1685SOL    HW216689   2.673   3.169   6.171 -1.3764 -1.5148  1.2394
 1686SOL     OW16690   3.917   0.864   4.261  0.3993 -0.0502 -0.2149
 1686SOL    HW116691   3.885   0.889   4.347 -0.5737  0.8067 -0.8255
 1686SOL    HW216692   3.845   0.863   4.198 -0.4707 -0.4977  0.8027
 1687SOL     OW16693   4.332   4.610  12.411 -0.2941  0.2271  0.1599
 1687SOL    HW116694   4.356   4.697  12.379 -0.9570  0.7558  1.1231
 1687SOL    HW216695   4.278   4.588  12.335 -1.5629 -0.1519  1.1761
 1688SOL     OW16696   3.766   3.767   0.366  0.2443  0.0053 -0.2822
 1688SOL    HW116697   3.803   3.682   0.346  2.6464  0.8527  0.5429
 1688SOL    HW216698   3.678   3.752   0.401  0.1133 -1.7827 -1.3845
 1689SOL     OW16699   1.213   1.525   5.473 -0.6429  0.0454 -0.1928
 1689SOL    HW116700   1.174   1.518   5.387  0.0459  0.6982 -0.5625
 1689SOL    HW216701   1.144   1.488   5.528 -0.8358  0.1981 -0.3341
 1690SOL     OW16702   0.612   1.136   2.778  0.1871 -0.4478 -0.0068
 1690SOL    HW116703   0.603   1.135   2.683  0.6975 -2.4713 -0.0222
 1690SOL    HW216704   0.600   1.045   2.804 -0.4297 -0.3271  0.1368
 1691SOL     OW16705   2.916   0.823   2.419 -0.1097 -0.1056 -0.3071
 1691SOL    HW116706   2.961   0.759   2.363 -0.3557 -0.2070 -0.3878
 1691SOL    HW216707   2.906   0.893   2.355 -1.4780  1.0013  1.1129
 1692SOL     OW16708   1.167   0.822   6.663 -0.1368 -0.4673 -0.2029
 1692SOL    HW116709   1.194   0.914   6.664  1.0860 -0.8137 -1.0707
 1692SOL    HW216710   1.076   0.835   6.691 -0.0912  0.2361 -0.3738
 1693SOL     OW16711   0.357   2.569  11.129 -0.4431  0.1706  0.4446
 1693SOL    HW116712   0.453   2.563  11.129 -0.4964 -0.6710  0.4118
 1693SOL    HW216713   0.346   2.546  11.221  1.1902  0.2554  0.6649
 1694SOL     OW16714   4.368   1.041   6.375  0.2270 -0.1067 -0.6366
 1694SOL    HW116715   4.452   1.071   6.340  0.3466 -0.5426 -0.7229
 1694SOL    HW216716   4.295   1.067   6.320  0.7400 -0.6361 -1.5598
 1695SOL     OW16717   3.527   3.094   0.848  0.4363 -0.2217  0.1870
 1695SOL    HW116718   3.491   3.031   0.787 -0.1388  0.5067 -0.2222
 1695SOL    HW216719   3.477   3.170   0.817  0.8454  0.6035  1.4945
 1696SOL     OW16720   2.413   0.189   5.406 -0.2253 -0.4994  0.1062
 1696SOL    HW116721   2.469   0.149   5.473  0.5868  0.6977  0.1288
 1696SOL    HW216722   2.381   0.109   5.365 -1.3121 -0.5936  1.1176
 1697SOL     OW16723   3.871   3.711   3.383  0.1581 -0.3682 -0.1722
 1697SOL    HW116724   3.777   3.716   3.362 -0.5682 -2.9619  2.4279
 1697SOL    HW216725   3.902   3.790   3.338 -0.2490  1.3488  2.5496
 1698SOL     OW16726   0.569   2.919   6.842  0.2293  0.9792 -0.7969
 1698SOL    HW116727   0.665   2.923   6.844  0.3378 -1.0908 -2.4539
 1698SOL    HW216728   0.539   2.857   6.776  1.9133 -0.2060 -0.4634
 1699SOL     OW16729   2.170   0.145  16.366  0.2501  0.4389 -0.5214
 1699SOL    HW116730   2.255   0.105  16.348  1.3274  1.2045  2.7323
 1699SOL    HW216731   2.194   0.209  16.433  0.2879 -0.9009  0.7535
 1700SOL     OW16732   2.471   0.260   4.139  0.3994  0.0800  0.3576
 1700SOL    HW116733   2.396   0.289   4.190 -1.5403 -2.2990 -1.1314
 1700SOL    HW216734   2.501   0.183   4.188 -0.8570 -0.0061  1.0078
 1701SOL     OW16735   1.584   1.711   0.635  0.3399  0.0696  0.5881
 1701SOL    HW116736   1.586   1.778   0.703 -0.4043 -1.4631  2.1299
 1701SOL    HW216737   1.677   1.690   0.623  0.4014  1.3505 -1.2922
 1702SOL     OW16738   0.654   3.220   8.325  0.4863  0.3191  0.0079
 1702SOL    HW116739   0.591   3.230   8.396 -1.1935  0.1487 -1.4673
 1702SOL    HW216740   0.629   3.130   8.305  0.4540  0.0105  1.4498
 1703SOL     OW16741   3.231   3.436   4.074 -0.2150 -0.0700  0.6585
 1703SOL    HW116742   3.252   3.348   4.045  0.9051  0.4421 -0.0918
 1703SOL    HW216743   3.205   3.478   3.992  0.6770 -1.5191 -0.3628
 1704SOL     OW16744   4.242   3.034  16.303  0.3348  0.3152  0.5218
 1704SOL    HW116745   4.214   3.126  16.308 -3.3151 -0.6832 -1.3793
 1704SOL    HW216746   4.163   2.986  16.326 -0.6497  1.0085 -1.3866
 1705SOL     OW16747   3.749   0.900   4.938 -0.7219  0.1649 -0.2563
 1705SOL    HW116748   3.798   0.837   4.886 -0.7880 -1.8151  2.0984
 1705SOL    HW216749   3.784   0.869   5.021 -0.8437 -1.0953 -0.6882
 1706SOL     OW16750   0.924   0.839   8.489 -0.0507  0.0054  0.1960
 1706SOL    HW116751   0.979   0.773   8.448 -1.6183 -0.4705 -1.1365
 1706SOL    HW216752   0.983   0.864   8.561  1.6545 -2.3084 -0.3963
 1707SOL     OW16753   3.812   0.797   9.561 -0.1345  0.1736 -0.1071
 1707SOL    HW116754   3.759   0.725   9.595  0.3089 -0.5922 -1.0666
 1707SOL    HW216755   3.890   0.783   9.615  0.0969 -1.4557 -0.8617
 1708SOL     OW16756   3.752   1.465   6.425 -0.4116 -0.5653  0.1405
 1708SOL    HW116757   3.828   1.467   6.483 -0.1040  3.0960 -0.3805
 1708SOL    HW216758   3.762   1.554   6.393 -0.3426 -0.8774 -0.6910
 1709SOL     OW16759   3.031   2.117  12.677  0.2525  0.3192  0.1924
 1709SOL    HW116760   2.947   2.078  12.652 -0.3111  0.4050  1.9894
 1709SOL    HW216761   3.054   2.161  12.595 -3.8634  2.6547  0.3150
 1710SOL     OW16762   1.327   0.012   8.804 -0.2354 -0.2969  0.3458
 1710SOL    HW116763   1.341   0.105   8.820  0.9039  0.0837 -2.8627
 1710SOL    HW216764   1.397   4.710   8.856 -0.1773 -0.1178  0.4033
 1711SOL     OW16765   4.714   2.290   8.606 -0.3886  0.4256 -0.2461
 1711SOL    HW116766   0.039   2.218   8.606 -0.0648  0.7075 -1.4708
 1711SOL    HW216767   0.029   2.364   8.636  0.5767 -1.1335  1.8835
 1712SOL     OW16768   2.578   1.790   1.107  0.7333 -0.2514 -0.0011
 1712SOL    HW116769   2.513   1.784   1.037 -0.3194  0.2706  0.9376
 1712SOL    HW216770   2.658   1.817   1.060  0.2312  0.8844 -0.2175
 1713SOL     OW16771   4.187   3.896   5.451  0.3934 -0.1152 -0.9374
 1713SOL    HW116772   4.100   3.870   5.421 -0.5739  1.3467  0.5637
 1713SOL    HW216773   4.237   3.815   5.435  2.4915  1.1591 -0.8305
 1714SOL     OW16774   2.480   3.650   5.527  0.3479  0.3593  0.1329
 1714SOL    HW116775   2.493   3.601   5.445 -2.0382 -0.6327  0.3557
 1714SOL    HW216776   2.501   3.576   5.585 -0.2459 -0.3942 -0.6036
 1715SOL     OW16777   3.795   3.141  10.574  0.1381 -0.1307 -0.3070
 1715SOL    HW116778   3.763   3.057  10.606  2.0683 -0.0972  1.6993
 1715SOL    HW216779   3.712   3.180  10.546  0.8855  1.1737 -0.7135
 1716SOL     OW16780   3.717   1.812   9.087 -0.1354 -0.5511 -0.0480
 1716SOL    HW116781   3.788   1.748   9.089 -0.1623 -0.5618  0.5821
 1716SOL    HW216782   3.695   1.816   9.180  1.3227 -0.1097  0.2851
 1717SOL     OW16783   0.544   3.569   4.962  0.2157  0.0307  0.1020
 1717SOL    HW116784   0.580   3.649   5.001  1.1639 -0.5506  0.4236
 1717SOL    HW216785   0.623   3.529   4.924  0.5509 -0.3272  1.1844
 1718SOL     OW16786   0.808   3.711   6.169 -0.0660  0.4042  0.0961
 1718SOL    HW116787   0.876   3.682   6.229 -0.4820 -1.2561 -0.2367
 1718SOL    HW216788   0.790   3.798   6.205 -0.0861 -0.0024  1.0679
 1719SOL     OW16789   2.811   2.081  15.197  0.0910  0.0866 -0.0338
 1719SOL    HW116790   2.843   2.167  15.167 -0.2549  0.4145  0.5311
 1719SOL    HW216791   2.795   2.108  15.287 -2.3511 -1.8628  0.1172
 1720SOL     OW16792   0.842   1.629   2.777 -0.7902 -0.5599  0.0627
 1720SOL    HW116793   0.832   1.543   2.736 -0.0791  0.7050 -2.7793
 1720SOL    HW216794   0.859   1.681   2.699  1.2571 -1.7785 -0.2967
 1721SOL     OW16795   3.825   1.196  13.574 -0.7268  0.3938 -0.4877
 1721SOL    HW116796   3.843   1.290  13.569  0.7897  0.0590 -1.1062
 1721SOL    HW216797   3.738   1.192  13.533  0.0357 -1.8829 -1.8493
 1722SOL     OW16798   2.206   0.943   0.460 -0.0054 -0.3012 -0.3532
 1722SOL    HW116799   2.113   0.927   0.444  0.0305 -0.8026 -0.0630
 1722SOL    HW216800   2.212   0.961   0.554  1.2139  5.1657 -1.4656
 1723SOL     OW16801   0.157   0.859   8.531 -0.3488  0.0209  0.3230
 1723SOL    HW116802   0.231   0.852   8.591 -1.3810 -0.2233  1.5817
 1723SOL    HW216803   0.147   0.952   8.511 -1.9760 -0.5517 -1.4822
 1724SOL     OW16804   0.428   3.843  11.378 -0.3402 -0.1370  0.5263
 1724SOL    HW116805   0.362   3.858  11.445  0.5431 -0.6813  1.5122
 1724SOL    HW216806   0.391   3.776  11.321 -0.2255  0.1284  0.1366
 1725SOL     OW16807   3.300   2.933  12.786  0.4738 -0.5433  0.3591
 1725SOL    HW116808   3.256   2.868  12.841 -2.5110  0.9290 -0.2856
 1725SOL    HW216809   3.302   3.009  12.845 -0.3513 -0.7711  0.6922
 1726SOL     OW16810   1.334   4.607   4.942 -0.4933  0.0078 -0.1353
 1726SOL    HW116811   1.255   4.659   4.952 -2.2716 -2.7725  0.2002
 1726SOL    HW216812   1.392   4.657   5.000 -0.1307 -0.8894  0.2840
 1727SOL     OW16813   0.664   0.720   3.811 -0.4102  0.6649  0.3941
 1727SOL    HW116814   0.756   0.705   3.832 -1.0946 -2.7814  1.0112
 1727SOL    HW216815   0.627   0.675   3.888 -1.1970 -1.0583 -0.9896
 1728SOL     OW16816   1.983   2.491   5.068 -0.1078 -0.3596  0.3154
 1728SOL    HW116817   1.959   2.511   5.158 -1.5103  1.8015 -0.5411
 1728SOL    HW216818   1.953   2.572   5.027 -0.2502 -0.0754  0.9799
 1729SOL     OW16819   0.615   3.992  16.361  0.0705 -0.5149  0.0523
 1729SOL    HW116820   0.550   4.017  16.295  2.3072  3.1802 -0.7185
 1729SOL    HW216821   0.607   4.062  16.425  0.8227  0.3493 -0.8012
 1730SOL     OW16822   3.786   0.754  17.626 -0.0722  0.0151  0.0199
 1730SOL    HW116823   3.820   0.831  17.580 -0.5014  1.4467  2.0952
 1730SOL    HW216824   3.751   0.710  17.549 -2.5561 -0.2076  1.2877
 1731SOL     OW16825   2.217   2.955  15.595  0.3861  0.4144 -0.1496
 1731SOL    HW116826   2.171   2.939  15.512 -0.4013  3.4340 -0.3006
 1731SOL    HW216827   2.181   3.039  15.624 -1.1283 -0.0697 -0.5990
 1732SOL     OW16828   2.605   1.726   7.950  0.0744 -0.3995  0.0886
 1732SOL    HW116829   2.565   1.730   8.036  1.3759  1.2087  0.6119
 1732SOL    HW216830   2.686   1.771   7.976  1.8851 -3.5124 -0.1535
 1733SOL     OW16831   2.343   0.643   9.519  0.4368 -0.3013 -0.6057
 1733SOL    HW116832   2.300   0.727   9.499 -0.4222 -0.9743 -1.5982
 1733SOL    HW216833   2.375   0.670   9.604 -0.7429  0.1400 -0.2945
 1734SOL     OW16834   2.874   1.828   7.220 -0.3936  0.5913 -0.5170
 1734SOL    HW116835   2.839   1.739   7.219 -0.7486  0.7578 -2.7470
 1734SOL    HW216836   2.965   1.801   7.215 -0.6179  0.1171 -2.2226
 1735SOL     OW16837   3.302   3.857   5.964  0.1534 -0.1694 -0.0116
 1735SOL    HW116838   3.272   3.782   5.912  1.3111 -0.5592 -0.1280
 1735SOL    HW216839   3.334   3.910   5.891  1.3885 -1.2525 -0.2659
 1736SOL     OW16840   3.004   4.540   9.770 -0.1628 -0.2312  0.2005
 1736SOL    HW116841   2.970   4.533   9.681  1.2790  0.6467 -0.4267
 1736SOL    HW216842   3.072   4.473   9.764  0.6395  0.7481 -1.6540
 1737SOL     OW16843   4.268   1.993   3.031 -0.0405 -0.2106  0.4956
 1737SOL    HW116844   4.326   1.965   3.102  0.6805 -0.7182 -0.2887
 1737SOL    HW216845   4.214   2.062   3.069  1.3136  1.2501 -0.2213
 1738SOL     OW16846   3.325   0.006   5.432 -0.2430 -0.5264 -0.1814
 1738SOL    HW116847   3.342   4.657   5.396  2.2042 -0.5030  0.9217
 1738SOL    HW216848   3.353   0.053   5.353  0.3618 -0.9546 -0.2282
 1739SOL     OW16849   4.368   3.708   6.713  0.8543  0.4125  0.1348
 1739SOL    HW116850   4.404   3.634   6.665 -0.8063 -0.1144 -0.3106
 1739SOL    HW216851   4.444   3.766   6.713  2.2726 -1.4190  1.9209
 1740SOL     OW16852   0.233   3.379   4.639  0.1073  0.0498  0.1930
 1740SOL    HW116853   0.177   3.365   4.563 -2.3799 -0.4228  2.1056
 1740SOL    HW216854   0.301   3.312   4.630 -1.1567 -1.1165 -0.6953
 1741SOL     OW16855   1.959   0.079  15.464 -0.3198 -0.4052  0.4730
 1741SOL    HW116856   1.915   0.031  15.394 -0.1554 -1.4736  1.0998
 1741SOL    HW216857   1.949   0.173  15.449  2.1617 -0.4323 -1.3400
 1742SOL     OW16858   3.755   2.198   4.616 -0.4520  0.1496 -0.3728
 1742SOL    HW116859   3.779   2.230   4.529 -0.8246 -1.1686 -0.9516
 1742SOL    HW216860   3.812   2.242   4.679 -2.0354 -2.1208  2.6372
 1743SOL     OW16861   0.800   2.435   6.458 -0.1988  0.0612 -0.0123
 1743SOL    HW116862   0.875   2.454   6.515 -0.0722 -1.6261  0.4071
 1743SOL    HW216863   0.775   2.350   6.494 -1.0195  0.6913  0.9142
 1744SOL     OW16864   1.243   0.459   2.321  0.6061 -0.2934 -0.2207
 1744SOL    HW116865   1.317   0.398   2.316 -0.0071 -1.1164  0.6244
 1744SOL    HW216866   1.176   0.401   2.357 -0.0967  0.2065 -0.7235
 1745SOL     OW16867   0.853   2.042  17.084  0.1910  0.1941 -0.7572
 1745SOL    HW116868   0.900   2.030  17.001  2.2632 -0.2514  0.4673
 1745SOL    HW216869   0.904   2.101  17.139 -1.0675  0.2559  0.3186
 1746SOL     OW16870   1.167   4.323   1.720 -0.4625  0.4396  0.4787
 1746SOL    HW116871   1.123   4.405   1.743 -1.2046  0.1161  0.1926
 1746SOL    HW216872   1.088   4.270   1.711  0.2924 -0.4744 -0.7936
 1747SOL     OW16873   0.548   2.586   4.107  0.1469 -0.1415  0.1532
 1747SOL    HW116874   0.582   2.571   4.019  2.4688  0.6344  0.8962
 1747SOL    HW216875   0.612   2.526   4.147 -0.1135 -2.2688 -2.6280
 1748SOL     OW16876   2.872   2.266  15.719  0.1642  0.0858  0.1852
 1748SOL    HW116877   2.924   2.345  15.703 -0.6629  1.2471  3.3913
 1748SOL    HW216878   2.804   2.295  15.779 -0.7759  1.5685 -1.5863
 1749SOL     OW16879   2.836   1.923   2.561  0.0106  0.9699 -0.6321
 1749SOL    HW116880   2.914   1.965   2.524  1.7546 -1.5260  0.2259
 1749SOL    HW216881   2.845   1.933   2.656  0.2829 -0.2133 -0.5447
 1750SOL     OW16882   1.580   1.983   0.394  0.0634  0.1748  0.0863
 1750SOL    HW116883   1.504   1.927   0.379  0.5855 -0.4728 -0.1305
 1750SOL    HW216884   1.654   1.924   0.380 -0.9359 -0.6854 -1.5788
 1751SOL     OW16885   1.225   1.679   8.960 -0.6285 -0.3185 -0.3088
 1751SOL    HW116886   1.130   1.693   8.956 -0.8727 -1.7688  0.4745
 1751SOL    HW216887   1.254   1.750   9.017 -0.0096  0.1208 -1.1770
 1752SOL     OW16888   2.419   3.776   8.383 -0.3914  0.0183 -0.1668
 1752SOL    HW116889   2.465   3.858   8.366 -0.6045 -0.2551 -2.0543
 1752SOL    HW216890   2.369   3.798   8.462 -0.4847 -2.0328  0.3508
 1753SOL     OW16891   3.714   1.939   6.236 -0.1816 -0.0457 -0.1297
 1753SOL    HW116892   3.707   1.902   6.148  0.0912  1.2894 -0.7181
 1753SOL    HW216893   3.645   2.005   6.235  0.6705  0.8391 -1.1860
 1754SOL     OW16894   4.168   2.665   8.913 -0.6458  0.4120 -0.2048
 1754SOL    HW116895   4.227   2.594   8.937  1.9318  2.5208 -0.3451
 1754SOL    HW216896   4.194   2.728   8.981 -1.1959 -0.5325  0.8774
 1755SOL     OW16897   0.874   3.692  15.559 -0.0958 -0.1758 -0.0529
 1755SOL    HW116898   0.934   3.626  15.525 -0.1272 -0.2123 -0.0376
 1755SOL    HW216899   0.807   3.645  15.610  0.7226 -2.2518 -0.8870
 1756SOL     OW16900   2.836   1.532   7.855 -0.1369 -0.1654 -0.1091
 1756SOL    HW116901   2.880   1.487   7.928 -0.0810 -2.0825 -1.3183
 1756SOL    HW216902   2.753   1.550   7.899 -0.2499 -1.5042  0.2302
 1757SOL     OW16903   1.999   2.645  14.508 -0.1591  0.0752 -0.2007
 1757SOL    HW116904   2.067   2.603  14.561  0.0892 -0.1379 -0.6938
 1757SOL    HW216905   1.989   2.587  14.433  2.0238  1.6016 -1.6898
 1758SOL     OW16906   4.217   3.894   3.908 -0.5185  0.6505  0.5681
 1758SOL    HW116907   4.157   3.821   3.918 -0.6926  0.2501 -3.1139
 1758SOL    HW216908   4.264   3.865   3.830  1.7333 -1.5751  2.7603
 1759SOL     OW16909   3.770   3.644   6.440 -0.1125  0.1833 -0.0573
 1759SOL    HW116910   3.711   3.718   6.428 -0.8347 -0.4563 -0.4298
 1759SOL    HW216911   3.775   3.617   6.348  1.6636  0.2274  0.0138
 1760SOL     OW16912   3.267   0.359   6.145  0.2244  0.4688  0.6086
 1760SOL    HW116913   3.335   0.365   6.212  1.3873  1.2599 -0.6541
 1760SOL    HW216914   3.252   0.265   6.134  2.0704  0.0477  1.7636
 1761SOL     OW16915   0.540   2.296   3.588 -0.3857  0.1675 -0.1443
 1761SOL    HW116916   0.481   2.372   3.585 -0.9472 -0.2951 -1.1839
 1761SOL    HW216917   0.609   2.333   3.533 -2.9792  3.0451 -1.4792
 1762SOL     OW16918   2.079   3.755   8.066  0.0362 -0.4987  0.5075
 1762SOL    HW116919   1.994   3.743   8.024 -0.1225 -1.4933  1.1220
 1762SOL    HW216920   2.062   3.817   8.136  0.4193 -1.2705  1.2796
 1763SOL     OW16921   0.962   2.734   3.563  0.0475 -0.2960  0.1963
 1763SOL    HW116922   0.874   2.759   3.535 -0.6460  1.1024  3.5421
 1763SOL    HW216923   0.984   2.803   3.625 -2.1640  0.2773  0.3513
 1764SOL     OW16924   2.223   2.385  11.281 -0.5693 -0.3286  0.8298
 1764SOL    HW116925   2.271   2.305  11.260  1.1967  0.8544  0.4139
 1764SOL    HW216926   2.301   2.438  11.293 -1.2275  0.6398  0.8511
 1765SOL     OW16927   3.073   4.549   8.348 -0.4328  0.3580 -0.0670
 1765SOL    HW116928   3.103   4.497   8.274  0.3185  1.2677 -0.4040
 1765SOL    HW216929   2.977   4.554   8.342 -0.3538 -0.6650 -1.7958
 1766SOL     OW16930   1.895   0.927   2.739  0.1479 -0.1594  0.3275
 1766SOL    HW116931   1.964   0.954   2.799 -1.3067  1.2651  1.3730
 1766SOL    HW216932   1.924   0.842   2.705  0.3746  0.4015 -0.8809
 1767SOL     OW16933   0.015   1.381   2.718 -0.1475 -0.7248 -0.0413
 1767SOL    HW116934   0.076   1.357   2.648  0.4744  0.0655  0.2330
 1767SOL    HW216935   4.676   1.334   2.685  0.7334 -0.1634 -2.8441
 1768SOL     OW16936   0.638   0.858  10.275 -0.2586 -0.3872 -0.1326
 1768SOL    HW116937   0.627   0.766  10.298 -2.2065 -0.1769 -0.2385
 1768SOL    HW216938   0.612   0.905  10.354  0.7871 -0.1798  0.0892
 1769SOL     OW16939   1.387   2.741  15.018 -0.1645  0.1721 -0.0164
 1769SOL    HW116940   1.454   2.790  15.066 -1.0422  0.9946  0.3568
 1769SOL    HW216941   1.333   2.814  14.989 -0.5289  0.6143  1.7912
 1770SOL     OW16942   2.671   4.152  11.119  0.0857 -0.3172  0.4627
 1770SOL    HW116943   2.666   4.198  11.203  1.0246 -1.0127  0.9025
 1770SOL    HW216944   2.691   4.061  11.142  0.6182 -0.3018  0.0562
 1771SOL     OW16945   1.084   3.955  16.580  0.1798  0.3647 -0.2358
 1771SOL    HW116946   1.126   3.869  16.590 -0.1060  0.3316  0.6842
 1771SOL    HW216947   0.992   3.935  16.567  0.1291  1.1006 -0.9581
 1772SOL     OW16948   2.295   0.774   2.668 -0.0737  0.0546  0.1211
 1772SOL    HW116949   2.375   0.818   2.641 -0.0175  1.6122  2.7449
 1772SOL    HW216950   2.320   0.745   2.756  0.4034  2.1736  0.6994
 1773SOL     OW16951   1.598   1.792   4.948  0.1571 -0.2337  0.0688
 1773SOL    HW116952   1.505   1.812   4.942  0.2521 -0.0789 -0.9516
 1773SOL    HW216953   1.626   1.823   4.862  0.8735 -0.6846  0.1332
 1774SOL     OW16954   4.250   2.550   1.259  0.2293 -0.0059 -0.2070
 1774SOL    HW116955   4.238   2.526   1.351  0.7118 -0.0945 -0.1706
 1774SOL    HW216956   4.175   2.605   1.236  0.6786 -0.2078 -2.1495
 1775SOL     OW16957   1.978   3.376   2.727  0.0953 -0.3427 -0.5483
 1775SOL    HW116958   2.056   3.415   2.689 -0.5717  1.6990  0.1490
 1775SOL    HW216959   1.969   3.446   2.792 -2.3442 -1.8677  0.7874
 1776SOL     OW16960   4.693   2.761   5.415 -0.2360 -0.0530 -0.1022
 1776SOL    HW116961   0.030   2.796   5.366 -0.4696  0.8889  0.2043
 1776SOL    HW216962   4.623   2.786   5.354 -0.3186  2.2245  0.9337
 1777SOL     OW16963   3.006   2.673  14.817 -0.0604  0.7033  0.7014
 1777SOL    HW116964   3.003   2.584  14.782 -0.5363  1.2821 -0.7376
 1777SOL    HW216965   2.913   2.695  14.817  0.7720  4.1123 -0.1202
 1778SOL     OW16966   1.536   0.974   7.216  0.2075 -0.1013  0.1411
 1778SOL    HW116967   1.489   0.993   7.136 -0.3259 -2.3093 -0.0855
 1778SOL    HW216968   1.479   0.908   7.255  1.0249 -0.9870 -0.1567
 1779SOL     OW16969   3.631   3.793   9.789  0.1419  0.0168 -0.0380
 1779SOL    HW116970   3.576   3.714   9.788  1.0473 -0.5895 -2.9254
 1779SOL    HW216971   3.607   3.830   9.873  1.9023 -2.4199  1.5335
 1780SOL     OW16972   1.333   1.393   8.036  0.4953 -0.7509  0.3296
 1780SOL    HW116973   1.288   1.372   8.118 -0.6090 -0.7190 -0.2582
 1780SOL    HW216974   1.367   1.479   8.062  0.7889 -0.5576 -0.6847
 1781SOL     OW16975   0.077   0.821   4.666  0.0858 -0.3319  0.1767
 1781SOL    HW116976   0.105   0.857   4.751  0.7324 -1.3410  0.4020
 1781SOL    HW216977   0.163   0.798   4.631 -0.8120  0.8734 -2.7651
 1782SOL     OW16978   2.686   4.690   7.086 -0.5083  0.0294  0.2359
 1782SOL    HW116979   2.737   4.617   7.122  0.8997 -0.3849 -2.6354
 1782SOL    HW216980   2.654   4.730   7.167 -0.3629 -0.1436  0.3792
 1783SOL     OW16981   1.290   1.663   3.513  0.2594  0.0755  0.0190
 1783SOL    HW116982   1.290   1.573   3.546 -0.8952 -0.9916 -2.9008
 1783SOL    HW216983   1.211   1.701   3.551 -0.8080 -0.7943 -1.3199
 1784SOL     OW16984   3.622   4.532   4.810 -0.5490 -0.1629  0.3061
 1784SOL    HW116985   3.561   4.458   4.815 -0.3699 -0.4660 -1.7293
 1784SOL    HW216986   3.571   4.611   4.828  0.6825  0.5800  0.4934
 1785SOL     OW16987   3.612   0.615   3.625 -0.0945  0.0477 -0.1417
 1785SOL    HW116988   3.607   0.703   3.662 -2.0376 -0.0467 -0.2168
 1785SOL    HW216989   3.689   0.625   3.569  1.4084 -0.1016  1.9092
 1786SOL     OW16990   3.839   3.550   7.645 -0.7864  0.5932  0.8105
 1786SOL    HW116991   3.810   3.459   7.647  0.4193  0.1730 -0.3587
 1786SOL    HW216992   3.869   3.561   7.735  0.0673  2.3161  0.3198
 1787SOL     OW16993   4.203   1.384  12.475  0.0600  0.2006 -0.1492
 1787SOL    HW116994   4.214   1.325  12.400 -0.2478  0.8021 -0.6646
 1787SOL    HW216995   4.249   1.330  12.540 -0.8214 -1.4034 -0.8591
 1788SOL     OW16996   1.740   1.701   1.623  0.5354 -0.0110  0.4433
 1788SOL    HW116997   1.735   1.652   1.705 -0.2861 -0.4659  0.1263
 1788SOL    HW216998   1.816   1.652   1.592  1.1447  0.3935  1.3116
 1789SOL     OW16999   1.321   4.135   7.469 -0.1890 -0.0453 -0.6781
 1789SOL    HW117000   1.264   4.211   7.458  0.3124  0.2269 -1.4323
 1789SOL    HW217001   1.254   4.074   7.500  0.1169  0.3158  0.6932
 1790SOL     OW17002   3.006   1.472   8.147  0.4999 -0.3598  0.2350
 1790SOL    HW117003   3.056   1.479   8.228  1.3578  3.1966 -0.6327
 1790SOL    HW217004   2.964   1.387   8.160  2.1035 -1.1655  0.1733
 1791SOL     OW17005   2.741   4.145   2.694  0.3578 -0.2768  0.1274
 1791SOL    HW117006   2.806   4.075   2.702 -3.3055 -3.3318  3.2667
 1791SOL    HW217007   2.787   4.211   2.642 -1.7138  3.2050  2.6818
 1792SOL     OW17008   0.788   3.640   6.566 -0.0556 -0.6591  0.1115
 1792SOL    HW117009   0.753   3.593   6.642  0.3044 -0.1617  0.5796
 1792SOL    HW217010   0.805   3.573   6.499  0.4834 -0.5112  0.1006
 1793SOL     OW17011   2.852   1.281   1.730  0.4565  0.4616 -0.0660
 1793SOL    HW117012   2.869   1.267   1.637  1.5498  0.0330  0.2031
 1793SOL    HW217013   2.943   1.298   1.753  0.1161 -1.0765  2.4410
 1794SOL     OW17014   1.341   2.649   1.357 -0.0931 -0.5594  0.3535
 1794SOL    HW117015   1.269   2.649   1.293  0.1242  2.0178  0.1198
 1794SOL    HW217016   1.291   2.631   1.438 -1.7729 -0.4020 -0.6437
 1795SOL     OW17017   4.644   1.141  10.068  0.2279 -0.3270  0.1914
 1795SOL    HW117018   4.594   1.071  10.108  0.3475 -0.3923  0.2267
 1795SOL    HW217019   4.578   1.174  10.007  1.5087  0.2733 -0.8833
 1796SOL     OW17020   0.295   3.884  16.097  1.0412  0.1012  0.0318
 1796SOL    HW117021   0.279   3.920  16.009 -0.7040 -2.3079 -0.6404
 1796SOL    HW217022   0.323   3.964  16.141  0.2583  0.3111  0.1508
 1797SOL     OW17023   2.458   1.751   8.175  0.1678  0.0022 -0.1900
 1797SOL    HW117024   2.464   1.699   8.255 -0.9134 -2.2268 -1.5641
 1797SOL    HW217025   2.388   1.705   8.129 -0.1724 -1.5495  1.8798
 1798SOL     OW17026   2.862   3.129  10.417 -0.4589 -0.0670 -0.0504
 1798SOL    HW117027   2.908   3.061  10.466 -1.5998  0.2640  1.4847
 1798SOL    HW217028   2.772   3.099  10.416 -0.4581 -0.1984  2.9779
 1799SOL     OW17029   3.512   3.013   6.286 -0.0101  0.1228 -0.2338
 1799SOL    HW117030   3.539   3.076   6.220  1.1106  1.1867  1.2377
 1799SOL    HW217031   3.456   3.076   6.331 -0.6109 -0.3888 -0.2645
 1800SOL     OW17032   2.354   4.390   3.810 -0.9037 -0.3122  0.0149
 1800SOL    HW117033   2.449   4.393   3.801 -0.9772 -0.0102 -0.7019
 1800SOL    HW217034   2.334   4.388   3.904  1.4505 -2.6733  0.4714
 1801SOL     OW17035   2.035   2.052  13.164 -0.1559  0.3685 -0.5747
 1801SOL    HW117036   2.049   2.144  13.141 -0.8121 -0.3028 -3.5334
 1801SOL    HW217037   1.987   2.064  13.246  0.2037  0.9071 -0.4392
 1802SOL     OW17038   0.613   4.282   3.126  0.1034 -0.1618  0.4644
 1802SOL    HW117039   0.578   4.210   3.074 -1.2432  1.7748 -1.3228
 1802SOL    HW217040   0.643   4.233   3.202  3.6322 -0.1994 -0.9856
 1803SOL     OW17041   0.589   4.624   7.009 -0.5926 -0.1625 -0.1443
 1803SOL    HW117042   0.550   4.665   7.087  1.0676 -1.9056  1.6041
 1803SOL    HW217043   0.540   4.674   6.944  0.6041  2.5285  1.0380
 1804SOL     OW17044   1.278   2.406  16.157 -0.5088  0.2173  0.2820
 1804SOL    HW117045   1.330   2.477  16.194 -1.1201  1.3231 -1.0044
 1804SOL    HW217046   1.205   2.455  16.120 -0.7889 -0.9755 -0.7644
 1805SOL     OW17047   1.270   2.270   0.436 -0.0956 -0.0985 -0.4826
 1805SOL    HW117048   1.247   2.302   0.349  1.7887 -0.8699 -1.2514
 1805SOL    HW217049   1.205   2.200   0.439 -2.0126  1.6302 -1.7272
 1806SOL     OW17050   0.851   1.017   5.562  0.4184 -0.9220 -0.6058
 1806SOL    HW117051   0.863   0.951   5.630  3.1147 -1.4076 -1.5431
 1806SOL    HW217052   0.776   0.992   5.508 -1.1509 -2.2596  2.2061
 1807SOL     OW17053   3.149   1.195   2.300 -0.9108  0.0006 -0.2326
 1807SOL    HW117054   3.135   1.158   2.387  0.9961  0.1282  0.1169
 1807SOL    HW217055   3.137   1.286   2.326 -1.2131  0.0460 -0.5274
 1808SOL     OW17056   3.910   3.330  12.943  0.4398  0.4645 -1.2928
 1808SOL    HW117057   3.904   3.327  13.039  2.2921 -0.9993 -1.2131
 1808SOL    HW217058   4.005   3.317  12.942  0.1430 -1.7746 -0.8940
 1809SOL     OW17059   4.568   2.543  11.795 -0.0627 -0.3904 -0.0247
 1809SOL    HW117060   4.487   2.579  11.759  0.0095 -0.2918 -0.0899
 1809SOL    HW217061   4.589   2.462  11.749  1.6862  0.5875 -0.9128
 1810SOL     OW17062   1.448   1.924   1.837 -0.5609  0.4174 -0.3741
 1810SOL    HW117063   1.401   2.001   1.870 -2.9005 -1.6268  1.1298
 1810SOL    HW217064   1.522   1.924   1.897 -0.1165 -1.3031 -0.9300
 1811SOL     OW17065   0.513   4.511   6.391  0.6464  0.4394 -0.0953
 1811SOL    HW117066   0.428   4.524   6.349  0.9919  2.4363 -0.2193
 1811SOL    HW217067   0.486   4.529   6.481  1.2925 -3.2908  0.8258
 1812SOL     OW17068   3.575   2.611  16.297  0.0737 -0.3131  0.1891
 1812SOL    HW117069   3.548   2.600  16.388 -1.1543  3.8635  0.2955
 1812SOL    HW217070   3.496   2.652  16.262 -0.8916 -0.9495  1.6267
 1813SOL     OW17071   0.338   4.313   2.215  1.1382  0.6512  0.0496
 1813SOL    HW117072   0.258   4.298   2.265  1.7085 -2.7867 -0.0700
 1813SOL    HW217073   0.298   4.381   2.160  0.3848  1.4255  1.5382
 1814SOL     OW17074   2.358   1.843   3.387  0.4918 -0.3316 -0.0914
 1814SOL    HW117075   2.336   1.824   3.478 -1.4548 -0.0317 -0.4812
 1814SOL    HW217076   2.437   1.791   3.375  0.8880  0.2955 -0.2140
 1815SOL     OW17077   1.046   2.046   6.655 -0.0900 -0.0082 -0.1230
 1815SOL    HW117078   1.041   1.965   6.606  1.4309 -0.0452 -0.2238
 1815SOL    HW217079   1.055   2.014   6.745  0.3595  0.1956 -0.0959
 1816SOL     OW17080   2.741   2.130  15.494 -0.1902  0.1167  0.5958
 1816SOL    HW117081   2.795   2.169  15.563  0.1154  0.5519  0.1118
 1816SOL    HW217082   2.676   2.200  15.484 -0.6291 -0.5376 -1.1951
 1817SOL     OW17083   0.111   0.312   7.773  0.4028 -0.0245  0.2505
 1817SOL    HW117084   0.018   0.331   7.785  1.0265  2.0428  2.0134
 1817SOL    HW217085   0.128   0.250   7.844 -1.4326  0.5559  1.1917
 1818SOL     OW17086   3.019   2.710   5.960 -0.0032 -0.2721 -0.2571
 1818SOL    HW117087   2.976   2.626   5.970 -1.4583  0.7705  2.3488
 1818SOL    HW217088   3.005   2.751   6.046 -2.7456  0.1735 -0.9084
 1819SOL     OW17089   1.785   4.722   4.318 -0.6674 -0.1706 -0.2607
 1819SOL    HW117090   1.692   4.702   4.312 -0.4242 -1.5108  0.3398
 1819SOL    HW217091   1.796   4.732   4.413 -0.2589 -0.1306 -0.3130
 1820SOL     OW17092   3.673   1.503   8.753 -0.1033 -0.2176  0.1168
 1820SOL    HW117093   3.609   1.563   8.792  0.0942 -0.8024  1.3468
 1820SOL    HW217094   3.624   1.476   8.675  2.1445 -0.3861 -1.2285
 1821SOL     OW17095   3.590   3.802   4.187 -0.0875  0.1454 -0.2532
 1821SOL    HW117096   3.621   3.825   4.100  1.4724 -1.5464 -0.1457
 1821SOL    HW217097   3.648   3.731   4.217  0.7264  0.4303 -1.1722
 1822SOL     OW17098   3.684   1.573  17.557 -0.1237  0.1635 -0.3869
 1822SOL    HW117099   3.753   1.593  17.494  1.1288  0.9644  1.2315
 1822SOL    HW217100   3.736   1.514  17.612 -0.4447  1.1168  0.9602
 1823SOL     OW17101   2.937   0.341   8.151  0.3609 -0.0074  0.8199
 1823SOL    HW117102   3.020   0.338   8.104 -0.4249  1.9046 -0.6484
 1823SOL    HW217103   2.879   0.300   8.087  2.5807  1.0469 -1.8428
 1824SOL     OW17104   3.789   3.056   3.929 -0.3909 -0.0593 -0.1899
 1824SOL    HW117105   3.852   3.115   3.969 -0.5535 -1.0453  1.5434
 1824SOL    HW217106   3.742   3.118   3.874  0.1829 -0.5009 -1.1725
 1825SOL     OW17107   3.829   2.046   4.931 -0.0538  0.4147  0.0837
 1825SOL    HW117108   3.879   2.051   5.012 -0.5356  0.1798  0.3937
 1825SOL    HW217109   3.797   1.957   4.943  0.2654  0.8325  3.9126
 1826SOL     OW17110   3.168   3.913   8.763 -0.1170  0.0341 -0.2113
 1826SOL    HW117111   3.089   3.909   8.818 -0.5933 -0.2614 -0.9253
 1826SOL    HW217112   3.237   3.942   8.823  1.1326  0.0114 -1.6660
 1827SOL     OW17113   3.513   3.296   9.216  0.2583  0.4534  0.3299
 1827SOL    HW117114   3.514   3.301   9.312 -2.9148 -3.0248  0.5180
 1827SOL    HW217115   3.487   3.384   9.190  0.7074  0.3564 -0.4367
 1828SOL     OW17116   4.334   2.255   8.656  0.3594 -0.6745 -0.5002
 1828SOL    HW117117   4.386   2.336   8.651  1.7506 -1.6018 -1.2509
 1828SOL    HW217118   4.272   2.272   8.585 -0.5972  1.3904  0.8589
 1829SOL     OW17119   1.896   1.381   5.074  0.0378  0.5041  0.1537
 1829SOL    HW117120   1.970   1.421   5.120  0.4081  0.2937 -0.2666
 1829SOL    HW217121   1.939   1.345   4.997  1.8283  0.8308  1.0011
 1830SOL     OW17122   3.436   3.053   7.831  0.8598  0.1081 -0.0027
 1830SOL    HW117123   3.500   3.114   7.867  0.8911  0.0470  0.0455
 1830SOL    HW217124   3.475   2.973   7.867 -1.0470 -0.8113  0.0665
 1831SOL     OW17125   1.188   2.107   0.780  0.2031  0.3882  0.1714
 1831SOL    HW117126   1.259   2.081   0.720 -1.4399 -1.9421 -0.7712
 1831SOL    HW217127   1.229   2.168   0.841  0.7427  0.3866 -0.1866
 1832SOL     OW17128   2.017   0.526   4.218  0.3493  0.3152  0.2381
 1832SOL    HW117129   2.108   0.552   4.232 -0.6160  3.2313  1.1091
 1832SOL    HW217130   2.012   0.436   4.252  1.8665  0.8856  1.9002
 1833SOL     OW17131   4.579   2.845   6.518 -0.1701  0.4125  0.3932
 1833SOL    HW117132   4.673   2.864   6.528 -0.1113  1.3412 -1.9750
 1833SOL    HW217133   4.584   2.773   6.454  0.3210  0.9818 -0.2112
 1834SOL     OW17134   3.621   2.953   8.476 -0.1034  0.2931  0.5788
 1834SOL    HW117135   3.618   3.015   8.404 -1.5800 -1.0754 -0.5263
 1834SOL    HW217136   3.586   3.013   8.541  1.5693  0.5872  1.2136
 1835SOL     OW17137   1.053   2.402  14.824  0.5092  0.4853  0.4631
 1835SOL    HW117138   0.999   2.324  14.835  0.5837  0.5374  1.2048
 1835SOL    HW217139   1.021   2.450  14.901  1.0286 -0.2395  1.1414
 1836SOL     OW17140   0.138   0.518  10.180 -0.7959 -0.2848  0.5940
 1836SOL    HW117141   0.144   0.584  10.111 -2.4647 -0.3624  0.3791
 1836SOL    HW217142   0.116   0.587  10.242  0.0917 -0.4743  1.1222
 1837SOL     OW17143   4.481   3.301   9.349  0.1101 -0.0856 -0.7441
 1837SOL    HW117144   4.514   3.263   9.268  0.3715  0.8129 -1.0526
 1837SOL    HW217145   4.416   3.357   9.308 -0.9587 -1.0395 -0.3478
 1838SOL     OW17146   1.883   0.463   3.888 -0.3914  0.2910  0.1894
 1838SOL    HW117147   1.805   0.419   3.921 -0.9284  0.2922 -1.0613
 1838SOL    HW217148   1.849   0.552   3.880 -1.4393 -0.0885  0.3516
 1839SOL     OW17149   3.843   4.716   7.730 -0.2123 -0.6308  0.7630
 1839SOL    HW117150   3.827   0.059   7.779  2.1262 -1.1694  2.4071
 1839SOL    HW217151   3.938   4.710   7.719 -0.5272 -0.0600 -2.1448
 1840SOL     OW17152   2.891   3.588  16.962 -0.2210 -0.0109 -0.0305
 1840SOL    HW117153   2.936   3.538  17.030  2.0955 -1.7708 -2.8925
 1840SOL    HW217154   2.815   3.620  17.011  0.2718  1.8520 -0.4796
 1841SOL     OW17155   2.426   3.051  14.131  0.0430  0.4394 -0.1214
 1841SOL    HW117156   2.493   3.028  14.195  2.2556 -1.4912 -3.1118
 1841SOL    HW217157   2.345   3.011  14.162 -1.0890  0.9665 -2.4230
 1842SOL     OW17158   3.724   3.471   1.518  0.0321  0.1901 -0.5728
 1842SOL    HW117159   3.691   3.493   1.605 -0.8335  4.1665 -1.9150
 1842SOL    HW217160   3.704   3.555   1.477 -1.2720  0.7842  1.2743
 1843SOL     OW17161   4.521   0.576  12.768  0.0214  0.3399 -0.0348
 1843SOL    HW117162   4.440   0.526  12.783  1.3944 -0.9881  2.7910
 1843SOL    HW217163   4.540   0.547  12.679  0.3209 -2.2239  0.8758
 1844SOL     OW17164   4.041   1.238  10.523  0.8033 -0.6700  0.4573
 1844SOL    HW117165   3.952   1.213  10.499  0.5733  0.0631  0.5421
 1844SOL    HW217166   4.088   1.170  10.475  0.0425 -1.6245  1.0697
 1845SOL     OW17167   4.186   3.990   7.544  0.1061  0.0801 -0.0170
 1845SOL    HW117168   4.123   3.919   7.530  2.3294 -1.7398 -0.9400
 1845SOL    HW217169   4.220   3.959   7.629  0.0354  2.8391  1.0186
 1846SOL     OW17170   3.472   2.447   6.735 -0.0005 -0.3067  0.1214
 1846SOL    HW117171   3.524   2.490   6.667 -0.8137 -2.9048 -2.1373
 1846SOL    HW217172   3.400   2.507   6.752  0.8353  0.7018  0.1185
 1847SOL     OW17173   0.533   4.518  12.870 -0.3644  0.5332  0.2378
 1847SOL    HW117174   0.543   4.492  12.778  0.1285  0.4834  0.3037
 1847SOL    HW217175   0.614   4.497  12.916  0.8598 -0.6607 -2.4922
 1848SOL     OW17176   1.394   0.240  11.388  0.1929 -0.0543  0.2637
 1848SOL    HW117177   1.373   0.168  11.329  3.3773  0.1960 -1.2190
 1848SOL    HW217178   1.374   0.212  11.477  2.0249 -0.5669  0.5155
 1849SOL     OW17179   3.970   0.258   2.392  0.1544  0.0412  0.0531
 1849SOL    HW117180   3.918   0.330   2.427 -0.0025 -0.3635  0.6515
 1849SOL    HW217181   4.022   0.311   2.331 -1.0400  1.2113  0.0704
 1850SOL     OW17182   2.821   0.996  15.723 -0.1756  0.2870 -0.4681
 1850SOL    HW117183   2.769   1.045  15.660 -0.8543  1.8924  1.3234
 1850SOL    HW217184   2.887   1.061  15.745 -0.2035  0.2013 -0.1279
 1851SOL     OW17185   1.996   0.707   8.831 -0.3677  0.2264  0.6098
 1851SOL    HW117186   1.902   0.698   8.842 -0.4669  2.8049  2.0026
 1851SOL    HW217187   2.037   0.647   8.894  0.9014 -0.2205 -0.6289
 1852SOL     OW17188   1.523   4.677   9.690  0.6278  0.2478 -0.1130
 1852SOL    HW117189   1.586   0.010   9.704  0.5724  0.6285 -1.8140
 1852SOL    HW217190   1.450   4.729   9.658  0.8344 -0.0899 -1.1127
 1853SOL     OW17191   0.487   0.370   1.823  0.6546  0.0769  1.1860
 1853SOL    HW117192   0.515   0.461   1.834  1.8422 -0.2516  0.9652
 1853SOL    HW217193   0.393   0.369   1.840  0.3478 -4.4794 -0.8756
 1854SOL     OW17194   4.138   4.265  12.359  0.2705 -0.1593  0.9732
 1854SOL    HW117195   4.098   4.208  12.425 -0.2499  0.2167  0.9879
 1854SOL    HW217196   4.122   4.344  12.410  3.6726  3.1460 -3.1068
 1855SOL     OW17197   2.465   1.728   3.820  0.2666 -0.0529  0.1360
 1855SOL    HW117198   2.401   1.763   3.759  1.4456  0.9551 -0.5278
 1855SOL    HW217199   2.407   1.708   3.894 -0.2022  0.5244 -0.0795
 1856SOL     OW17200   1.860   2.575   0.021  0.4290 -0.1344  0.4695
 1856SOL    HW117201   1.837   2.656  17.723 -2.5261 -1.5177 -0.4788
 1856SOL    HW217202   1.769   2.545   0.025 -0.2369  1.7894  0.1491
 1857SOL     OW17203   0.078   3.233  17.091 -0.0099  0.1545 -0.1296
 1857SOL    HW117204   0.015   3.270  17.029  1.4770  0.8355 -1.2435
 1857SOL    HW217205   0.070   3.139  17.076  0.4137 -0.0789  1.1053
 1858SOL     OW17206   1.494   1.729   6.288 -0.1731  0.2076 -0.4691
 1858SOL    HW117207   1.437   1.729   6.211  0.7927 -1.2954 -1.2005
 1858SOL    HW217208   1.545   1.651   6.266 -0.9779 -0.8925  1.5750
 1859SOL     OW17209   0.465   4.134   5.733  0.5283  0.1964 -0.1859
 1859SOL    HW117210   0.489   4.175   5.649  1.8679 -0.4968 -0.1414
 1859SOL    HW217211   0.434   4.046   5.711 -1.4743  0.9170 -0.2476
 1860SOL     OW17212   1.083   1.311   4.023 -0.3318  0.5727 -0.1088
 1860SOL    HW117213   1.169   1.271   4.036  0.0204  1.7915  1.2523
 1860SOL    HW217214   1.034   1.229   4.029  1.5858 -0.7129 -1.8582
 1861SOL     OW17215   1.103   1.776   8.573  0.1373  0.4071  0.9399
 1861SOL    HW117216   1.134   1.845   8.632  3.3609  1.2012 -1.6851
 1861SOL    HW217217   1.180   1.723   8.548  0.0518  0.4892  0.5020
 1862SOL     OW17218   3.897   3.092   5.257 -0.2620 -0.7924  0.3545
 1862SOL    HW117219   3.929   3.143   5.331  0.9764 -1.7665  0.4995
 1862SOL    HW217220   3.900   3.162   5.193 -0.7139 -0.8042  0.3176
 1863SOL     OW17221   4.044   1.208   8.853  0.4540  0.2662  0.1815
 1863SOL    HW117222   3.960   1.253   8.861 -1.3493 -2.8256 -1.5251
 1863SOL    HW217223   4.012   1.119   8.865 -0.7275  0.6256 -0.3452
 1864SOL     OW17224   4.144   4.044   2.787 -0.1405  0.6734  0.6818
 1864SOL    HW117225   4.127   4.135   2.813  0.4408  0.6139  1.2694
 1864SOL    HW217226   4.058   4.004   2.774 -1.2391  2.8529  1.2456
 1865SOL     OW17227   2.678   2.083   3.421  0.0687  0.0143  0.2242
 1865SOL    HW117228   2.611   2.084   3.353  2.0215 -3.9972 -1.7503
 1865SOL    HW217229   2.741   2.132   3.368  0.7738 -0.6626  0.4324
 1866SOL     OW17230   0.382   3.678   7.685 -0.0256  0.2666 -0.3019
 1866SOL    HW117231   0.434   3.673   7.765 -1.9051  1.2718  0.9663
 1866SOL    HW217232   0.444   3.724   7.628  1.8783 -1.3654  0.4752
 1867SOL     OW17233   3.452   1.690  17.574 -0.1698 -0.4985 -0.6743
 1867SOL    HW117234   3.450   1.719  17.483 -2.3919 -2.2530 -1.2011
 1867SOL    HW217235   3.534   1.642  17.569 -0.4913 -1.1583  0.2971
 1868SOL     OW17236   0.355   0.755  10.442 -0.0132 -0.3696  0.3459
 1868SOL    HW117237   0.276   0.710  10.474  0.4949  0.8695  3.3598
 1868SOL    HW217238   0.427   0.704  10.479  0.0491  0.5752  1.5523
 1869SOL     OW17239   3.110   2.294   3.539 -0.4079 -0.2878  0.5741
 1869SOL    HW117240   3.109   2.199   3.531  1.6762 -0.2428 -0.1658
 1869SOL    HW217241   3.189   2.304   3.592  2.0218  0.5912 -3.2041
 1870SOL     OW17242   3.153   1.106   8.633  0.1631 -0.1887 -0.5144
 1870SOL    HW117243   3.100   1.116   8.554  1.3924  0.4206 -1.2563
 1870SOL    HW217244   3.147   1.010   8.636 -0.2908 -0.1570 -0.3957
 1871SOL     OW17245   4.134   1.153   5.912 -0.1579 -0.9707 -0.0394
 1871SOL    HW117246   4.172   1.082   5.861  1.9251 -1.1154  1.7144
 1871SOL    HW217247   4.079   1.111   5.978  1.4361 -1.2944  1.0930
 1872SOL     OW17248   4.291   3.827   8.029 -0.0149  1.1382  0.1395
 1872SOL    HW117249   4.286   3.733   8.012 -0.3212  1.4275 -1.3700
 1872SOL    HW217250   4.227   3.841   8.099  0.0586  1.6262  0.1092
 1873SOL     OW17251   2.682   1.871   7.691 -0.0256 -0.6573  0.0242
 1873SOL    HW117252   2.762   1.846   7.736 -0.2135  0.0084  0.7267
 1873SOL    HW217253   2.721   1.923   7.621 -0.2920 -0.8931 -0.3008
 1874SOL     OW17254   0.710   1.483   5.626  0.7403  0.4187  0.3450
 1874SOL    HW117255   0.798   1.468   5.661  0.3910 -1.4890  0.3954
 1874SOL    HW217256   0.704   1.575   5.651  1.2932  0.4301  0.4501
 1875SOL     OW17257   3.624   4.677   8.058 -0.1640 -0.2130  0.4471
 1875SOL    HW117258   3.634   4.685   8.152 -3.0084 -1.8061  0.8689
 1875SOL    HW217259   3.699   4.629   8.022  0.1259  2.0880 -2.0597
 1876SOL     OW17260   0.156   4.014   4.452 -0.4061  0.2849  1.0117
 1876SOL    HW117261   0.125   3.996   4.363 -0.7067  1.3133  0.9103
 1876SOL    HW217262   0.247   3.985   4.449 -0.5958 -0.1870 -0.2876
 1877SOL     OW17263   0.158   4.304   9.532  0.1209  0.4853 -0.4919
 1877SOL    HW117264   0.136   4.270   9.619 -0.6619  0.7898 -0.5716
 1877SOL    HW217265   0.168   4.226   9.477 -0.6953  0.6280 -0.8492
 1878SOL     OW17266   4.154   0.981   2.354  0.2127 -0.1523  0.5448
 1878SOL    HW117267   4.113   0.922   2.417  1.2438 -2.0169 -0.4990
 1878SOL    HW217268   4.089   1.050   2.346 -0.7739 -1.0584  0.6635
 1879SOL     OW17269   0.074   2.321   2.007  0.5204  0.1660 -0.6392
 1879SOL    HW117270   0.045   2.411   1.989 -2.3919 -0.5029  0.6990
 1879SOL    HW217271   0.150   2.342   2.062 -1.0908  0.8163  1.3524
 1880SOL     OW17272   2.799   1.209   4.370 -0.3171  0.0180 -0.4236
 1880SOL    HW117273   2.728   1.148   4.388  0.5260 -0.3065  1.9359
 1880SOL    HW217274   2.855   1.205   4.448 -0.9017  0.7561  0.0397
 1881SOL     OW17275   4.576   4.157   1.551  0.0491 -0.0096 -0.1578
 1881SOL    HW117276   4.532   4.077   1.579 -0.5318 -0.1610 -1.5473
 1881SOL    HW217277   4.553   4.220   1.620  0.6074  1.0753 -0.9634
 1882SOL     OW17278   0.131   1.611   8.824  0.7196 -0.1435 -0.4942
 1882SOL    HW117279   0.195   1.541   8.810 -1.3427 -1.4453 -3.3313
 1882SOL    HW217280   0.147   1.652   8.739  1.1098  0.6756 -0.0267
 1883SOL     OW17281   0.544   3.901   9.080 -0.1297  0.1032  0.5801
 1883SOL    HW117282   0.574   3.828   9.134  0.0239 -1.2330 -1.2990
 1883SOL    HW217283   0.588   3.980   9.111 -1.1681  0.8600  0.1440
 1884SOL     OW17284   3.561   0.610   8.897 -0.2781  0.4531 -0.0708
 1884SOL    HW117285   3.613   0.671   8.846  1.4964 -0.5654  0.5038
 1884SOL    HW217286   3.576   0.526   8.852  1.4861  0.0636  1.2195
 1885SOL     OW17287   0.553   3.499   6.946  0.4432 -0.2287 -0.4023
 1885SOL    HW117288   0.460   3.517   6.939  0.9350  2.5354  0.1573
 1885SOL    HW217289   0.557   3.440   7.022 -1.6072 -2.4686 -2.0464
 1886SOL     OW17290   3.849   0.844   2.290 -0.3543  0.1518 -0.6063
 1886SOL    HW117291   3.842   0.879   2.201  0.9663 -0.0701 -0.8046
 1886SOL    HW217292   3.790   0.901   2.338  0.1958 -0.4672  0.7906
 1887SOL     OW17293   0.262   2.023  10.249  0.0375  0.0091 -0.3811
 1887SOL    HW117294   0.200   1.993  10.182 -0.8117  0.1388  0.3462
 1887SOL    HW217295   0.200   2.038  10.321  0.0331  0.1637 -0.4167
 1888SOL     OW17296   2.718   4.251   4.520  0.7743 -0.0608  0.3151
 1888SOL    HW117297   2.784   4.185   4.499  1.7918  0.4237  1.9936
 1888SOL    HW217298   2.663   4.242   4.442  1.2235 -1.4317  0.1520
 1889SOL     OW17299   2.062   1.299  17.645 -0.3458  0.6871  0.6645
 1889SOL    HW117300   2.104   1.349  17.575 -0.4143  0.3232  0.3667
 1889SOL    HW217301   1.983   1.285  17.593 -1.7015  0.4449  2.7885
 1890SOL     OW17302   3.247   2.680  14.156 -0.2252  0.1735 -0.8475
 1890SOL    HW117303   3.267   2.705  14.066  0.4209 -0.6966 -0.9401
 1890SOL    HW217304   3.167   2.731  14.170  0.0930 -0.4701  3.4129
 1891SOL     OW17305   0.770   1.124  13.875  0.4412  0.8488  0.3578
 1891SOL    HW117306   0.811   1.048  13.914 -1.4376 -0.8354 -0.9537
 1891SOL    HW217307   0.739   1.175  13.950 -0.1057 -2.0057  2.0468
 1892SOL     OW17308   3.410   0.836   5.141  0.2453  0.2309  0.0613
 1892SOL    HW117309   3.469   0.769   5.176  2.0005 -0.2861 -3.7780
 1892SOL    HW217310   3.353   0.790   5.080  0.6930  0.0369 -0.2190
 1893SOL     OW17311   0.265   4.433   3.389 -0.2551 -0.4336  0.4633
 1893SOL    HW117312   0.243   4.513   3.436 -0.4144 -0.7006  0.8453
 1893SOL    HW217313   0.328   4.397   3.452 -0.0939 -1.1956 -0.1381
 1894SOL     OW17314   4.163   1.567   8.103 -0.3359 -0.1602  0.0167
 1894SOL    HW117315   4.171   1.478   8.069 -1.5347 -0.2173 -0.1153
 1894SOL    HW217316   4.254   1.594   8.093 -0.3646  0.5951  1.7507
 1895SOL     OW17317   3.218   3.201   9.168  0.3825 -0.1377  0.2642
 1895SOL    HW117318   3.296   3.195   9.223 -1.7538  0.0605  3.3489
 1895SOL    HW217319   3.177   3.116   9.187  2.1358 -1.4126 -1.6694
 1896SOL     OW17320   3.247   0.950   8.044  0.1149 -0.3119  0.4772
 1896SOL    HW117321   3.260   0.949   8.139 -1.7765  1.2479  0.7556
 1896SOL    HW217322   3.155   0.974   8.042 -0.1708 -1.3823  0.9583
 1897SOL     OW17323   2.795   2.200   7.021 -0.4920 -0.0775  0.3260
 1897SOL    HW117324   2.850   2.269   7.057 -0.9162  1.0892 -1.3012
 1897SOL    HW217325   2.760   2.253   6.949 -0.9149  0.6405  1.0518
 1898SOL     OW17326   2.742   4.665   7.936  0.0185 -0.1192 -0.2732
 1898SOL    HW117327   2.702   4.618   8.008 -1.1968 -0.8035 -1.3955
 1898SOL    HW217328   2.751   4.592   7.874  2.1936 -0.9407  1.0199
 1899SOL     OW17329   2.660   1.964   9.747 -0.0558  0.0983  0.3316
 1899SOL    HW117330   2.690   2.055   9.746 -0.4710  0.2352  0.4333
 1899SOL    HW217331   2.631   1.954   9.657  0.8386 -2.6370  0.3512
 1900SOL     OW17332   4.044   4.268   8.522 -0.1112 -0.2140 -0.1265
 1900SOL    HW117333   4.069   4.184   8.482  0.8025 -1.0274  2.1451
 1900SOL    HW217334   3.958   4.243   8.557  0.3209  0.5528  1.4633
 1901SOL     OW17335   0.957   0.944  13.961 -0.4011  0.3532  0.2674
 1901SOL    HW117336   1.036   0.899  13.931  0.6750  2.0540  0.5469
 1901SOL    HW217337   0.990   0.999  14.033 -1.2636  1.3327 -0.0975
 1902SOL     OW17338   1.288   4.195   6.058 -0.1013  0.2047 -0.0277
 1902SOL    HW117339   1.286   4.253   5.982  1.4277  0.1002 -0.1519
 1902SOL    HW217340   1.354   4.239   6.112  0.1913  0.8688 -0.9141
 1903SOL     OW17341   4.435   3.342  11.231 -0.4270  0.1165 -0.6622
 1903SOL    HW117342   4.379   3.268  11.210  2.7641 -2.7894  1.0954
 1903SOL    HW217343   4.373   3.413  11.246  0.2330  0.6577 -0.4808
 1904SOL     OW17344   1.284   0.371   5.555 -0.0937 -0.5342  0.0375
 1904SOL    HW117345   1.345   0.396   5.486 -0.0412 -2.0291 -0.4603
 1904SOL    HW217346   1.353   0.360   5.622  0.9560  0.7505 -0.8253
 1905SOL     OW17347   2.781   4.289  12.167 -0.1199 -0.3591  0.0932
 1905SOL    HW117348   2.698   4.277  12.213  0.7704  1.0283  2.0581
 1905SOL    HW217349   2.834   4.276  12.246  0.6329  1.3431 -0.1404
 1906SOL     OW17350   3.286   4.714  13.915 -0.4766 -0.1548  0.5529
 1906SOL    HW117351   3.311   4.637  13.863 -2.7413 -0.7071  0.2715
 1906SOL    HW217352   3.376   0.003  13.935 -0.5519  1.8875 -1.9140
 1907SOL     OW17353   3.518   4.449   8.514 -0.1261  0.0885  0.0866
 1907SOL    HW117354   3.461   4.386   8.558 -2.5416  1.2808 -1.2949
 1907SOL    HW217355   3.552   4.497   8.590  1.5758 -1.7176  0.4335
 1908SOL     OW17356   1.970   3.789   9.455 -0.0298  0.7182  0.6306
 1908SOL    HW117357   1.968   3.694   9.446 -1.4955  1.0686 -2.6479
 1908SOL    HW217358   1.894   3.812   9.509 -0.5223 -1.6522  0.9382
 1909SOL     OW17359   3.780   1.793  12.196  0.5369  0.2885 -0.6466
 1909SOL    HW117360   3.872   1.818  12.199  0.8114 -1.2459  3.0303
 1909SOL    HW217361   3.754   1.811  12.286  0.5448  0.6118 -0.7104
 1910SOL     OW17362   0.197   4.130   5.145 -0.0425 -0.5126  0.3941
 1910SOL    HW117363   0.180   4.201   5.207 -1.7839 -1.3180  0.8668
 1910SOL    HW217364   0.195   4.181   5.065 -1.0491 -0.5952  0.3560
 1911SOL     OW17365   2.123   1.852   4.234 -0.5670 -0.5171  0.1668
 1911SOL    HW117366   2.032   1.853   4.204 -0.3515  0.1284 -0.4596
 1911SOL    HW217367   2.145   1.945   4.240  0.0142 -0.5503 -1.4001
 1912SOL     OW17368   3.749   1.737   5.392 -0.4059 -0.3518  0.2575
 1912SOL    HW117369   3.710   1.659   5.432 -2.3493  0.1883 -0.6115
 1912SOL    HW217370   3.677   1.768   5.337  1.0614  1.2755 -0.7300
 1913SOL     OW17371   0.489   0.832   2.328  0.1604 -0.0265 -0.0755
 1913SOL    HW117372   0.420   0.898   2.315 -1.2859 -1.3538  0.7555
 1913SOL    HW217373   0.449   0.759   2.377 -0.8609  1.0674  0.7289
 1914SOL     OW17374   2.870   1.018  16.480 -0.3068 -0.6186 -0.0897
 1914SOL    HW117375   2.931   0.996  16.551 -0.2036 -0.4624 -0.1290
 1914SOL    HW217376   2.923   1.041  16.403 -0.0662 -0.0946  0.2312
 1915SOL     OW17377   0.851   1.115   2.117 -0.0642  0.2572 -0.0647
 1915SOL    HW117378   0.940   1.147   2.101 -0.2957  0.0986 -1.7470
 1915SOL    HW217379   0.866   1.080   2.204  0.1660  0.4625 -0.0197
 1916SOL     OW17380   4.573   4.265   6.374  0.5768 -0.1853 -0.1424
 1916SOL    HW117381   4.528   4.180   6.380  0.1657  0.2729  3.0898
 1916SOL    HW217382   4.541   4.304   6.455  1.2485 -0.1986  0.1280
 1917SOL     OW17383   4.732   0.482  11.991  0.2533  0.1012  0.2119
 1917SOL    HW117384   4.656   0.533  12.014  0.3854  0.4790 -0.1841
 1917SOL    HW217385   0.052   0.517  12.058  2.7002  0.0702 -1.8545
 1918SOL     OW17386   2.947   3.030  14.897  0.1321 -0.2592 -0.0329
 1918SOL    HW117387   3.024   2.989  14.858  0.1170  1.9168 -2.3564
 1918SOL    HW217388   2.879   2.994  14.840 -0.5780  0.9987  0.0166
 1919SOL     OW17389   4.503   4.100   6.793  0.0527  0.1998  0.3104
 1919SOL    HW117390   4.429   4.118   6.735  0.3458  0.4661  0.0224
 1919SOL    HW217391   4.511   4.187   6.831  2.3445 -0.1497  0.6542
 1920SOL     OW17392   1.766   3.179   2.008  0.0047 -0.5444  0.0808
 1920SOL    HW117393   1.724   3.145   1.928 -2.1175  2.4217 -0.0548
 1920SOL    HW217394   1.715   3.136   2.076 -0.6402  0.7294  0.4033
 1921SOL     OW17395   2.946   2.691  16.918 -0.7628 -0.0214  0.0446
 1921SOL    HW117396   3.014   2.727  16.861 -0.8765 -0.2769 -0.2527
 1921SOL    HW217397   2.962   2.748  16.993 -1.7950 -0.5671  0.6816
 1922SOL     OW17398   1.107   1.050   5.195 -0.3548  0.0332 -0.8897
 1922SOL    HW117399   1.103   1.131   5.247  2.8420  0.3769 -1.1585
 1922SOL    HW217400   1.103   0.992   5.271  0.5305 -1.2703 -1.8520
 1923SOL     OW17401   2.746   4.649  14.047  0.2508 -0.4764  0.1038
 1923SOL    HW117402   2.656   4.662  14.075  0.0928 -1.0357 -0.1472
 1923SOL    HW217403   2.781   4.665  14.134  0.6059 -0.1074 -0.1027
 1924SOL     OW17404   1.195   2.441   4.184  0.7032 -0.4152 -0.0693
 1924SOL    HW117405   1.163   2.352   4.202 -0.6262 -0.3374 -2.0821
 1924SOL    HW217406   1.138   2.472   4.114  1.2054 -0.1778 -0.3674
 1925SOL     OW17407   4.604   0.100   7.533  0.2297 -0.2993 -0.6636
 1925SOL    HW117408   4.579   0.039   7.602  2.7384  0.1990  0.6813
 1925SOL    HW217409   4.697   0.117   7.547 -0.2328  1.3684  0.3657
 1926SOL     OW17410   2.180   0.558   9.015  0.1500  0.1706  0.1342
 1926SOL    HW117411   2.220   0.632   9.062  2.0928 -1.4788  1.1087
 1926SOL    HW217412   2.184   0.500   9.091 -1.0714 -1.9915 -1.4570
 1927SOL     OW17413   1.263   2.213   5.800  0.0643 -0.8984 -0.7071
 1927SOL    HW117414   1.312   2.239   5.878 -0.0906 -2.7346  0.0099
 1927SOL    HW217415   1.278   2.119   5.809 -0.5937 -0.7526  2.0776
 1928SOL     OW17416   1.650   1.761   3.652 -0.5487  0.4562  0.0341
 1928SOL    HW117417   1.741   1.782   3.630  0.1269 -2.1388  0.3783
 1928SOL    HW217418   1.609   1.806   3.578  1.3561  1.2966 -0.5153
 1929SOL     OW17419   4.087   4.677   4.335  0.1209 -0.3682 -0.0371
 1929SOL    HW117420   4.177   4.672   4.368  0.3145 -3.9688 -1.1377
 1929SOL    HW217421   4.037   4.644   4.409  1.2472 -0.2422  0.7751
 1930SOL     OW17422   2.475   4.036   7.244  0.7682  0.4251 -0.5417
 1930SOL    HW117423   2.455   4.124   7.276  0.6496 -0.0062  0.5824
 1930SOL    HW217424   2.566   4.026   7.273  0.5924  1.2447  0.2884
 1931SOL     OW17425   2.463   0.907   3.116  0.4880  0.2626  0.2977
 1931SOL    HW117426   2.526   0.972   3.085 -2.1760  2.1690 -1.2138
 1931SOL    HW217427   2.379   0.952   3.127 -0.8852 -2.2990  0.3601
 1932SOL     OW17428   3.978   0.476   2.764 -0.1724  0.1250 -0.1919
 1932SOL    HW117429   4.020   0.559   2.743 -2.2279  1.1420 -0.3537
 1932SOL    HW217430   3.942   0.448   2.679  1.0429 -0.3648 -0.5369
 1933SOL     OW17431   4.714   3.384   4.477 -0.1654 -0.0257 -0.4082
 1933SOL    HW117432   4.650   3.335   4.528 -1.0898  1.8588  0.2294
 1933SOL    HW217433   4.667   3.446   4.422 -0.9242  2.0181  2.5621
 1934SOL     OW17434   2.353   3.775  14.395 -0.2092 -0.0947 -0.3707
 1934SOL    HW117435   2.326   3.778  14.303 -0.8379 -0.4311 -0.1990
 1934SOL    HW217436   2.290   3.841  14.425  1.8538  0.7729  1.9900
 1935SOL     OW17437   2.789   2.552  11.386 -0.2463 -0.3791 -0.3765
 1935SOL    HW117438   2.723   2.620  11.383 -0.2770 -0.4303 -0.9173
 1935SOL    HW217439   2.736   2.479  11.417  0.7401 -0.4921  1.0434
 1936SOL     OW17440   0.084   3.864   7.391  0.2306  0.2493 -1.1457
 1936SOL    HW117441   4.734   3.868   7.428 -0.5472 -1.7643 -2.8199
 1936SOL    HW217442   0.137   3.832   7.464 -0.2474  3.9351  0.8668
 1937SOL     OW17443   2.953   1.725   8.852 -0.0958  0.2420  0.1176
 1937SOL    HW117444   3.025   1.758   8.907  1.4878 -1.5082 -0.8911
 1937SOL    HW217445   2.943   1.633   8.876 -0.0853  0.4934  1.1059
 1938SOL     OW17446   0.012   2.465   4.870  0.1518 -0.1209 -0.1174
 1938SOL    HW117447   4.722   2.377   4.898 -1.0263  0.6604  1.1977
 1938SOL    HW217448   0.107   2.468   4.881 -0.1580  1.7152  2.0816
 1939SOL     OW17449   0.313   1.274  10.558  0.8673 -0.3291 -0.2438
 1939SOL    HW117450   0.321   1.181  10.534 -0.7489 -0.3164 -0.8509
 1939SOL    HW217451   0.344   1.315  10.477  1.9460  0.3606  0.5316
 1940SOL     OW17452   2.379   2.115   2.784  0.0110 -0.4844 -0.6959
 1940SOL    HW117453   2.404   2.132   2.693  1.7850 -0.4229 -0.1948
 1940SOL    HW217454   2.388   2.020   2.786 -1.1357 -0.5776 -0.0557
 1941SOL     OW17455   1.029   2.349  14.347  0.1065  0.0985 -0.1932
 1941SOL    HW117456   0.975   2.306  14.414  1.1896 -0.4740  0.3239
 1941SOL    HW217457   0.984   2.326  14.266 -1.4781  0.4842  0.5785
 1942SOL     OW17458   4.307   2.717  13.600  0.4051  0.3234  0.0970
 1942SOL    HW117459   4.269   2.761  13.676  2.3385  1.1574  0.5755
 1942SOL    HW217460   4.225   2.688  13.559  0.4258  0.4156 -0.0081
 1943SOL     OW17461   3.678   4.375   6.509  0.3639  0.1192 -0.3331
 1943SOL    HW117462   3.751   4.317   6.488 -1.5480 -2.4180 -0.0734
 1943SOL    HW217463   3.702   4.427   6.585  2.8468 -0.7660 -0.5348
 1944SOL     OW17464   1.919   1.397  16.928 -0.5896 -0.3107 -0.3544
 1944SOL    HW117465   1.969   1.328  16.885 -0.9559 -0.6838 -0.1876
 1944SOL    HW217466   1.904   1.365  17.017 -1.5614 -0.5371 -0.5952
 1945SOL     OW17467   0.673   2.698   8.126 -0.0259 -0.2831 -0.6628
 1945SOL    HW117468   0.700   2.720   8.037  3.5044  1.8963  0.9618
 1945SOL    HW217469   0.744   2.641   8.157 -0.7027  0.3391  1.9493
 1946SOL     OW17470   0.344   1.289   2.575  0.1535 -0.1165 -0.4429
 1946SOL    HW117471   0.335   1.368   2.521 -2.2543  1.1229  1.7727
 1946SOL    HW217472   0.438   1.271   2.576 -0.2516 -2.1406  0.0621
 1947SOL     OW17473   4.134   0.282  11.187 -0.3115  0.8212 -0.1237
 1947SOL    HW117474   4.215   0.232  11.178 -1.8232 -2.0039  1.8197
 1947SOL    HW217475   4.116   0.273  11.281 -0.1692  1.0170 -0.0767
 1948SOL     OW17476   2.019   2.878   4.185 -0.2190  0.5046 -0.5068
 1948SOL    HW117477   2.021   2.970   4.209  0.3581  0.5256 -0.6441
 1948SOL    HW217478   1.928   2.865   4.159 -0.7401 -1.6737  2.3859
 1949SOL     OW17479   0.070   2.139   7.602 -0.2729  0.3373 -0.3799
 1949SOL    HW117480   4.717   2.150   7.629  0.1698  3.3037 -0.0839
 1949SOL    HW217481   0.064   2.183   7.517 -1.5222  1.3615  0.2479
 1950SOL     OW17482   4.417   1.024   2.242 -0.0335 -0.1084  0.8128
 1950SOL    HW117483   4.354   0.982   2.301  0.0569 -1.1838  0.1454
 1950SOL    HW217484   4.372   1.095   2.195  0.3992  0.5568  1.4120
 1951SOL     OW17485   2.128   1.432   3.801  0.3216 -0.3425  0.1567
 1951SOL    HW117486   2.177   1.449   3.882 -0.9162  0.8482  0.6557
 1951SOL    HW217487   2.161   1.345   3.780 -1.3269 -1.4264  2.0581
 1952SOL     OW17488   3.261   2.770  13.011 -0.1101  0.1061  0.0491
 1952SOL    HW117489   3.212   2.752  13.090 -0.0024  0.0439  0.1018
 1952SOL    HW217490   3.344   2.723  13.022 -0.7139 -1.7561 -3.2291
 1953SOL     OW17491   3.598   3.357   2.102  0.0479 -0.3876  0.1927
 1953SOL    HW117492   3.584   3.264   2.088 -0.2188 -0.3458  0.1899
 1953SOL    HW217493   3.609   3.359   2.197 -0.7869 -0.4979  0.2883
 1954SOL     OW17494   1.315   2.779   2.736  0.0007  0.3570  0.1161
 1954SOL    HW117495   1.245   2.726   2.699 -0.0392  1.1192 -0.8983
 1954SOL    HW217496   1.388   2.717   2.732  0.2986  0.6641  0.7161
 1955SOL     OW17497   2.546   3.962   2.157 -0.1046 -0.0729 -0.3463
 1955SOL    HW117498   2.527   3.917   2.074 -0.9463  0.0802 -0.2341
 1955SOL    HW217499   2.479   3.938   2.221  0.3025  1.6767  0.7203
 1956SOL     OW17500   4.137   4.109   7.125 -0.5087  0.0704 -0.0384
 1956SOL    HW117501   4.229   4.103   7.148 -1.2225 -0.7384  2.5309
 1956SOL    HW217502   4.100   4.042   7.182  0.7697 -1.1211 -0.5984
 1957SOL     OW17503   3.501   0.054   2.028 -0.0596  0.7736 -0.1266
 1957SOL    HW117504   3.464   0.015   2.107 -0.6486 -0.2407 -0.9050
 1957SOL    HW217505   3.464   0.141   2.045 -2.1123  0.4036 -2.7119
 1958SOL     OW17506   2.716   3.953  14.965  0.1074  0.2241 -0.2942
 1958SOL    HW117507   2.630   3.965  14.924  1.1034  2.6516 -1.6552
 1958SOL    HW217508   2.771   3.918  14.895  0.8436  1.3809 -0.2946
 1959SOL     OW17509   0.277   2.541   4.361 -0.0244  0.0981  0.6082
 1959SOL    HW117510   0.284   2.488   4.281 -2.1061 -0.3513  0.7359
 1959SOL    HW217511   0.185   2.516   4.371 -0.4323  0.7536 -1.4840
 1960SOL     OW17512   4.671   1.190   9.249  0.0060  0.6893  0.7703
 1960SOL    HW117513   4.651   1.275   9.288 -0.1083  0.8642  0.3386
 1960SOL    HW217514   4.685   1.213   9.157  1.6996  2.4646  1.4622
 1961SOL     OW17515   0.776   3.409   3.105 -0.2323  0.0868 -0.1715
 1961SOL    HW117516   0.803   3.369   3.023 -1.8836  1.0476 -1.1833
 1961SOL    HW217517   0.858   3.424   3.152 -1.0576 -0.2307  1.3763
 1962SOL     OW17518   4.165   2.295   8.448 -0.3401 -0.1937 -0.2993
 1962SOL    HW117519   4.161   2.390   8.439 -2.7858 -0.2475  0.2608
 1962SOL    HW217520   4.073   2.274   8.439  0.9362 -5.8467 -0.3383
 1963SOL     OW17521   1.431   1.894  16.118 -0.4615 -0.4393 -0.0466
 1963SOL    HW117522   1.392   1.980  16.137  2.2228  0.4083  1.5769
 1963SOL    HW217523   1.524   1.907  16.103 -0.5912 -1.4246 -1.6832
 1964SOL     OW17524   1.815   0.062   8.109 -0.2890 -0.6450  0.6963
 1964SOL    HW117525   1.856   0.063   8.023  0.7590  0.6467  1.2183
 1964SOL    HW217526   1.728   0.027   8.087 -0.7425 -0.7979  2.7161
 1965SOL     OW17527   4.573   4.046   4.312  0.1867 -0.4389  0.5841
 1965SOL    HW117528   4.528   4.115   4.361 -1.0624  0.0146 -1.1915
 1965SOL    HW217529   4.509   3.975   4.319  1.2815 -1.4630  0.2635
 1966SOL     OW17530   0.277   2.488   2.604  0.0072  0.2366 -0.0382
 1966SOL    HW117531   0.200   2.447   2.567  0.9396 -1.1332 -0.4604
 1966SOL    HW217532   0.325   2.498   2.522 -0.8259 -1.8132 -0.7569
 1967SOL     OW17533   2.258   1.629   0.197  0.0648 -0.1273  0.0208
 1967SOL    HW117534   2.199   1.701   0.175 -0.4190 -0.5068  0.0526
 1967SOL    HW217535   2.215   1.556   0.153  2.3933 -1.1749 -0.4945
 1968SOL     OW17536   1.760   4.028   6.058  0.7093 -0.6916  0.2228
 1968SOL    HW117537   1.839   3.974   6.064  1.0741 -0.1721  0.1004
 1968SOL    HW217538   1.793   4.098   6.002  3.3361 -0.6252  1.8430
 1969SOL     OW17539   1.313   3.520   0.718 -0.4125 -0.1199 -0.7116
 1969SOL    HW117540   1.289   3.432   0.692 -1.8484  0.2977 -0.7981
 1969SOL    HW217541   1.247   3.568   0.667 -0.7448  0.6946  0.4985
 1970SOL     OW17542   2.984   2.877   1.680  0.5726 -0.1141 -0.2960
 1970SOL    HW117543   3.075   2.855   1.700  0.3364  0.3675  1.3415
 1970SOL    HW217544   2.939   2.793   1.691 -0.1664  0.3935  0.5387
 1971SOL     OW17545   3.971   1.608  11.821  0.2970  0.8361 -0.5123
 1971SOL    HW117546   4.039   1.675  11.828  0.3097  0.5119  2.4186
 1971SOL    HW217547   3.929   1.617  11.906  0.2913 -0.8333 -0.3364
 1972SOL     OW17548   4.073   1.467   8.690 -0.4836 -0.2695  0.4837
 1972SOL    HW117549   4.015   1.428   8.755 -0.4718 -0.3160  0.4657
 1972SOL    HW217550   4.062   1.409   8.614  0.1758 -0.1352  0.2856
 1973SOL     OW17551   2.784   0.844  13.167  0.3123  0.0735  0.2197
 1973SOL    HW117552   2.857   0.787  13.186  0.0834  0.1872  1.4419
 1973SOL    HW217553   2.744   0.845  13.254  2.1185 -0.8616  1.0468
 1974SOL     OW17554   4.072   0.434   2.205  0.6051  0.2330  0.3104
 1974SOL    HW117555   4.156   0.391   2.192  0.7008  0.3905  0.4123
 1974SOL    HW217556   4.044   0.455   2.115 -0.5234 -3.0278 -0.1116
 1975SOL     OW17557   1.540   3.222  14.159 -0.4486 -0.2488 -0.3218
 1975SOL    HW117558   1.494   3.192  14.238  1.0226  2.5675  1.5999
 1975SOL    HW217559   1.528   3.316  14.171 -0.4723 -0.1624 -1.0115
 1976SOL     OW17560   1.323   3.913  10.597 -0.1187 -0.4983  0.4567
 1976SOL    HW117561   1.290   3.961  10.673 -1.5885  0.3607 -0.7346
 1976SOL    HW217562   1.317   3.828  10.640  1.1864 -2.4565 -3.2580
 1977SOL     OW17563   0.691   3.692   9.227  0.4907 -0.0853 -0.4477
 1977SOL    HW117564   0.682   3.614   9.283  1.5574  0.9579  1.1527
 1977SOL    HW217565   0.740   3.751   9.284  1.7637 -0.1857 -1.4403
 1978SOL     OW17566   1.267   2.914   5.271 -0.4692 -0.4550  0.8536
 1978SOL    HW117567   1.261   2.826   5.308 -0.8940 -0.9410 -0.3966
 1978SOL    HW217568   1.249   2.965   5.351 -0.0998 -0.3202  0.8508
 1979SOL     OW17569   0.956   2.302  16.892  0.2463 -0.0418  0.0829
 1979SOL    HW117570   0.931   2.377  16.839 -1.6053 -0.5281  0.2775
 1979SOL    HW217571   0.925   2.227  16.842 -1.9780  0.6493  0.4462
 1980SOL     OW17572   0.672   3.793  11.508  0.5159 -0.3833 -0.2777
 1980SOL    HW117573   0.750   3.818  11.459  0.7401 -0.8464 -0.1561
 1980SOL    HW217574   0.609   3.814  11.439 -1.3287  3.7844  2.7019
 1981SOL     OW17575   2.990   1.660  11.034  0.1457 -0.0488  0.1901
 1981SOL    HW117576   3.044   1.596  11.081  1.4148  0.4174 -0.6542
 1981SOL    HW217577   3.004   1.738  11.088 -0.7690 -0.6689  1.3124
 1982SOL     OW17578   2.858   0.229   0.387  0.1394  0.1610  0.2541
 1982SOL    HW117579   2.913   0.253   0.462 -1.0501  1.2045  0.7926
 1982SOL    HW217580   2.899   0.277   0.315 -2.1497 -1.1645 -1.9295
 1983SOL     OW17581   2.595   2.211   5.846 -0.6219 -0.2375 -0.1243
 1983SOL    HW117582   2.659   2.259   5.899 -0.8253 -2.2291  1.9352
 1983SOL    HW217583   2.646   2.198   5.766 -1.2402  3.8709 -1.1897
 1984SOL     OW17584   0.645   1.465   2.220  0.3439 -0.1018  0.3558
 1984SOL    HW117585   0.577   1.416   2.173  1.1332 -1.0430  0.1884
 1984SOL    HW217586   0.637   1.547   2.172 -1.1068  0.2623  1.2212
 1985SOL     OW17587   3.171   0.797   4.698 -0.7876 -0.1959  0.0731
 1985SOL    HW117588   3.142   0.888   4.689  1.4699  0.2977 -1.9448
 1985SOL    HW217589   3.247   0.799   4.640 -1.3586 -2.0351 -0.7441
 1986SOL     OW17590   4.004   1.113  16.507  0.1927  0.3866  0.3002
 1986SOL    HW117591   4.052   1.125  16.425  0.5953  0.4161  0.5397
 1986SOL    HW217592   3.916   1.086  16.481  0.0954 -0.1984  1.2297
 1987SOL     OW17593   3.700   2.893   5.339 -0.0955 -0.0694  0.3161
 1987SOL    HW117594   3.765   2.943   5.289 -0.1913  1.5645  1.8168
 1987SOL    HW217595   3.657   2.969   5.378  1.7649  0.4590  1.3535
 1988SOL     OW17596   0.579   3.863   0.789 -0.1846  0.1996 -0.7129
 1988SOL    HW117597   0.508   3.853   0.725 -0.3787 -0.4433 -0.4055
 1988SOL    HW217598   0.546   3.806   0.859  0.3409 -0.2316 -0.8187
 1989SOL     OW17599   0.459   1.814   8.314  0.0567 -0.0154  0.0496
 1989SOL    HW117600   0.549   1.847   8.305 -0.4744  0.8583 -1.8869
 1989SOL    HW217601   0.415   1.894   8.341 -1.5318 -0.5998 -0.8419
 1990SOL     OW17602   0.849   0.840   2.850  0.5671 -0.6724 -0.2201
 1990SOL    HW117603   0.874   0.910   2.910 -1.3688  0.4111 -0.6764
 1990SOL    HW217604   0.754   0.839   2.864  0.4839 -0.9716 -0.8464
 1991SOL     OW17605   3.516   3.848   1.665  0.1457 -0.6496 -0.4177
 1991SOL    HW117606   3.552   3.811   1.584 -2.9385  1.5259 -2.8309
 1991SOL    HW217607   3.485   3.765   1.702  0.9990 -0.8344 -0.1398
 1992SOL     OW17608   1.111   2.742   8.651 -0.3398 -0.6033  0.4742
 1992SOL    HW117609   1.138   2.785   8.569  1.3545 -1.5349  0.5292
 1992SOL    HW217610   1.164   2.662   8.655 -1.1318 -1.0928  1.1058
 1993SOL     OW17611   1.963   0.927   1.774  0.4226 -0.9749  0.1185
 1993SOL    HW117612   2.001   1.012   1.799  0.3977 -1.0937  0.5675
 1993SOL    HW217613   2.023   0.910   1.702  0.7406 -0.2067  0.1950
 1994SOL     OW17614   3.515   2.111   8.161 -0.2149 -0.0185 -0.5870
 1994SOL    HW117615   3.494   2.115   8.068 -0.7043  0.6435 -0.4449
 1994SOL    HW217616   3.457   2.040   8.191 -1.1914  1.9372  2.1440
 1995SOL     OW17617   0.894   4.165   6.486 -0.3290  0.2592  0.0787
 1995SOL    HW117618   0.977   4.190   6.527 -1.4353  1.0790  1.8376
 1995SOL    HW217619   0.877   4.080   6.527  2.8579  0.1563  1.2213
 1996SOL     OW17620   2.790   1.977   7.459 -0.2677  0.1444 -0.8225
 1996SOL    HW117621   2.861   2.041   7.456 -0.6451  0.6369  0.6022
 1996SOL    HW217622   2.816   1.932   7.379  0.9303 -2.2198  0.8890
 1997SOL     OW17623   1.010   3.318   8.200  0.1698  0.1455  0.3059
 1997SOL    HW117624   1.083   3.268   8.162  0.1661 -0.7856  1.5015
 1997SOL    HW217625   1.027   3.302   8.293  0.8444 -1.8030 -0.1390
 1998SOL     OW17626   2.003   2.997   4.973  0.1704 -0.0164 -0.0085
 1998SOL    HW117627   2.093   2.966   4.983  0.0327 -0.1776  0.7583
 1998SOL    HW217628   2.018   3.091   4.978  2.3853 -0.3371 -0.5923
 1999SOL     OW17629   0.765   1.201   7.942  0.1440 -0.3965  0.1617
 1999SOL    HW117630   0.746   1.195   7.849  2.1264 -0.2491 -0.2648
 1999SOL    HW217631   0.691   1.246   7.982 -0.3192 -0.4809 -0.6023
 2000SOL     OW17632   2.093   3.812   3.467 -0.4147 -0.3800 -0.0549
 2000SOL    HW117633   2.109   3.742   3.404  1.2877  2.1831 -2.4711
 2000SOL    HW217634   2.064   3.885   3.412 -1.7214  0.5155  1.8216
 2001SOL     OW17635   1.958   3.587   6.517  0.0263  0.0273 -0.0711
 2001SOL    HW117636   2.032   3.529   6.501  0.7278  0.5801  1.1977
 2001SOL    HW217637   1.991   3.673   6.491 -2.0286  1.9716  3.6432
 2002SOL     OW17638   0.710   1.341   3.593  0.0253 -0.1328  0.1134
 2002SOL    HW117639   0.615   1.328   3.595 -0.2136  1.8457  1.3445
 2002SOL    HW217640   0.733   1.284   3.666  0.4436  0.6528  0.5899
 2003SOL     OW17641   0.852   0.561  12.014 -0.0180  0.3529  0.5734
 2003SOL    HW117642   0.921   0.549  12.079  1.5839  1.0459 -1.0179
 2003SOL    HW217643   0.894   0.551  11.929  0.8309  0.5326  0.9703
 2004SOL     OW17644   1.385   0.095   7.357 -0.5219  0.0162 -0.0385
 2004SOL    HW117645   1.364   0.173   7.306  0.5056  0.5191  0.2943
 2004SOL    HW217646   1.478   0.083   7.337 -0.6028 -2.3814  1.0506
 2005SOL     OW17647   3.830   3.312  10.146  0.2939  0.2443  0.4161
 2005SOL    HW117648   3.771   3.263  10.088  0.7622 -0.0717  0.2123
 2005SOL    HW217649   3.920   3.303  10.116 -0.2056 -2.4457 -0.2389
 2006SOL     OW17650   0.206   2.010  15.577 -0.6543 -0.2756  0.0917
 2006SOL    HW117651   0.228   2.065  15.501 -0.6038 -1.7559 -0.9745
 2006SOL    HW217652   0.279   1.949  15.571  0.5136  1.1637 -0.3470
 2007SOL     OW17653   2.572   0.418  12.145  0.1734 -0.1324  0.5304
 2007SOL    HW117654   2.620   0.483  12.197  1.9764 -1.3413  0.3782
 2007SOL    HW217655   2.490   0.420  12.193 -2.0550 -0.1634 -3.2861
 2008SOL     OW17656   3.076   1.633   3.869  0.3892  0.3966  0.7693
 2008SOL    HW117657   3.097   1.589   3.786 -0.3461 -0.0978  0.8511
 2008SOL    HW217658   2.998   1.586   3.896 -0.7630  0.4771 -2.3632
 2009SOL     OW17659   4.230   0.571  12.993 -0.4070  0.4433 -0.1972
 2009SOL    HW117660   4.144   0.565  13.036 -0.0878  0.8881  0.4892
 2009SOL    HW217661   4.220   0.500  12.929  0.0125  0.1929  0.0128
 2010SOL     OW17662   3.560   2.780   7.905  0.8765 -0.2410 -0.3189
 2010SOL    HW117663   3.627   2.788   7.837 -1.1876  0.9115 -2.2117
 2010SOL    HW217664   3.612   2.806   7.981  0.9343 -3.3554  0.7146
 2011SOL     OW17665   3.741   4.676  12.480 -0.4703 -0.1292 -0.1768
 2011SOL    HW117666   3.707   4.618  12.413 -2.7943 -0.1883  1.0704
 2011SOL    HW217667   3.666   4.728  12.511 -0.5068 -2.2510  3.2857
 2012SOL     OW17668   0.157   1.446   4.368  0.1409  0.0618 -0.3227
 2012SOL    HW117669   0.113   1.477   4.290  0.9901 -0.3801 -0.9832
 2012SOL    HW217670   0.165   1.353   4.346  2.1272 -0.2606  1.6880
 2013SOL     OW17671   3.681   1.101   4.076 -0.0904  0.2092  0.3118
 2013SOL    HW117672   3.742   1.047   4.026  0.6603  1.0621  0.3174
 2013SOL    HW217673   3.655   1.169   4.014  1.0547 -0.6274 -1.0864
 2014SOL     OW17674   1.754   2.852   4.100  0.1183  0.3020  0.1408
 2014SOL    HW117675   1.675   2.800   4.085 -0.2307  0.9452 -0.2404
 2014SOL    HW217676   1.772   2.894   4.016 -0.0743 -2.2907 -1.2071
 2015SOL     OW17677   3.035   0.276   9.421 -0.3339 -0.0642  0.2260
 2015SOL    HW117678   3.065   0.245   9.336 -1.0285  1.5943 -0.6191
 2015SOL    HW217679   3.041   0.194   9.470 -2.0758 -0.4936 -0.2906
 2016SOL     OW17680   3.672   4.569   9.354 -0.0436  0.2542  0.4263
 2016SOL    HW117681   3.729   4.645   9.350  0.2418 -0.0585 -1.8156
 2016SOL    HW217682   3.728   4.510   9.405  1.4091  0.4020 -0.9724
 2017SOL     OW17683   0.477   3.211   8.514 -0.0292 -0.2564  0.4142
 2017SOL    HW117684   0.465   3.289   8.569 -2.6636 -0.9776  0.8636
 2017SOL    HW217685   0.459   3.143   8.579 -1.3090 -1.2467 -0.9774
 2018SOL     OW17686   1.966   1.333  17.205  0.1246 -0.3689  0.1275
 2018SOL    HW117687   1.987   1.240  17.209  1.9483  0.0337 -0.2368
 2018SOL    HW217688   2.018   1.367  17.277 -0.9083 -0.3815  0.8742
 2019SOL     OW17689   3.494   3.701   3.099  0.5199 -0.5579  0.3787
 2019SOL    HW117690   3.426   3.634   3.104 -0.2799  0.2651  0.6778
 2019SOL    HW217691   3.453   3.758   3.033  1.1020 -2.9615 -2.0291
 2020SOL     OW17692   4.020   0.448   1.939 -0.5396 -0.0191 -0.4497
 2020SOL    HW117693   4.012   0.353   1.938 -1.9364  0.1100 -0.9594
 2020SOL    HW217694   4.104   0.462   1.895 -0.3307 -0.0185 -0.0542
 2021SOL     OW17695   2.521   1.136  17.064  0.3113  0.1013  0.2190
 2021SOL    HW117696   2.559   1.174  16.984 -0.8217 -0.3176 -0.5191
 2021SOL    HW217697   2.427   1.140  17.052 -0.0461 -1.4027  2.5587
 2022SOL     OW17698   3.355   0.242   3.290 -0.1827 -0.4468  0.8044
 2022SOL    HW117699   3.395   0.218   3.374 -0.1238 -1.1804  0.5697
 2022SOL    HW217700   3.423   0.297   3.250 -0.3248  0.4177  1.7758
 2023SOL     OW17701   2.829   1.411  15.907  0.5584 -0.1233  0.4863
 2023SOL    HW117702   2.736   1.426  15.925  0.3246 -0.8652 -0.1581
 2023SOL    HW217703   2.864   1.494  15.874  0.8030 -1.2900 -2.1575
 2024SOL     OW17704   4.072   0.331  13.136 -0.3279  0.8286 -0.0278
 2024SOL    HW117705   4.066   0.338  13.232  0.4630  0.2111  0.0734
 2024SOL    HW217706   4.159   0.295  13.115 -1.0525 -0.6413 -0.5029
 2025SOL     OW17707   1.221   2.027  11.010 -0.2840 -0.1409  0.2769
 2025SOL    HW117708   1.269   1.962  11.062 -1.3266 -1.6469 -0.6483
 2025SOL    HW217709   1.265   2.108  11.037 -1.4288  0.9583 -1.1393
 2026SOL     OW17710   0.654   1.321   5.147 -0.1980 -0.2249 -0.2570
 2026SOL    HW117711   0.653   1.399   5.091 -0.5279 -1.1872 -1.6015
 2026SOL    HW217712   0.663   1.358   5.234  0.8882  0.3641 -0.6156
 2027SOL     OW17713   2.401   4.208  14.910 -0.3817 -0.6576  0.2123
 2027SOL    HW117714   2.435   4.119  14.910 -1.9158 -1.2338 -0.2870
 2027SOL    HW217715   2.361   4.201  14.824  3.2143 -0.8290 -1.4575
 2028SOL     OW17716   3.659   1.867   3.963  0.1677  0.1475  0.6634
 2028SOL    HW117717   3.734   1.812   3.938 -0.5125 -0.5422  0.1353
 2028SOL    HW217718   3.626   1.877   3.874  2.3447  2.0021  0.0674
 2029SOL     OW17719   0.386   2.326   0.967 -0.0466 -0.4749 -0.5190
 2029SOL    HW117720   0.455   2.365   0.913  0.7981 -2.5500 -0.9169
 2029SOL    HW217721   0.385   2.387   1.041  0.8356 -0.6252 -0.3888
 2030SOL     OW17722   1.237   2.379   7.929 -0.0058  0.0244 -0.4140
 2030SOL    HW117723   1.316   2.412   7.971 -1.2044 -0.8935  2.6515
 2030SOL    HW217724   1.280   2.316   7.872 -0.8460  1.3659 -2.5188
 2031SOL     OW17725   2.506   4.708  11.010 -0.5009  0.0686  0.6419
 2031SOL    HW117726   2.416   4.715  11.041 -1.2625  2.1291 -1.9882
 2031SOL    HW217727   2.489   4.712  10.916  0.9735  1.4838  0.4263
 2032SOL     OW17728   1.026   1.805   9.958  0.2116  0.1327  0.3149
 2032SOL    HW117729   1.099   1.830   9.901  1.3064 -1.8583  0.8467
 2032SOL    HW217730   1.049   1.860  10.033  0.4914 -1.5729  1.4632
 2033SOL     OW17731   1.942   3.448   8.445  0.4101  0.2632 -0.2391
 2033SOL    HW117732   2.029   3.420   8.417 -0.7923 -2.8119 -0.9012
 2033SOL    HW217733   1.880   3.391   8.400  0.1348  0.8024 -0.5332
 2034SOL     OW17734   3.653   2.889   6.743 -0.3480 -0.3824  0.4610
 2034SOL    HW117735   3.720   2.930   6.688 -1.0537 -0.9989 -0.8698
 2034SOL    HW217736   3.675   2.796   6.740  0.0051 -0.3032  0.5145
 2035SOL     OW17737   2.586   0.258  14.543  0.2520 -0.7300  0.2481
 2035SOL    HW117738   2.491   0.267  14.548  0.5777  1.5378  2.5206
 2035SOL    HW217739   2.606   0.179  14.493  1.8930 -0.9309  1.2317
 2036SOL     OW17740   3.109   2.021   2.798  0.6199 -0.2187  0.1943
 2036SOL    HW117741   3.145   2.103   2.831 -1.2647  0.9639 -0.7157
 2036SOL    HW217742   3.138   2.017   2.707  1.9648  1.6651  0.5260
 2037SOL     OW17743   0.201   1.897   0.078 -0.0680 -0.2142  0.8538
 2037SOL    HW117744   0.196   1.962   0.149  0.8412 -0.0811  0.7901
 2037SOL    HW217745   0.232   1.829   0.137  0.6779  1.4683  2.4047
 2038SOL     OW17746   2.248   0.937  16.913 -0.2960 -0.1217  0.0347
 2038SOL    HW117747   2.175   0.880  16.937 -1.0601  1.3541  1.2436
 2038SOL    HW217748   2.276   0.900  16.830  1.7217 -0.7975  0.9998
 2039SOL     OW17749   3.365   2.784   2.448 -0.7750 -0.1636 -0.1268
 2039SOL    HW117750   3.333   2.694   2.441 -1.7835  0.2326 -0.6918
 2039SOL    HW217751   3.331   2.821   2.367 -0.6860 -0.6317 -0.3728
 2040SOL     OW17752   1.158   0.779   5.012 -0.5732 -0.4495 -0.4483
 2040SOL    HW117753   1.229   0.785   4.949  0.7855  0.0360  1.1348
 2040SOL    HW217754   1.161   0.863   5.057  1.8162 -0.5079 -0.5093
 2041SOL     OW17755   0.164   0.476   0.939 -0.1528  0.7010 -0.0366
 2041SOL    HW117756   0.108   0.440   0.870 -1.6815  2.7469  0.1202
 2041SOL    HW217757   0.110   0.468   1.018 -0.6830 -0.5791 -0.5255
 2042SOL     OW17758   1.868   1.951   2.262  0.0139  0.0194 -0.2173
 2042SOL    HW117759   1.872   1.963   2.167 -0.9726 -0.6673 -0.3384
 2042SOL    HW217760   1.934   1.882   2.266 -0.3495 -0.2920  0.4635
 2043SOL     OW17761   4.434   4.606   8.539  0.2004 -0.2914 -0.3623
 2043SOL    HW117762   4.364   4.546   8.565  0.6804  0.2521  2.1184
 2043SOL    HW217763   4.507   4.546   8.522  2.8595  2.4333  1.3553
 2044SOL     OW17764   1.515   2.172  11.661 -0.1003  0.6209 -0.3827
 2044SOL    HW117765   1.524   2.240  11.595 -0.2630  0.4427 -0.5901
 2044SOL    HW217766   1.527   2.217  11.744 -1.2458  0.0809  0.0688
 2045SOL     OW17767   3.936   3.956   9.174  0.7147  0.4384  0.3260
 2045SOL    HW117768   3.896   3.972   9.260  3.7953  3.0303  1.2457
 2045SOL    HW217769   3.950   3.861   9.176 -0.9858  0.1606 -0.1876
 2046SOL     OW17770   4.219   3.878  10.766 -0.7777 -0.3887  0.1679
 2046SOL    HW117771   4.219   3.963  10.723 -0.0182 -1.7457 -2.5063
 2046SOL    HW217772   4.129   3.850  10.750 -1.2829  2.0002 -1.0650
 2047SOL     OW17773   2.622   1.861   5.752  0.5760 -0.5816 -0.4200
 2047SOL    HW117774   2.554   1.909   5.799  1.1856  0.7373 -0.8775
 2047SOL    HW217775   2.580   1.818   5.678 -0.1275  1.6815 -1.3305
 2048SOL     OW17776   0.614   2.658   4.977 -0.1770  0.1222  0.3118
 2048SOL    HW117777   0.520   2.650   4.997 -0.2248  0.3484  0.1880
 2048SOL    HW217778   0.630   2.744   5.016 -0.2009  0.3814 -0.2476
 2049SOL     OW17779   3.990   3.017   7.609  0.0148  0.1507  0.4284
 2049SOL    HW117780   3.927   3.068   7.558  1.1387  1.0880 -0.0415
 2049SOL    HW217781   4.021   2.965   7.535 -1.1494  1.6302 -1.1053
 2050SOL     OW17782   0.768   0.569  14.231  0.1241  0.5007  0.2935
 2050SOL    HW117783   0.692   0.584  14.287 -1.6131 -2.6016 -1.1992
 2050SOL    HW217784   0.816   0.652  14.232 -0.3175  0.7974 -3.1236
 2051SOL     OW17785   3.390   1.627   4.144  0.3908  0.2678 -0.9877
 2051SOL    HW117786   3.317   1.667   4.191  0.4893 -1.0319  0.2435
 2051SOL    HW217787   3.410   1.551   4.198  1.5006  0.3103 -1.3455
 2052SOL     OW17788   1.327   3.743  12.986 -0.0497  0.0385  0.8508
 2052SOL    HW117789   1.383   3.670  12.961 -1.1681 -0.6383  0.3269
 2052SOL    HW217790   1.238   3.709  12.984 -0.7717  2.1221 -2.9932
 2053SOL     OW17791   3.407   3.646  13.997  0.4833  0.2942  0.0240
 2053SOL    HW117792   3.474   3.700  14.038 -0.8249  0.7327  1.5994
 2053SOL    HW217793   3.331   3.671  14.050  1.3998 -2.8899  2.8103
 2054SOL     OW17794   2.042   2.205  17.333 -0.2369  0.0498  0.1187
 2054SOL    HW117795   2.057   2.223  17.240 -1.8681 -2.5032 -0.6199
 2054SOL    HW217796   1.949   2.230  17.334 -1.2460 -3.6795  0.6149
 2055SOL     OW17797   4.415   2.199   8.338  0.0811 -0.3469  0.9134
 2055SOL    HW117798   4.347   2.262   8.363 -0.1068 -0.1152 -0.1699
 2055SOL    HW217799   4.364   2.138   8.285 -1.6823  1.3372  0.6722
 2056SOL     OW17800   1.774   2.993   6.604 -0.2541 -0.2462 -0.1949
 2056SOL    HW117801   1.727   2.919   6.565 -2.5925  0.3391  1.5134
 2056SOL    HW217802   1.834   2.947   6.663 -1.3324 -2.0244 -0.4850
 2057SOL     OW17803   0.469   0.220  12.771 -0.2803 -0.2239  0.0259
 2057SOL    HW117804   0.515   0.175  12.842 -0.1220  0.1952  0.1881
 2057SOL    HW217805   0.474   0.152  12.704 -1.6178 -0.1233 -0.1704
 2058SOL     OW17806   2.907   0.661   1.999  0.4361 -0.5132  0.4717
 2058SOL    HW117807   2.954   0.702   1.926 -1.3174 -0.3979 -0.6017
 2058SOL    HW217808   2.891   0.572   1.967 -2.8714  0.0635  0.5699
 2059SOL     OW17809   2.692   0.175  15.564 -0.3011 -0.5670 -0.1391
 2059SOL    HW117810   2.762   0.116  15.536 -0.9179 -0.1403 -2.5733
 2059SOL    HW217811   2.710   0.249  15.506  0.0830  0.8550  1.7707
 2060SOL     OW17812   1.774   3.353  12.428 -0.1196  0.3312  0.3555
 2060SOL    HW117813   1.699   3.396  12.468 -2.3538 -1.1670 -2.1832
 2060SOL    HW217814   1.810   3.301  12.499  0.0365  1.0739  0.8206
 2061SOL     OW17815   2.761   1.627   9.105 -0.5901  0.2473 -0.2210
 2061SOL    HW117816   2.763   1.582   9.021 -0.0966  0.0138 -0.0781
 2061SOL    HW217817   2.735   1.551   9.158 -0.0678 -0.8290 -1.5249
 2062SOL     OW17818   3.191   3.615   2.632 -0.8972  0.3474 -0.2289
 2062SOL    HW117819   3.254   3.596   2.701 -1.2494 -0.0228 -0.0121
 2062SOL    HW217820   3.166   3.527   2.605 -1.4445  0.8814 -1.4708
 2063SOL     OW17821   4.528   4.667  13.082  0.3626  0.3704  0.6351
 2063SOL    HW117822   4.474   4.601  13.125  1.4916 -0.2457  1.0906
 2063SOL    HW217823   4.510   0.007  13.135 -1.6721  1.4646 -1.6138
 2064SOL     OW17824   0.528   4.581   3.432  0.0638 -0.1978 -0.3425
 2064SOL    HW117825   0.500   4.498   3.471 -0.0289 -0.0412 -0.0744
 2064SOL    HW217826   0.583   4.551   3.359  0.5803  0.6871 -0.3179
 2065SOL     OW17827   3.708   0.666   7.954 -0.1029 -0.3000 -0.3688
 2065SOL    HW117828   3.616   0.640   7.949 -0.4708  0.7000  1.6259
 2065SOL    HW217829   3.697   0.760   7.942 -3.2820 -0.4105  1.7188
 2066SOL     OW17830   3.223   1.154   3.576 -0.5601  0.0184 -0.6443
 2066SOL    HW117831   3.217   1.087   3.508 -2.1364  0.3356 -0.8279
 2066SOL    HW217832   3.155   1.217   3.550 -0.3646 -0.3481 -2.0050
 2067SOL     OW17833   0.507   1.536   3.503  0.2751 -0.6125  0.0235
 2067SOL    HW117834   0.450   1.461   3.484  2.4018 -2.2347  0.0281
 2067SOL    HW217835   0.473   1.593   3.434  1.5255 -0.4319 -0.4473
 2068SOL     OW17836   2.185   0.418   8.789  0.0344 -0.2993  0.4857
 2068SOL    HW117837   2.137   0.350   8.836  1.9929 -0.5898  2.0823
 2068SOL    HW217838   2.218   0.472   8.861  0.8233  0.5243 -0.4975
 2069SOL     OW17839   4.423   1.304  12.983  0.4381 -0.8401 -0.2177
 2069SOL    HW117840   4.396   1.301  12.891  2.7722  0.2585 -0.9565
 2069SOL    HW217841   4.485   1.377  12.990 -1.5442  0.7582  0.6283
 2070SOL     OW17842   3.090   3.715  10.096 -0.5280 -0.3882 -0.3360
 2070SOL    HW117843   3.053   3.800  10.118  0.6296  0.0214  0.0395
 2070SOL    HW217844   3.180   3.733  10.070 -0.2159 -0.8960  0.3807
 2071SOL     OW17845   4.465   2.298   4.644  0.1092  0.1682 -0.0377
 2071SOL    HW117846   4.388   2.243   4.633 -1.1246  2.3258 -2.0649
 2071SOL    HW217847   4.424   2.369   4.694 -0.8650 -1.3945  1.3693
 2072SOL     OW17848   1.009   4.082   3.213 -0.2551 -0.0668  0.3224
 2072SOL    HW117849   1.062   4.152   3.252 -1.6070  0.8667  0.4744
 2072SOL    HW217850   1.004   4.023   3.288  4.1209 -1.6297 -0.6637
 2073SOL     OW17851   3.297   3.967  10.356 -0.4576  0.5609  0.2894
 2073SOL    HW117852   3.313   4.061  10.351 -0.3842  0.5560  0.4425
 2073SOL    HW217853   3.280   3.957  10.449  0.0657  0.0498  0.3340
 2074SOL     OW17854   3.222   2.879   2.170  0.3355 -0.4998  0.3024
 2074SOL    HW117855   3.194   2.970   2.161  1.0941 -0.1690  1.2839
 2074SOL    HW217856   3.140   2.842   2.201 -0.8011 -0.1025 -2.2528
 2075SOL     OW17857   2.120   4.624  17.572 -0.1044  0.1756  0.3581
 2075SOL    HW117858   2.175   4.683  17.623 -0.5418  0.4609  0.5086
 2075SOL    HW217859   2.161   4.634  17.486 -1.7889  4.5007  0.0594
 2076SOL     OW17860   4.478   3.602  17.636 -0.1413 -0.1605  0.1392
 2076SOL    HW117861   4.532   3.575  17.563 -0.8116 -0.5296 -0.2233
 2076SOL    HW217862   4.468   3.517  17.680 -1.7831 -0.6912 -1.2516
 2077SOL     OW17863   2.416   0.932   0.949 -0.4994  0.1212 -0.4886
 2077SOL    HW117864   2.421   1.027   0.946  1.9304  0.0186  0.0506
 2077SOL    HW217865   2.369   0.904   1.028  1.6288 -1.5261  0.2186
 2078SOL     OW17866   0.291   0.072  14.220  0.2923 -0.1486 -0.3671
 2078SOL    HW117867   0.379   0.034  14.217  0.2936 -0.4020  3.6118
 2078SOL    HW217868   0.230   0.019  14.170  0.1609  0.8448 -1.2781
 2079SOL     OW17869   2.965   1.141   8.420 -1.0588  0.0382 -0.7067
 2079SOL    HW117870   2.897   1.127   8.486 -0.6151  0.2506 -0.2080
 2079SOL    HW217871   2.915   1.177   8.346  0.8353  0.5985 -1.7191
 2080SOL     OW17872   2.545   3.452   5.339  0.6448 -0.2472  0.5026
 2080SOL    HW117873   2.631   3.410   5.342  0.2438 -0.9716  1.7861
 2080SOL    HW217874   2.548   3.489   5.251  1.5562  0.1459  0.7034
 2081SOL     OW17875   2.619   0.633   9.063 -0.0509  0.3240  0.2124
 2081SOL    HW117876   2.577   0.631   9.149 -2.4305 -1.5898 -0.9983
 2081SOL    HW217877   2.705   0.666   9.090  0.2183  0.3238 -0.6205
 2082SOL     OW17878   1.020   2.704   6.337 -0.3323 -0.6856  0.2911
 2082SOL    HW117879   1.002   2.631   6.278 -0.0777  0.5053 -1.2704
 2082SOL    HW217880   1.085   2.666   6.396 -1.0307  0.1811  1.6070
 2083SOL     OW17881   0.649   2.708   7.419 -0.4460  0.0600 -0.7624
 2083SOL    HW117882   0.649   2.794   7.462 -1.6071  0.9988 -2.6426
 2083SOL    HW217883   0.556   2.686   7.424 -0.5401  1.0947  1.9406
 2084SOL     OW17884   3.433   1.046   0.853 -0.0159 -0.0066 -0.3555
 2084SOL    HW117885   3.452   1.063   0.761  0.5324 -2.8322 -0.7806
 2084SOL    HW217886   3.501   1.096   0.899 -1.5288  1.6373  0.0617
 2085SOL     OW17887   0.936   3.951  14.255 -0.0559  0.1864 -0.0642
 2085SOL    HW117888   0.871   3.885  14.278 -0.1046  1.4769  3.5320
 2085SOL    HW217889   0.957   3.989  14.340  1.8679 -1.0639  0.0312
 2086SOL     OW17890   3.014   3.617   4.727 -0.7228  0.4294 -0.5525
 2086SOL    HW117891   2.992   3.574   4.644 -0.4721 -1.7137  0.5138
 2086SOL    HW217892   2.934   3.663   4.751 -0.5973  0.0179  0.6509
 2087SOL     OW17893   3.799   0.087   9.604  0.0471 -0.1211  0.4924
 2087SOL    HW117894   3.713   0.054   9.629  0.4195 -1.3117  0.1987
 2087SOL    HW217895   3.855   0.015   9.633 -1.4451 -0.4811  2.4537
 2088SOL     OW17896   0.292   1.313   5.735  0.6246 -0.1737  0.3939
 2088SOL    HW117897   0.260   1.226   5.713  0.0092  0.1880 -0.1659
 2088SOL    HW217898   0.381   1.321   5.701  0.9283  0.3633  1.3013
 2089SOL     OW17899   2.000   1.927  14.992  0.7779 -0.1845  0.4896
 2089SOL    HW117900   1.923   1.933  15.048 -0.8957 -1.0168 -1.7212
 2089SOL    HW217901   1.974   1.993  14.927 -1.2818 -1.9678 -0.4846
 2090SOL     OW17902   2.196   2.457   3.983 -0.2435  0.1852  0.7866
 2090SOL    HW117903   2.133   2.529   3.994  0.4936  1.0771 -0.8527
 2090SOL    HW217904   2.143   2.386   3.946  0.2192 -0.6249  1.6673
 2091SOL     OW17905   4.551   3.166  11.006 -0.2830  0.3226  0.2335
 2091SOL    HW117906   4.485   3.227  10.971  1.3026  1.6682 -0.4239
 2091SOL    HW217907   4.565   3.204  11.093  3.7009  0.5109 -0.5013
 2092SOL     OW17908   0.533   3.413   8.124 -0.0389 -0.5583  0.4071
 2092SOL    HW117909   0.621   3.377   8.125 -0.5323 -1.7624  0.1700
 2092SOL    HW217910   0.493   3.358   8.191  0.2316  0.1836  1.1844
 2093SOL     OW17911   3.860   0.860   6.201 -0.6102  0.6672 -0.2235
 2093SOL    HW117912   3.827   0.895   6.284  0.6272 -1.3904  1.1264
 2093SOL    HW217913   3.810   0.778   6.197  0.3575  0.0945 -0.4858
 2094SOL     OW17914   1.128   4.219  16.495  0.8745  0.0827  0.0067
 2094SOL    HW117915   1.150   4.213  16.402 -0.7644 -0.2627 -0.3570
 2094SOL    HW217916   1.117   4.125  16.510  2.9980 -0.4504 -1.8184
 2095SOL     OW17917   3.209   0.417  16.535  0.6984 -0.5231 -0.7203
 2095SOL    HW117918   3.206   0.402  16.630  1.4935  4.3252  0.0591
 2095SOL    HW217919   3.295   0.383  16.512  1.9489  0.1755  2.8428
 2096SOL     OW17920   2.985   3.116   6.916  0.2159  0.2301  0.2499
 2096SOL    HW117921   3.008   3.205   6.888  1.3846 -0.3542 -0.6429
 2096SOL    HW217922   2.993   3.131   7.010 -0.8698 -0.3572  0.4348
 2097SOL     OW17923   2.594   3.317   5.934  0.1350 -0.4058 -0.2085
 2097SOL    HW117924   2.683   3.308   5.899  1.0440  2.4636  1.3983
 2097SOL    HW217925   2.610   3.291   6.025 -0.8686  1.7728  0.5777
 2098SOL     OW17926   1.782   2.045   2.496 -0.0071  0.2367  0.0233
 2098SOL    HW117927   1.811   2.004   2.414 -0.6995  0.3625 -0.2888
 2098SOL    HW217928   1.712   2.099   2.459  0.5404  0.1533 -1.1507
 2099SOL     OW17929   4.623   2.405   2.805  0.1088 -0.4199 -0.2303
 2099SOL    HW117930   4.542   2.453   2.823 -0.3457 -0.6198 -1.6951
 2099SOL    HW217931   4.683   2.479   2.791  0.0658 -0.9777 -3.3208
 2100SOL     OW17932   2.680   1.687   4.752  0.3415 -0.1872 -0.1955
 2100SOL    HW117933   2.722   1.771   4.771 -0.4939  0.9701 -3.3487
 2100SOL    HW217934   2.740   1.626   4.794  1.1210 -0.0552 -1.1093
 2101SOL     OW17935   3.783   4.585   4.063  0.2949 -0.0287  0.5954
 2101SOL    HW117936   3.842   4.513   4.082  1.9642  0.6837 -1.9324
 2101SOL    HW217937   3.730   4.591   4.143  0.3984  1.0589  0.5865
 2102SOL     OW17938   4.677   2.339  15.649  0.4791  0.0993 -0.1780
 2102SOL    HW117939   4.583   2.354  15.660  0.6343 -1.1847  2.9520
 2102SOL    HW217940   4.691   2.373  15.561  2.3185 -0.1684  0.0089
 2103SOL     OW17941   2.034   1.638  12.170  0.0693 -0.8583 -0.3147
 2103SOL    HW117942   2.086   1.630  12.090  1.5115  4.2290  0.1198
 2103SOL    HW217943   2.057   1.566  12.228 -1.7096 -3.1318 -2.3962
 2104SOL     OW17944   0.105   2.536   9.806  0.2166  0.4103 -0.7183
 2104SOL    HW117945   0.134   2.499   9.889 -0.3998  0.7825 -0.3335
 2104SOL    HW217946   0.103   2.457   9.753  2.3546 -0.0655 -0.0712
 2105SOL     OW17947   0.753   3.705   8.093 -0.0946  0.1155  0.4391
 2105SOL    HW117948   0.823   3.673   8.036  0.1463  2.4146 -0.5262
 2105SOL    HW217949   0.744   3.632   8.154 -0.4622  1.1580  1.6326
 2106SOL     OW17950   2.688   0.219   5.788  0.2928 -0.0262 -0.3738
 2106SOL    HW117951   2.626   0.210   5.716  0.5215  0.7159 -0.6532
 2106SOL    HW217952   2.673   0.307   5.822 -1.6333  0.3461 -2.2422
 2107SOL     OW17953   2.218   2.916   5.106 -0.5198  0.1333 -0.6976
 2107SOL    HW117954   2.241   2.946   5.195 -3.8263 -1.4503  0.6585
 2107SOL    HW217955   2.265   2.833   5.112 -1.6888 -0.4089  0.9895
 2108SOL     OW17956   1.372   1.753   8.759  0.0709  0.4861  0.0710
 2108SOL    HW117957   1.318   1.725   8.833 -0.4933 -0.5540 -0.7289
 2108SOL    HW217958   1.345   1.687   8.695 -0.5186  1.7890 -1.0176
 2109SOL     OW17959   0.460   2.904   5.441  0.0323  0.1150 -0.2862
 2109SOL    HW117960   0.409   2.825   5.460 -1.7954  1.0523 -1.1867
 2109SOL    HW217961   0.393   2.973   5.449  0.4655  0.5835 -0.7226
 2110SOL     OW17962   2.281   1.006  11.178  0.1679  0.4908  0.0586
 2110SOL    HW117963   2.245   1.083  11.223 -0.5451  0.1986 -0.0147
 2110SOL    HW217964   2.282   0.945  11.252  2.4720 -1.6876 -1.7753
 2111SOL     OW17965   1.791   4.493   6.378  0.3761 -0.6642  0.5631
 2111SOL    HW117966   1.800   4.432   6.304 -0.7457 -0.7370  0.4765
 2111SOL    HW217967   1.724   4.443   6.424 -0.7967  0.0715 -0.3361
 2112SOL     OW17968   3.268   0.124   5.787  0.6466  0.0916  0.4686
 2112SOL    HW117969   3.231   0.036   5.778 -2.0322  1.5151 -2.5302
 2112SOL    HW217970   3.331   0.104   5.856 -0.6642 -3.1794  0.7222
 2113SOL     OW17971   2.552   0.574   7.868  0.1619  0.3224 -0.2011
 2113SOL    HW117972   2.499   0.500   7.897  0.2703 -0.3897 -1.8338
 2113SOL    HW217973   2.528   0.582   7.776 -0.2387 -3.3811 -0.4333
 2114SOL     OW17974   0.522   0.895   1.161 -0.6400  0.2360 -0.0330
 2114SOL    HW117975   0.561   0.824   1.212  0.0782  0.1319 -0.7211
 2114SOL    HW217976   0.577   0.968   1.189 -1.8633  1.4613 -0.8349
 2115SOL     OW17977   0.894   4.394   2.087 -0.7335  0.0564  0.2733
 2115SOL    HW117978   0.953   4.331   2.129  0.6940  0.2675 -1.3800
 2115SOL    HW217979   0.865   4.456   2.153 -0.9530 -0.9502  1.1142
 2116SOL     OW17980   4.619   3.103   5.618 -0.0328 -0.3647  0.1470
 2116SOL    HW117981   4.631   3.093   5.524  0.6791  0.7741  0.1262
 2116SOL    HW217982   4.706   3.133   5.641 -0.0743 -0.7734  0.8713
 2117SOL     OW17983   1.388   1.774   6.759  0.0709 -0.2230 -0.2450
 2117SOL    HW117984   1.425   1.692   6.728  2.0084  0.3973  0.4382
 2117SOL    HW217985   1.417   1.833   6.689 -2.7276  0.6928 -0.6400
 2118SOL     OW17986   2.011   2.722   7.789 -0.3052 -0.4497  0.0656
 2118SOL    HW117987   1.932   2.757   7.829 -1.8168 -4.0604  0.1690
 2118SOL    HW217988   1.997   2.749   7.698  1.0247  1.2757  0.3673
 2119SOL     OW17989   4.246   1.221   6.861  0.4311  0.2491 -0.1181
 2119SOL    HW117990   4.317   1.218   6.926  0.9619  2.5163 -0.5821
 2119SOL    HW217991   4.198   1.299   6.889 -1.3770 -0.1902 -1.9701
 2120SOL     OW17992   2.603   1.084  17.515 -0.4483 -0.3415 -0.4517
 2120SOL    HW117993   2.671   1.110  17.452 -1.2415 -2.5571 -2.2313
 2120SOL    HW217994   2.626   1.131  17.595 -0.9637  0.4772 -0.7895
 2121SOL     OW17995   1.139   2.888   3.400 -0.5213  0.6452  0.1596
 2121SOL    HW117996   1.131   2.846   3.315 -1.3101 -0.6133  0.8557
 2121SOL    HW217997   1.127   2.817   3.464  0.1748 -0.8147 -1.3491
 2122SOL     OW17998   4.122   3.055   9.771 -0.4928  0.4016  0.0117
 2122SOL    HW117999   4.122   3.150   9.777 -2.1642  0.7372 -4.8200
 2122SOL    HW218000   4.056   3.059   9.701 -1.6872  1.1216  1.1733
 2123SOL     OW18001   0.096   1.045  16.679 -0.3308 -0.8218  0.1579
 2123SOL    HW118002   0.186   1.064  16.654  0.1188 -2.4038  0.6062
 2123SOL    HW218003   0.046   1.123  16.654 -1.6289 -1.4072  0.9223
 2124SOL     OW18004   1.781   0.635   6.177 -0.0338 -0.1495 -0.4766
 2124SOL    HW118005   1.830   0.592   6.107  2.2102  0.1278  0.9334
 2124SOL    HW218006   1.702   0.660   6.130  0.3466  2.7799  0.4410
 2125SOL     OW18007   0.398   1.836  10.541 -0.3052  0.2275  0.3887
 2125SOL    HW118008   0.463   1.905  10.547 -0.3328  0.2182  0.8471
 2125SOL    HW218009   0.319   1.889  10.530 -0.2056  0.1739 -0.5429
 2126SOL     OW18010   0.681   3.080   3.931  0.3258  0.2002  0.2479
 2126SOL    HW118011   0.683   3.165   3.977 -0.0190  0.5043 -0.3014
 2126SOL    HW218012   0.712   3.104   3.843  1.2698 -3.1036 -0.3045
 2127SOL     OW18013   1.763   3.229   5.977  0.0474  0.1456  0.0216
 2127SOL    HW118014   1.688   3.173   5.995  2.2403 -3.1672 -1.2169
 2127SOL    HW218015   1.724   3.307   5.938  0.7040  1.1908  1.4504
 2128SOL     OW18016   3.050   1.432   2.387  0.2458  0.5197 -0.0103
 2128SOL    HW118017   3.044   1.522   2.354  2.5060  0.8190  0.3829
 2128SOL    HW218018   3.135   1.439   2.432 -1.6828 -0.0129  3.6826
 2129SOL     OW18019   1.507   1.177   7.407  0.0347  0.0838 -0.0844
 2129SOL    HW118020   1.524   1.118   7.333 -0.2836 -0.9039  0.6342
 2129SOL    HW218021   1.515   1.258   7.355  1.7285 -0.0974 -0.0901
 2130SOL     OW18022   1.816   4.036   6.541 -0.0115  0.1128 -0.1999
 2130SOL    HW118023   1.909   4.027   6.523  0.1830  2.0944 -0.1940
 2130SOL    HW218024   1.784   3.995   6.461 -0.4581  1.5184 -0.7500
 2131SOL     OW18025   0.591   3.734   3.613 -0.4438 -0.2514  0.8654
 2131SOL    HW118026   0.510   3.735   3.562 -1.0993  0.2039  1.9388
 2131SOL    HW218027   0.641   3.696   3.540 -1.8466 -0.2965 -0.0834
 2132SOL     OW18028   3.929   0.326   4.255 -0.2342 -0.2244  0.2769
 2132SOL    HW118029   3.990   0.368   4.194  0.6949 -3.6625 -1.1748
 2132SOL    HW218030   3.912   0.238   4.221  0.0442 -0.3301  0.4128
 2133SOL     OW18031   2.767   3.048   8.846 -0.3717  0.0373 -0.0571
 2133SOL    HW118032   2.794   3.055   8.755 -0.1600 -0.9232 -0.0706
 2133SOL    HW218033   2.709   2.972   8.853  2.5627 -2.1043  0.7323
 2134SOL     OW18034   0.301   0.077  13.867 -0.2163  0.1513  0.5328
 2134SOL    HW118035   0.362   0.134  13.913  0.2227 -0.4617  0.7215
 2134SOL    HW218036   0.356   4.737  13.857  1.2692  1.2900 -0.1383
 2135SOL     OW18037   1.059   4.041  13.394  0.3618 -0.6403  0.4124
 2135SOL    HW118038   0.964   4.044  13.399  0.3016 -1.0160 -0.6284
 2135SOL    HW218039   1.065   3.974  13.327 -2.6419 -0.1018 -0.3929
 2136SOL     OW18040   2.274   1.523   2.685 -0.0351 -0.1901  0.1058
 2136SOL    HW118041   2.211   1.472   2.736 -0.8222 -1.2225 -1.9093
 2136SOL    HW218042   2.339   1.534   2.755  1.1321 -2.0626 -0.6650
 2137SOL     OW18043   1.533   3.766   2.322  0.5619 -0.2454 -0.4767
 2137SOL    HW118044   1.473   3.817   2.268 -1.7926 -0.6181  1.7929
 2137SOL    HW218045   1.537   3.830   2.393  0.5253  0.1260 -0.8159
 2138SOL     OW18046   3.297   4.168   9.781 -0.0711  0.1632 -0.2105
 2138SOL    HW118047   3.217   4.181   9.832 -0.0917 -0.0532 -0.1909
 2138SOL    HW218048   3.278   4.234   9.714  0.8636 -0.1209 -0.7566
 2139SOL     OW18049   3.402   0.367   5.687 -0.0253  0.1730 -0.0602
 2139SOL    HW118050   3.392   0.369   5.592 -1.3767 -2.5419  0.0208
 2139SOL    HW218051   3.372   0.283   5.722 -0.3047 -0.1283 -1.0215
 2140SOL     OW18052   1.432   1.423   3.020  0.4015  0.1697 -0.0896
 2140SOL    HW118053   1.388   1.341   3.001  0.0968  0.7697 -2.0489
 2140SOL    HW218054   1.377   1.469   3.083 -1.5424  1.5294 -2.7598
 2141SOL     OW18055   2.375   2.845  17.213 -0.0609 -0.3253  0.0784
 2141SOL    HW118056   2.368   2.750  17.215 -2.0889 -0.2282 -3.0799
 2141SOL    HW218057   2.406   2.860  17.303  0.8765  0.1571 -0.3256
 2142SOL     OW18058   3.399   1.758  11.515 -0.2314  0.0612 -0.1684
 2142SOL    HW118059   3.315   1.716  11.530  0.0337 -0.4875 -0.2269
 2142SOL    HW218060   3.458   1.711  11.574  0.2392 -1.6540 -1.9897
 2143SOL     OW18061   1.957   2.653   9.863 -0.0995  0.0748 -0.1475
 2143SOL    HW118062   2.038   2.608   9.888 -1.2057 -0.9533  1.6045
 2143SOL    HW218063   1.984   2.730   9.813 -1.7514  0.3476 -0.6248
 2144SOL     OW18064   4.437   2.920   9.752  0.2946 -0.4828 -0.1594
 2144SOL    HW118065   4.498   2.846   9.756  0.2562 -0.5852 -1.5434
 2144SOL    HW218066   4.391   2.887   9.675 -0.0505  0.8018 -0.5110
 2145SOL     OW18067   4.023   0.341   4.920 -0.5295  0.0783  0.0368
 2145SOL    HW118068   4.031   0.296   4.836  0.4916  0.0872  0.1271
 2145SOL    HW218069   4.043   0.428   4.888  0.9772  0.6107  2.4067
 2146SOL     OW18070   0.851   0.003  15.559  0.1428  0.3521 -0.3306
 2146SOL    HW118071   0.782   4.675  15.550 -0.9042  1.3451  0.3399
 2146SOL    HW218072   0.850   0.039  15.471 -1.7601 -1.0949 -0.9117
 2147SOL     OW18073   3.632   4.379   2.262  0.4399 -0.5210 -0.1250
 2147SOL    HW118074   3.536   4.372   2.269  0.2812  0.9962 -0.8575
 2147SOL    HW218075   3.660   4.291   2.236 -1.5285 -0.5538 -2.1943
 2148SOL     OW18076   1.437   0.386   2.058 -0.3032  0.3001  0.4863
 2148SOL    HW118077   1.416   0.399   1.965 -0.9097 -1.6908  0.3476
 2148SOL    HW218078   1.454   0.477   2.084  0.8741  0.4592 -0.8658
 2149SOL     OW18079   2.229   4.532   4.995  0.1831  0.0376  0.0836
 2149SOL    HW118080   2.324   4.537   4.982  0.5844 -5.0436  1.3222
 2149SOL    HW218081   2.207   4.618   5.031 -0.7870  0.2089 -0.9189
 2150SOL     OW18082   2.648   1.943  12.463 -0.1216 -0.7009  0.5605
 2150SOL    HW118083   2.573   1.947  12.403  0.4913  2.0899 -0.0108
 2150SOL    HW218084   2.626   1.866  12.516 -0.1070 -0.4698  0.9005
 2151SOL     OW18085   0.823   2.503   7.356 -0.3432  0.8484  0.3893
 2151SOL    HW118086   0.779   2.433   7.403 -1.9068  1.6405  0.1030
 2151SOL    HW218087   0.764   2.576   7.373 -0.3876  0.8672  0.1538
 2152SOL     OW18088   2.458   2.125   2.532 -0.0265  0.3404  0.4389
 2152SOL    HW118089   2.414   2.147   2.450 -3.1364 -2.0529  1.4170
 2152SOL    HW218090   2.464   2.031   2.512  1.1457  0.5193 -0.0277
 2153SOL     OW18091   3.232   0.394   4.273 -0.7851  0.3733 -0.0311
 2153SOL    HW118092   3.234   0.416   4.180 -0.4130 -1.0523 -0.3527
 2153SOL    HW218093   3.295   0.323   4.270 -0.4799  0.6875 -0.9407
 2154SOL     OW18094   2.106   3.715  10.274 -0.7561 -0.1338  0.4436
 2154SOL    HW118095   2.054   3.675  10.204  0.4784 -0.3341 -0.3498
 2154SOL    HW218096   2.083   3.806  10.253  2.1431 -0.0692 -2.4124
 2155SOL     OW18097   1.702   2.689  17.065 -0.2558  0.3721 -0.1779
 2155SOL    HW118098   1.650   2.610  17.079  0.0495  0.2112  0.0371
 2155SOL    HW218099   1.784   2.649  17.037  0.6020  2.5911 -0.8556
 2156SOL     OW18100   0.036   0.670   3.250 -0.1243 -0.1890  0.6131
 2156SOL    HW118101   0.030   0.593   3.194 -0.3224  1.1485 -1.2043
 2156SOL    HW218102   0.131   0.680   3.251 -0.1875  0.4749 -0.9084
 2157SOL     OW18103   0.193   3.767   4.199 -0.1390 -0.3421 -0.5918
 2157SOL    HW118104   0.216   3.704   4.131  0.0278 -2.1259  1.1191
 2157SOL    HW218105   0.098   3.758   4.193  0.0022 -0.9664 -2.0595
 2158SOL     OW18106   0.662   2.580   6.915 -0.0052  0.2517  0.4366
 2158SOL    HW118107   0.653   2.506   6.856 -1.8221 -0.7429  1.9556
 2158SOL    HW218108   0.715   2.632   6.855 -1.2785 -0.2162 -1.0941
 2159SOL     OW18109   3.125   4.526  11.177 -0.0525 -0.9158 -0.5534
 2159SOL    HW118110   3.050   4.496  11.228  0.9761 -2.4626  0.0274
 2159SOL    HW218111   3.116   4.488  11.090  0.3256 -1.9913 -0.1145
 2160SOL     OW18112   2.700   2.479   6.498  0.4859 -0.1769  0.0703
 2160SOL    HW118113   2.678   2.447   6.411  3.0848  0.2003 -0.7184
 2160SOL    HW218114   2.795   2.488   6.497  0.4000  0.4688 -2.8475
 2161SOL     OW18115   3.442   0.206   5.284  0.2049  0.0142 -0.1315
 2161SOL    HW118116   3.458   0.288   5.331  0.8986  0.5284 -1.2389
 2161SOL    HW218117   3.531   0.171   5.276 -1.1882 -3.5168 -0.1425
 2162SOL     OW18118   3.083   4.644   7.330  0.3896  0.1714  0.1853
 2162SOL    HW118119   3.045   4.707   7.391  2.6198  1.0032  0.6862
 2162SOL    HW218120   3.124   4.585   7.393 -1.7001 -0.3040  1.1306
 2163SOL     OW18121   2.873   1.098   2.672 -0.5593  0.1568  0.0787
 2163SOL    HW118122   2.896   1.132   2.758  1.6053  2.2963 -1.3851
 2163SOL    HW218123   2.778   1.096   2.683 -0.2132 -1.7076  3.0009
 2164SOL     OW18124   0.616   4.596  11.013  0.0517  0.6636  0.4455
 2164SOL    HW118125   0.552   4.536  10.976  1.1553 -0.9274  1.1382
 2164SOL    HW218126   0.577   4.614  11.099 -2.0931 -0.7596 -0.2486
 2165SOL     OW18127   2.485   1.998   4.632 -0.4801  0.2705 -0.0717
 2165SOL    HW118128   2.470   1.959   4.546 -0.4424  0.2611 -0.0740
 2165SOL    HW218129   2.491   2.087   4.597 -0.7197  0.0105 -0.7758
 2166SOL     OW18130   2.655   2.343   5.162 -0.7995 -0.3595 -0.1316
 2166SOL    HW118131   2.588   2.370   5.099 -0.1432 -1.2216 -1.1994
 2166SOL    HW218132   2.611   2.276   5.214  2.2994 -1.5129  0.9870
 2167SOL     OW18133   4.504   2.737  15.926  0.0271 -0.1657 -0.2128
 2167SOL    HW118134   4.469   2.648  15.932  0.7417 -0.2682  2.3184
 2167SOL    HW218135   4.469   2.782  16.003  3.7848 -0.2280  1.5115
 2168SOL     OW18136   1.364   2.386   3.481 -0.0665 -0.2316  0.5734
 2168SOL    HW118137   1.395   2.429   3.401  1.0771  0.1172  1.2019
 2168SOL    HW218138   1.292   2.444   3.504 -0.0089 -0.7063  1.9316
 2169SOL     OW18139   4.065   3.544   2.114  0.1882 -0.0602  1.0411
 2169SOL    HW118140   4.010   3.500   2.178 -1.0336 -0.4100 -0.2410
 2169SOL    HW218141   4.002   3.610   2.087  1.8027  0.6413 -1.0609
 2170SOL     OW18142   0.911   4.126  14.063  0.4937 -0.3026 -0.2159
 2170SOL    HW118143   0.827   4.087  14.039  0.0245  0.9271 -0.5776
 2170SOL    HW218144   0.941   4.072  14.136 -0.0018  0.3688  0.4880
 2171SOL     OW18145   4.054   3.088   5.850  0.1228  0.1686  0.4064
 2171SOL    HW118146   3.974   3.122   5.812  1.4563 -1.1723 -3.5551
 2171SOL    HW218147   4.012   3.024   5.908  0.1391  0.1431  0.3900
 2172SOL     OW18148   3.786   3.257   2.456  0.2443 -0.0035  0.5530
 2172SOL    HW118149   3.692   3.266   2.440  0.9989  2.5438 -2.4005
 2172SOL    HW218150   3.821   3.191   2.395  3.2195  1.0425  1.1653
 2173SOL     OW18151   4.105   3.193   7.777  0.2291 -0.4777 -0.0480
 2173SOL    HW118152   4.183   3.138   7.786  1.0551  0.7590  0.2786
 2173SOL    HW218153   4.051   3.141   7.717  0.3906 -0.5616 -0.1206
 2174SOL     OW18154   3.195   4.469  15.711 -0.2346 -0.4230  0.0532
 2174SOL    HW118155   3.209   4.391  15.658  1.0493 -0.6697  0.7654
 2174SOL    HW218156   3.195   4.543  15.650  1.6911 -1.1476 -0.8030
 2175SOL     OW18157   0.376   0.115   9.655  0.7070  0.5831 -0.1183
 2175SOL    HW118158   0.355   0.186   9.716 -0.7691  0.0554  0.0011
 2175SOL    HW218159   0.471   0.117   9.650  0.7501  0.5424  0.7181
 2176SOL     OW18160   2.220   1.752   0.503 -0.5601 -0.6956  0.0661
 2176SOL    HW118161   2.283   1.704   0.449  2.0472  0.6750  1.8596
 2176SOL    HW218162   2.214   1.696   0.581 -2.5995  0.2740  0.5972
 2177SOL     OW18163   0.178   4.571  12.682  0.5392  0.0028  0.2163
 2177SOL    HW118164   0.110   4.503  12.681  1.9288 -1.3480 -1.4244
 2177SOL    HW218165   0.126   4.634  12.732  1.2956  1.0900 -0.3751
 2178SOL     OW18166   3.254   1.272   0.668  0.0104 -0.1701  1.2052
 2178SOL    HW118167   3.339   1.230   0.651 -1.0024 -1.9966  0.5814
 2178SOL    HW218168   3.294   1.357   0.683  1.1459 -0.5435  0.3554
 2179SOL     OW18169   3.085   0.156   3.292 -0.1486 -0.5617  0.1868
 2179SOL    HW118170   3.045   0.242   3.281  0.5861 -0.2884 -0.4063
 2179SOL    HW218171   3.174   0.182   3.314 -0.7291  2.3667 -1.0144
 2180SOL     OW18172   3.101   2.012   3.503 -0.3098  0.1712  0.0101
 2180SOL    HW118173   3.076   2.021   3.411  1.5490 -0.6824 -0.5787
 2180SOL    HW218174   3.017   1.977   3.530  1.9017 -4.1033  1.3412
 2181SOL     OW18175   2.779   1.759  14.998  0.3266  0.4757  0.3837
 2181SOL    HW118176   2.833   1.706  15.056  0.3428  0.3585  0.2608
 2181SOL    HW218177   2.782   1.715  14.913 -0.8085  2.2245 -0.5671
 2182SOL     OW18178   0.722   3.221   6.665 -0.4482 -0.5936 -0.4997
 2182SOL    HW118179   0.813   3.229   6.693 -0.8677  0.8870  0.4643
 2182SOL    HW218180   0.710   3.131   6.638 -0.1858 -0.1412 -2.1279
 2183SOL     OW18181   0.673   0.470   9.760  0.3142  0.8064  0.9030
 2183SOL    HW118182   0.697   0.480   9.852  0.9692  0.5838  0.7550
 2183SOL    HW218183   0.649   0.560   9.739 -0.4326  0.6521  1.0786
 2184SOL     OW18184   2.426   4.656  10.748  0.1409  0.3240 -0.4803
 2184SOL    HW118185   2.339   4.649  10.708  0.3296  0.3224 -0.8926
 2184SOL    HW218186   2.446   4.563  10.761 -0.0379  0.6680  2.2485
 2185SOL     OW18187   4.259   0.518   3.875  0.1031 -0.0876 -0.7652
 2185SOL    HW118188   4.225   0.455   3.811  0.6932 -0.8777 -0.3001
 2185SOL    HW218189   4.284   0.594   3.821  2.2739  0.5964  1.2271
 2186SOL     OW18190   0.854   3.017   2.232 -0.0313 -0.3369  0.3686
 2186SOL    HW118191   0.823   3.104   2.206 -2.4648 -1.3832 -0.2417
 2186SOL    HW218192   0.844   3.036   2.326 -1.3131  1.4676 -0.1253
 2187SOL     OW18193   0.012   3.467  10.059  0.2051 -0.2177  0.2733
 2187SOL    HW118194   0.039   3.559  10.059  0.7517 -0.3783  0.4628
 2187SOL    HW218195   0.097   3.425  10.075 -0.9029 -2.0091  1.4501
 2188SOL     OW18196   3.389   4.500   8.837  0.2346  0.2734  0.1946
 2188SOL    HW118197   3.352   4.499   8.748 -0.3638  0.4926  0.4407
 2188SOL    HW218198   3.335   4.572   8.871  0.3060  0.5013 -0.1643
 2189SOL     OW18199   3.048   4.338   4.730  1.1026 -0.2090  0.0984
 2189SOL    HW118200   3.043   4.249   4.763  0.3661  0.2130  1.1126
 2189SOL    HW218201   3.031   4.389   4.809 -2.0617 -0.5441 -0.3780
 2190SOL     OW18202   2.094   2.425   2.845 -0.3051 -0.0772 -0.0344
 2190SOL    HW118203   2.167   2.482   2.821  1.1563 -1.4021  1.3389
 2190SOL    HW218204   2.094   2.365   2.770  0.0056  0.9554 -0.8745
 2191SOL     OW18205   4.404   4.350   6.878  0.1521 -0.3332 -0.0858
 2191SOL    HW118206   4.418   4.431   6.926 -1.2961 -0.9796  1.4543
 2191SOL    HW218207   4.308   4.348   6.870  0.1035 -0.6584  0.5615
 2192SOL     OW18208   3.656   0.553   2.017 -0.4929 -0.3190  0.5078
 2192SOL    HW118209   3.706   0.473   2.030 -2.3334 -1.4190  0.8195
 2192SOL    HW218210   3.572   0.508   2.027 -0.2996 -1.2217 -1.9279
 2193SOL     OW18211   4.649   3.000   6.155  0.3245  0.2662  0.3086
 2193SOL    HW118212   4.730   3.051   6.158  0.6405 -0.2220  0.0487
 2193SOL    HW218213   4.599   3.044   6.224 -2.8004 -0.6476 -1.3275
 2194SOL     OW18214   1.387   4.075  16.365 -0.4165 -0.2101 -0.4606
 2194SOL    HW118215   1.454   4.143  16.367 -1.1682  0.5540 -0.9569
 2194SOL    HW218216   1.323   4.117  16.307  0.2454 -0.5510 -1.4319
 2195SOL     OW18217   2.279   2.279   6.842  0.1902  0.1267 -0.3319
 2195SOL    HW118218   2.336   2.303   6.768 -0.0053  1.4743 -0.0327
 2195SOL    HW218219   2.347   2.240   6.897  0.5485  1.0801 -0.1067
 2196SOL     OW18220   0.348   1.497   3.730  0.4217 -0.6082 -0.8053
 2196SOL    HW118221   0.422   1.505   3.670  0.8287 -0.3351 -0.2680
 2196SOL    HW218222   0.363   1.576   3.783 -0.9095 -0.2447 -0.9712
 2197SOL     OW18223   1.850   0.493   8.145 -0.1255  0.0637  0.5500
 2197SOL    HW118224   1.784   0.423   8.150  1.1771 -1.0900  1.4357
 2197SOL    HW218225   1.911   0.459   8.210  0.9884  0.6340 -0.2138
 2198SOL     OW18226   0.301   0.454  12.087 -0.6792 -0.5422 -0.3499
 2198SOL    HW118227   0.265   0.535  12.121  0.8271 -0.5114  1.1781
 2198SOL    HW218228   0.286   0.393  12.160 -0.3420 -0.8987 -0.5757
 2199SOL     OW18229   3.945   1.831   3.060  0.6612  0.5753  0.0568
 2199SOL    HW118230   3.986   1.842   3.146  2.3664  0.9306 -0.8066
 2199SOL    HW218231   3.979   1.745   3.036 -0.6560  0.3627 -1.0738
 2200SOL     OW18232   0.308   4.002  10.181  0.4553 -0.2256 -0.1550
 2200SOL    HW118233   0.402   3.994  10.193  0.2462 -0.4180  1.3088
 2200SOL    HW218234   0.281   3.910  10.186 -1.7383  0.4894  1.4629
 2201SOL     OW18235   2.988   0.588   8.272 -0.2522 -0.3966  0.1058
 2201SOL    HW118236   3.078   0.585   8.239 -0.3221  1.0120 -0.2242
 2201SOL    HW218237   2.948   0.510   8.234  0.0225 -0.4490 -0.0716
 2202SOL     OW18238   2.712   2.394   6.835  0.1258 -0.4133  0.2133
 2202SOL    HW118239   2.638   2.398   6.774 -0.1250  0.2163  0.5616
 2202SOL    HW218240   2.787   2.428   6.786 -1.1290  0.2710 -1.2448
 2203SOL     OW18241   1.379   0.277   8.460 -0.0872  0.7143  0.2817
 2203SOL    HW118242   1.324   0.314   8.529  2.5089  1.2394  2.0751
 2203SOL    HW218243   1.469   0.277   8.493 -1.0555  2.2169  2.8904
 2204SOL     OW18244   4.611   1.627  15.483 -0.1764  0.4483 -0.2984
 2204SOL    HW118245   4.522   1.661  15.468 -0.1992  0.3891 -0.2994
 2204SOL    HW218246   4.651   1.707  15.518 -3.1201  1.1551  1.4914
 2205SOL     OW18247   1.411   3.149   4.306 -0.1987  0.1260 -0.3953
 2205SOL    HW118248   1.356   3.074   4.280  0.9441 -1.3190  1.3229
 2205SOL    HW218249   1.496   3.106   4.296 -1.6330 -2.8550 -0.0465
 2206SOL     OW18250   2.734   1.736   3.700 -0.2597 -0.1377  0.2106
 2206SOL    HW118251   2.767   1.651   3.731  0.9801  0.3454  0.2210
 2206SOL    HW218252   2.647   1.727   3.739 -0.5073  1.4013 -0.0148
 2207SOL     OW18253   4.533   2.331   0.587 -0.0614 -0.1409  0.2206
 2207SOL    HW118254   4.587   2.318   0.666  1.2467 -0.7039 -0.7703
 2207SOL    HW218255   4.457   2.369   0.631  0.8742  0.8194  0.9885
 2208SOL     OW18256   2.442   3.983  15.223  0.2076  0.2258  0.1256
 2208SOL    HW118257   2.437   3.950  15.133  0.1741 -1.4418  0.7436
 2208SOL    HW218258   2.462   3.905  15.274  1.2402  0.0771 -0.5088
 2209SOL     OW18259   3.873   3.383   9.442  0.0746 -0.5248  0.4324
 2209SOL    HW118260   3.967   3.400   9.437  0.1971 -0.6353  2.1840
 2209SOL    HW218261   3.883   3.310   9.381 -1.3290 -2.0808  2.0235
 2210SOL     OW18262   4.557   0.289   3.830  0.0595  0.4720  0.2545
 2210SOL    HW118263   4.463   0.274   3.838  0.9456 -3.7936  2.3215
 2210SOL    HW218264   4.586   0.255   3.914  2.6770 -0.0042 -0.8472
 2211SOL     OW18265   1.404   0.154  10.803 -0.1779 -0.4718 -0.0291
 2211SOL    HW118266   1.431   0.233  10.757 -0.4601 -1.0673 -1.2411
 2211SOL    HW218267   1.433   0.094  10.734  0.0615 -0.5366  0.1317
 2212SOL     OW18268   4.542   0.806   2.090 -0.4336  0.0013  0.3167
 2212SOL    HW118269   4.516   0.873   2.153  0.7249 -0.1918  0.9989
 2212SOL    HW218270   4.558   0.864   2.016  1.6246 -1.6077 -0.4795
 2213SOL     OW18271   0.434   3.031   4.353  0.0260 -0.6471 -0.6828
 2213SOL    HW118272   0.493   2.956   4.344  0.6177 -0.0608 -1.6555
 2213SOL    HW218273   0.349   2.989   4.336  0.3403 -1.2511 -0.7946
 2214SOL     OW18274   1.951   0.527   1.359  0.0465 -0.0342 -0.1835
 2214SOL    HW118275   2.034   0.490   1.390 -0.4783  0.2413  1.5222
 2214SOL    HW218276   1.960   0.498   1.268 -0.6229 -0.8033 -0.0066
 2215SOL     OW18277   3.806   1.758   7.900 -0.4952 -0.2438  0.0590
 2215SOL    HW118278   3.733   1.784   7.844 -0.2030 -0.8186 -0.5860
 2215SOL    HW218279   3.853   1.840   7.914 -1.0250  0.0487  0.1031
 2216SOL     OW18280   4.291   0.643  16.450  0.0518 -0.2529  0.3985
 2216SOL    HW118281   4.209   0.690  16.467 -0.7650 -1.4628 -0.1763
 2216SOL    HW218282   4.353   0.714  16.435  0.3151 -0.4778  0.4171
 2217SOL     OW18283   1.266   3.222   0.985 -0.6979 -0.7180  0.4777
 2217SOL    HW118284   1.301   3.311   0.981  0.1698 -1.0472  0.7350
 2217SOL    HW218285   1.174   3.246   0.994 -0.7250 -0.6962  0.1340
 2218SOL     OW18286   2.492   0.929  15.237  0.0111 -0.2456  0.1942
 2218SOL    HW118287   2.477   0.847  15.190  0.2991 -0.0856 -0.1746
 2218SOL    HW218288   2.459   0.907  15.324  1.0664  0.1976  0.7021
 2219SOL     OW18289   1.957   3.994   3.292 -0.0231 -0.2675 -0.5904
 2219SOL    HW118290   2.000   4.059   3.237 -2.1024 -1.0154 -3.1035
 2219SOL    HW218291   1.895   4.053   3.334  0.6802 -0.6593  1.0241
 2220SOL     OW18292   0.656   1.541  13.632  0.2457  0.2403 -0.5217
 2220SOL    HW118293   0.694   1.453  13.627 -1.4874 -0.7456  3.0392
 2220SOL    HW218294   0.564   1.539  13.606  0.0354 -0.5522  0.2641
 2221SOL     OW18295   0.951   2.450   1.296 -0.1840  0.3701  0.0222
 2221SOL    HW118296   1.010   2.375   1.302 -0.4457  0.1005 -0.7616
 2221SOL    HW218297   1.003   2.522   1.259 -0.0571  0.7132  0.8706
 2222SOL     OW18298   4.352   0.103  17.090 -0.4114 -0.0100  0.1281
 2222SOL    HW118299   4.267   0.091  17.049 -0.5008  1.3939 -0.0713
 2222SOL    HW218300   4.328   0.153  17.168  1.9203  1.0183  0.1787
 2223SOL     OW18301   0.058   2.822   5.125 -0.0525 -0.2084 -0.0595
 2223SOL    HW118302   0.048   2.863   5.039  0.5737  0.1523  0.0420
 2223SOL    HW218303   0.004   2.744   5.111  0.9207 -0.7035 -1.0954
 2224SOL     OW18304   3.295   4.648   9.502 -0.0109 -0.8312 -0.3678
 2224SOL    HW118305   3.271   4.611   9.417 -0.7054  0.7402 -0.8538
 2224SOL    HW218306   3.336   4.729   9.470  0.5863 -1.4549 -1.1647
 2225SOL     OW18307   1.755   4.020  10.545  0.3063 -0.3845  0.3032
 2225SOL    HW118308   1.739   3.969  10.465  0.7012  1.2641 -0.8142
 2225SOL    HW218309   1.809   3.961  10.598  0.2190  0.5735  1.4465
 2226SOL     OW18310   1.733   1.000  16.116  0.4956  0.5096  0.1868
 2226SOL    HW118311   1.713   1.081  16.069  1.1260  0.4129 -0.2421
 2226SOL    HW218312   1.647   0.958  16.106  0.1771  1.3476 -0.5352
 2227SOL     OW18313   4.228   2.833  13.836 -0.4516  0.6444 -0.3408
 2227SOL    HW118314   4.256   2.792  13.917 -0.0296 -2.4164 -2.0236
 2227SOL    HW218315   4.136   2.839  13.861 -1.0746 -2.4526 -1.8189
 2228SOL     OW18316   3.099   4.375  10.954  0.4991  0.1181  0.0133
 2228SOL    HW118317   3.130   4.286  10.936  2.1016  0.4836  0.9828
 2228SOL    HW218318   3.003   4.368  10.953  0.4019  1.5234 -1.3403
 2229SOL     OW18319   1.932   3.581   5.571  0.5615 -0.0692 -0.2301
 2229SOL    HW118320   1.868   3.518   5.605 -1.2882  2.4338  0.9756
 2229SOL    HW218321   1.878   3.639   5.516  0.1859 -1.1442 -0.9913
 2230SOL     OW18322   0.889   0.495   4.654 -0.0284  0.6713  0.1477
 2230SOL    HW118323   0.825   0.512   4.723 -1.0223  0.2617 -0.6739
 2230SOL    HW218324   0.957   0.550   4.693 -0.7666  0.2633  2.0411
 2231SOL     OW18325   2.068   2.340   3.613 -0.2282 -0.1493 -0.0015
 2231SOL    HW118326   2.158   2.371   3.611 -0.0817 -0.5385  0.7742
 2231SOL    HW218327   2.029   2.387   3.687 -1.4536 -1.9659  0.5040
 2232SOL     OW18328   3.793   3.116  15.352 -0.2023  0.1508 -0.8374
 2232SOL    HW118329   3.830   3.173  15.285  0.8583 -0.4468 -0.7480
 2232SOL    HW218330   3.716   3.170  15.373 -0.8418 -0.2400 -2.1467
 2233SOL     OW18331   1.960   3.934  10.183 -0.0351  0.8028 -0.1031
 2233SOL    HW118332   1.928   3.977  10.103  2.2038  2.3433 -0.1725
 2233SOL    HW218333   1.879   3.928  10.233  0.4898  1.0575  0.7728
 2234SOL     OW18334   3.508   1.574   5.631 -0.2740 -0.1687  0.5078
 2234SOL    HW118335   3.525   1.575   5.725  1.2515  2.3644  0.2106
 2234SOL    HW218336   3.458   1.493   5.626  0.9629 -0.8799 -0.5169
 2235SOL     OW18337   2.411   1.019   0.298  0.0815  0.2748  0.1095
 2235SOL    HW118338   2.493   1.045   0.339  1.3134 -1.6446 -1.1168
 2235SOL    HW218339   2.374   0.960   0.364  0.5666  2.0719  1.9780
 2236SOL     OW18340   2.069   2.700  12.587 -0.1752 -0.4825 -0.2832
 2236SOL    HW118341   1.980   2.692  12.554  0.0585  0.2597 -1.0819
 2236SOL    HW218342   2.111   2.644  12.522  2.6977  0.3576  0.8103
 2237SOL     OW18343   4.094   3.552   9.808 -0.4572 -0.7205 -0.0696
 2237SOL    HW118344   4.109   3.588   9.896 -0.3142 -0.3454 -0.2486
 2237SOL    HW218345   4.000   3.569   9.796 -0.1976  1.4095  0.7774
 2238SOL     OW18346   2.247   2.995   8.555 -0.2119  0.0360  0.3033
 2238SOL    HW118347   2.186   2.950   8.497 -1.1999  1.8870 -0.0878
 2238SOL    HW218348   2.306   2.925   8.583  0.4869 -0.1160 -1.5871
 2239SOL     OW18349   2.344   1.395   3.395  0.1880  0.3103 -0.1683
 2239SOL    HW118350   2.395   1.322   3.360  1.6210  2.3125 -2.2084
 2239SOL    HW218351   2.393   1.438   3.465  0.8485 -0.7062 -0.0145
 2240SOL     OW18352   2.685   3.168  11.927 -0.3753  0.3608 -0.3451
 2240SOL    HW118353   2.739   3.112  11.872  0.6344  0.4040  0.6144
 2240SOL    HW218354   2.692   3.118  12.008  0.2971 -1.3095 -1.4363
 2241SOL     OW18355   0.417   4.513  12.475 -0.0648  0.3445 -0.2090
 2241SOL    HW118356   0.326   4.542  12.466 -0.9895 -3.0104 -1.5990
 2241SOL    HW218357   0.413   4.431  12.524 -3.6261  2.1903  2.6144
 2242SOL     OW18358   1.641   3.980   1.991  0.0409 -0.0510 -0.1504
 2242SOL    HW118359   1.683   3.913   2.044 -0.2701  1.2940  1.8091
 2242SOL    HW218360   1.611   4.034   2.064  1.9517 -0.4411  0.9118
 2243SOL     OW18361   4.366   1.604   5.075  0.2393  0.2085  0.6362
 2243SOL    HW118362   4.292   1.655   5.108  0.3292  0.1477  0.9290
 2243SOL    HW218363   4.342   1.512   5.084 -1.1103  0.3601 -1.3845
 2244SOL     OW18364   4.641   1.909   5.395 -0.6413  0.5098 -0.1072
 2244SOL    HW118365   4.630   1.976   5.328  1.3388  1.0439  0.0923
 2244SOL    HW218366   4.620   1.826   5.352  1.9175  0.3001 -0.9549
 2245SOL     OW18367   3.197   0.877   7.014  0.1675  0.1177  0.0896
 2245SOL    HW118368   3.103   0.880   6.998  0.1159  1.7971  0.7967
 2245SOL    HW218369   3.223   0.968   7.004  1.1349 -0.1069  0.4923
 2246SOL     OW18370   0.426   3.771   2.356  0.4688 -0.0497 -0.2511
 2246SOL    HW118371   0.445   3.687   2.397  2.5017  1.2106  1.3664
 2246SOL    HW218372   0.444   3.758   2.263  1.2673  0.4285 -0.1693
 2247SOL     OW18373   0.697   1.887  13.404 -0.1337  0.2592 -0.1761
 2247SOL    HW118374   0.651   1.839  13.335 -1.6481 -1.4922  2.0391
 2247SOL    HW218375   0.647   1.853  13.478 -0.0999 -0.1493 -0.3408
 2248SOL     OW18376   3.008   4.606   3.310 -0.3976 -0.0098 -0.4025
 2248SOL    HW118377   2.918   4.613   3.276 -0.4809  0.9388  0.0147
 2248SOL    HW218378   3.042   4.691   3.284  0.7770 -0.1233  0.7562
 2249SOL     OW18379   4.044   2.041   7.540  0.2079 -0.3795 -0.1634
 2249SOL    HW118380   3.984   1.984   7.587  1.0279 -2.6795 -1.9129
 2249SOL    HW218381   3.991   2.086   7.473  1.1371  0.9517  0.0061
 2250SOL     OW18382   3.377   3.600   8.476  0.1166 -0.0628  0.1988
 2250SOL    HW118383   3.358   3.542   8.550 -3.0760  0.5019 -0.1515
 2250SOL    HW218384   3.395   3.544   8.401 -0.4955  0.8743 -0.6546
 2251SOL     OW18385   1.761   2.102  12.249 -0.1873 -0.4415 -0.4235
 2251SOL    HW118386   1.789   2.014  12.225  0.2962 -0.5482  0.5527
 2251SOL    HW218387   1.783   2.096  12.342 -1.6650  0.4273 -0.0146
 2252SOL     OW18388   3.970   3.861  10.607  0.0067 -0.5444 -0.6965
 2252SOL    HW118389   3.975   3.873  10.512 -1.0019 -1.3012 -0.8424
 2252SOL    HW218390   3.897   3.800  10.618 -1.3174  0.8498 -1.7396
 2253SOL     OW18391   4.115   2.536   6.234 -0.0941  0.1699  0.1597
 2253SOL    HW118392   4.143   2.468   6.172 -1.4069 -0.9631  0.8002
 2253SOL    HW218393   4.139   2.616   6.189  0.5230 -0.5826 -0.8552
 2254SOL     OW18394   1.374   3.605   4.819 -0.5629 -0.0935  0.3872
 2254SOL    HW118395   1.363   3.695   4.852 -2.2010  0.1199 -0.7233
 2254SOL    HW218396   1.447   3.577   4.875  0.6351  1.4863 -0.3726
 2255SOL     OW18397   3.969   1.965   9.628  0.6512 -0.1725 -0.3306
 2255SOL    HW118398   3.924   2.012   9.698 -0.1393 -2.0064  0.3784
 2255SOL    HW218399   3.954   2.028   9.558  0.5797  0.2216  0.0404
 2256SOL     OW18400   2.907   0.924   6.950 -0.3158  0.0009  0.2309
 2256SOL    HW118401   2.862   0.842   6.926  0.8840 -0.0058 -2.0135
 2256SOL    HW218402   2.899   0.974   6.868 -0.0685  0.6828  0.6253
 2257SOL     OW18403   1.001   2.107   7.676 -0.1871  0.1389  0.0933
 2257SOL    HW118404   0.923   2.108   7.621  0.1188  0.3627 -0.3310
 2257SOL    HW218405   0.985   2.182   7.733 -4.1121 -0.3842 -0.3395
 2258SOL     OW18406   1.767   1.762  10.704 -0.3254 -0.6554  0.1651
 2258SOL    HW118407   1.821   1.833  10.669  0.7106 -0.7690  1.5088
 2258SOL    HW218408   1.745   1.795  10.791  2.1117  0.1622  0.4844
 2259SOL     OW18409   2.022   3.520   7.407 -0.0114 -0.4385 -0.2254
 2259SOL    HW118410   2.104   3.562   7.434  0.3473  0.4128 -2.6294
 2259SOL    HW218411   1.980   3.582   7.348 -0.4944 -1.5049 -1.0144
 2260SOL     OW18412   2.408   1.560  14.512  0.4523  0.0465  0.2253
 2260SOL    HW118413   2.486   1.577  14.460 -0.6826  0.1654 -1.4444
 2260SOL    HW218414   2.351   1.630  14.479  3.1069  1.8577 -0.4670
 2261SOL     OW18415   4.580   1.255   5.366 -0.0786  0.1905 -0.0102
 2261SOL    HW118416   4.613   1.319   5.429 -0.1946 -1.1877  1.4517
 2261SOL    HW218417   4.579   1.175   5.417  2.2307  0.2950  0.1895
 2262SOL     OW18418   2.798   0.835   3.047 -0.1759 -0.0652  0.1205
 2262SOL    HW118419   2.769   0.821   2.957 -2.5500  1.4850  0.6285
 2262SOL    HW218420   2.726   0.779   3.077 -1.4300  0.3355 -2.1388
 2263SOL     OW18421   0.100   1.494   2.359  0.0633  0.1289  0.2854
 2263SOL    HW118422   0.022   1.519   2.310  1.5885 -0.0927 -2.2536
 2263SOL    HW218423   0.069   1.417   2.407  1.3594  0.4878  1.7030
 2264SOL     OW18424   0.020   1.221   6.691  0.0721  0.0489  0.7429
 2264SOL    HW118425   0.072   1.298   6.667  1.6445 -1.0431  0.6451
 2264SOL    HW218426   4.736   1.182   6.606  4.6373 -1.2543  0.1612
 2265SOL     OW18427   2.846   1.056   6.737 -0.0220  0.4691  0.0951
 2265SOL    HW118428   2.782   1.019   6.676 -0.7289  0.8318  0.6188
 2265SOL    HW218429   2.793   1.132   6.760 -0.4368  0.0941  0.3865
 2266SOL     OW18430   2.382   2.175  16.124 -0.0317  0.0237 -0.0049
 2266SOL    HW118431   2.347   2.219  16.046 -0.4986  2.5439  1.6052
 2266SOL    HW218432   2.308   2.130  16.165 -0.2451 -0.2827 -0.7187
 2267SOL     OW18433   1.437   1.009   6.972 -0.0587  0.4469  0.4506
 2267SOL    HW118434   1.465   1.085   6.922  0.0972 -0.0767 -0.2572
 2267SOL    HW218435   1.444   0.939   6.907  0.8033  1.0233 -0.0665
 2268SOL     OW18436   3.095   1.295   7.004 -0.6949 -0.2378  0.4259
 2268SOL    HW118437   3.181   1.259   7.027  0.6489  1.1688 -2.3744
 2268SOL    HW218438   3.120   1.372   6.954  0.2658 -1.3824 -0.8735
 2269SOL     OW18439   3.392   1.389   2.715  0.7285  0.2289 -0.1240
 2269SOL    HW118440   3.435   1.473   2.698  0.5102  0.4177  0.2543
 2269SOL    HW218441   3.418   1.356   2.801  0.8658  1.4611  0.3119
 2270SOL     OW18442   4.080   4.152   4.780  0.6531 -0.3018  0.4835
 2270SOL    HW118443   4.091   4.132   4.687  2.2915  1.8508  0.2062
 2270SOL    HW218444   4.093   4.247   4.774 -0.3187 -0.1540  0.7307
 2271SOL     OW18445   0.737   3.252  12.120 -0.1677 -0.3740  0.0192
 2271SOL    HW118446   0.714   3.344  12.128 -1.2197 -0.8175  1.9917
 2271SOL    HW218447   0.831   3.265  12.126 -0.6702  2.6101  1.1330
 2272SOL     OW18448   0.442   3.670   4.579 -0.0705 -0.5477  0.3092
 2272SOL    HW118449   0.523   3.699   4.538 -0.1974 -1.3325 -0.4879
 2272SOL    HW218450   0.444   3.578   4.555  1.3871 -0.9594  1.9612
 2273SOL     OW18451   1.290   2.490   0.634 -0.0148 -0.0018 -0.2856
 2273SOL    HW118452   1.301   2.425   0.564 -1.2070  0.6121 -1.0302
 2273SOL    HW218453   1.376   2.532   0.629 -0.8684  1.8020  0.2612
 2274SOL     OW18454   1.830   2.587   3.326  0.4004  0.0179  0.2857
 2274SOL    HW118455   1.900   2.528   3.300  0.9879  0.7349  0.2360
 2274SOL    HW218456   1.846   2.665   3.272 -2.8555  2.0779  2.2564
 2275SOL     OW18457   4.354   3.897   9.058  0.1428 -0.3491  0.2854
 2275SOL    HW118458   4.279   3.957   9.058 -1.9571 -2.9971  0.3118
 2275SOL    HW218459   4.365   3.885   9.152 -2.0053  1.0260  0.7169
 2276SOL     OW18460   2.101   0.515  14.517  0.2273 -0.0101  0.0813
 2276SOL    HW118461   2.020   0.528  14.567 -1.4560 -1.0716 -2.4013
 2276SOL    HW218462   2.069   0.453  14.452 -0.3212 -0.2999  0.6373
 2277SOL     OW18463   1.446   1.596   6.539  0.3167  0.2778 -0.6358
 2277SOL    HW118464   1.520   1.539   6.519 -0.0386 -0.4935  0.2533
 2277SOL    HW218465   1.421   1.636   6.455  2.1577  1.1729 -0.7441
 2278SOL     OW18466   4.257   4.621   3.973  0.3217  0.1274  0.0089
 2278SOL    HW118467   4.236   4.543   3.921 -0.5188  0.8701 -0.7775
 2278SOL    HW218468   4.212   4.684   3.917 -1.8632 -1.3287  0.1085
 2279SOL     OW18469   0.283   4.490   0.282  0.0585  0.5137  0.2250
 2279SOL    HW118470   0.251   4.575   0.313  1.2772  1.0005  0.1508
 2279SOL    HW218471   0.302   4.503   0.189  0.2635 -2.5956 -0.1844
 2280SOL     OW18472   4.442   1.133   7.755  0.0522 -0.3580 -0.0688
 2280SOL    HW118473   4.440   1.225   7.781  1.8965  0.4569 -2.8202
 2280SOL    HW218474   4.417   1.126   7.663  2.0261  2.5180 -0.8272
 2281SOL     OW18475   4.181   3.802   5.032 -0.1424  0.4333  0.1737
 2281SOL    HW118476   4.221   3.719   5.059 -0.9011 -0.3600 -1.1269
 2281SOL    HW218477   4.227   3.866   5.086  2.9619 -1.3627 -0.3777
 2282SOL     OW18478   2.091   1.124   7.596  0.0529 -0.0332 -0.2878
 2282SOL    HW118479   2.177   1.089   7.620  0.0826 -0.2545 -0.7209
 2282SOL    HW218480   2.100   1.154   7.505 -0.1106  0.4179 -0.1561
 2283SOL     OW18481   0.254   1.604  10.528 -0.4429 -0.3893  0.2036
 2283SOL    HW118482   0.302   1.544  10.471 -0.9780 -2.5951  2.0958
 2283SOL    HW218483   0.307   1.683  10.518  0.2337 -0.7387  1.0422
 2284SOL     OW18484   3.057   2.110   7.494 -0.0014  0.0224  0.0944
 2284SOL    HW118485   3.138   2.081   7.452  0.2432 -1.2463  1.4583
 2284SOL    HW218486   3.023   2.174   7.431  1.7366  0.0769 -0.7816
 2285SOL     OW18487   2.494   3.696  15.978  0.2556 -0.0466  0.3268
 2285SOL    HW118488   2.538   3.668  15.898 -0.7149  0.5962 -0.4263
 2285SOL    HW218489   2.579   3.699  16.023 -0.0949  0.3281  0.9727
 2286SOL     OW18490   0.526   0.056   7.613 -0.6222 -0.4406 -0.3290
 2286SOL    HW118491   0.471   0.127   7.581  2.5036  2.0547 -0.1265
 2286SOL    HW218492   0.614   0.091   7.621 -0.4333 -0.8400 -0.6152
 2287SOL     OW18493   1.598   2.607   6.183  0.8554 -0.0785  0.1401
 2287SOL    HW118494   1.628   2.611   6.093  1.6582  0.8184  0.4444
 2287SOL    HW218495   1.669   2.568   6.234  1.7283  0.2488 -0.8329
 2288SOL     OW18496   2.691   2.628   4.941 -0.0861  0.4737  0.1799
 2288SOL    HW118497   2.596   2.638   4.935 -0.2951 -1.0919  0.8635
 2288SOL    HW218498   2.706   2.629   4.847 -1.7995  1.2691 -0.0848
 2289SOL     OW18499   3.642   2.160   1.664 -0.2240 -0.0007  0.3065
 2289SOL    HW118500   3.562   2.211   1.679  0.1573  0.4971  0.6305
 2289SOL    HW218501   3.675   2.214   1.592 -0.1678  0.8381  0.9717
 2290SOL     OW18502   0.842   4.405   8.570  0.0721  0.1299  0.2538
 2290SOL    HW118503   0.855   4.462   8.494  0.6390 -0.5546 -0.1590
 2290SOL    HW218504   0.794   4.328   8.540 -0.5515  1.4648 -2.1494
 2291SOL     OW18505   2.169   0.813   1.595  0.3226  0.1504 -0.0854
 2291SOL    HW118506   2.253   0.822   1.549  1.1391 -0.7319  1.2275
 2291SOL    HW218507   2.191   0.740   1.653 -2.1190 -0.3331  0.2194
 2292SOL     OW18508   3.588   3.130   1.688 -0.1203 -0.1695 -0.1393
 2292SOL    HW118509   3.678   3.107   1.663 -0.6414 -1.8695 -0.4362
 2292SOL    HW218510   3.617   3.211   1.729 -0.5847  1.1283 -2.3490
 2293SOL     OW18511   0.074   2.973   7.516 -0.5997 -0.7240 -0.4289
 2293SOL    HW118512   0.143   2.909   7.535 -0.1876 -0.2866 -0.4762
 2293SOL    HW218513   0.126   3.053   7.516  1.7617 -2.2390  0.9542
 2294SOL     OW18514   3.149   4.304   4.010 -0.2323  0.3081 -0.3841
 2294SOL    HW118515   3.090   4.364   4.055 -0.3551  0.4573 -0.7372
 2294SOL    HW218516   3.083   4.238   3.990  0.2401  0.0129 -0.9642
 2295SOL     OW18517   2.569   0.408   8.630  0.0772 -0.1148 -0.3966
 2295SOL    HW118518   2.644   0.441   8.679  1.5682 -1.7516 -1.5957
 2295SOL    HW218519   2.498   0.470   8.647 -0.6327 -1.3343  1.1262
 2296SOL     OW18520   1.223   3.899  12.350  0.7834  0.4979 -0.8187
 2296SOL    HW118521   1.265   3.889  12.435 -1.1107 -0.2381  0.0208
 2296SOL    HW218522   1.298   3.887  12.291  2.2695  0.5859  1.0564
 2297SOL     OW18523   3.418   0.470   2.914 -0.0030  0.5538 -0.1409
 2297SOL    HW118524   3.460   0.406   2.856 -0.0475  0.3437  0.0572
 2297SOL    HW218525   3.495   0.483   2.969 -1.3790  1.8533  1.4920
 2298SOL     OW18526   3.813   3.666   2.613 -0.3897  0.2269  0.4651
 2298SOL    HW118527   3.743   3.716   2.653  1.0769  2.3947  0.3557
 2298SOL    HW218528   3.884   3.729   2.600 -2.2899  2.2313 -0.2184
 2299SOL     OW18529   1.631   4.709   6.334 -0.2619 -0.4792  0.4056
 2299SOL    HW118530   1.602   4.675   6.249  1.1538  0.7523 -0.5853
 2299SOL    HW218531   1.691   4.640   6.363 -1.4434 -1.5210  0.3528
 2300SOL     OW18532   1.858   4.719   2.649 -0.4332 -0.2403  0.4910
 2300SOL    HW118533   1.840   4.666   2.571 -1.1766 -0.8518  1.0780
 2300SOL    HW218534   1.935   4.674   2.683  0.7434  0.1909 -1.6015
 2301SOL     OW18535   0.256   4.572   5.240 -0.1024  0.3815 -0.0038
 2301SOL    HW118536   0.342   4.533   5.259 -0.3494  0.5010  1.3992
 2301SOL    HW218537   0.207   4.494   5.214 -1.9429  1.2614  0.8697
 2302SOL     OW18538   0.132   2.649   3.757 -0.6819 -0.0707  0.4004
 2302SOL    HW118539   0.119   2.603   3.674 -1.8346 -2.5935  1.9577
 2302SOL    HW218540   0.174   2.592   3.821  0.0097 -1.4066 -1.2661
 2303SOL     OW18541   0.819   3.217   5.989  0.3420 -0.1545 -0.1099
 2303SOL    HW118542   0.774   3.149   5.939 -0.2328 -0.0268  0.2297
 2303SOL    HW218543   0.801   3.295   5.936 -0.0653 -0.2476 -0.1114
 2304SOL     OW18544   0.849   0.384   4.384  0.2780 -0.2771 -0.3236
 2304SOL    HW118545   0.818   0.404   4.473  0.0697  1.0574 -0.7003
 2304SOL    HW218546   0.875   0.469   4.347 -1.4616  1.4535  2.4061
 2305SOL     OW18547   2.251   1.199   4.667  0.5341 -0.4690  0.0512
 2305SOL    HW118548   2.211   1.271   4.717 -0.4058  1.8368 -3.9713
 2305SOL    HW218549   2.304   1.152   4.730 -0.2399 -0.5460  0.6525
 2306SOL     OW18550   2.026   3.104  14.810 -0.4381 -0.3901  0.2978
 2306SOL    HW118551   2.081   3.046  14.863 -0.7407 -1.4703 -0.5765
 2306SOL    HW218552   2.002   3.054  14.732 -1.1372 -1.3484  1.1353
 2307SOL     OW18553   4.536   0.878   7.121 -0.5701  0.0422 -0.3368
 2307SOL    HW118554   4.451   0.873   7.078 -0.4760  1.1296 -0.6555
 2307SOL    HW218555   4.538   0.788   7.153  0.6765  0.9254  2.0865
 2308SOL     OW18556   4.418   1.571   8.788  0.0483 -0.4098 -0.0285
 2308SOL    HW118557   4.434   1.663   8.809  0.2908 -0.5447  0.3701
 2308SOL    HW218558   4.488   1.532   8.840  0.4184 -0.9107 -0.9071
 2309SOL     OW18559   0.085   0.624   9.258  0.3797 -0.3035  0.2400
 2309SOL    HW118560   0.019   0.558   9.236  2.0795 -0.8881 -3.1649
 2309SOL    HW218561   0.028   0.696   9.284 -3.0573 -2.5692 -1.0352
 2310SOL     OW18562   0.813   2.195   6.600 -0.5688 -0.2531 -0.3502
 2310SOL    HW118563   0.898   2.154   6.619 -0.5362  0.1561  0.3781
 2310SOL    HW218564   0.767   2.116   6.572 -0.0779 -0.6327 -0.0921
 2311SOL     OW18565   0.561   2.741  17.159 -0.2350 -0.4764  0.8259
 2311SOL    HW118566   0.620   2.793  17.103 -1.6969 -1.4054 -1.5578
 2311SOL    HW218567   0.493   2.807  17.175  2.7103  2.7853  0.0645
 2312SOL     OW18568   1.753   2.479  11.612 -0.2264  0.5036 -0.1590
 2312SOL    HW118569   1.809   2.427  11.555 -0.4358 -1.0569  1.0595
 2312SOL    HW218570   1.801   2.475  11.695 -0.8126  0.3063  0.1697
 2313SOL     OW18571   1.368   1.994  12.128 -0.2982  0.3305 -0.5774
 2313SOL    HW118572   1.315   2.022  12.203 -1.8534 -1.8194 -0.9055
 2313SOL    HW218573   1.306   2.010  12.057  0.8602  0.6035 -1.5143
 2314SOL     OW18574   1.557   2.871   6.246 -0.6485  0.1860 -0.0307
 2314SOL    HW118575   1.639   2.920   6.250  1.1873 -2.9206  0.5108
 2314SOL    HW218576   1.586   2.780   6.243  0.0495  0.3676  1.1738
 2315SOL     OW18577   0.060   2.193   6.757 -0.3736  0.1600  0.2097
 2315SOL    HW118578   0.043   2.112   6.804 -1.7784  0.8194  0.8488
 2315SOL    HW218579   0.102   2.248   6.824 -2.0448  1.3425  0.2977
 2316SOL     OW18580   1.414   3.390   3.004 -0.5892 -0.0376  0.2242
 2316SOL    HW118581   1.383   3.455   2.941  1.2399  0.8861  0.2753
 2316SOL    HW218582   1.500   3.425   3.027  0.1021  0.0596 -2.5342
 2317SOL     OW18583   4.018   1.262   6.625 -0.6015 -0.4060 -0.3698
 2317SOL    HW118584   4.105   1.278   6.663 -1.3170  0.2959  0.9947
 2317SOL    HW218585   4.030   1.186   6.569 -1.6885  0.3028 -1.5679
 2318SOL     OW18586   3.810   1.512   2.888 -0.3417 -0.0217 -0.0191
 2318SOL    HW118587   3.876   1.552   2.832  1.4225 -1.7377  0.8405
 2318SOL    HW218588   3.830   1.420   2.872  2.3243  0.5906 -0.2186
 2319SOL     OW18589   3.348   2.725   8.050 -0.5643 -0.4574 -0.0654
 2319SOL    HW118590   3.417   2.747   7.987 -0.5088  2.6837  1.1087
 2319SOL    HW218591   3.314   2.809   8.080 -1.3715 -0.8103  0.0152
 2320SOL     OW18592   1.375   0.358   1.401  0.1398 -0.1027  0.1008
 2320SOL    HW118593   1.334   0.273   1.390 -0.5644  0.1012  1.1541
 2320SOL    HW218594   1.451   0.336   1.455  0.7773 -0.0598 -0.7874
 2321SOL     OW18595   1.588   4.542   2.647 -0.5504 -0.0420  0.1988
 2321SOL    HW118596   1.530   4.473   2.614  0.6493 -0.9099 -0.0626
 2321SOL    HW218597   1.669   4.503   2.614  0.0833  2.2813 -1.0102
 2322SOL     OW18598   1.247   4.239  16.192 -0.2365 -0.1450  0.1790
 2322SOL    HW118599   1.176   4.300  16.212 -0.4906  0.2934 -2.0036
 2322SOL    HW218600   1.312   4.300  16.157 -1.7299  1.5110  0.2918
 2323SOL     OW18601   1.209   1.650   2.249 -0.2489  0.3920 -0.0512
 2323SOL    HW118602   1.187   1.739   2.275  2.4782  0.4441  2.0828
 2323SOL    HW218603   1.226   1.663   2.156  2.4436  1.1060  0.5485
 2324SOL     OW18604   1.578   2.201   5.613  0.7541 -0.1699 -0.3064
 2324SOL    HW118605   1.524   2.214   5.691  1.6687 -0.6914  0.4038
 2324SOL    HW218606   1.524   2.155   5.549 -0.2337  0.8925 -0.2540
 2325SOL     OW18607   3.707   1.525   2.523  0.3589 -0.6822  0.6296
 2325SOL    HW118608   3.642   1.595   2.522  0.8531 -0.2259 -0.3357
 2325SOL    HW218609   3.779   1.570   2.568  0.8582  0.6762 -1.5070
 2326SOL     OW18610   1.805   0.659   3.356  0.1694 -0.6580 -0.2799
 2326SOL    HW118611   1.825   0.591   3.292 -1.6111 -1.3858 -0.0686
 2326SOL    HW218612   1.750   0.605   3.413 -1.2912  1.8559  0.6979
 2327SOL     OW18613   1.575   3.667   0.470 -0.0612  0.4921  0.6255
 2327SOL    HW118614   1.536   3.586   0.438 -1.3109  1.5962 -0.6309
 2327SOL    HW218615   1.627   3.688   0.393 -1.7153 -0.1201 -0.6566
 2328SOL     OW18616   1.037   1.352   0.858  0.3390  0.0721  0.7638
 2328SOL    HW118617   1.069   1.415   0.794  0.6571 -0.8096  0.0524
 2328SOL    HW218618   1.109   1.291   0.874  0.8086  0.3940 -0.1296
 2329SOL     OW18619   4.583   2.365  11.372  0.0779 -0.1121  0.3634
 2329SOL    HW118620   4.521   2.438  11.362 -0.2135 -0.0329  2.6921
 2329SOL    HW218621   4.544   2.297  11.317 -0.5205  2.5275 -2.4680
 2330SOL     OW18622   2.793   0.197  13.993 -0.2600 -0.1314  0.3817
 2330SOL    HW118623   2.728   0.131  14.018 -0.9418  0.4618  0.1360
 2330SOL    HW218624   2.876   0.148  13.997  0.2813  1.0118  3.5415
 2331SOL     OW18625   0.864   0.263   8.066  0.2977 -0.0020 -0.3565
 2331SOL    HW118626   0.845   0.356   8.057 -2.1833 -0.5227 -0.3686
 2331SOL    HW218627   0.778   0.222   8.060 -0.4571  1.6492 -0.7424
 2332SOL     OW18628   1.073   1.092  11.306  0.0584  0.1426  0.0038
 2332SOL    HW118629   0.995   1.145  11.325  0.3675  0.9122 -0.8564
 2332SOL    HW218630   1.045   1.070  11.217 -0.9309 -1.8207  0.7972
 2333SOL     OW18631   1.997   4.537   6.582  0.4689  0.6693 -0.2541
 2333SOL    HW118632   1.908   4.538   6.548 -0.1104  0.8854  1.2640
 2333SOL    HW218633   2.012   4.443   6.568  1.8768  0.8087  0.3195
 2334SOL     OW18634   0.522   3.672   0.967 -0.1064 -0.1593 -0.1701
 2334SOL    HW118635   0.569   3.614   0.907  0.3636 -0.4610  0.4830
 2334SOL    HW218636   0.594   3.702   1.023  0.9907  0.3238 -1.8423
 2335SOL     OW18637   1.400   0.134   2.151 -0.7644  0.1702  0.2129
 2335SOL    HW118638   1.456   0.082   2.094  0.4117  0.3480  1.2071
 2335SOL    HW218639   1.438   0.219   2.131  0.1094  0.0298  1.2724
 2336SOL     OW18640   4.281   0.971   7.093  0.3148  0.3169 -0.4788
 2336SOL    HW118641   4.220   1.039   7.120  1.2751  0.6891  0.7779
 2336SOL    HW218642   4.233   0.943   7.015  2.8353 -0.5322 -1.7279
 2337SOL     OW18643   2.561   0.832  14.092 -0.1694 -0.2653  0.1821
 2337SOL    HW118644   2.639   0.816  14.144 -0.0215 -0.4511 -0.0969
 2337SOL    HW218645   2.576   0.920  14.059 -0.3294  0.3604  1.8057
 2338SOL     OW18646   0.312   3.060   2.316 -0.5081  0.3581 -0.1998
 2338SOL    HW118647   0.400   3.098   2.325  0.9398 -2.8700 -0.8811
 2338SOL    HW218648   0.262   3.118   2.259 -0.2449 -0.8403 -1.6300
 2339SOL     OW18649   2.927   3.827  14.773 -0.0822  0.8400 -0.2690
 2339SOL    HW118650   2.901   3.735  14.761  0.3958  0.9345 -1.8795
 2339SOL    HW218651   2.924   3.854  14.682 -0.5045 -1.2066 -0.8602
 2340SOL     OW18652   2.936   0.179  10.427  0.7643  0.3771  0.2558
 2340SOL    HW118653   2.942   0.173  10.332 -1.7977  1.0350  0.0593
 2340SOL    HW218654   2.984   0.099  10.451  1.8880  1.0199  0.1274
 2341SOL     OW18655   0.679   2.269  16.959 -0.1465  0.7454 -0.3404
 2341SOL    HW118656   0.756   2.325  16.963  0.6322 -0.5055  1.7588
 2341SOL    HW218657   0.705   2.192  17.009  0.6808  0.6985 -0.8547
 2342SOL     OW18658   0.149   0.101   7.939  0.0973 -0.3673 -0.2970
 2342SOL    HW118659   0.181   0.012   7.932  0.7978  0.0412 -2.2496
 2342SOL    HW218660   0.142   0.108   8.034 -1.0227 -1.7784 -0.2715
 2343SOL     OW18661   2.110   0.976   1.221  0.0269 -0.0785  0.2290
 2343SOL    HW118662   2.121   1.067   1.249  1.8575 -0.4137  0.5887
 2343SOL    HW218663   2.090   0.922   1.298  0.2524 -0.9947 -0.3568
 2344SOL     OW18664   0.611   2.545   7.667 -0.1010  0.5883 -0.7429
 2344SOL    HW118665   0.550   2.491   7.716  1.2031 -1.7315 -1.6895
 2344SOL    HW218666   0.628   2.483   7.596  0.4566 -0.8767  0.6731
 2345SOL     OW18667   2.305   3.226   4.757 -0.4228 -0.3265  0.0394
 2345SOL    HW118668   2.213   3.218   4.733 -0.3196  0.5366 -0.6295
 2345SOL    HW218669   2.337   3.258   4.673 -3.6901  0.3139 -0.9597
 2346SOL     OW18670   4.311   3.036  14.465 -0.3369  0.0882 -0.1402
 2346SOL    HW118671   4.325   2.945  14.440 -2.6699 -0.0792 -0.8831
 2346SOL    HW218672   4.326   3.028  14.559  1.1180 -0.5493 -0.4330
 2347SOL     OW18673   4.309   4.000  17.728  0.2723 -0.0800  0.5915
 2347SOL    HW118674   4.317   3.915   0.021 -1.6186 -0.1444  0.8236
 2347SOL    HW218675   4.221   4.024   0.007 -0.2908 -1.5992  0.1412
 2348SOL     OW18676   2.330   2.387   3.171 -0.8467  0.0954  0.1362
 2348SOL    HW118677   2.371   2.356   3.252 -0.6569  1.1186  0.4306
 2348SOL    HW218678   2.377   2.340   3.101 -1.0662  2.5235 -1.6362
 2349SOL     OW18679   2.930   2.749   9.045 -0.2488 -0.0717 -0.0612
 2349SOL    HW118680   2.891   2.804   8.977  2.2964  1.0902 -0.5767
 2349SOL    HW218681   2.863   2.682   9.033 -1.0117  0.7991 -0.7462
 2350SOL     OW18682   4.598   0.893  11.026 -0.7234 -0.0722  0.8501
 2350SOL    HW118683   4.676   0.853  11.065  0.5220  1.1138 -0.4433
 2350SOL    HW218684   4.633   0.980  11.006  2.0363 -1.2380  0.6264
 2351SOL     OW18685   1.750   4.417   8.814  0.1695  0.4185 -0.1028
 2351SOL    HW118686   1.738   4.483   8.746 -1.5600  0.9175  0.6837
 2351SOL    HW218687   1.673   4.426   8.869  1.0968 -1.8597  1.5607
 2352SOL     OW18688   3.689   3.449   4.962 -0.2468 -0.1599  0.3382
 2352SOL    HW118689   3.659   3.478   4.876  1.0790 -3.5117 -1.2125
 2352SOL    HW218690   3.634   3.372   4.973 -1.4530  0.1889 -3.3905
 2353SOL     OW18691   2.572   1.104   2.686  0.2388  0.1620 -0.1923
 2353SOL    HW118692   2.496   1.160   2.700  0.0301  0.0736 -0.9617
 2353SOL    HW218693   2.533   1.055   2.614 -0.7044  1.7913 -0.7848
 2354SOL     OW18694   3.804   3.103   2.932  0.4297  0.6625  0.4194
 2354SOL    HW118695   3.742   3.094   2.860  0.9131  0.2891  0.0488
 2354SOL    HW218696   3.779   3.037   2.997  0.0890 -0.9626 -1.3838
 2355SOL     OW18697   1.728   0.554   0.878 -0.3849  0.4887 -0.2592
 2355SOL    HW118698   1.765   0.472   0.847  1.1063  1.6433 -1.5426
 2355SOL    HW218699   1.672   0.583   0.805 -0.0314 -1.7597 -1.3968
 2356SOL     OW18700   0.788   2.071   5.442 -0.3708 -0.5245  0.0033
 2356SOL    HW118701   0.783   2.072   5.347 -1.4833  0.4516  0.0690
 2356SOL    HW218702   0.719   2.005   5.451  0.0992 -0.7753  1.8615
 2357SOL     OW18703   4.654   1.250  16.662  0.0263  0.3215 -0.0152
 2357SOL    HW118704   4.607   1.203  16.730  1.4515 -2.0632 -0.6675
 2357SOL    HW218705   4.601   1.330  16.663  0.0551  0.2944  2.4773
 2358SOL     OW18706   0.626   0.670  17.523  0.2435  0.3305  0.2523
 2358SOL    HW118707   0.536   0.663  17.554  0.4271 -0.2912  0.6457
 2358SOL    HW218708   0.651   0.578  17.530  0.1534  0.1149 -2.3586
 2359SOL     OW18709   3.586   0.657   5.257  1.2261  0.3824  0.3438
 2359SOL    HW118710   3.590   0.671   5.351  2.7309 -1.0994  0.4968
 2359SOL    HW218711   3.678   0.662   5.232  1.4908  1.9640  1.6756
 2360SOL     OW18712   4.619   2.012   8.361  0.4670 -0.1943 -0.4769
 2360SOL    HW118713   4.578   2.096   8.343  1.2621 -0.3006 -2.7593
 2360SOL    HW218714   4.647   1.977   8.277 -1.7240  1.0348 -1.7070
 2361SOL     OW18715   4.088   4.115   3.820 -0.2953  0.2740  0.0744
 2361SOL    HW118716   4.029   4.083   3.752 -1.6842  1.4428  0.7197
 2361SOL    HW218717   4.126   4.032   3.849 -0.0554  0.0398 -0.9177
 2362SOL     OW18718   1.037   4.174   4.702  0.3915 -0.7237 -0.0550
 2362SOL    HW118719   1.061   4.229   4.627  0.6298 -1.3911 -0.4626
 2362SOL    HW218720   0.957   4.138   4.666 -0.9439 -0.6619  2.8403
 2363SOL     OW18721   3.799   4.257   6.199  0.1648 -0.3009  0.3509
 2363SOL    HW118722   3.890   4.228   6.199  0.4796  0.6353 -1.7660
 2363SOL    HW218723   3.816   4.334   6.144  0.7608  0.2228  1.2738
 2364SOL     OW18724   1.695   1.998  16.079 -0.5155 -0.6471  0.2539
 2364SOL    HW118725   1.654   2.057  16.141  0.4957  1.5779 -1.1873
 2364SOL    HW218726   1.785   2.002  16.112 -0.5160  1.6199 -0.0551
 2365SOL     OW18727   2.873   3.958  17.493  0.4550 -0.1007  0.0926
 2365SOL    HW118728   2.876   3.909  17.411 -0.0068  0.6902 -0.3994
 2365SOL    HW218729   2.828   4.035  17.457  2.4856  1.5153  0.9809
 2366SOL     OW18730   0.170   3.230   5.289  0.2535  0.8981  0.6536
 2366SOL    HW118731   0.141   3.312   5.330 -1.3596  0.7206 -0.1536
 2366SOL    HW218732   0.265   3.243   5.282  0.1485 -0.6771 -3.2168
 2367SOL     OW18733   4.532   4.129   2.187  0.2672  0.6597 -0.2115
 2367SOL    HW118734   4.462   4.098   2.244  1.0462 -0.9799 -0.1413
 2367SOL    HW218735   4.608   4.083   2.223  1.9464  2.0677 -1.9560
 2368SOL     OW18736   1.527   3.153   5.860  0.3907 -0.1278 -0.3449
 2368SOL    HW118737   1.498   3.100   5.786  0.1855  0.6588 -0.8353
 2368SOL    HW218738   1.536   3.242   5.824  2.4213  0.9692  2.8405
 2369SOL     OW18739   3.374   0.294   8.970  0.2744  0.3772  0.2601
 2369SOL    HW118740   3.438   0.287   9.040  0.4045  0.6262  0.1668
 2369SOL    HW218741   3.436   0.293   8.897 -1.3527  1.2032 -1.1252
 2370SOL     OW18742   1.242   4.544  11.587  0.5708 -0.0827  0.1113
 2370SOL    HW118743   1.204   4.478  11.528 -1.4228 -0.3103  1.6627
 2370SOL    HW218744   1.183   4.619  11.597  1.0253  0.3412 -0.3636
 2371SOL     OW18745   3.384   1.842   3.086 -0.4406 -0.0773 -0.1286
 2371SOL    HW118746   3.472   1.821   3.118 -0.3395  0.1194 -0.2770
 2371SOL    HW218747   3.386   1.934   3.060 -2.7686 -0.0278 -0.1826
 2372SOL     OW18748   2.409   1.138   1.334 -0.2423 -0.3025  0.3269
 2372SOL    HW118749   2.380   1.173   1.250 -0.8087 -0.6301  0.3883
 2372SOL    HW218750   2.464   1.214   1.352  0.2480  0.5378 -4.7548
 2373SOL     OW18751   4.158   4.628   8.721  0.6244 -0.1918 -0.2204
 2373SOL    HW118752   4.118   4.654   8.638 -0.1366 -1.6187 -0.3013
 2373SOL    HW218753   4.201   4.710   8.748  1.1182 -0.1310 -1.2149
 2374SOL     OW18754   0.322   4.518  14.976  0.7155 -0.4652 -0.4064
 2374SOL    HW118755   0.277   4.497  15.057 -0.4638  1.8525 -0.4573
 2374SOL    HW218756   0.258   4.491  14.911 -0.7640  0.6360  0.5786
 2375SOL     OW18757   3.145   4.388  10.236  0.0135 -0.1526 -0.3125
 2375SOL    HW118758   3.073   4.449  10.253  1.5061  2.5170 -3.5308
 2375SOL    HW218759   3.211   4.446  10.197  0.3675  0.9356  1.8768
 2376SOL     OW18760   0.306   2.025   5.902  0.5195  0.1619  0.5360
 2376SOL    HW118761   0.350   1.947   5.866 -1.2709 -0.2120 -0.8938
 2376SOL    HW218762   0.380   2.065   5.947 -0.9285  0.7368  2.4042
 2377SOL     OW18763   2.759   1.655  12.873  0.2221 -0.5292 -0.2218
 2377SOL    HW118764   2.844   1.645  12.830  1.4650  0.4371  2.0254
 2377SOL    HW218765   2.770   1.596  12.948 -0.3552  0.7086  0.8487
 2378SOL     OW18766   4.122   1.919  15.960 -0.5426 -0.5215 -0.5708
 2378SOL    HW118767   4.098   1.900  15.869 -1.4714 -0.3246 -0.3699
 2378SOL    HW218768   4.044   1.892  16.008  1.0323 -2.3467  0.9011
 2379SOL     OW18769   2.051   4.403   5.552 -0.3224 -0.5393  0.0070
 2379SOL    HW118770   2.024   4.325   5.504  1.2176  0.0106 -1.7666
 2379SOL    HW218771   2.089   4.368   5.632 -0.3316  0.3990  0.4167
 2380SOL     OW18772   2.151   3.454   3.853 -0.4790 -0.6306  0.1503
 2380SOL    HW118773   2.061   3.429   3.833 -0.6517 -0.8802  1.2432
 2380SOL    HW218774   2.132   3.543   3.882  1.3069 -0.0329 -0.5337
 2381SOL     OW18775   2.114   4.060  10.901 -0.2919  0.3275 -0.1017
 2381SOL    HW118776   2.139   4.010  10.979 -1.9791 -0.3481  0.0197
 2381SOL    HW218777   2.065   4.135  10.936 -2.0108 -0.7628 -0.1461
 2382SOL     OW18778   1.905   0.090   0.801 -0.1035 -0.5231 -0.0081
 2382SOL    HW118779   1.980   0.069   0.746  0.9174  3.8489 -0.2789
 2382SOL    HW218780   1.864   0.004   0.803 -0.3055 -0.3967  1.2258
 2383SOL     OW18781   0.499   3.406  15.260  0.1536  0.3422  0.6054
 2383SOL    HW118782   0.447   3.438  15.333  2.5059  0.3447  2.2739
 2383SOL    HW218783   0.445   3.329  15.245 -0.3090  1.1795 -2.0988
 2384SOL     OW18784   1.636   4.566   8.291  0.0356  0.2360  0.1166
 2384SOL    HW118785   1.583   4.498   8.248  0.4930 -0.5061  0.7244
 2384SOL    HW218786   1.716   4.562   8.238 -0.9559 -3.3917 -1.1671
 2385SOL     OW18787   0.964   1.149  11.615  0.5078 -0.2515  0.6174
 2385SOL    HW118788   0.952   1.198  11.534 -1.2952 -0.3282  0.8572
 2385SOL    HW218789   1.052   1.113  11.603 -0.1332 -1.1584 -1.3125
 2386SOL     OW18790   3.063   0.874   6.216 -0.1828  0.1572  0.3233
 2386SOL    HW118791   3.034   0.960   6.247 -0.9484  0.1761 -0.4530
 2386SOL    HW218792   2.982   0.824   6.208 -0.1184  0.0644  0.2509
 2387SOL     OW18793   2.508   4.524   5.040 -0.2499  0.2084  0.2866
 2387SOL    HW118794   2.553   4.540   4.957 -1.5287 -2.2786 -0.8736
 2387SOL    HW218795   2.587   4.535   5.094 -0.8924 -0.6805  1.4081
 2388SOL     OW18796   4.393   2.230  14.504  0.9013 -0.1479 -0.1988
 2388SOL    HW118797   4.400   2.301  14.567 -1.9821 -1.0132  1.0731
 2388SOL    HW218798   4.314   2.183  14.530 -0.2511  2.1167  0.3822
 2389SOL     OW18799   3.381   2.995   2.606 -0.0590 -0.3085  0.6394
 2389SOL    HW118800   3.369   2.916   2.553  0.5738  2.4827 -3.6618
 2389SOL    HW218801   3.333   3.058   2.552  1.1897  0.4700  0.4311
 2390SOL     OW18802   2.589   0.622   4.491  0.0624 -0.3060 -0.3286
 2390SOL    HW118803   2.533   0.639   4.415 -0.7340  0.9720  0.5480
 2390SOL    HW218804   2.678   0.621   4.457  0.5528 -1.1673  0.9915
 2391SOL     OW18805   2.183   1.500   6.579 -0.0011 -0.0443  0.1390
 2391SOL    HW118806   2.131   1.439   6.526 -1.9770  2.3513 -0.6658
 2391SOL    HW218807   2.256   1.442   6.602 -0.4183  0.1955  2.0796
 2392SOL     OW18808   3.856   4.427   8.344 -0.2414  0.3464 -0.1153
 2392SOL    HW118809   3.883   4.358   8.405 -0.6518  1.2834  1.1420
 2392SOL    HW218810   3.822   4.384   8.266 -2.1665  1.1379  0.2933
 2393SOL     OW18811   4.634   0.349  17.089  0.1844 -0.0254 -0.2057
 2393SOL    HW118812   4.636   0.256  17.070  0.2550 -0.4476  1.8906
 2393SOL    HW218813   4.567   0.375  17.025 -0.6995 -1.2682  0.2095
 2394SOL     OW18814   1.172   4.651   8.195  0.5903  0.5143  0.1451
 2394SOL    HW118815   1.080   4.675   8.199  0.5239  0.2898 -0.0298
 2394SOL    HW218816   1.182   4.653   8.290  1.0984  2.4592  0.0431
 2395SOL     OW18817   4.202   4.677   2.630  0.0709 -0.0441  0.1605
 2395SOL    HW118818   4.146   4.718   2.697  0.0135  0.9995 -0.5279
 2395SOL    HW218819   4.142   4.636   2.568  0.1999 -0.6316  0.4231
 2396SOL     OW18820   1.936   1.963   3.782 -0.5813 -0.1153 -0.7661
 2396SOL    HW118821   1.897   2.028   3.841  1.5188 -0.1907  0.7254
 2396SOL    HW218822   1.913   2.001   3.697  2.5752  1.3074 -0.9741
 2397SOL     OW18823   3.368   3.887   8.171  0.3339 -0.1880  0.5480
 2397SOL    HW118824   3.410   3.910   8.088  0.0384  0.1238  0.4831
 2397SOL    HW218825   3.442   3.874   8.230  0.0789  0.3877  0.9928
 2398SOL     OW18826   2.258   0.802   7.488 -0.4254  0.1126  0.2027
 2398SOL    HW118827   2.167   0.771   7.489 -0.9701  1.6782 -0.1572
 2398SOL    HW218828   2.301   0.739   7.431 -3.6420  0.4764 -2.6265
 2399SOL     OW18829   0.428   3.959  17.000 -0.2780 -0.5301  0.1805
 2399SOL    HW118830   0.437   4.021  16.928 -0.6943 -0.1450  0.4584
 2399SOL    HW218831   0.482   3.884  16.975 -0.4692 -0.8581  0.7361
 2400SOL     OW18832   0.317   2.732   8.776 -0.5435  0.1019  0.5551
 2400SOL    HW118833   0.373   2.766   8.846  0.1380 -0.5927  0.3514
 2400SOL    HW218834   0.309   2.642   8.808  0.9605 -0.3456 -0.3096
 2401SOL     OW18835   4.248   2.162   4.620  0.2360 -0.2457  0.1709
 2401SOL    HW118836   4.175   2.212   4.584  2.1507  3.0616  0.9096
 2401SOL    HW218837   4.198   2.088   4.654 -0.7999 -0.2854 -1.4976
 2402SOL     OW18838   3.039   0.183   6.377  0.2551  0.7821 -0.0034
 2402SOL    HW118839   3.022   0.259   6.321 -1.6941  0.1740 -0.2326
 2402SOL    HW218840   2.989   0.208   6.454 -1.7953  2.0276 -1.7690
 2403SOL     OW18841   2.941   0.316   2.550  0.4805 -0.5489 -0.1304
 2403SOL    HW118842   2.889   0.358   2.482 -1.0641  1.6449  2.3650
 2403SOL    HW218843   2.934   0.374   2.626  2.1603  1.1594 -1.2941
 2404SOL     OW18844   0.011   4.664   4.221 -0.7912  0.0123 -0.1893
 2404SOL    HW118845   0.072   4.662   4.147 -2.3771 -0.6099 -1.4846
 2404SOL    HW218846   4.666   4.688   4.180 -0.4363 -0.9915 -1.5131
 2405SOL     OW18847   4.173   2.451   7.711 -0.1178 -0.7662 -0.4863
 2405SOL    HW118848   4.184   2.435   7.618  0.9125  1.4895 -0.7660
 2405SOL    HW218849   4.266   2.467   7.731 -0.5710  1.1521  0.0553
 2406SOL     OW18850   1.974   3.877   6.093  0.3421  0.1180  0.5394
 2406SOL    HW118851   2.030   3.803   6.068  1.4353  1.8564 -2.1522
 2406SOL    HW218852   1.979   3.864   6.187 -0.7576  1.4175  0.7841
 2407SOL     OW18853   2.401   1.727   0.858  0.4626 -0.4681  0.4848
 2407SOL    HW118854   2.360   1.810   0.832 -0.4727 -1.2028 -0.3902
 2407SOL    HW218855   2.443   1.709   0.774  0.4262  0.0280  0.3553
 2408SOL     OW18856   3.809   1.324   8.933  0.0668 -0.1002  0.2310
 2408SOL    HW118857   3.765   1.272   9.001  0.5787 -1.1249 -0.2161
 2408SOL    HW218858   3.732   1.363   8.891 -0.7068 -0.6367  1.1452
 2409SOL     OW18859   1.599   3.812   4.627  0.2654  0.3543  0.6967
 2409SOL    HW118860   1.557   3.727   4.639  1.7183 -0.7128 -1.5482
 2409SOL    HW218861   1.670   3.801   4.563  1.9551 -1.1233  2.8183
 2410SOL     OW18862   1.612   2.651   9.557  0.2810 -0.1682  0.1613
 2410SOL    HW118863   1.603   2.606   9.640  1.7956 -1.2285 -0.2548
 2410SOL    HW218864   1.702   2.682   9.552 -0.6561  2.4255 -0.7823
 2411SOL     OW18865   0.769   0.522   8.087  0.0590 -0.2722 -0.6576
 2411SOL    HW118866   0.689   0.574   8.091 -1.2107 -2.0173 -3.5141
 2411SOL    HW218867   0.794   0.552   7.999  0.7471 -2.0818 -1.0830
 2412SOL     OW18868   0.605   1.520   5.360 -0.5590 -0.0804  0.1093
 2412SOL    HW118869   0.614   1.529   5.455  0.8365 -0.9381  0.0578
 2412SOL    HW218870   0.510   1.526   5.349 -0.4152  2.0414  0.0959
 2413SOL     OW18871   1.632   2.881   1.717 -0.0869 -0.5525  0.7323
 2413SOL    HW118872   1.624   2.890   1.623 -1.2468 -1.2113  0.7614
 2413SOL    HW218873   1.546   2.911   1.748 -0.2996 -0.8719  0.4465
 2414SOL     OW18874   2.009   4.083   4.080  0.1057  0.3904  0.3899
 2414SOL    HW118875   1.951   4.047   4.013  0.1174 -0.1661  0.6796
 2414SOL    HW218876   2.006   4.020   4.152  0.7065 -1.3170 -1.0607
 2415SOL     OW18877   2.775   3.717   5.728 -0.3456  0.3296 -0.0979
 2415SOL    HW118878   2.838   3.653   5.761  1.3281  2.3466  0.6249
 2415SOL    HW218879   2.697   3.685   5.773 -0.4997 -1.2707 -1.5410
 2416SOL     OW18880   2.723   1.875   4.288  0.5483  0.2526  0.5665
 2416SOL    HW118881   2.781   1.933   4.338 -1.1853  1.5149  1.0987
 2416SOL    HW218882   2.635   1.912   4.298  1.1844  1.0121  3.3733
 2417SOL     OW18883   0.757   1.744   5.034 -0.5200  0.0062  0.0417
 2417SOL    HW118884   0.694   1.676   5.055 -1.1802  0.5271 -0.2680
 2417SOL    HW218885   0.701   1.795   4.976  0.2589  0.8219 -0.0002
 2418SOL     OW18886   3.217   3.264  13.148 -0.2023  0.1911  0.3481
 2418SOL    HW118887   3.143   3.313  13.181  0.3252 -0.2236  2.1277
 2418SOL    HW218888   3.225   3.197  13.216 -0.2599  1.7792  1.8866
 2419SOL     OW18889   3.939   2.792   8.081 -0.4848 -0.9056 -0.1986
 2419SOL    HW118890   3.953   2.714   8.027  0.1596 -1.7026  1.1016
 2419SOL    HW218891   3.920   2.757   8.168  0.7021 -1.4646 -0.1599
 2420SOL     OW18892   2.371   1.070   4.880  0.1284 -0.2127  0.3360
 2420SOL    HW118893   2.457   1.076   4.922 -0.2597  2.3408  0.7905
 2420SOL    HW218894   2.334   0.993   4.924  1.0778 -0.0092  1.4770
 2421SOL     OW18895   4.421   2.809  14.422 -0.2903 -0.3546 -0.1774
 2421SOL    HW118896   4.423   2.718  14.394  2.9562 -0.5407  0.6661
 2421SOL    HW218897   4.511   2.825  14.451 -0.7471 -1.8413  2.0563
 2422SOL     OW18898   0.204   1.113   7.901 -0.1182 -0.0037  0.8867
 2422SOL    HW118899   0.113   1.094   7.877  0.5515 -2.0241 -0.0693
 2422SOL    HW218900   0.210   1.044   7.967 -2.3193 -1.9488 -0.9207
 2423SOL     OW18901   0.898   3.395   5.324 -0.8140  0.4245  0.1589
 2423SOL    HW118902   0.987   3.419   5.350  0.0346 -0.7113 -1.6957
 2423SOL    HW218903   0.865   3.465   5.267 -1.5674  0.1885  0.3100
 2424SOL     OW18904   4.139   2.095   2.176 -0.0301  0.1312  0.4576
 2424SOL    HW118905   4.208   2.069   2.238  1.5890  0.0004 -1.4089
 2424SOL    HW218906   4.091   2.016   2.152 -1.0619  0.4928  1.3403
 2425SOL     OW18907   4.560   3.825   8.579  0.9919 -0.1126 -0.2137
 2425SOL    HW118908   4.485   3.859   8.627  0.8238  1.1766 -1.3772
 2425SOL    HW218909   4.515   3.744   8.557  0.1086  0.4179 -0.3463
 2426SOL     OW18910   3.410   4.156  15.765 -0.5331  0.4780  0.8342
 2426SOL    HW118911   3.402   4.063  15.744 -0.7895  0.6977 -0.0219
 2426SOL    HW218912   3.350   4.204  15.709  1.2029  1.1314 -0.4780
 2427SOL     OW18913   0.548   0.417   5.859 -0.1752 -0.1555 -0.3185
 2427SOL    HW118914   0.619   0.357   5.880  1.5165  1.9739  0.1456
 2427SOL    HW218915   0.491   0.356   5.813  0.0454 -0.4799 -0.1640
 2428SOL     OW18916   4.017   3.457   5.642 -0.0880  0.7252 -0.3903
 2428SOL    HW118917   4.099   3.504   5.654  0.1874 -0.7848  3.9987
 2428SOL    HW218918   3.952   3.527   5.632  1.5770  1.8916 -2.8392
 2429SOL     OW18919   0.485   4.410   2.911 -0.1583 -0.4820 -0.0555
 2429SOL    HW118920   0.398   4.404   2.950  0.2068 -0.5489  0.7467
 2429SOL    HW218921   0.537   4.350   2.965  0.3356  0.6918  0.7691
 2430SOL     OW18922   3.223   2.782   1.792  0.0978 -0.4046 -0.3035
 2430SOL    HW118923   3.220   2.769   1.887  0.7136 -0.8439 -0.3445
 2430SOL    HW218924   3.258   2.869   1.774 -0.2388 -0.0816  0.5836
 2431SOL     OW18925   3.582   3.573   3.584  0.2330 -0.2246  0.3381
 2431SOL    HW118926   3.525   3.647   3.562  0.0172 -1.2306 -2.4988
 2431SOL    HW218927   3.617   3.549   3.498 -1.4306 -3.5050  0.5729
 2432SOL     OW18928   3.583   2.359  16.124 -0.3130  0.1476  0.9164
 2432SOL    HW118929   3.596   2.437  16.071  1.3638 -0.3279  0.6443
 2432SOL    HW218930   3.536   2.399  16.197 -2.2541 -2.1718  0.9568
 2433SOL     OW18931   4.326   2.985   6.514 -0.2433 -0.5008 -0.3700
 2433SOL    HW118932   4.387   2.929   6.562 -0.8439 -0.5431  0.3478
 2433SOL    HW218933   4.260   2.975   6.583  0.0406 -0.4436 -0.0911
 2434SOL     OW18934   1.364   2.972   6.401 -0.2701 -1.1902 -0.4303
 2434SOL    HW118935   1.436   2.946   6.343  2.2334  0.6070  1.8456
 2434SOL    HW218936   1.343   2.887   6.439 -2.0549 -0.0288  1.2073
 2435SOL     OW18937   1.003   0.034  11.478  0.3308 -0.2646  0.0839
 2435SOL    HW118938   1.006   0.052  11.572  0.2786 -0.6766  0.1633
 2435SOL    HW218939   1.078   0.073  11.434  1.1006 -0.4811  1.2296
 2436SOL     OW18940   2.978   2.871   6.221  0.2145  0.2571  0.2227
 2436SOL    HW118941   3.039   2.939   6.192 -1.8823  2.7882  1.7665
 2436SOL    HW218942   2.975   2.878   6.316 -0.2365  1.4393  0.1224
 2437SOL     OW18943   1.484   2.937  11.271 -0.7284 -0.4813 -0.0052
 2437SOL    HW118944   1.532   3.018  11.256 -0.1789 -0.3729  2.3942
 2437SOL    HW218945   1.506   2.881  11.196 -0.5865 -1.3883  0.7099
 2438SOL     OW18946   1.252   3.920   9.971  0.0316  0.0494  0.2499
 2438SOL    HW118947   1.340   3.949   9.992  0.2423 -0.9412  0.7531
 2438SOL    HW218948   1.263   3.826   9.988 -2.5232 -0.4801 -0.8789
 2439SOL     OW18949   0.982   1.903  14.766 -0.3824  0.6492  0.3825
 2439SOL    HW118950   0.991   1.906  14.861  0.3258  2.8947  0.2621
 2439SOL    HW218951   1.017   1.817  14.741  1.9189  0.7500  3.1229
 2440SOL     OW18952   3.678   1.261   2.453  0.2285  0.2291 -0.0247
 2440SOL    HW118953   3.645   1.301   2.373  1.8064  0.4156 -0.5883
 2440SOL    HW218954   3.708   1.335   2.506  0.8853  0.8355 -1.2396
 2441SOL     OW18955   0.767   0.659   5.972  0.4209  0.5084  0.0006
 2441SOL    HW118956   0.712   0.603   5.918  0.6050  1.3320 -1.0492
 2441SOL    HW218957   0.692   0.680   6.029 -0.5539 -1.1714 -0.6823
 2442SOL     OW18958   1.798   0.488   1.613 -0.3498 -0.7463  0.4070
 2442SOL    HW118959   1.892   0.479   1.631 -0.2236  1.5417  0.9139
 2442SOL    HW218960   1.795   0.481   1.518  3.5673  1.5834  0.1051
 2443SOL     OW18961   2.275   1.160  13.156 -0.0390  0.3469  0.5293
 2443SOL    HW118962   2.269   1.256  13.152 -1.1920  0.3004  1.0947
 2443SOL    HW218963   2.185   1.137  13.135  0.2911 -2.3161  2.0277
 2444SOL     OW18964   4.393   2.394   3.107  0.0182 -0.3108  0.5684
 2444SOL    HW118965   4.402   2.438   3.022 -1.8140  0.6147  0.8531
 2444SOL    HW218966   4.382   2.482   3.145 -0.6786  0.2832 -0.9825
 2445SOL     OW18967   4.257   0.957   9.741  0.3360  0.4065 -0.7323
 2445SOL    HW118968   4.174   0.909   9.742  1.2335 -1.1262 -0.3277
 2445SOL    HW218969   4.262   0.989   9.831 -1.3875 -1.5471  0.0458
 2446SOL     OW18970   1.610   0.918   2.791  0.9965 -0.3272  0.2684
 2446SOL    HW118971   1.619   0.978   2.866 -0.8982  0.5418 -0.2149
 2446SOL    HW218972   1.692   0.937   2.746  1.3785 -0.8334  0.7537
 2447SOL     OW18973   1.363   0.645   6.719 -0.2800  0.2651 -0.1177
 2447SOL    HW118974   1.274   0.678   6.706 -0.4588 -0.1095  0.1482
 2447SOL    HW218975   1.408   0.729   6.733 -0.6332  0.2101  1.3766
 2448SOL     OW18976   1.732   1.328   3.079  0.0085  0.1443  0.3703
 2448SOL    HW118977   1.739   1.407   3.027 -0.7747  0.2809  0.4703
 2448SOL    HW218978   1.804   1.279   3.039  1.0810  1.6724  0.4338
 2449SOL     OW18979   0.602   0.707   6.788 -0.6732 -0.1185 -0.0653
 2449SOL    HW118980   0.619   0.786   6.737 -5.0442  1.8011  1.4510
 2449SOL    HW218981   0.623   0.641   6.723 -1.4079 -0.8824  0.4741
 2450SOL     OW18982   2.677   3.460  16.321 -0.1798  0.3832  0.0975
 2450SOL    HW118983   2.590   3.454  16.282  0.8254  0.7302 -2.2266
 2450SOL    HW218984   2.697   3.400  16.393 -0.2099 -0.0220 -0.2297
 2451SOL     OW18985   0.485   1.762   9.410 -0.0678 -0.0513 -0.0731
 2451SOL    HW118986   0.525   1.687   9.366 -1.7974 -0.4406 -0.9715
 2451SOL    HW218987   0.508   1.738   9.500 -3.2705 -0.5833  0.5893
 2452SOL     OW18988   4.442   1.201   7.101  0.2755  0.3695  0.3417
 2452SOL    HW118989   4.481   1.214   7.014 -0.1237  3.0952  0.5878
 2452SOL    HW218990   4.388   1.122   7.097 -0.6151  1.1156 -2.5702
 2453SOL     OW18991   3.461   2.973   4.193  0.9795  0.0313 -0.1238
 2453SOL    HW118992   3.394   2.907   4.211  0.8692  0.6532  1.7374
 2453SOL    HW218993   3.541   2.924   4.175  1.5641  1.5102 -1.5733
 2454SOL     OW18994   2.615   1.761  14.484 -0.1671  0.3122 -0.0182
 2454SOL    HW118995   2.642   1.852  14.498  1.1698 -0.1270  0.3140
 2454SOL    HW218996   2.521   1.770  14.495 -0.2832  0.7203 -1.4292
 2455SOL     OW18997   1.931   3.266   9.110  0.5749  0.1723 -0.0604
 2455SOL    HW118998   2.018   3.307   9.110  0.8850 -0.4867 -0.6007
 2455SOL    HW218999   1.910   3.273   9.204 -3.2401  1.4472 -1.0286
 2456SOL     OW19000   1.221   4.422   5.489 -0.0116 -0.7105  0.3289
 2456SOL    HW119001   1.174   4.501   5.463 -0.6517 -1.2405 -0.1135
 2456SOL    HW219002   1.156   4.356   5.467 -0.4406 -1.0418  2.5609
 2457SOL     OW19003   4.334   1.981   7.127  0.0291  0.1228  0.1582
 2457SOL    HW119004   4.355   1.890   7.107 -0.1290  0.3756 -1.1667
 2457SOL    HW219005   4.299   2.005   7.041 -0.5353  3.7909  1.4215
 2458SOL     OW19006   3.846   2.098   2.972  0.6011  0.1764  0.1709
 2458SOL    HW119007   3.940   2.100   2.990  0.2926  1.6691  1.6383
 2458SOL    HW219008   3.810   2.067   3.055 -0.1671  0.6667  0.0179
 2459SOL     OW19009   4.266   0.277   5.203 -0.5196  0.2431 -0.0813
 2459SOL    HW119010   4.234   0.335   5.134  2.7588  1.7073 -0.3664
 2459SOL    HW219011   4.224   0.312   5.281  0.4939  0.3716  0.4025
 2460SOL     OW19012   4.641   3.631   3.509  0.3611 -0.0308 -0.5327
 2460SOL    HW119013   4.552   3.596   3.502  0.1598  0.8551 -2.2663
 2460SOL    HW219014   4.636   3.727   3.507  0.2834  0.0020  0.7830
 2461SOL     OW19015   0.987   0.117   2.164  0.1409  0.0200  0.3836
 2461SOL    HW119016   1.063   0.164   2.129 -0.8817  1.5911  0.2667
 2461SOL    HW219017   1.010   0.040   2.113  0.5635  0.1520  0.3740
 2462SOL     OW19018   3.138   3.978   2.988  0.0706  0.0736 -0.6015
 2462SOL    HW119019   3.072   3.922   3.030 -1.5720  0.3840 -2.7796
 2462SOL    HW219020   3.091   4.061   2.988  1.8236  1.0359  3.3528
 2463SOL     OW19021   1.836   4.557   3.927  0.5414  0.1637  0.0214
 2463SOL    HW119022   1.800   4.472   3.953 -3.6927  1.3874 -1.7879
 2463SOL    HW219023   1.890   4.571   4.004 -2.0870 -1.3713  2.1567
 2464SOL     OW19024   0.728   2.070   7.604  0.3604 -0.6255  0.0456
 2464SOL    HW119025   0.704   2.027   7.522 -0.4814  1.0029 -0.5704
 2464SOL    HW219026   0.700   2.013   7.676  0.0683  1.0369  1.2819
 2465SOL     OW19027   4.553   4.139   3.939  0.2934 -0.0242 -0.0374
 2465SOL    HW119028   4.605   4.208   3.896 -0.3796  1.1176  0.9866
 2465SOL    HW219029   4.472   4.188   3.951  1.5700  1.7063  1.4821
 2466SOL     OW19030   0.811   3.604  13.244 -0.0357  0.1148  0.2097
 2466SOL    HW119031   0.750   3.548  13.292 -2.1832  0.9820 -1.5239
 2466SOL    HW219032   0.790   3.582  13.153  0.3573  1.5193 -0.2228
 2467SOL     OW19033   2.833   3.152  14.580 -0.1181  0.0480  0.4381
 2467SOL    HW119034   2.923   3.124  14.564  0.5204  0.0222  4.1071
 2467SOL    HW219035   2.849   3.213  14.652  0.3656  0.2859  0.1285
 2468SOL     OW19036   4.294   2.600   5.854  0.0317 -0.0918  0.0824
 2468SOL    HW119037   4.268   2.650   5.777 -0.5390  0.3597  0.5683
 2468SOL    HW219038   4.272   2.510   5.829  0.9211  0.0594 -1.2259
 2469SOL     OW19039   2.076   1.560   6.240 -0.3566  0.5157  0.0531
 2469SOL    HW119040   2.156   1.551   6.292 -0.3853  0.3847  0.0742
 2469SOL    HW219041   2.104   1.521   6.156 -2.5466  0.1954 -0.5191
 2470SOL     OW19042   3.361   4.048   5.769  0.5391  0.4833 -0.0194
 2470SOL    HW119043   3.292   4.022   5.709  1.9210  1.3052 -1.9684
 2470SOL    HW219044   3.432   4.075   5.710  1.4135 -3.1502 -0.5967
 2471SOL     OW19045   0.256   0.479   9.682 -1.1461  0.0886 -0.4599
 2471SOL    HW119046   0.312   0.407   9.712 -0.8200  0.0466 -1.1775
 2471SOL    HW219047   0.311   0.529   9.621  0.3071  1.7223  2.1681
 2472SOL     OW19048   2.484   3.732   7.787 -0.1329  0.3503  0.0508
 2472SOL    HW119049   2.402   3.682   7.782  0.5635 -0.6093 -2.0577
 2472SOL    HW219050   2.518   3.717   7.875  0.9435 -0.1678 -0.4428
 2473SOL     OW19051   4.435   0.381  16.603  0.1122  0.8511  0.5360
 2473SOL    HW119052   4.519   0.404  16.563 -0.5422 -1.1786 -2.0265
 2473SOL    HW219053   4.371   0.441  16.563 -1.1335  0.0706  1.3574
 2474SOL     OW19054   1.663   1.731   7.906 -0.1971 -0.0767 -0.3078
 2474SOL    HW119055   1.609   1.758   7.833  0.8704 -0.0557 -1.0951
 2474SOL    HW219056   1.751   1.748   7.872 -0.0613  1.4748  0.8242
 2475SOL     OW19057   2.041   4.167   5.320 -0.0545 -0.0975  0.2612
 2475SOL    HW119058   2.066   4.077   5.302 -1.6755 -0.0472 -2.2024
 2475SOL    HW219059   2.092   4.216   5.254 -0.5807  2.1108  1.4791
 2476SOL     OW19060   1.184   0.991  11.548  0.3612  0.2906  1.0984
 2476SOL    HW119061   1.275   1.014  11.531  0.6632  1.2906  4.1823
 2476SOL    HW219062   1.141   1.008  11.464  1.9482 -3.4499 -0.4494
 2477SOL     OW19063   0.307   4.256  14.341 -0.5275  0.1093 -0.4907
 2477SOL    HW119064   0.280   4.301  14.421  0.5765 -0.8341  0.4216
 2477SOL    HW219065   0.317   4.167  14.375 -1.6164  0.4673  0.7961
 2478SOL     OW19066   0.862   0.593  13.255 -0.0760 -0.1374  0.3047
 2478SOL    HW119067   0.844   0.499  13.255  0.6608 -0.2741 -0.5168
 2478SOL    HW219068   0.814   0.615  13.335  1.7047  2.2809  0.7191
 2479SOL     OW19069   4.645   1.460  10.948  0.3769 -0.4878 -0.6785
 2479SOL    HW119070   4.710   1.471  10.880 -1.4365 -1.0634 -2.4989
 2479SOL    HW219071   4.594   1.538  10.926  1.8502 -0.0189 -2.4140
 2480SOL     OW19072   4.611   1.203   4.716 -0.0773  0.0792  0.2704
 2480SOL    HW119073   4.531   1.206   4.768 -0.6306  1.2907 -0.6430
 2480SOL    HW219074   4.648   1.290   4.734  3.0013 -0.7902 -1.8404
 2481SOL     OW19075   3.643   2.928   5.931 -0.1163  0.0259 -0.3961
 2481SOL    HW119076   3.573   2.901   5.872 -0.3605  2.8309 -1.3942
 2481SOL    HW219077   3.625   2.870   6.005  1.1866 -0.0767 -0.1629
 2482SOL     OW19078   2.447   2.200   7.024 -0.5066 -0.6352  0.4262
 2482SOL    HW119079   2.502   2.145   7.079 -2.4277 -2.9447  0.0278
 2482SOL    HW219080   2.479   2.282   7.064  0.0917 -1.0830  0.8663
 2483SOL     OW19081   2.882   2.877   9.397  0.2443 -0.5495  0.0634
 2483SOL    HW119082   2.868   2.886   9.491  1.4781  1.8194  0.0243
 2483SOL    HW219083   2.971   2.913   9.393  0.3019 -0.4478  2.2809
 2484SOL     OW19084   1.471   0.908   0.851 -0.8176 -0.1789  0.2304
 2484SOL    HW119085   1.436   0.852   0.921  3.7307 -2.3952  0.7375
 2484SOL    HW219086   1.391   0.955   0.826 -0.5369  1.6367  2.7260
 2485SOL     OW19087   2.156   0.736   9.239  0.4294 -0.2734  0.3857
 2485SOL    HW119088   2.187   0.826   9.243 -1.0203  0.2356  0.2075
 2485SOL    HW219089   2.065   0.733   9.269  0.6693 -2.7228  0.8692
 2486SOL     OW19090   1.935   4.397  14.806  0.0881  0.3922  0.2871
 2486SOL    HW119091   1.935   4.478  14.857 -1.1707  0.5895 -0.0394
 2486SOL    HW219092   2.018   4.393  14.759  1.4362 -1.1848  2.8163
 2487SOL     OW19093   2.968   0.974  13.816 -0.4027  0.3284  0.2128
 2487SOL    HW119094   2.956   1.056  13.863 -1.3991  1.2776 -1.7072
 2487SOL    HW219095   2.960   0.913  13.890  0.5124 -1.0209 -0.7999
 2488SOL     OW19096   1.580   1.857   6.569 -0.2361 -0.5123  0.1605
 2488SOL    HW119097   1.552   1.783   6.515  0.0362  0.6881 -1.6322
 2488SOL    HW219098   1.657   1.819   6.611 -1.7188 -0.7405  2.6689
 2489SOL     OW19099   0.156   3.174   1.233 -0.4434  0.6267  0.2562
 2489SOL    HW119100   0.153   3.175   1.137 -0.6892 -0.9686  0.2522
 2489SOL    HW219101   0.068   3.145   1.254 -0.1211  1.0568  2.1836
 2490SOL     OW19102   0.069   4.358   5.329 -0.3142 -0.0819  0.0553
 2490SOL    HW119103   4.712   4.365   5.325 -0.4821 -2.0258  0.9099
 2490SOL    HW219104   0.079   4.409   5.410 -0.2204 -1.5502  0.9564
 2491SOL     OW19105   2.172   0.566   3.828  0.1932  0.3811  0.2576
 2491SOL    HW119106   2.085   0.543   3.863  0.0433 -0.1010 -0.4336
 2491SOL    HW219107   2.167   0.655   3.863  1.5177  0.0261  1.2965
 2492SOL     OW19108   2.058   3.929  16.299  0.0616 -0.0072  0.0692
 2492SOL    HW119109   1.979   3.885  16.332  1.1936 -1.3049  1.0247
 2492SOL    HW219110   2.100   3.930  16.385 -1.7724  2.8223  0.9483
 2493SOL     OW19111   3.281   2.280  16.017  0.3620  0.0161 -0.6153
 2493SOL    HW119112   3.271   2.197  16.064  3.1787  0.5739  0.9506
 2493SOL    HW219113   3.368   2.307  16.046 -0.2547  0.2507  0.9961
 2494SOL     OW19114   1.258   0.553  11.332  0.0391 -0.0670 -0.1923
 2494SOL    HW119115   1.246   0.480  11.392 -0.7877 -1.7688 -2.4200
 2494SOL    HW219116   1.309   0.511  11.263 -0.5914 -0.0189 -0.6882
 2495SOL     OW19117   3.392   4.476   5.811 -0.3241  0.3153  0.5370
 2495SOL    HW119118   3.324   4.454   5.875  1.5796 -2.4637  1.6390
 2495SOL    HW219119   3.352   4.447   5.729  0.0915 -0.3177  0.5563
 2496SOL     OW19120   4.055   3.871   9.939 -0.6748  0.1682 -0.3637
 2496SOL    HW119121   3.987   3.807   9.916 -1.4719  0.9603 -0.1995
 2496SOL    HW219122   4.006   3.950   9.915  0.7845  0.8784 -0.9556
 2497SOL     OW19123   4.266   0.622   8.380 -0.0621 -0.6820 -0.3490
 2497SOL    HW119124   4.352   0.650   8.409 -0.5776  1.1573 -0.6075
 2497SOL    HW219125   4.242   0.542   8.426  0.0421 -0.4597  0.0898
 2498SOL     OW19126   4.277   3.337  10.266 -0.3619 -0.1267 -0.0691
 2498SOL    HW119127   4.274   3.249  10.305  3.5834  0.9424  2.6334
 2498SOL    HW219128   4.368   3.361  10.250 -0.3970 -0.0338 -0.1293
 2499SOL     OW19129   1.290   2.896  12.597 -0.0409 -0.1537  0.6451
 2499SOL    HW119130   1.283   2.923  12.689  2.2061 -1.0651  1.1067
 2499SOL    HW219131   1.352   2.957  12.557 -0.2871 -0.8591 -0.7888
 2500SOL     OW19132   0.752   0.394   5.578  0.1649  0.1772  0.1396
 2500SOL    HW119133   0.838   0.354   5.591 -0.1456 -1.0346 -1.6389
 2500SOL    HW219134   0.698   0.317   5.594  1.1765 -0.0731  2.3409
 2501SOL     OW19135   0.597   0.789  14.525 -0.1319  0.0689 -0.3307
 2501SOL    HW119136   0.563   0.863  14.475 -0.4453 -0.1193 -0.3979
 2501SOL    HW219137   0.541   0.719  14.490  0.4798 -1.3399  1.4523
 2502SOL     OW19138   2.185   2.097   3.946  0.3620 -0.0515 -0.2819
 2502SOL    HW119139   2.185   2.077   4.039 -0.4439 -2.5183 -0.8049
 2502SOL    HW219140   2.100   2.060   3.925 -0.1631  0.9134  0.1464
 2503SOL     OW19141   0.346   3.156   0.163 -0.7382 -0.0068 -0.6826
 2503SOL    HW119142   0.260   3.116   0.150 -0.9630 -0.0473  0.8702
 2503SOL    HW219143   0.397   3.074   0.164  0.3430  0.6542 -1.3613
 2504SOL     OW19144   0.614   4.238   6.409  0.4572 -1.0218 -0.5456
 2504SOL    HW119145   0.621   4.325   6.370  0.4902 -0.1169  1.4955
 2504SOL    HW219146   0.535   4.197   6.375  0.0065 -1.0449  0.5583
 2505SOL     OW19147   4.371   0.023  12.129 -0.1406 -0.2632  0.0608
 2505SOL    HW119148   4.403   0.110  12.103  0.0654 -0.9414 -1.9762
 2505SOL    HW219149   4.276   0.026  12.133 -0.0277  4.7830 -0.5834
 2506SOL     OW19150   0.521   4.613   5.824 -0.2120 -0.7668  0.1149
 2506SOL    HW119151   0.484   4.655   5.901  0.8842 -0.4361  0.4609
 2506SOL    HW219152   0.447   4.571   5.781 -1.3624  1.8441 -0.5085
 2507SOL     OW19153   3.200   4.286  16.773 -0.2492 -0.2033  0.0998
 2507SOL    HW119154   3.218   4.245  16.857 -0.5337 -1.2712 -0.3567
 2507SOL    HW219155   3.128   4.346  16.793  0.6880  0.3615  1.7940
 2508SOL     OW19156   2.027   4.076   9.085 -0.1291 -0.0285 -0.0470
 2508SOL    HW119157   2.009   4.083   9.179 -0.4859  0.5119 -0.1517
 2508SOL    HW219158   2.121   4.091   9.087 -0.3312  1.2461 -0.0793
 2509SOL     OW19159   2.744   0.447   0.977 -0.2988  0.2354 -0.3043
 2509SOL    HW119160   2.839   0.440   0.981 -0.3612 -0.1946  0.3410
 2509SOL    HW219161   2.712   0.413   0.893 -0.6956 -1.2183  0.4278
 2510SOL     OW19162   0.618   2.196   0.218  0.1842  0.0199 -0.1269
 2510SOL    HW119163   0.671   2.139   0.161  0.7370 -0.1577  0.5604
 2510SOL    HW219164   0.533   2.176   0.179 -0.2873  1.1662  0.3215
 2511SOL     OW19165   3.566   3.077   2.321 -0.6940  0.0919 -0.2576
 2511SOL    HW119166   3.494   3.047   2.378 -0.7942 -0.6072 -0.7504
 2511SOL    HW219167   3.610   2.995   2.298 -0.6558  0.0024  0.1264
 2512SOL     OW19168   2.908   2.153   8.854 -0.4327  0.2503  0.0492
 2512SOL    HW119169   2.996   2.150   8.889  0.0882  1.9600 -1.1456
 2512SOL    HW219170   2.866   2.126   8.936  0.3673 -1.2862 -0.0415
 2513SOL     OW19171   0.743   0.583   4.839  0.2132 -0.0046  0.2064
 2513SOL    HW119172   0.651   0.606   4.833 -0.1164 -1.0865  1.2269
 2513SOL    HW219173   0.784   0.670   4.849 -0.3128  0.3925 -1.0016
 2514SOL     OW19174   3.418   4.571  13.618  0.1167 -0.4386  0.1444
 2514SOL    HW119175   3.473   4.513  13.566 -2.8973 -0.7608 -2.6844
 2514SOL    HW219176   3.389   4.633  13.551 -2.1290 -0.3969  1.1469
 2515SOL     OW19177   1.778   0.442   2.232 -0.5380  0.3229  0.1196
 2515SOL    HW119178   1.837   0.455   2.158 -0.5110 -1.6240 -0.2143
 2515SOL    HW219179   1.799   0.524   2.276  0.4202  0.2977 -0.2927
 2516SOL     OW19180   3.368   3.878   8.977 -0.1280 -0.3585  0.7322
 2516SOL    HW119181   3.404   3.945   9.035  0.2820 -0.4064  0.5382
 2516SOL    HW219182   3.297   3.850   9.034  0.5299 -1.4307  1.0303
 2517SOL     OW19183   3.996   0.286   8.448  0.2745  0.5907  0.3370
 2517SOL    HW119184   4.012   0.308   8.356  1.6228  0.4496  0.5409
 2517SOL    HW219185   4.059   0.339   8.497  1.6740 -1.3104  0.6060
 2518SOL     OW19186   3.977   1.583  13.683 -0.3507 -0.1235  0.1145
 2518SOL    HW119187   4.071   1.584  13.702  0.1598 -2.0579 -2.1879
 2518SOL    HW219188   3.959   1.498  13.643  0.0486 -0.0266 -0.2799
 2519SOL     OW19189   1.108   3.874   3.031 -0.4417 -0.5494  0.1742
 2519SOL    HW119190   1.056   3.933   3.086 -0.1116 -1.4401  1.4506
 2519SOL    HW219191   1.184   3.927   3.010 -0.8973  0.2096  0.4301
 2520SOL     OW19192   1.629   0.906   6.067  0.2610  0.1998  0.0330
 2520SOL    HW119193   1.578   0.959   6.128  0.3104  0.2504  0.0315
 2520SOL    HW219194   1.703   0.965   6.052  0.2656  0.1357 -0.1965
 2521SOL     OW19195   0.818   4.520   3.984  0.6244  0.5492 -0.1638
 2521SOL    HW119196   0.731   4.480   3.974  1.0646 -1.0429  2.2507
 2521SOL    HW219197   0.852   4.474   3.907 -1.0662  2.1261 -1.8568
 2522SOL     OW19198   2.510   1.581   8.390 -0.0559  0.0131 -0.8070
 2522SOL    HW119199   2.569   1.616   8.456 -1.4023 -0.9373  0.8931
 2522SOL    HW219200   2.436   1.550   8.443 -0.6189  1.2825 -0.8689
 2523SOL     OW19201   0.761   2.947   7.922  0.1707 -0.0883 -0.1653
 2523SOL    HW119202   0.811   2.992   7.990  1.3488 -1.8868  0.1540
 2523SOL    HW219203   0.668   2.959   7.943  0.5277  2.8151 -0.3189
 2524SOL     OW19204   4.441   0.165   3.346 -0.0530 -0.0513  0.2947
 2524SOL    HW119205   4.353   0.173   3.310  0.1610  1.4374  0.0800
 2524SOL    HW219206   4.472   0.077   3.328  2.0379  0.3812  1.6644
 2525SOL     OW19207   3.563   3.275  13.399 -0.5605 -1.0076  0.3067
 2525SOL    HW119208   3.600   3.361  13.376  0.5109 -1.5930 -0.1561
 2525SOL    HW219209   3.478   3.294  13.438 -0.0195  2.1262 -0.0210
 2526SOL     OW19210   0.652   1.445   0.063 -0.2566 -0.3984 -0.0707
 2526SOL    HW119211   0.653   1.399  17.728 -2.3319  1.0599 -0.8914
 2526SOL    HW219212   0.738   1.486   0.057 -0.4533  0.0431  0.0991
 2527SOL     OW19213   2.218   1.127   0.136 -0.0364 -0.1933 -0.3835
 2527SOL    HW119214   2.280   1.074   0.186 -0.3209 -1.1471 -1.0352
 2527SOL    HW219215   2.256   1.147   0.050  0.8286 -0.3736 -0.0397
 2528SOL     OW19216   1.593   0.156   5.433  0.2893  0.0806 -0.5669
 2528SOL    HW119217   1.574   0.248   5.414 -2.1020 -0.3101 -0.0260
 2528SOL    HW219218   1.632   0.146   5.520  0.6871  2.2264 -0.4980
 2529SOL     OW19219   4.437   4.511   2.023 -0.5636  0.1472 -0.3124
 2529SOL    HW119220   4.406   4.584   2.078 -0.9196  1.5064 -2.2963
 2529SOL    HW219221   4.507   4.470   2.073 -0.9596  0.2657  0.3315
 2530SOL     OW19222   2.152   0.721   3.006 -0.6904 -0.2560  0.4007
 2530SOL    HW119223   2.090   0.650   2.990 -0.6817 -0.1465 -0.1133
 2530SOL    HW219224   2.110   0.755   3.086  0.6251 -0.1246  1.0468
 2531SOL     OW19225   0.358   0.350   3.277 -0.3386 -0.5324  0.0836
 2531SOL    HW119226   0.331   0.258   3.280 -2.0853 -0.0562 -0.9445
 2531SOL    HW219227   0.450   0.327   3.262 -0.0510  1.2479 -0.9185
 2532SOL     OW19228   1.474   1.870   3.452 -0.7403 -0.2974 -0.0036
 2532SOL    HW119229   1.410   1.800   3.469 -2.7251  1.3129 -0.8284
 2532SOL    HW219230   1.438   1.946   3.498 -1.0750 -1.3201  1.4289
 2533SOL     OW19231   0.897   2.856   5.985  0.2435  0.1876 -0.3403
 2533SOL    HW119232   0.936   2.859   6.073 -0.6497  1.1411  0.0143
 2533SOL    HW219233   0.949   2.926   5.946  2.3786 -1.7492 -0.9753
 2534SOL     OW19234   3.448   2.877   5.757 -0.2645 -0.2027 -0.5035
 2534SOL    HW119235   3.475   2.881   5.665 -0.0551 -1.7670 -0.5033
 2534SOL    HW219236   3.404   2.794   5.772 -1.0221  0.3333  0.2027
 2535SOL     OW19237   3.143   0.571  13.975 -0.0123 -0.1421 -0.4619
 2535SOL    HW119238   3.214   0.531  14.025 -0.6937  0.7884  1.2375
 2535SOL    HW219239   3.073   0.507  13.984  1.8908 -2.4098 -1.5508
 2536SOL     OW19240   2.294   3.538   6.001 -0.1681 -0.3506 -0.4125
 2536SOL    HW119241   2.340   3.534   5.917  0.7936 -1.1864  0.1699
 2536SOL    HW219242   2.307   3.450   6.035 -0.2792 -0.6542 -1.1512
 2537SOL     OW19243   3.166   0.042   6.970  0.7781 -0.4242 -0.6479
 2537SOL    HW119244   3.191   4.737   6.888 -0.4277 -2.3436 -0.0136
 2537SOL    HW219245   3.221   0.120   6.966 -2.7702  2.1843  1.0397
 2538SOL     OW19246   1.389   4.220   5.365 -0.0853  0.2081 -0.4976
 2538SOL    HW119247   1.445   4.288   5.328  0.3309  1.1633  1.8412
 2538SOL    HW219248   1.309   4.269   5.382 -1.8231 -2.5512 -0.8603
 2539SOL     OW19249   1.410   1.688   8.315  0.2820 -0.0640 -0.3487
 2539SOL    HW119250   1.362   1.771   8.311 -2.1839 -1.5179 -1.2879
 2539SOL    HW219251   1.410   1.683   8.219  2.0058  0.2339 -0.3605
 2540SOL     OW19252   0.536   3.418   3.848 -0.5438 -0.4795 -0.1221
 2540SOL    HW119253   0.622   3.414   3.891 -1.1179  1.3131  1.1774
 2540SOL    HW219254   0.519   3.512   3.855  1.2937 -0.2846  1.7952
 2541SOL     OW19255   0.494   2.263   6.952  0.4726  0.2370 -0.3788
 2541SOL    HW119256   0.583   2.232   6.937  0.7490  0.9987 -0.3502
 2541SOL    HW219257   0.457   2.223   6.873  0.8257 -0.8376  0.0016
 2542SOL     OW19258   3.434   1.384   4.246 -0.0838 -0.4308 -0.3595
 2542SOL    HW119259   3.348   1.354   4.216  0.5564 -2.5066 -0.1264
 2542SOL    HW219260   3.457   1.342   4.329 -0.2544  1.4796  0.6492
 2543SOL     OW19261   2.386   2.761   8.724 -0.5123  0.2153 -0.1892
 2543SOL    HW119262   2.335   2.815   8.785 -1.1200  0.1794 -0.6647
 2543SOL    HW219263   2.314   2.722   8.674 -0.7610  0.4290 -0.0010
 2544SOL     OW19264   0.286   1.067  15.145 -0.2219  0.1319  0.1684
 2544SOL    HW119265   0.196   1.090  15.124 -0.0738 -1.0844 -1.8138
 2544SOL    HW219266   0.325   1.077  15.058  0.2115  1.8401  0.5646
 2545SOL     OW19267   2.954   0.493   4.105 -0.1777 -0.3140  0.7136
 2545SOL    HW119268   2.973   0.514   4.014  2.3281  1.2496  1.5875
 2545SOL    HW219269   2.871   0.445   4.101 -0.0109 -0.4575 -0.9878
 2546SOL     OW19270   0.698   1.526   6.938  0.1434  0.1851 -0.0339
 2546SOL    HW119271   0.655   1.528   6.853 -1.7200 -1.2299  0.8868
 2546SOL    HW219272   0.719   1.435   6.958 -0.2103  0.0248 -0.3862
 2547SOL     OW19273   2.955   1.620   3.379  0.2362 -0.1416  0.1198
 2547SOL    HW119274   2.874   1.573   3.360  2.7988 -4.6990  0.4957
 2547SOL    HW219275   2.921   1.678   3.447  0.2274 -1.6182  1.3835
 2548SOL     OW19276   2.384   4.637  14.322 -0.0354  0.7702  0.0701
 2548SOL    HW119277   2.316   4.573  14.305  1.2090 -0.8011  1.0131
 2548SOL    HW219278   2.439   4.587  14.383 -3.0689 -2.7265 -0.0953
 2549SOL     OW19279   3.491   4.672   5.044  0.4906  0.1030 -0.0681
 2549SOL    HW119280   3.481   4.578   5.060 -0.1502 -0.0795 -1.6034
 2549SOL    HW219281   3.404   4.701   5.072  0.5245  0.9528 -0.8255
 2550SOL     OW19282   3.792   0.164  14.092  0.0147 -0.1398  0.5394
 2550SOL    HW119283   3.867   0.220  14.110  0.8944 -0.4246 -2.1466
 2550SOL    HW219284   3.830   0.076  14.095 -0.2502 -0.3268 -1.4472
 2551SOL     OW19285   0.214   4.531   2.410 -0.0300 -0.0260 -0.6681
 2551SOL    HW119286   0.198   4.559   2.320 -0.0083 -0.5935 -0.8513
 2551SOL    HW219287   0.208   4.436   2.400  0.4793 -0.2300  1.0174
 2552SOL     OW19288   2.792   0.302  11.340 -0.2974 -0.0309 -0.3810
 2552SOL    HW119289   2.842   0.244  11.282 -1.0264 -0.2101 -0.8369
 2552SOL    HW219290   2.858   0.332  11.401  2.1126 -0.4639 -2.7514
 2553SOL     OW19291   4.376   2.074   5.922  1.0274  0.0589 -0.3708
 2553SOL    HW119292   4.418   2.151   5.883  1.6879 -0.1815 -0.1388
 2553SOL    HW219293   4.450   2.016   5.903  0.7746 -0.0003 -1.1759
 2554SOL     OW19294   2.430   2.091   0.310  0.2567  0.2690 -0.3171
 2554SOL    HW119295   2.477   2.068   0.390  1.4700 -0.9809 -1.3793
 2554SOL    HW219296   2.438   2.187   0.313 -1.3705  0.3707  0.7678
 2555SOL     OW19297   3.873   2.458   5.944 -0.1744  0.4590 -0.0689
 2555SOL    HW119298   3.955   2.457   5.895 -0.1097  1.5260  0.0216
 2555SOL    HW219299   3.905   2.401   6.014 -0.8359  0.4004  0.1833
 2556SOL     OW19300   2.690   1.060  17.249 -1.1103 -0.6238  0.2041
 2556SOL    HW119301   2.730   1.145  17.268  1.1722 -1.7489  0.4130
 2556SOL    HW219302   2.609   1.094  17.209  0.9040  0.7541 -2.6895
 2557SOL     OW19303   3.778   0.448  11.386  0.2426 -0.0903  0.4383
 2557SOL    HW119304   3.853   0.437  11.444 -0.4460 -0.4913  1.2643
 2557SOL    HW219305   3.819   0.406  11.311  1.7365  0.0588  1.1677
 2558SOL     OW19306   1.603   0.567  16.979 -0.0501  0.3209  0.0596
 2558SOL    HW119307   1.640   0.602  16.898 -0.4136  3.7758  1.4016
 2558SOL    HW219308   1.556   0.640  17.019 -1.9285 -0.5143 -0.6021
 2559SOL     OW19309   0.015   3.305   7.126  0.5819 -0.5499 -0.0284
 2559SOL    HW119310   4.726   3.290   7.036 -1.0858 -0.7066  0.4884
 2559SOL    HW219311   4.673   3.351   7.153 -0.1499 -1.0034 -1.4331
 2560SOL     OW19312   1.697   0.156   2.278  0.4307  0.3478  0.3538
 2560SOL    HW119313   1.691   0.251   2.293 -0.2307  0.3968 -0.2117
 2560SOL    HW219314   1.782   0.134   2.314  0.3978 -1.4802 -0.6882
 2561SOL     OW19315   3.175   1.163  11.851  0.4304 -0.0340  0.1908
 2561SOL    HW119316   3.149   1.255  11.860 -1.5382 -0.5673 -0.0792
 2561SOL    HW219317   3.091   1.132  11.819  0.8963  2.0075 -2.9364
 2562SOL     OW19318   0.978   2.491  12.491 -0.1043  0.5041  0.0565
 2562SOL    HW119319   1.037   2.564  12.473 -0.1632  0.5492  0.0465
 2562SOL    HW219320   1.000   2.431  12.420  0.0440 -0.5765  1.0022
 2563SOL     OW19321   3.251   0.148   6.553 -0.2241  0.3056  0.0617
 2563SOL    HW119322   3.259   0.237   6.586 -0.6244  0.4240 -0.1601
 2563SOL    HW219323   3.193   0.156   6.478 -0.3842  4.1299  0.5948
 2564SOL     OW19324   2.063   1.450   3.435 -0.0615 -0.2151 -0.6895
 2564SOL    HW119325   2.031   1.497   3.358  1.7382 -2.3154 -2.7207
 2564SOL    HW219326   2.155   1.431   3.415  0.1897  0.8818 -0.6102
 2565SOL     OW19327   2.125   1.906   6.845  0.1946  0.6161 -0.7344
 2565SOL    HW119328   2.163   1.856   6.917 -0.7380  2.5450  1.0948
 2565SOL    HW219329   2.120   1.833   6.783  2.8178 -0.2720  0.1066
 2566SOL     OW19330   1.734   3.509   8.071 -0.5674  0.4713 -0.4585
 2566SOL    HW119331   1.787   3.580   8.037 -1.2861  0.3215 -1.9173
 2566SOL    HW219332   1.644   3.526   8.042 -0.4327  1.2097 -0.4459
 2567SOL     OW19333   0.989   0.623   5.189  0.1068 -0.1928  0.0957
 2567SOL    HW119334   1.060   0.635   5.125  0.3486  0.4899  0.4885
 2567SOL    HW219335   0.984   0.528   5.198  2.3838 -0.1821  1.7200
 2568SOL     OW19336   2.822   3.792  10.891  0.3027 -0.3712 -0.1918
 2568SOL    HW119337   2.914   3.817  10.896 -0.0033  0.2715  1.9419
 2568SOL    HW219338   2.782   3.878  10.880 -4.2785 -2.0771  2.7458
 2569SOL     OW19339   3.476   1.816   4.676  0.6302 -0.4083 -0.0164
 2569SOL    HW119340   3.534   1.807   4.600  1.8544 -0.9474  0.9798
 2569SOL    HW219341   3.511   1.902   4.700 -1.1350 -0.0166  1.1573
 2570SOL     OW19342   0.874   3.532   8.818  0.2267 -0.1347 -0.1439
 2570SOL    HW119343   0.964   3.550   8.845 -0.0906  0.9206  0.1779
 2570SOL    HW219344   0.826   3.584   8.883 -0.2110 -0.1694 -0.4366
 2571SOL     OW19345   1.556   1.937   3.217 -0.1350 -0.2540 -0.4358
 2571SOL    HW119346   1.574   1.863   3.159  0.2071 -0.3667 -0.1894
 2571SOL    HW219347   1.528   1.888   3.294  0.2840  0.3450  0.1026
 2572SOL     OW19348   0.676   1.095   1.284 -0.2829  0.8164  0.0400
 2572SOL    HW119349   0.762   1.137   1.278  0.7715 -1.2470  0.6585
 2572SOL    HW219350   0.690   1.053   1.369  0.7748 -0.2831 -0.6649
 2573SOL     OW19351   0.270   3.996   2.341  0.3417  0.1633 -0.0374
 2573SOL    HW119352   0.361   4.019   2.323  0.3181  1.1247  0.9957
 2573SOL    HW219353   0.277   3.910   2.382 -0.2585  0.1256 -0.0240
 2574SOL     OW19354   0.338   3.405   7.921 -0.1396  0.3632  0.8544
 2574SOL    HW119355   0.390   3.414   8.001  1.8563 -0.3804 -0.3377
 2574SOL    HW219356   0.388   3.339   7.873  0.3419  1.3908 -0.0840
 2575SOL     OW19357   1.382   0.436   8.230 -0.4966 -0.3438  0.1836
 2575SOL    HW119358   1.341   0.364   8.278  0.0056 -0.4472  0.4499
 2575SOL    HW219359   1.458   0.456   8.285 -0.2090 -0.6511 -0.1016
 2576SOL     OW19360   4.395   0.702   9.938  0.1516 -0.7798 -0.9399
 2576SOL    HW119361   4.390   0.608   9.920  2.3073 -1.3669  1.4666
 2576SOL    HW219362   4.304   0.734   9.937  0.9313  1.4821  0.4297
 2577SOL     OW19363   1.317   2.546  11.041 -0.2813 -0.1182  0.1769
 2577SOL    HW119364   1.375   2.623  11.040  0.6971 -0.8758 -1.0894
 2577SOL    HW219365   1.346   2.498  11.119  1.0678  1.6858  0.7957
 2578SOL     OW19366   3.254   2.371   1.502 -0.4368 -0.4477  0.1434
 2578SOL    HW119367   3.320   2.435   1.475 -0.6005 -0.5302 -0.4416
 2578SOL    HW219368   3.173   2.418   1.484  0.5281  2.4750  3.3841
 2579SOL     OW19369   2.595   1.374   5.071 -0.2357  0.1331 -0.1792
 2579SOL    HW119370   2.555   1.306   5.125 -1.8161  1.3527  0.1866
 2579SOL    HW219371   2.574   1.452   5.122 -0.0468 -0.0858  0.2313
 2580SOL     OW19372   4.397   3.223  12.755  0.6434 -0.1033 -0.0247
 2580SOL    HW119373   4.415   3.211  12.662  0.9155  0.3864 -0.0379
 2580SOL    HW219374   4.474   3.273  12.781  0.2082  0.7948 -0.4321
 2581SOL     OW19375   2.609   3.986   1.813 -0.1104  0.5641 -0.0878
 2581SOL    HW119376   2.526   4.029   1.835 -0.4385  0.7768 -1.6927
 2581SOL    HW219377   2.593   3.896   1.840 -0.0875  0.6869  0.3329
 2582SOL     OW19378   4.418   3.315   6.848 -0.3542  0.2606  0.3035
 2582SOL    HW119379   4.456   3.387   6.899 -1.9309 -0.1925  2.1029
 2582SOL    HW219380   4.501   3.268   6.832 -0.0067  0.4445  1.5192
 2583SOL     OW19381   4.623   3.567  13.166 -0.3399  0.0135 -0.2704
 2583SOL    HW119382   4.555   3.506  13.194 -0.6426  0.0268 -0.9769
 2583SOL    HW219383   4.573   3.602  13.093 -0.3003 -2.3132 -1.4196
 2584SOL     OW19384   2.724   2.741   5.453 -0.2742 -0.0700  0.5058
 2584SOL    HW119385   2.740   2.810   5.517  0.2350  1.0589 -0.8378
 2584SOL    HW219386   2.796   2.748   5.390 -0.5000  2.4099  0.5243
 2585SOL     OW19387   2.130   1.016   2.884  0.0747  0.5633 -0.0518
 2585SOL    HW119388   2.163   0.927   2.883  0.4808  0.6944  1.1692
 2585SOL    HW219389   2.165   1.049   2.967 -1.2051 -1.7841  1.4014
 2586SOL     OW19390   1.841   3.027   5.284  0.1818 -0.4456  0.6711
 2586SOL    HW119391   1.849   2.938   5.249 -1.7300  0.0041 -0.9531
 2586SOL    HW219392   1.927   3.039   5.324  0.5779  1.0610 -0.6518
 2587SOL     OW19393   4.308   2.024   8.135 -0.7682 -0.1933  0.0811
 2587SOL    HW119394   4.271   2.090   8.077  0.7614 -0.0934 -0.7952
 2587SOL    HW219395   4.351   1.957   8.082 -1.9381  1.4802 -2.9767
 2588SOL     OW19396   3.948   1.793  16.664  0.2699 -0.2270  0.0089
 2588SOL    HW119397   3.984   1.791  16.576 -4.0231  0.1817 -1.7397
 2588SOL    HW219398   3.934   1.699  16.680  1.6418 -0.2824  0.9204
 2589SOL     OW19399   2.114   3.582  10.722 -0.3253  0.4111  0.3792
 2589SOL    HW119400   2.152   3.583  10.810 -0.7304  0.2204  0.5551
 2589SOL    HW219401   2.123   3.488  10.708 -0.0107  0.2098  1.9780
 2590SOL     OW19402   4.095   1.745   5.989 -0.2369 -0.1067  0.0948
 2590SOL    HW119403   4.037   1.694   5.931  0.9607 -3.4701  1.8333
 2590SOL    HW219404   4.137   1.797   5.921  2.0735 -0.3453  1.3717
 2591SOL     OW19405   2.313   1.344   2.317 -0.2381  0.4557 -0.0020
 2591SOL    HW119406   2.375   1.409   2.349  0.2950 -0.3041  0.4794
 2591SOL    HW219407   2.349   1.265   2.356 -0.4940  0.7395  0.8005
 2592SOL     OW19408   4.418   3.608   9.855  0.3919  0.0710 -1.0362
 2592SOL    HW119409   4.380   3.695   9.845 -0.0488 -0.0309 -0.2159
 2592SOL    HW219410   4.348   3.576   9.911  2.4759 -3.0372 -0.1578
 2593SOL     OW19411   0.737   4.087   0.933 -0.2177  0.8275  0.1928
 2593SOL    HW119412   0.768   4.145   0.863  2.0815  2.6330  2.6831
 2593SOL    HW219413   0.678   4.031   0.883  2.1815 -1.2950 -0.2217
 2594SOL     OW19414   3.992   2.795   2.013 -0.6444 -0.3611 -0.5115
 2594SOL    HW119415   3.934   2.739   1.961  0.6883 -0.3655 -1.9764
 2594SOL    HW219416   3.945   2.800   2.097 -0.4804 -0.7261 -0.3973
 2595SOL     OW19417   2.225   4.476   8.326  0.1439 -0.5078 -0.2408
 2595SOL    HW119418   2.153   4.539   8.328 -0.7002 -1.4575 -0.5019
 2595SOL    HW219419   2.217   4.414   8.398  1.8508 -0.1489  0.2650
 2596SOL     OW19420   2.016   4.540   2.811  0.2433  0.4077  0.3810
 2596SOL    HW119421   2.058   4.472   2.864 -1.1962 -0.4154  0.4657
 2596SOL    HW219422   1.933   4.498   2.789 -0.6925  2.1901  0.5625
 2597SOL     OW19423   4.171   4.398   0.416 -0.9411  0.5123 -0.0191
 2597SOL    HW119424   4.167   4.380   0.510 -0.2056 -2.6470 -0.5710
 2597SOL    HW219425   4.099   4.351   0.373  1.0545 -3.1836  0.7038
 2598SOL     OW19426   4.223   3.791   5.751  0.2250  0.3642  0.1134
 2598SOL    HW119427   4.173   3.820   5.674 -0.8228  0.7850  0.9615
 2598SOL    HW219428   4.234   3.696   5.743 -1.6217  0.1679 -0.0473
 2599SOL     OW19429   2.136   0.919   5.678 -0.0368  0.1646  0.5006
 2599SOL    HW119430   2.080   0.879   5.744 -2.1578  3.1162  0.4838
 2599SOL    HW219431   2.219   0.888   5.715  0.7114 -0.0632 -1.3983
 2600SOL     OW19432   1.696   1.186   5.053  0.1074 -0.8291 -0.2936
 2600SOL    HW119433   1.712   1.194   4.959  0.2508  2.7775  0.0422
 2600SOL    HW219434   1.770   1.235   5.089 -1.3104  1.1915 -0.1192
 2601SOL     OW19435   3.021   2.484  12.283  0.7373 -0.5221  0.5103
 2601SOL    HW119436   3.044   2.575  12.263  1.9621 -0.2058  3.2323
 2601SOL    HW219437   3.034   2.495  12.378  2.5026  0.2807  0.1820
 2602SOL     OW19438   1.487   2.365   1.648 -0.4429 -0.2096  0.0779
 2602SOL    HW119439   1.460   2.361   1.556  2.2580 -0.9780 -0.7032
 2602SOL    HW219440   1.488   2.458   1.668  1.4655  0.8521 -4.8568
 2603SOL     OW19441   3.222   4.661   6.703 -0.4827  0.1688 -0.0637
 2603SOL    HW119442   3.249   0.003   6.657 -0.6313  0.8131  0.9687
 2603SOL    HW219443   3.270   4.593   6.656 -1.0889  1.9386 -3.2728
 2604SOL     OW19444   0.330   3.986  14.407 -0.2054 -0.0637 -0.1085
 2604SOL    HW119445   0.278   3.965  14.329 -0.4009  1.7628 -0.4698
 2604SOL    HW219446   0.358   3.895  14.419 -1.0108 -0.3953 -0.6986
 2605SOL     OW19447   3.780   3.343   4.519  0.6835  0.5852  0.0098
 2605SOL    HW119448   3.710   3.281   4.497 -1.0766  2.6122 -0.1400
 2605SOL    HW219449   3.737   3.395   4.587  1.5693  0.7550  0.4380
 2606SOL     OW19450   1.130   1.910  12.777  0.4556 -0.0221 -0.3063
 2606SOL    HW119451   1.124   1.849  12.704 -1.7766  1.0157 -0.9924
 2606SOL    HW219452   1.224   1.928  12.777  0.6887 -1.2019 -1.8351
 2607SOL     OW19453   1.748   1.262   7.765  0.0857  0.1583  0.3148
 2607SOL    HW119454   1.802   1.195   7.808 -0.7590 -2.5774 -2.8988
 2607SOL    HW219455   1.808   1.331   7.737  0.2318 -0.1635 -0.1583
 2608SOL     OW19456   2.814   1.315   7.579  0.3131  0.4537  0.5218
 2608SOL    HW119457   2.799   1.253   7.508 -0.8415  1.7079 -0.3283
 2608SOL    HW219458   2.747   1.379   7.557 -1.7318 -1.6575  0.5078
 2609SOL     OW19459   3.248   4.031   5.370 -0.4637  0.3186 -0.2664
 2609SOL    HW119460   3.210   4.026   5.282  1.6137  1.4601 -1.2176
 2609SOL    HW219461   3.332   4.076   5.367 -0.0910 -0.1752  2.6599
 2610SOL     OW19462   2.016   1.158   1.911 -0.6284  0.3796 -0.0973
 2610SOL    HW119463   1.995   1.171   2.004  0.8956 -1.1892  0.4639
 2610SOL    HW219464   2.106   1.129   1.920 -0.8556 -0.0783  0.6954
 2611SOL     OW19465   2.965   4.524   8.966  0.0166  0.3978  0.2338
 2611SOL    HW119466   2.870   4.514   8.963  0.1407 -0.2050 -1.4154
 2611SOL    HW219467   2.966   4.620   8.963  3.2416  0.4146  1.1552
 2612SOL     OW19468   3.250   3.987   4.807  0.6747 -0.3867  0.7988
 2612SOL    HW119469   3.225   3.926   4.738  0.4992 -0.9084  1.3245
 2612SOL    HW219470   3.169   4.036   4.819 -0.1072 -1.1201 -1.5590
 2613SOL     OW19471   1.339   3.490   7.288 -0.7596  0.3104 -0.1661
 2613SOL    HW119472   1.297   3.417   7.334 -0.5599  1.0702  1.2122
 2613SOL    HW219473   1.300   3.566   7.331  0.6937  0.9696 -0.0173
 2614SOL     OW19474   3.658   2.192   2.708 -0.1918 -0.6689  0.4113
 2614SOL    HW119475   3.717   2.193   2.784  1.3254 -0.6489 -0.7713
 2614SOL    HW219476   3.637   2.284   2.699  0.0902 -0.5643  0.8187
 2615SOL     OW19477   1.692   3.748   3.163  0.3616 -0.1808 -0.0437
 2615SOL    HW119478   1.621   3.737   3.100  0.8050 -1.9400 -0.2339
 2615SOL    HW219479   1.656   3.820   3.214  0.6653 -0.0334 -0.0373
 2616SOL     OW19480   4.137   0.546   3.397  0.4845 -0.0391  0.3679
 2616SOL    HW119481   4.088   0.514   3.321 -1.2574  3.6227 -0.0509
 2616SOL    HW219482   4.172   0.629   3.367  0.9175 -0.4404 -0.2202
 2617SOL     OW19483   3.463   4.460   8.257 -0.1343  0.1501  0.4539
 2617SOL    HW119484   3.433   4.551   8.249 -2.3055 -0.6975 -1.1939
 2617SOL    HW219485   3.487   4.462   8.349  1.0768  0.5823  0.1276
 2618SOL     OW19486   0.939   0.662   3.772 -0.1134 -0.4778  0.4004
 2618SOL    HW119487   1.022   0.661   3.725 -0.6178 -0.4077 -0.5039
 2618SOL    HW219488   0.914   0.574   3.745  0.3771 -0.8148  1.0559
 2619SOL     OW19489   0.471   2.941   8.900 -0.2526  0.0871  0.0823
 2619SOL    HW119490   0.496   2.998   8.973 -1.0952  0.8760 -0.2481
 2619SOL    HW219491   0.526   2.866   8.923  0.8624  0.9186  0.1457
 2620SOL     OW19492   3.368   0.143   9.382 -0.0096 -0.9405 -0.4347
 2620SOL    HW119493   3.398   0.124   9.293 -0.2789 -0.3478 -0.6496
 2620SOL    HW219494   3.317   0.222   9.365 -1.4039 -1.8226 -0.2674
 2621SOL     OW19495   1.304   0.002   8.471 -0.4010 -0.2199  0.9522
 2621SOL    HW119496   1.335   0.079   8.423 -0.3794 -0.3613  0.7412
 2621SOL    HW219497   1.368   4.733   8.542 -1.6919 -3.3027  1.7975
 2622SOL     OW19498   0.287   3.636  11.296  0.1685  0.0430 -0.5857
 2622SOL    HW119499   0.330   3.557  11.265  1.6433  1.1836 -1.4670
 2622SOL    HW219500   0.195   3.616  11.278  0.6261 -3.0591  0.5950
 2623SOL     OW19501   4.031   3.433   7.174 -0.7122 -0.1620  0.4427
 2623SOL    HW119502   3.987   3.479   7.103 -0.1963 -0.7788 -0.2697
 2623SOL    HW219503   4.121   3.438   7.143 -1.7261 -1.9503 -2.8345
 2624SOL     OW19504   3.855   0.129   6.396  0.3930  0.0448 -0.1850
 2624SOL    HW119505   3.931   0.087   6.355 -0.1724 -0.8111 -0.3671
 2624SOL    HW219506   3.873   0.134   6.490 -2.7427  0.5355  0.3878
 2625SOL     OW19507   3.669   2.452   5.517 -0.4759 -0.1951  0.1462
 2625SOL    HW119508   3.749   2.500   5.538 -0.5704  0.2818 -0.5993
 2625SOL    HW219509   3.618   2.473   5.595 -2.3760 -0.0049 -1.1462
 2626SOL     OW19510   2.143   3.320   7.196 -0.1517  0.0723  0.0598
 2626SOL    HW119511   2.164   3.251   7.259 -2.8787  1.3442  2.3472
 2626SOL    HW219512   2.161   3.401   7.244  1.0869 -2.0016  3.1164
 2627SOL     OW19513   2.394   0.665   6.271 -0.0069 -0.4763 -0.0143
 2627SOL    HW119514   2.373   0.623   6.187 -0.3661 -0.0660 -0.1327
 2627SOL    HW219515   2.421   0.594   6.328 -0.3863 -0.9777 -0.4554
 2628SOL     OW19516   1.184   4.480   0.195  0.1115  0.1635 -0.0109
 2628SOL    HW119517   1.223   4.455   0.111  1.4672  0.8737  0.4136
 2628SOL    HW219518   1.258   4.525   0.236  1.7010 -0.1803 -2.5204
 2629SOL     OW19519   4.575   2.936   4.125  0.4250  0.5268 -0.3214
 2629SOL    HW119520   4.635   2.885   4.070  0.4103  1.3281 -1.0825
 2629SOL    HW219521   4.595   3.023   4.090  0.3206  2.1238  3.5809
 2630SOL     OW19522   2.665   1.279   1.420  0.0917 -0.4026 -0.3035
 2630SOL    HW119523   2.665   1.313   1.331  1.7328  1.7237  0.4922
 2630SOL    HW219524   2.741   1.220   1.426  0.1444 -0.1221  1.7413
 2631SOL     OW19525   0.195   4.467   3.852  0.5307 -0.3154  0.2494
 2631SOL    HW119526   0.127   4.445   3.916 -0.1119 -0.1286 -0.3727
 2631SOL    HW219527   0.241   4.383   3.848  0.7283 -0.1819 -0.3100
 2632SOL     OW19528   2.008   3.230   6.131 -0.2583 -0.0924  0.5425
 2632SOL    HW119529   1.925   3.228   6.083  0.8628 -0.7975 -1.3474
 2632SOL    HW219530   1.997   3.147   6.177 -4.4900 -1.3229 -2.6181
 2633SOL     OW19531   0.940   1.022   0.290 -0.2179  0.3500 -0.2107
 2633SOL    HW119532   1.023   0.979   0.272 -1.4955 -1.8211 -0.9502
 2633SOL    HW219533   0.880   0.997   0.219 -0.0907 -0.1061 -0.1567
 2634SOL     OW19534   0.129   4.658   9.063  0.2555  0.2649 -0.0029
 2634SOL    HW119535   0.190   4.712   9.011  0.7851 -0.4726 -0.1439
 2634SOL    HW219536   0.049   4.709   9.050  0.1804  0.1848  0.1450
 2635SOL     OW19537   0.033   3.441   0.796  0.0422  0.4754  0.4393
 2635SOL    HW119538   4.709   3.467   0.865 -1.2346 -1.1573 -0.1080
 2635SOL    HW219539   0.117   3.462   0.837 -0.1692 -1.6125  1.9295
 2636SOL     OW19540   2.584   0.592   8.279  0.4604 -0.3707 -0.1186
 2636SOL    HW119541   2.579   0.504   8.315 -0.1569 -0.3605 -0.1851
 2636SOL    HW219542   2.495   0.598   8.244  0.5183  0.5509 -0.1100
 2637SOL     OW19543   4.044   0.605   4.417 -0.2275  0.3424 -0.2433
 2637SOL    HW119544   4.034   0.584   4.324 -1.5312 -1.8294  0.3976
 2637SOL    HW219545   4.138   0.620   4.429  0.0042 -0.7734 -0.6728
 2638SOL     OW19546   4.676   3.567   9.802 -0.6947 -0.3232  0.2277
 2638SOL    HW119547   4.584   3.585   9.821 -0.6584  1.4625 -1.2551
 2638SOL    HW219548   4.685   3.498   9.868  0.3642  1.4303  1.9321
 2639SOL     OW19549   1.492   3.615  12.264  0.6786  0.1858 -0.2329
 2639SOL    HW119550   1.446   3.562  12.199 -1.0614 -0.7205  1.7129
 2639SOL    HW219551   1.468   3.703  12.238  1.9409 -0.0784 -2.3093
 2640SOL     OW19552   3.832   1.333  13.207  0.3480  0.1023  0.2112
 2640SOL    HW119553   3.806   1.379  13.127  0.7662 -1.5531 -0.8910
 2640SOL    HW219554   3.874   1.253  13.176  1.4079  0.2906  1.1845
 2641SOL     OW19555   0.454   4.358   5.515  0.5554  0.2895  0.2995
 2641SOL    HW119556   0.530   4.336   5.460  0.5085  0.8892 -0.0090
 2641SOL    HW219557   0.394   4.289   5.485  0.5620  0.4239 -0.0213
 2642SOL     OW19558   0.763   1.292  10.108 -0.2174 -0.1010 -0.2939
 2642SOL    HW119559   0.832   1.239  10.147  2.9553  2.3463 -2.6663
 2642SOL    HW219560   0.798   1.289  10.020  0.3646  2.1893 -0.1363
 2643SOL     OW19561   4.314   1.088   3.471  0.0565 -0.4227  0.0052
 2643SOL    HW119562   4.348   1.026   3.406  2.7741 -1.5955  2.5289
 2643SOL    HW219563   4.269   1.151   3.415 -0.3656  0.1257  0.9715
 2644SOL     OW19564   1.610   3.044   3.224 -0.2463  0.4776 -0.3156
 2644SOL    HW119565   1.536   3.082   3.177 -1.1085  0.3236  0.8916
 2644SOL    HW219566   1.579   2.955   3.242  1.8388  0.3131  2.3502
 2645SOL     OW19567   1.226   0.654   8.190  0.2087 -0.3189 -0.6877
 2645SOL    HW119568   1.154   0.669   8.251  0.5718 -1.3361 -0.0200
 2645SOL    HW219569   1.236   0.560   8.203 -0.5845 -0.0007  2.1306
 2646SOL     OW19570   0.425   3.394   8.700 -0.0169 -0.3508 -0.4585
 2646SOL    HW119571   0.467   3.476   8.675  0.9335 -0.1165  1.8457
 2646SOL    HW219572   0.493   3.354   8.755  0.9051 -0.6817 -1.8574
 2647SOL     OW19573   2.162   0.876   8.162  0.5579  0.7074  0.7672
 2647SOL    HW119574   2.078   0.830   8.164 -0.2605  2.0509 -2.1708
 2647SOL    HW219575   2.164   0.912   8.073 -0.0178  1.1430  0.9257
 2648SOL     OW19576   1.554   0.564  10.043  0.3574 -0.0562 -0.4573
 2648SOL    HW119577   1.546   0.550  10.138 -1.0348 -1.6296 -0.8089
 2648SOL    HW219578   1.649   0.576  10.035  0.1170  2.1822 -0.0040
 2649SOL     OW19579   3.709   2.072   3.237 -0.4954 -0.0155 -0.5204
 2649SOL    HW119580   3.778   2.135   3.256 -2.1673  2.4638 -2.5078
 2649SOL    HW219581   3.676   2.057   3.325 -0.2287 -2.6069 -0.8657
 2650SOL     OW19582   3.464   4.128   9.063 -0.2760 -0.3553 -0.1895
 2650SOL    HW119583   3.424   4.131   8.976  0.2835  0.5176 -0.4249
 2650SOL    HW219584   3.492   4.220   9.056  0.3495 -0.4153  1.4390
 2651SOL     OW19585   2.129   1.662   3.648 -0.0532 -0.6387  0.3192
 2651SOL    HW119586   2.140   1.588   3.707 -3.8994 -2.0917 -0.8070
 2651SOL    HW219587   2.105   1.619   3.566  1.6290 -1.0850  0.0665
 2652SOL     OW19588   3.805   0.540  12.279 -0.3211  0.1368 -0.7985
 2652SOL    HW119589   3.819   0.613  12.340 -0.2517 -0.7635  0.2796
 2652SOL    HW219590   3.717   0.514  12.309  0.4883 -1.6051  0.1252
 2653SOL     OW19591   2.313   0.220  17.084  0.2614 -0.2115 -0.1060
 2653SOL    HW119592   2.263   0.139  17.095  0.9786 -0.8674 -1.6944
 2653SOL    HW219593   2.278   0.272  17.157  0.0854  0.3353 -0.5757
 2654SOL     OW19594   1.573   3.081   7.624  0.7543  0.2179 -0.3991
 2654SOL    HW119595   1.613   3.111   7.542  0.4585  0.7069 -0.3632
 2654SOL    HW219596   1.509   3.032   7.572  1.5385 -0.0728 -1.0889
 2655SOL     OW19597   3.340   2.349   3.723 -0.8386  0.6516 -0.0729
 2655SOL    HW119598   3.424   2.354   3.769  0.4847 -1.3248 -2.2882
 2655SOL    HW219599   3.287   2.288   3.775 -1.0304 -0.0091 -1.0383
 2656SOL     OW19600   1.442   2.084   6.452  0.3332 -0.4007  0.0850
 2656SOL    HW119601   1.509   2.152   6.464  1.0817 -1.0082 -0.6505
 2656SOL    HW219602   1.478   2.007   6.495 -0.3375  0.1992  1.7022
 2657SOL     OW19603   1.381   3.895  13.680 -0.0449 -0.1281 -0.1087
 2657SOL    HW119604   1.374   3.858  13.768  1.6385  1.0825  0.5341
 2657SOL    HW219605   1.288   3.911  13.662  0.0543  0.2507 -0.2969
 2658SOL     OW19606   3.854   3.441   3.084  0.2621 -0.3386  0.1402
 2658SOL    HW119607   3.910   3.370   3.113  0.4413  0.7886  2.6313
 2658SOL    HW219608   3.913   3.485   3.023  0.8670 -2.0255 -0.4830
 2659SOL     OW19609   3.792   1.921  11.950  0.2592 -0.1793  0.0771
 2659SOL    HW119610   3.816   1.995  12.006 -1.3021 -0.9428  1.7595
 2659SOL    HW219611   3.764   1.861  12.019 -1.4727  0.4193 -0.1058
 2660SOL     OW19612   0.806   2.181   5.698 -0.2203 -0.3735  0.2648
 2660SOL    HW119613   0.858   2.121   5.751 -0.8605  1.3208  2.8263
 2660SOL    HW219614   0.804   2.135   5.614  1.3755 -0.0840  0.0687
 2661SOL     OW19615   2.472   3.106  14.413  0.2517 -0.4432  0.1895
 2661SOL    HW119616   2.543   3.050  14.383 -0.4096  0.0591 -2.3009
 2661SOL    HW219617   2.494   3.148  14.496  1.7173  0.6260 -0.7350
 2662SOL     OW19618   3.038   1.473   5.441  0.1148  0.4136 -0.1828
 2662SOL    HW119619   2.975   1.489   5.511 -0.9912 -2.2438 -0.5786
 2662SOL    HW219620   3.025   1.379   5.427  1.8852  0.2626 -0.8575
 2663SOL     OW19621   1.036   2.140   3.610  0.8067 -0.3323  0.5537
 2663SOL    HW119622   0.982   2.125   3.533  0.8475 -1.4577  0.7304
 2663SOL    HW219623   0.977   2.191   3.664 -0.6689 -0.5166 -0.9009
 2664SOL     OW19624   3.721   0.049   4.447  0.9989  0.2734  0.1922
 2664SOL    HW119625   3.673   0.089   4.520 -1.0668 -1.2260 -0.3317
 2664SOL    HW219626   3.710   0.110   4.374  0.1795 -0.8148 -0.5958
 2665SOL     OW19627   3.467   3.073   6.680 -0.5450  0.1408  0.7888
 2665SOL    HW119628   3.539   3.014   6.698  0.9145  2.0382  1.2180
 2665SOL    HW219629   3.440   3.102   6.768 -0.1292 -0.3825  1.0851
 2666SOL     OW19630   0.510   1.288   8.046 -0.0071  0.6470 -0.1533
 2666SOL    HW119631   0.475   1.220   8.103  2.9243  0.4806  1.4696
 2666SOL    HW219632   0.521   1.363   8.104 -2.6904 -1.3881  2.9786
 2667SOL     OW19633   4.307   2.102   2.389  0.0682 -0.4433 -0.0178
 2667SOL    HW119634   4.265   2.027   2.431 -1.0963  0.4752  0.4569
 2667SOL    HW219635   4.359   2.141   2.459  0.6563  1.6994 -1.6511
 2668SOL     OW19636   2.586   1.726   2.224  0.1241  0.1656  0.0437
 2668SOL    HW119637   2.500   1.690   2.201 -1.2965  1.3260  3.5037
 2668SOL    HW219638   2.580   1.808   2.175  0.9987  0.1991 -0.0095
 2669SOL     OW19639   1.534   0.432   5.391 -0.2601  0.3144  0.6014
 2669SOL    HW119640   1.629   0.428   5.375 -0.5717 -0.9216 -0.9716
 2669SOL    HW219641   1.517   0.523   5.414 -0.6893 -0.0061  1.5521
 2670SOL     OW19642   0.082   1.644   7.278 -0.3318 -0.6841  0.2043
 2670SOL    HW119643   0.125   1.661   7.362 -0.7011 -0.2009  0.2889
 2670SOL    HW219644   0.138   1.700   7.224  0.4145 -3.0159 -1.4556
 2671SOL     OW19645   3.370   2.488   2.164 -0.2717 -0.2874  0.5251
 2671SOL    HW119646   3.431   2.417   2.186  0.8227 -0.2698 -2.5514
 2671SOL    HW219647   3.294   2.435   2.138 -0.2371 -0.0563 -0.0406
 2672SOL     OW19648   4.032   3.012  15.164  0.7342 -0.1106  0.3623
 2672SOL    HW119649   3.990   2.958  15.231  2.2187 -0.3324  1.1215
 2672SOL    HW219650   3.968   3.081  15.146  1.9917  0.5208 -1.6483
 2673SOL     OW19651   3.767   1.135   7.976  0.1182  0.2628  0.3566
 2673SOL    HW119652   3.833   1.204   7.971  2.0972 -1.4693  3.3531
 2673SOL    HW219653   3.689   1.186   7.998 -0.2663  0.5854 -1.6904
 2674SOL     OW19654   0.012   0.278   2.105 -0.0078 -0.0598  0.4310
 2674SOL    HW119655   0.035   0.309   2.193  3.3060 -0.4750 -0.2739
 2674SOL    HW219656   0.099   0.261   2.068 -0.5062  0.2767 -0.9059
 2675SOL     OW19657   1.500   0.788   4.297  0.2569 -0.6506 -0.6967
 2675SOL    HW119658   1.492   0.713   4.356 -0.8571  0.4902  0.5903
 2675SOL    HW219659   1.594   0.784   4.276  0.5447 -0.3334  0.5154
 2676SOL     OW19660   2.231   1.031  14.942  0.1732  0.0289 -0.2178
 2676SOL    HW119661   2.285   1.038  14.863 -0.0086  2.4730 -0.1281
 2676SOL    HW219662   2.175   1.108  14.934  0.2149  0.0600 -0.2040
 2677SOL     OW19663   2.164   2.643   4.628  0.2437  0.1235  0.0673
 2677SOL    HW119664   2.078   2.628   4.668  0.5225 -1.2067  0.1540
 2677SOL    HW219665   2.190   2.559   4.591 -2.4784 -1.4538  1.7510
 2678SOL     OW19666   3.360   4.563   6.496  0.1853  0.1083  0.4635
 2678SOL    HW119667   3.402   4.542   6.412 -0.9736  3.1074 -0.8603
 2678SOL    HW219668   3.354   4.658   6.492  0.7619  0.0451 -2.2904
 2679SOL     OW19669   0.745   3.729   8.958 -0.7839 -0.0069  0.1089
 2679SOL    HW119670   0.659   3.725   8.916 -0.1786  1.0930 -1.2390
 2679SOL    HW219671   0.723   3.722   9.050 -2.2082  0.0275 -0.2336
 2680SOL     OW19672   4.504   3.240   9.088  0.6295 -0.4475 -0.1478
 2680SOL    HW119673   4.513   3.274   8.999  0.1474 -0.4626 -0.2034
 2680SOL    HW219674   4.594   3.209   9.100  1.0635  1.2982  1.1922
 2681SOL     OW19675   0.845   1.034  10.138 -0.5180  0.0199 -0.1149
 2681SOL    HW119676   0.760   0.999  10.165  0.5104 -0.0158  3.0501
 2681SOL    HW219677   0.893   0.953  10.158 -0.2066  0.7052  1.8762
 2682SOL     OW19678   2.057   0.446  10.524 -0.2617 -0.6185  0.2867
 2682SOL    HW119679   2.104   0.495  10.590  1.5018 -2.7148  0.6150
 2682SOL    HW219680   2.050   0.506  10.449 -1.2433 -0.1776  0.7400
 2683SOL     OW19681   4.135   0.892   3.153  0.5571 -0.1233 -0.0330
 2683SOL    HW119682   4.073   0.963   3.140  2.3400  1.9255  2.5108
 2683SOL    HW219683   4.142   0.864   3.062  1.8136 -1.8155  0.5725
 2684SOL     OW19684   0.643   2.001  14.267 -0.0531 -0.3679 -0.2071
 2684SOL    HW119685   0.726   1.954  14.270  1.9722  3.1062 -0.7887
 2684SOL    HW219686   0.572   1.938  14.269 -0.4166  0.0528  0.2656
 2685SOL     OW19687   4.467   0.944   6.707  0.2053 -0.1358 -0.7558
 2685SOL    HW119688   4.403   0.875   6.690  1.2035 -2.0598  3.3206
 2685SOL    HW219689   4.521   0.950   6.628  3.6128 -2.2292  1.4280
 2686SOL     OW19690   2.654   2.470   5.465  0.0212  0.1113 -0.0578
 2686SOL    HW119691   2.677   2.559   5.491 -1.6117  0.1372  1.2872
 2686SOL    HW219692   2.673   2.473   5.371  1.8309 -1.0911  0.2697
 2687SOL     OW19693   1.639   2.103  11.327 -0.0090  0.1731  0.3595
 2687SOL    HW119694   1.603   2.143  11.248  1.7157  0.0179 -0.5022
 2687SOL    HW219695   1.724   2.060  11.312 -0.6527 -1.0129  0.0868
 2688SOL     OW19696   4.513   2.535   2.547 -0.3156  0.4339 -0.1022
 2688SOL    HW119697   4.483   2.602   2.609 -1.2002  0.5993 -0.7059
 2688SOL    HW219698   4.449   2.559   2.479 -2.2245 -2.0171  0.8469
 2689SOL     OW19699   3.252   3.143   4.049 -0.6781  0.4956  0.5024
 2689SOL    HW119700   3.299   3.074   4.097 -2.7119 -2.2520 -1.4718
 2689SOL    HW219701   3.327   3.188   4.010 -1.9198  1.0842 -1.1858
 2690SOL     OW19702   0.932   0.471   3.062 -0.1439 -0.8944 -0.2808
 2690SOL    HW119703   0.896   0.385   3.084 -2.3501 -0.5985 -2.6896
 2690SOL    HW219704   0.853   0.524   3.055 -0.4480 -1.3508 -0.2743
 2691SOL     OW19705   2.893   0.874   3.298  0.1144 -0.7514 -0.4204
 2691SOL    HW119706   2.874   0.839   3.212 -0.3508 -1.5447  0.0101
 2691SOL    HW219707   2.918   0.964   3.276 -0.2048 -0.7096 -0.6074
 2692SOL     OW19708   2.467   3.535   8.045  0.2926  0.2676  0.3427
 2692SOL    HW119709   2.432   3.455   8.005  0.6820 -0.1033  0.7329
 2692SOL    HW219710   2.412   3.555   8.121  0.1928  0.8823  0.1059
 2693SOL     OW19711   2.817   4.615   6.123 -0.2266  0.1148 -0.6274
 2693SOL    HW119712   2.890   4.586   6.178 -1.8367 -2.9914 -0.1736
 2693SOL    HW219713   2.774   4.531   6.108  0.1396 -0.4682  1.5838
 2694SOL     OW19714   0.408   1.435   9.456 -0.3625 -0.1469  0.1291
 2694SOL    HW119715   0.348   1.443   9.531  0.4101  2.1906  0.4970
 2694SOL    HW219716   0.341   1.402   9.397 -1.9705  0.6831  1.4665
 2695SOL     OW19717   3.795   4.259  14.881  0.5514 -0.1120  0.0606
 2695SOL    HW119718   3.699   4.253  14.883  0.5907 -0.8220 -0.0077
 2695SOL    HW219719   3.814   4.308  14.961  1.0483 -0.6066  0.2465
 2696SOL     OW19720   3.549   3.830  10.407 -0.2995 -0.0892 -0.1832
 2696SOL    HW119721   3.587   3.782  10.334  1.7471 -0.1858  0.9327
 2696SOL    HW219722   3.461   3.852  10.377  0.0973  0.4395 -0.9643
 2697SOL     OW19723   3.388   4.651   6.219  0.4606 -0.0190 -0.2697
 2697SOL    HW119724   3.468   4.602   6.237  0.2856 -0.1980  0.0164
 2697SOL    HW219725   3.335   4.586   6.175 -0.4639  2.0012 -2.1389
 2698SOL     OW19726   1.042   0.429   6.047  0.4217 -0.0378 -0.7863
 2698SOL    HW119727   0.962   0.438   6.098 -0.2476  1.4498 -2.1144
 2698SOL    HW219728   1.082   0.513   6.071  0.8018 -0.3752 -0.2434
 2699SOL     OW19729   4.387   0.145   5.899 -0.4131 -0.2531  0.2524
 2699SOL    HW119730   4.419   0.235   5.909  2.0517 -0.9962 -1.1928
 2699SOL    HW219731   4.467   0.096   5.883 -1.1226 -0.8768 -1.3687
 2700SOL     OW19732   0.974   0.661   9.880  0.1650  0.0678 -0.0814
 2700SOL    HW119733   1.005   0.718   9.950  1.5923 -2.9328  1.7280
 2700SOL    HW219734   0.991   0.574   9.917 -0.1157 -0.4217 -1.0862
 2701SOL     OW19735   1.845   2.736   9.589 -0.2374 -0.3175  0.9937
 2701SOL    HW119736   1.905   2.674   9.548 -0.1706 -0.5060  1.3783
 2701SOL    HW219737   1.901   2.808   9.617 -1.6774  0.3276  2.2258
 2702SOL     OW19738   3.016   1.012  15.036 -0.0098 -0.5731 -0.8010
 2702SOL    HW119739   2.949   0.945  15.030  0.0413 -0.7342  0.3899
 2702SOL    HW219740   3.094   0.966  15.005  0.7398  0.3623 -0.3148
 2703SOL     OW19741   4.439   1.285   5.745 -0.3629  0.7926  0.7858
 2703SOL    HW119742   4.356   1.281   5.696 -0.5259 -1.3481  1.2257
 2703SOL    HW219743   4.498   1.244   5.681 -1.9305  0.5094 -0.4919
 2704SOL     OW19744   0.697   1.289  15.894 -0.5563  0.3028 -0.3614
 2704SOL    HW119745   0.777   1.341  15.908 -1.8015  1.6440  1.8861
 2704SOL    HW219746   0.727   1.213  15.845 -2.9243 -0.7404 -0.1828
 2705SOL     OW19747   1.177   0.115   1.793  0.2792  0.2028  0.2671
 2705SOL    HW119748   1.092   0.151   1.769 -1.1628 -2.3864  1.5538
 2705SOL    HW219749   1.153   0.042   1.850 -1.3764 -0.3405 -1.1421
 2706SOL     OW19750   0.542   1.568   8.145 -0.2242 -0.0570  0.3046
 2706SOL    HW119751   0.626   1.586   8.187 -1.1411  0.3475  1.9399
 2706SOL    HW219752   0.494   1.634   8.194 -0.3995  1.8129 -2.3434
 2707SOL     OW19753   2.785   3.281   4.446 -0.4536 -0.3813  0.2336
 2707SOL    HW119754   2.740   3.224   4.509 -1.0323  0.6074  0.7125
 2707SOL    HW219755   2.796   3.214   4.379 -1.2480  0.1043 -0.3885
 2708SOL     OW19756   2.404   0.759   2.919  0.1608 -0.0586 -0.6926
 2708SOL    HW119757   2.434   0.809   2.995  0.0609 -1.9828  0.6062
 2708SOL    HW219758   2.314   0.738   2.940  0.4398 -0.3602  0.1929
 2709SOL     OW19759   0.849   1.518  11.187  0.5165 -0.4130 -0.5252
 2709SOL    HW119760   0.845   1.610  11.212 -1.5971 -0.3216 -1.2549
 2709SOL    HW219761   0.829   1.533  11.095 -0.1019  0.1807 -0.2920
 2710SOL     OW19762   2.429   1.105   2.228 -0.2224  0.0228  0.3249
 2710SOL    HW119763   2.471   1.191   2.219  1.4225 -0.6375  1.7478
 2710SOL    HW219764   2.499   1.058   2.182 -0.7829  0.1264 -0.6253
 2711SOL     OW19765   3.198   3.478  11.291 -0.1616 -0.2604 -0.1034
 2711SOL    HW119766   3.108   3.476  11.259 -0.4431 -2.4524  0.7947
 2711SOL    HW219767   3.196   3.546  11.358 -1.9705  0.2292 -0.6655
 2712SOL     OW19768   3.057   0.442   3.581  0.1045  0.1643 -0.0590
 2712SOL    HW119769   3.012   0.405   3.505 -0.7827  2.5284 -0.6854
 2712SOL    HW219770   3.092   0.519   3.536  2.0589 -1.7896 -1.9056
 2713SOL     OW19771   0.973   1.749   9.088 -0.2253 -0.0182 -0.5681
 2713SOL    HW119772   0.989   1.772   9.179 -1.4925  1.1043 -0.6280
 2713SOL    HW219773   0.940   1.832   9.051  1.3034  0.3836 -1.0362
 2714SOL     OW19774   1.536   3.529   4.587 -0.2366 -0.2816 -0.6125
 2714SOL    HW119775   1.498   3.480   4.513 -0.0216  1.7235 -2.0433
 2714SOL    HW219776   1.480   3.493   4.656  0.8044  1.0125  0.9000
 2715SOL     OW19777   1.882   4.222   6.720  0.2315  0.6366  0.2668
 2715SOL    HW119778   1.855   4.149   6.664  1.7884 -0.7468  1.3391
 2715SOL    HW219779   1.962   4.193   6.764  0.4559 -0.2455 -0.7191
 2716SOL     OW19780   2.185   2.711  16.787 -0.2206 -0.3264 -0.0608
 2716SOL    HW119781   2.276   2.709  16.757  0.0748  1.0438  0.7307
 2716SOL    HW219782   2.148   2.773  16.724  0.8146 -1.7489 -2.0958
 2717SOL     OW19783   0.249   0.569   4.900  0.6603 -0.4177 -0.5204
 2717SOL    HW119784   0.163   0.573   4.942 -0.2142  0.8827 -2.4238
 2717SOL    HW219785   0.291   0.635   4.954 -1.0286  1.1887 -1.1571
 2718SOL     OW19786   0.044   1.994  12.021 -0.0358  0.0851  0.2784
 2718SOL    HW119787   0.029   1.907  12.057  0.7104 -0.2479 -0.2265
 2718SOL    HW219788   0.138   1.990  12.035  0.1857 -0.6061 -1.3799
 2719SOL     OW19789   0.532   0.678   6.116  0.3222  0.4494 -0.0947
 2719SOL    HW119790   0.522   0.772   6.130  1.1852  0.3176  1.4175
 2719SOL    HW219791   0.484   0.677   6.033  0.8529 -1.7795 -0.4003
 2720SOL     OW19792   1.961   2.365   9.927 -0.4013 -0.2672 -0.3717
 2720SOL    HW119793   1.925   2.454   9.933 -3.6402 -1.4895 -1.8465
 2720SOL    HW219794   2.026   2.376   9.996  0.2895  2.6889 -1.4597
 2721SOL     OW19795   1.137   4.332   2.512 -0.1231  0.3675  0.1347
 2721SOL    HW119796   1.080   4.334   2.435 -0.5129 -0.5103  0.3994
 2721SOL    HW219797   1.160   4.425   2.507 -1.1478  0.5514 -1.1894
 2722SOL     OW19798   4.056   0.256   9.247 -0.5846 -0.3464 -0.3036
 2722SOL    HW119799   4.080   0.203   9.323  1.4808  1.1889  0.0908
 2722SOL    HW219800   4.050   0.181   9.187 -1.4793 -1.5253  1.2387
 2723SOL     OW19801   3.124   3.764   7.726  0.1037 -0.1324  0.1282
 2723SOL    HW119802   3.031   3.746   7.734  0.4819 -2.4542 -0.4176
 2723SOL    HW219803   3.138   3.835   7.663 -0.3056 -2.0483 -2.1445
 2724SOL     OW19804   2.495   2.665   6.314  0.1940  0.2199  0.0350
 2724SOL    HW119805   2.434   2.697   6.248  1.6384 -0.1585 -1.5067
 2724SOL    HW219806   2.574   2.668   6.259 -0.2212  1.4232 -0.4885
 2725SOL     OW19807   3.484   2.091   3.059 -0.2823  0.2449 -0.3047
 2725SOL    HW119808   3.535   2.092   3.140 -0.4589  0.1779 -0.1940
 2725SOL    HW219809   3.501   2.181   3.033 -1.1816  0.3493 -0.5192
 2726SOL     OW19810   2.806   3.316   2.715 -0.0872 -0.2586 -0.0611
 2726SOL    HW119811   2.745   3.252   2.750 -1.4737  1.4711  0.7011
 2726SOL    HW219812   2.759   3.361   2.644 -0.2739 -0.2015  0.0995
 2727SOL     OW19813   4.413   3.975  16.056 -0.2873  0.1972 -0.3422
 2727SOL    HW119814   4.377   4.054  16.095 -1.7862  0.0093 -1.3352
 2727SOL    HW219815   4.502   3.994  16.024  0.0600  1.3211  1.3266
 2728SOL     OW19816   3.076   1.817   6.906 -0.4006  0.1504  0.0248
 2728SOL    HW119817   3.156   1.868   6.896  0.6939 -2.0306 -2.3842
 2728SOL    HW219818   3.018   1.876   6.857 -1.0649 -1.2084 -0.8183
 2729SOL     OW19819   2.300   1.511   5.421 -0.1532  0.0777 -0.1820
 2729SOL    HW119820   2.258   1.430   5.390 -0.6225  0.4688 -0.5664
 2729SOL    HW219821   2.220   1.561   5.435 -0.8907 -0.6322 -1.8661
 2730SOL     OW19822   0.115   0.558   7.133  0.3993 -0.8778  0.0843
 2730SOL    HW119823   0.128   0.504   7.056 -0.8790 -0.6852 -0.2711
 2730SOL    HW219824   0.125   0.645   7.095  1.2836 -0.6566  0.8239
 2731SOL     OW19825   3.613   1.871   7.760 -0.0945 -0.0230 -0.1458
 2731SOL    HW119826   3.552   1.816   7.711  1.9645 -0.4152 -2.2566
 2731SOL    HW219827   3.552   1.913   7.820  0.0180  0.1332 -0.1392
 2732SOL     OW19828   2.485   3.472   6.808 -0.2700 -0.1174 -0.6116
 2732SOL    HW119829   2.443   3.549   6.846  0.9180  1.2385 -2.0136
 2732SOL    HW219830   2.466   3.493   6.716  0.3762 -0.2717 -0.7823
 2733SOL     OW19831   4.580   1.328   3.057 -0.1893 -0.1493 -0.1284
 2733SOL    HW119832   4.667   1.292   3.074  0.4508  0.6207 -1.7753
 2733SOL    HW219833   4.533   1.322   3.140  1.1760 -0.9785  0.5900
 2734SOL     OW19834   0.173   0.044  11.550 -0.2241  0.0710  0.5428
 2734SOL    HW119835   0.261   0.009  11.550  0.1839  1.0415 -2.1744
 2734SOL    HW219836   0.173   0.093  11.632 -0.1448  0.6637  0.1930
 2735SOL     OW19837   0.488   3.454  10.696  0.3576  0.4413 -0.2719
 2735SOL    HW119838   0.568   3.404  10.682 -0.0105  0.3660 -2.0412
 2735SOL    HW219839   0.418   3.401  10.658 -0.1159 -0.8650  2.3628
 2736SOL     OW19840   0.830   2.591   5.305  0.2645 -0.2947  0.4135
 2736SOL    HW119841   0.747   2.634   5.284 -0.9541 -1.9592  1.8970
 2736SOL    HW219842   0.898   2.647   5.268 -1.9298  2.1193 -0.0345
 2737SOL     OW19843   1.471   1.257   6.596  0.3272  0.7161 -0.7989
 2737SOL    HW119844   1.560   1.224   6.606 -0.1796 -1.0594 -2.2800
 2737SOL    HW219845   1.448   1.274   6.688 -0.1411 -2.2689 -0.3396
 2738SOL     OW19846   0.544   4.141   2.204  0.1514 -0.1908  0.6697
 2738SOL    HW119847   0.460   4.187   2.202  0.5168  0.5131  1.4636
 2738SOL    HW219848   0.516   4.055   2.174 -1.3220  0.9248 -1.1825
 2739SOL     OW19849   1.053   1.648  10.661 -0.0639 -0.0427  0.1194
 2739SOL    HW119850   0.963   1.638  10.629  0.3857 -2.0942 -0.5055
 2739SOL    HW219851   1.063   1.554  10.678  1.6106  0.4015  1.4773
 2740SOL     OW19852   2.992   3.510   4.214  0.5742 -0.0335 -0.1904
 2740SOL    HW119853   2.923   3.501   4.149  0.6869 -0.8716 -0.1992
 2740SOL    HW219854   3.070   3.488   4.163 -0.8519 -1.8918 -1.5503
 2741SOL     OW19855   1.928   2.274   8.362 -0.1909  1.1266 -0.1984
 2741SOL    HW119856   1.852   2.216   8.358 -0.3757  1.4690 -1.4371
 2741SOL    HW219857   1.989   2.218   8.411 -1.1165 -0.1361 -0.4791
 2742SOL     OW19858   2.030   4.039  12.808 -0.6745  0.6848 -0.3446
 2742SOL    HW119859   1.971   4.100  12.851 -1.6701 -0.3194 -0.2713
 2742SOL    HW219860   2.101   4.103  12.813  1.3469 -1.6783  1.1200
 2743SOL     OW19861   2.902   0.891   9.462 -0.1051  0.0616  0.4263
 2743SOL    HW119862   2.974   0.866   9.520  1.8307  0.7174 -1.6500
 2743SOL    HW219863   2.930   0.981   9.444 -2.0664  0.4340 -0.7768
 2744SOL     OW19864   3.302   1.631   2.937  0.3938 -0.0311 -0.6108
 2744SOL    HW119865   3.314   1.706   2.994  2.2816 -0.6888 -0.1235
 2744SOL    HW219866   3.395   1.608   2.932  0.2605 -1.3077  3.2631
 2745SOL     OW19867   3.985   3.192  17.146  0.2376  0.5288  0.6061
 2745SOL    HW119868   4.018   3.200  17.057 -0.1006 -1.5672  0.2803
 2745SOL    HW219869   3.891   3.202  17.129 -0.3844 -0.6322  3.2482
 2746SOL     OW19870   2.462   1.690   0.350 -0.4804  0.1283 -0.3610
 2746SOL    HW119871   2.510   1.749   0.292 -1.2383 -2.1531 -3.3165
 2746SOL    HW219872   2.406   1.650   0.283 -1.3385  2.1510 -0.8512
 2747SOL     OW19873   0.353   1.616   4.722 -0.3463  0.2362  0.0880
 2747SOL    HW119874   0.267   1.646   4.751  0.1207  0.1102  1.6033
 2747SOL    HW219875   0.339   1.522   4.734 -0.8251  0.2248 -0.5917
 2748SOL     OW19876   3.720   2.153  12.705  0.6602  0.2647  0.1705
 2748SOL    HW119877   3.688   2.211  12.774 -0.0568  0.7311 -0.5633
 2748SOL    HW219878   3.635   2.145  12.662  0.0318  3.8796  0.7440
 2749SOL     OW19879   0.264   4.652   9.827  0.1669  0.5790  0.2265
 2749SOL    HW119880   0.179   4.612   9.812  1.9252 -2.1238 -2.6589
 2749SOL    HW219881   0.292   4.654   9.735 -0.0538  0.5352  0.1591
 2750SOL     OW19882   0.209   0.315   5.375 -0.0568  0.1334  0.0020
 2750SOL    HW119883   0.255   0.231   5.373 -1.5973 -0.7378  1.6998
 2750SOL    HW219884   0.177   0.318   5.284  1.5825  0.3126 -0.5756
 2751SOL     OW19885   0.640   3.566  15.716  0.0386 -0.1557  0.1845
 2751SOL    HW119886   0.625   3.472  15.721  0.1550 -0.1285  1.0409
 2751SOL    HW219887   0.607   3.589  15.803 -1.2468 -0.0483 -0.3315
 2752SOL     OW19888   1.673   1.063   3.437  0.6176  0.6644 -0.5537
 2752SOL    HW119889   1.635   0.980   3.465  0.0868  1.6794  1.6865
 2752SOL    HW219890   1.633   1.072   3.350  0.4554  1.3986 -0.4009
 2753SOL     OW19891   4.699   2.749   8.549  0.1290  0.4852  0.3182
 2753SOL    HW119892   4.728   2.787   8.632  1.2352  0.0416  0.1452
 2753SOL    HW219893   4.604   2.754   8.550  0.1285  0.8394 -1.8587
 2754SOL     OW19894   4.261   1.943   9.162  0.2237  0.4098  0.2168
 2754SOL    HW119895   4.166   1.956   9.169  0.0047 -1.4867  0.8599
 2754SOL    HW219896   4.260   1.952   9.067  1.0730  1.2618  0.2959
 2755SOL     OW19897   3.408   3.300  11.292 -0.3871  0.7383 -0.2574
 2755SOL    HW119898   3.438   3.338  11.375 -0.7061 -0.8702  0.5773
 2755SOL    HW219899   3.341   3.365  11.269 -0.9149  0.3309  0.1295
 2756SOL     OW19900   1.611   2.042   6.000 -0.5184 -0.1241  0.0782
 2756SOL    HW119901   1.705   2.050   6.017 -0.3858 -0.0327 -0.6820
 2756SOL    HW219902   1.574   2.103   6.063  0.1839 -0.0966  0.4682
 2757SOL     OW19903   2.223   4.677  13.043 -0.1714  0.0527 -0.5816
 2757SOL    HW119904   2.226   0.021  13.092  0.5994  0.3535 -1.1332
 2757SOL    HW219905   2.298   4.688  12.985  2.0597 -1.3006  1.9967
 2758SOL     OW19906   0.235   1.418  15.261 -0.1196 -0.1045 -0.1471
 2758SOL    HW119907   0.212   1.506  15.292 -0.9161 -0.3572 -0.0320
 2758SOL    HW219908   0.193   1.355  15.319 -1.2244  1.0878  0.3343
 2759SOL     OW19909   1.537   3.559   1.312 -0.0494  0.1116 -0.0501
 2759SOL    HW119910   1.583   3.571   1.229  1.0757 -0.0034  0.5463
 2759SOL    HW219911   1.503   3.647   1.328 -1.7146 -1.0781  2.9397
 2760SOL     OW19912   2.650   2.664   2.350 -0.3356 -0.1860 -0.3502
 2760SOL    HW119913   2.634   2.738   2.292 -1.5116  0.0532  0.2889
 2760SOL    HW219914   2.741   2.644   2.328 -0.2073 -0.7388  0.6739
 2761SOL     OW19915   2.651   1.739   8.569 -0.5325  0.4288  0.1094
 2761SOL    HW119916   2.651   1.812   8.507 -0.5249 -0.3725 -0.8426
 2761SOL    HW219917   2.652   1.792   8.649 -0.8365 -0.7704  0.9109
 2762SOL     OW19918   0.019   1.618   2.872  0.4103 -0.1394 -0.2511
 2762SOL    HW119919   0.076   1.598   2.945 -1.0347  1.9367  1.4430
 2762SOL    HW219920   0.020   1.533   2.828  0.1848 -0.1991 -0.1421
 2763SOL     OW19921   4.073   2.079   6.356  0.0945 -0.7444 -0.7549
 2763SOL    HW119922   4.147   2.040   6.403  1.6130  2.5173 -0.4113
 2763SOL    HW219923   4.047   2.003   6.304 -0.3351 -0.0431 -1.5649
 2764SOL     OW19924   3.657   0.798   1.915  0.5714 -0.2436 -0.0720
 2764SOL    HW119925   3.647   0.716   1.963  1.3683  0.2337  0.9026
 2764SOL    HW219926   3.725   0.837   1.970  0.3481 -0.1015  0.1019
 2765SOL     OW19927   2.790   2.076   5.329 -0.2517 -0.3415 -0.5485
 2765SOL    HW119928   2.871   2.060   5.377 -0.1370  1.5680 -0.1037
 2765SOL    HW219929   2.827   2.093   5.243 -0.8161 -1.1083 -0.9456
 2766SOL     OW19930   4.076   2.111   8.736  0.3036 -0.3186  0.2086
 2766SOL    HW119931   4.017   2.049   8.693 -1.6867  1.1739  0.7947
 2766SOL    HW219932   4.023   2.183   8.769 -1.7819 -2.2343  1.1245
 2767SOL     OW19933   3.349   3.360  13.607  0.2103 -0.5509 -0.3329
 2767SOL    HW119934   3.279   3.338  13.668  1.8142 -2.4753  0.7904
 2767SOL    HW219935   3.348   3.456  13.613 -2.6183 -0.4838 -1.9638
 2768SOL     OW19936   2.785   0.790  13.651  0.4107  0.0576  0.3354
 2768SOL    HW119937   2.854   0.735  13.688 -2.2551 -3.2949  0.3064
 2768SOL    HW219938   2.714   0.742  13.693  1.6497  0.3540  2.7556
 2769SOL     OW19939   4.127   2.339   5.854 -0.5334  0.1940 -0.4126
 2769SOL    HW119940   4.095   2.295   5.775 -2.1436  0.4430  0.1005
 2769SOL    HW219941   4.098   2.282   5.924  3.0291  1.6325  2.2680
 2770SOL     OW19942   0.230   3.456   7.611 -0.1596 -0.1407  0.3456
 2770SOL    HW119943   0.268   3.535   7.649  0.4213 -0.0547 -0.4051
 2770SOL    HW219944   0.304   3.429   7.556 -1.6388 -1.3349 -1.0628
 2771SOL     OW19945   3.051   1.760   1.361  0.5645  0.3398  0.6123
 2771SOL    HW119946   3.007   1.677   1.378  0.0434  0.5239  0.1604
 2771SOL    HW219947   3.031   1.804   1.443 -2.9877  0.0234 -0.1176
 2772SOL     OW19948   0.451   2.900  12.624 -0.1901  0.5358 -0.3280
 2772SOL    HW119949   0.454   2.947  12.708 -0.0833  0.3270 -0.2144
 2772SOL    HW219950   0.535   2.920  12.582 -0.8083 -0.5563 -2.0567
 2773SOL     OW19951   0.545   0.492   2.843 -0.0119 -0.3433  0.0043
 2773SOL    HW119952   0.560   0.400   2.868  3.6444 -0.1377 -1.3807
 2773SOL    HW219953   0.587   0.544   2.912 -1.2384 -0.1374  0.5823
 2774SOL     OW19954   0.344   3.467   6.062  0.1934 -0.2191 -0.0437
 2774SOL    HW119955   0.303   3.501   5.982  2.7114 -3.9850 -2.9073
 2774SOL    HW219956   0.275   3.426   6.114 -0.9899 -0.6956 -2.0288
 2775SOL     OW19957   4.552   0.398   3.381 -0.0704  0.0623 -0.2403
 2775SOL    HW119958   4.512   0.311   3.382 -0.5649  0.2849 -0.7367
 2775SOL    HW219959   4.638   0.371   3.350  0.5462  1.2014  0.4640
 2776SOL     OW19960   4.586   3.171   2.290 -0.1556 -0.1819  0.5878
 2776SOL    HW119961   4.650   3.243   2.284 -1.8409  1.2406 -0.1230
 2776SOL    HW219962   4.628   3.086   2.279 -0.7432 -0.4426  0.3825
 2777SOL     OW19963   3.603   1.648   2.014  0.2281 -0.1039 -0.0382
 2777SOL    HW119964   3.555   1.730   2.026 -0.2413 -0.5297  1.0206
 2777SOL    HW219965   3.605   1.646   1.918 -0.6747  1.0769 -0.0803
 2778SOL     OW19966   3.844   3.024   6.979  0.2865  0.5791 -0.2272
 2778SOL    HW119967   3.768   3.081   6.993  0.2293  0.5387 -0.3733
 2778SOL    HW219968   3.896   3.038   7.059 -0.4196  0.6889  0.2098
 2779SOL     OW19969   0.000   1.623   6.087 -0.3553 -0.0591  0.2932
 2779SOL    HW119970   4.695   1.552   6.040 -0.8205 -0.4839  1.3701
 2779SOL    HW219971   4.711   1.701   6.039  0.3788 -0.5327 -0.9031
 2780SOL     OW19972   2.850   3.627   7.113 -0.1760 -0.3526 -0.4100
 2780SOL    HW119973   2.837   3.697   7.177  0.4551  0.2418 -0.9292
 2780SOL    HW219974   2.895   3.558   7.162  0.6674  0.2882 -0.2853
 2781SOL     OW19975   3.508   3.995   2.762  0.7129 -0.0820  0.3285
 2781SOL    HW119976   3.577   4.047   2.803 -1.1526  0.8327  2.2886
 2781SOL    HW219977   3.440   4.062   2.753  0.6751 -0.2112 -0.3299
 2782SOL     OW19978   3.272   1.658   0.343 -0.5677 -0.2357 -0.5562
 2782SOL    HW119979   3.191   1.631   0.299 -0.3269 -0.0976 -1.0874
 2782SOL    HW219980   3.307   1.694   0.261  1.4904  1.6838  1.1499
 2783SOL     OW19981   1.061   1.830   3.547  0.1001 -0.2658  0.0046
 2783SOL    HW119982   0.983   1.809   3.494  1.1710  1.4969 -2.2739
 2783SOL    HW219983   1.030   1.823   3.637 -1.9628 -0.2825 -0.6847
 2784SOL     OW19984   0.880   3.297   2.895  0.0682 -0.2538 -0.3504
 2784SOL    HW119985   0.887   3.388   2.865  0.3512 -0.4192 -0.7931
 2784SOL    HW219986   0.897   3.252   2.812  1.5234  0.8721 -0.6739
 2785SOL     OW19987   1.045   1.750   4.979 -0.0198  0.9223  0.5838
 2785SOL    HW119988   1.049   1.739   4.884 -1.8400  0.6723  0.5465
 2785SOL    HW219989   0.953   1.741   5.004 -0.0663  1.6694  0.6766
 2786SOL     OW19990   3.024   4.133   9.248 -0.1687 -0.2600  0.3986
 2786SOL    HW119991   3.030   4.133   9.152  0.3788 -0.5678  0.4310
 2786SOL    HW219992   3.108   4.173   9.274 -0.4382  0.2349  0.5103
 2787SOL     OW19993   1.986   3.673   3.833 -0.1046 -0.5660 -0.5549
 2787SOL    HW119994   1.958   3.670   3.742 -0.1121 -0.9373 -0.5394
 2787SOL    HW219995   1.907   3.670   3.888 -0.2691  1.6464 -0.6556
 2788SOL     OW19996   2.566   3.769   6.298  0.1116 -0.4207 -0.1600
 2788SOL    HW119997   2.636   3.818   6.340  0.7178 -0.4778 -1.1113
 2788SOL    HW219998   2.592   3.678   6.317  0.2721  0.1318  2.2588
 2789SOL     OW19999   2.730   1.409   5.877  0.2705  0.7033  0.0174
 2789SOL    HW120000   2.734   1.420   5.972 -1.8860 -2.0981  0.4504
 2789SOL    HW220001   2.811   1.361   5.862  1.9512  3.5999 -0.0272
 2790SOL     OW20002   4.400   2.468   1.717  0.1579  0.1000  0.2899
 2790SOL    HW120003   4.341   2.507   1.652 -1.0067 -1.0872  0.6154
 2790SOL    HW220004   4.386   2.546   1.772 -0.2349  2.0875 -2.6438
 2791SOL     OW20005   2.803   1.534   3.895  0.0537  0.0597  0.4871
 2791SOL    HW120006   2.779   1.614   3.943  0.8096  0.7672 -0.3239
 2791SOL    HW220007   2.771   1.464   3.952 -0.7468 -0.4844 -0.6350
 2792SOL     OW20008   1.335   3.234   4.618 -0.5568 -0.3597  0.3259
 2792SOL    HW120009   1.386   3.157   4.643  1.8354  1.4695  1.0621
 2792SOL    HW220010   1.316   3.227   4.524  0.5959 -0.1721  0.0848
 2793SOL     OW20011   3.567   2.684   4.752  0.1767  0.0286 -0.4138
 2793SOL    HW120012   3.626   2.641   4.813  1.2760  2.3913  0.1843
 2793SOL    HW220013   3.500   2.725   4.807  0.9914  0.4729  0.2389
 2794SOL     OW20014   1.692   2.529  10.019 -0.1495 -0.3783 -0.1723
 2794SOL    HW120015   1.690   2.437  10.042 -0.2541 -0.5937 -1.0420
 2794SOL    HW220016   1.650   2.526   9.933  0.9623 -0.3335 -0.7249
 2795SOL     OW20017   4.435   1.202  11.193 -0.0044 -0.9406  0.3847
 2795SOL    HW120018   4.399   1.114  11.180  0.7390 -0.9284 -1.7539
 2795SOL    HW220019   4.358   1.258  11.204  0.5549 -0.1991  0.5618
 2796SOL     OW20020   1.242   3.710   6.698 -0.2287  0.1075  0.4986
 2796SOL    HW120021   1.197   3.713   6.782 -2.2854 -0.7631 -0.5743
 2796SOL    HW220022   1.240   3.798   6.660 -1.2508 -1.3696 -2.8543
 2797SOL     OW20023   1.689   4.173   8.290 -0.0276  0.0972  0.1027
 2797SOL    HW120024   1.703   4.192   8.197 -0.3288 -0.5525 -0.0826
 2797SOL    HW220025   1.774   4.198   8.324 -0.6749  1.4451  0.7163
 2798SOL     OW20026   2.351   0.847   5.255  0.0542 -0.3103 -0.1830
 2798SOL    HW120027   2.405   0.925   5.266  0.4357 -0.5837 -0.1034
 2798SOL    HW220028   2.275   0.887   5.297 -0.8282 -1.4119 -0.7314
 2799SOL     OW20029   2.589   2.295  16.367 -0.0872  0.1866 -0.1236
 2799SOL    HW120030   2.661   2.288  16.304  0.3893  0.2550  0.4201
 2799SOL    HW220031   2.517   2.276  16.307  0.5780 -1.0732 -0.5408
 2800SOL     OW20032   4.100   3.361   7.438  0.5103  0.4853  0.0120
 2800SOL    HW120033   4.105   3.430   7.371  2.2779  0.8319  0.4755
 2800SOL    HW220034   4.010   3.332   7.428  0.3962 -0.1053  2.8494
 2801SOL     OW20035   0.102   0.058  12.325 -0.1199  0.1565  0.4348
 2801SOL    HW120036   0.075   0.133  12.272 -0.7953 -0.8523 -0.6617
 2801SOL    HW220037   0.100   4.727  12.259 -2.3733  0.9498 -0.3455
 2802SOL     OW20038   2.107   1.865   5.991 -0.0628  0.2589 -0.0833
 2802SOL    HW120039   2.169   1.935   5.974  1.6349 -0.8338  1.6120
 2802SOL    HW220040   2.118   1.815   5.910  1.3790 -1.2641  1.0554
 2803SOL     OW20041   1.459   0.415   4.935  0.0225 -0.1048  0.3567
 2803SOL    HW120042   1.368   0.442   4.927  0.6053  1.1288 -1.8758
 2803SOL    HW220043   1.476   0.357   4.861 -2.9462  0.1262 -0.4950
 2804SOL     OW20044   2.914   0.358  15.168 -0.3301 -0.3301  0.3514
 2804SOL    HW120045   2.874   0.342  15.082  0.6072 -0.0293 -0.1395
 2804SOL    HW220046   2.973   0.284  15.183  1.1442  0.6155 -0.8359
 2805SOL     OW20047   0.636   2.164   3.051 -0.0320 -0.6281  0.3935
 2805SOL    HW120048   0.569   2.173   2.984 -1.2582  0.2230  1.7487
 2805SOL    HW220049   0.689   2.244   3.046 -0.6295 -0.1260  2.3157
 2806SOL     OW20050   0.365   3.079  15.471 -0.4739  0.2061 -0.7327
 2806SOL    HW120051   0.385   2.985  15.475  0.3523  0.4293  0.3977
 2806SOL    HW220052   0.394   3.111  15.557 -0.8654 -1.8406  0.1677
 2807SOL     OW20053   4.690   0.405   7.520  0.0963 -0.6380 -0.2567
 2807SOL    HW120054   4.603   0.446   7.521  0.0964 -0.7728  3.1391
 2807SOL    HW220055   4.732   0.457   7.589  2.0233 -0.1260 -1.8208
 2808SOL     OW20056   2.639   0.842   5.790 -0.2711 -0.3722  0.5583
 2808SOL    HW120057   2.693   0.763   5.793  0.6639  0.1771 -1.4185
 2808SOL    HW220058   2.689   0.893   5.854 -1.1889  0.9174  0.2466
 2809SOL     OW20059   3.935   2.246   0.768 -0.2660  0.3147  0.2536
 2809SOL    HW120060   3.984   2.313   0.720 -0.3626  0.0002 -0.2743
 2809SOL    HW220061   3.864   2.233   0.706 -0.6766  2.4689  0.2625
 2810SOL     OW20062   4.254   0.456   7.685  0.0859  0.0670 -0.7931
 2810SOL    HW120063   4.347   0.475   7.668  0.3513 -1.7959 -1.4375
 2810SOL    HW220064   4.260   0.381   7.743  0.7871  1.4629  0.9327
 2811SOL     OW20065   3.732   2.500   2.476  0.0233 -0.0973 -0.0730
 2811SOL    HW120066   3.715   2.507   2.382  0.3332  1.6132 -0.0065
 2811SOL    HW220067   3.803   2.560   2.499 -1.2372  1.4730 -0.2278
 2812SOL     OW20068   2.428   2.808   5.779 -0.6945  0.2926 -0.1549
 2812SOL    HW120069   2.449   2.901   5.768 -0.3283  0.1359 -0.7663
 2812SOL    HW220070   2.445   2.795   5.872 -0.2538  2.1291  0.0209
 2813SOL     OW20071   3.762   0.784  12.841 -0.3364 -0.1292  0.6263
 2813SOL    HW120072   3.748   0.864  12.791  1.1573  0.4719  1.1573
 2813SOL    HW220073   3.748   0.828  12.925 -2.3000  2.3920 -1.0303
 2814SOL     OW20074   0.006   0.830   3.471 -0.4238 -0.2316  0.1976
 2814SOL    HW120075   0.017   0.757   3.410 -0.7175  0.2313 -0.4194
 2814SOL    HW220076   0.030   0.794   3.556  0.2065  1.2415  0.6602
 2815SOL     OW20077   3.082   4.558  13.382 -0.7405 -0.0319 -0.4458
 2815SOL    HW120078   3.045   4.609  13.454  0.1124  1.7143 -1.2460
 2815SOL    HW220079   3.097   4.473  13.425 -1.8699 -0.1127 -0.2235
 2816SOL     OW20080   1.097   1.145   1.803  0.0958 -0.5827 -0.0032
 2816SOL    HW120081   1.192   1.143   1.789  0.4934  1.6939  2.2637
 2816SOL    HW220082   1.090   1.224   1.857  1.6549  0.2752 -1.0668
 2817SOL     OW20083   1.758   4.503   1.605 -0.7893 -0.1376  0.1730
 2817SOL    HW120084   1.801   4.520   1.521  0.7661 -0.8624  0.8287
 2817SOL    HW220085   1.673   4.463   1.585 -0.0310 -1.8006  0.2585
 2818SOL     OW20086   3.646   1.696   4.166 -0.7220  0.2070 -0.1217
 2818SOL    HW120087   3.560   1.661   4.143 -0.9671  1.9736 -1.8918
 2818SOL    HW220088   3.652   1.781   4.122 -0.5691  0.8313  1.0928
 2819SOL     OW20089   2.348   3.883  16.142 -0.2915  0.3627  0.0160
 2819SOL    HW120090   2.419   3.910  16.201  1.1334 -0.0854 -1.4749
 2819SOL    HW220091   2.396   3.840  16.070 -0.6343  1.8681 -1.1089
 2820SOL     OW20092   1.547   0.318   2.805 -0.2763  0.0386  0.0873
 2820SOL    HW120093   1.539   0.223   2.793  0.8114  0.0549 -0.7527
 2820SOL    HW220094   1.483   0.327   2.876 -0.1810  2.3818 -0.1373
 2821SOL     OW20095   1.768   1.203   1.131  0.0756  0.3146  0.3279
 2821SOL    HW120096   1.779   1.127   1.074  1.2337  0.5044  0.2964
 2821SOL    HW220097   1.718   1.162   1.201  1.8879  0.1414  1.5039
 2822SOL     OW20098   3.640   1.868   8.504  0.2673 -0.3562 -0.4878
 2822SOL    HW120099   3.721   1.839   8.463 -0.6590 -0.3773 -2.3050
 2822SOL    HW220100   3.658   1.960   8.520 -0.4337 -0.7456  2.6563
 2823SOL     OW20101   1.398   4.201   1.745 -0.5479  0.2484  0.0560
 2823SOL    HW120102   1.308   4.231   1.739 -0.4196  0.5680 -0.3140
 2823SOL    HW220103   1.447   4.267   1.696 -1.3025  1.1737  0.5659
 2824SOL     OW20104   1.297   0.100  11.927  0.3676  0.4214 -0.5757
 2824SOL    HW120105   1.299   0.195  11.939  3.0412  0.1060  1.6026
 2824SOL    HW220106   1.367   0.081  11.990 -0.2373 -0.0060 -0.0293
 2825SOL     OW20107   3.897   1.880   2.790 -0.1988  0.2642 -0.4124
 2825SOL    HW120108   3.879   1.911   2.879  1.6568 -0.0850  0.0941
 2825SOL    HW220109   3.991   1.866   2.802  0.3502  2.7389 -1.9207
 2826SOL     OW20110   2.839   0.777   0.866  0.0866  0.3524 -0.0357
 2826SOL    HW120111   2.784   0.805   0.793 -0.3252  0.0764  0.1660
 2826SOL    HW220112   2.786   0.810   0.939  2.0158  1.7394  0.7573
 2827SOL     OW20113   2.487   0.912   6.806  0.5908  0.1410 -0.0013
 2827SOL    HW120114   2.418   0.859   6.766  3.2600 -2.4862 -1.1338
 2827SOL    HW220115   2.460   0.910   6.898 -1.4192 -1.1299 -0.6264
 2828SOL     OW20116   1.993   3.130   7.729  0.2137  0.4837 -0.7051
 2828SOL    HW120117   1.973   3.204   7.788 -1.3812 -1.0622  0.7110
 2828SOL    HW220118   1.964   3.172   7.648 -1.7251 -0.2337 -0.4034
 2829SOL     OW20119   1.873   4.060   4.415 -0.1814  0.2081 -0.2001
 2829SOL    HW120120   1.918   4.142   4.395  0.4943 -0.0098  0.4390
 2829SOL    HW220121   1.782   4.088   4.404 -0.1214  1.0799  1.5134
 2830SOL     OW20122   4.644   1.253   8.960  0.0203 -0.5284  0.1542
 2830SOL    HW120123   4.554   1.226   8.941 -0.4697  0.7402  0.7159
 2830SOL    HW220124   4.650   1.341   8.924 -0.2635 -1.0631 -1.2087
 2831SOL     OW20125   0.890   2.358  10.487  0.1201  0.5030  0.2619
 2831SOL    HW120126   0.969   2.377  10.537  0.4540  0.2343 -0.1633
 2831SOL    HW220127   0.823   2.425  10.501 -1.3845 -1.0004  0.2532
 2832SOL     OW20128   3.127   2.882  12.455 -0.3197  0.1972 -0.8356
 2832SOL    HW120129   3.065   2.956  12.450  0.8249  1.3132  1.3648
 2832SOL    HW220130   3.207   2.929  12.477 -1.3938  1.6720 -0.0336
 2833SOL     OW20131   4.091   2.567   5.353 -0.6201 -0.1297  0.1883
 2833SOL    HW120132   4.152   2.618   5.406  0.0536 -1.6132  0.8561
 2833SOL    HW220133   4.092   2.614   5.270  1.7613  0.2190  0.4130
 2834SOL     OW20134   0.252   2.255  17.521 -0.7566 -0.0641  0.7172
 2834SOL    HW120135   0.217   2.167  17.536  1.0338 -0.5914  1.8073
 2834SOL    HW220136   0.266   2.291  17.608 -0.1393 -2.7619  1.7352
 2835SOL     OW20137   1.189   0.259  17.427  0.0417 -0.3589  0.7060
 2835SOL    HW120138   1.274   0.221  17.405  0.2678  1.2888 -1.2001
 2835SOL    HW220139   1.202   0.285  17.518  1.0225  1.4249  0.0432
 2836SOL     OW20140   3.971   3.918  10.314  0.2500  0.2186  0.4595
 2836SOL    HW120141   3.902   3.974  10.279 -1.2181 -1.4751  0.6414
 2836SOL    HW220142   4.051   3.936  10.264 -1.0458  1.5103 -1.1342
 2837SOL     OW20143   2.111   3.401   4.248  0.2070 -0.1673  0.3959
 2837SOL    HW120144   2.153   3.487   4.255 -3.2904  1.6170 -0.2433
 2837SOL    HW220145   2.030   3.416   4.200  0.2070  0.5413  0.6132
 2838SOL     OW20146   2.378   1.187  12.228  0.0470  0.5526 -0.5570
 2838SOL    HW120147   2.460   1.235  12.215  0.1319  0.8544  1.0202
 2838SOL    HW220148   2.354   1.200  12.320 -0.3774  1.2844 -0.7694
 2839SOL     OW20149   3.376   0.917   6.192  0.2971 -0.3712  0.1732
 2839SOL    HW120150   3.360   0.963   6.275  0.3711  0.1572 -0.1037
 2839SOL    HW220151   3.286   0.887   6.176  0.3295 -0.4382  0.1159
 2840SOL     OW20152   4.687   2.312  15.175 -0.0650 -0.1215  0.5327
 2840SOL    HW120153   4.608   2.365  15.168  0.0734 -0.1169 -1.1920
 2840SOL    HW220154   0.004   2.348  15.104 -1.1812 -3.6691 -2.1245
 2841SOL     OW20155   1.420   2.690   1.984 -0.2732  0.6680 -0.6268
 2841SOL    HW120156   1.329   2.719   1.984 -0.9488 -1.4438 -0.2346
 2841SOL    HW220157   1.433   2.669   2.076  1.1887  0.4845 -0.8691
 2842SOL     OW20158   3.370   1.900   9.086 -0.0452 -0.1786  0.1187
 2842SOL    HW120159   3.321   1.976   9.117  0.0277  0.7323 -2.0065
 2842SOL    HW220160   3.451   1.911   9.136  1.1568  0.5246 -1.9838
 2843SOL     OW20161   2.623   3.143  13.962 -0.2894  0.3135 -0.1743
 2843SOL    HW120162   2.567   3.144  13.885 -1.4445  0.9812  0.6679
 2843SOL    HW220163   2.552   3.114  14.020  0.7982 -0.6893  0.6629
 2844SOL     OW20164   2.286   1.832   6.499  0.0123  0.6771 -0.4393
 2844SOL    HW120165   2.280   1.922   6.531  2.1213  0.9694 -0.8447
 2844SOL    HW220166   2.240   1.827   6.415 -0.0475  0.6737 -0.4066
 2845SOL     OW20167   2.571   2.717   7.684 -0.1323 -0.0995 -0.8645
 2845SOL    HW120168   2.653   2.668   7.692 -0.2057  0.1894  1.6239
 2845SOL    HW220169   2.561   2.754   7.772 -1.4980  1.1004 -1.5037
 2846SOL     OW20170   3.913   1.541   5.205  0.1973 -0.0467 -0.1041
 2846SOL    HW120171   3.852   1.502   5.268  0.8294 -0.0376  0.5204
 2846SOL    HW220172   3.970   1.596   5.259  0.7823 -1.3599  0.6197
 2847SOL     OW20173   0.312   3.622   6.910 -0.1131  0.0592 -0.0030
 2847SOL    HW120174   0.369   3.647   6.837  0.2222  0.9318  0.5508
 2847SOL    HW220175   0.277   3.706   6.942  1.0429  0.3357  0.5711
 2848SOL     OW20176   0.638   2.223   9.519 -0.4943  0.2583  0.4916
 2848SOL    HW120177   0.680   2.140   9.540 -1.6670 -0.6060 -0.5137
 2848SOL    HW220178   0.667   2.269   9.597 -1.2610  0.8220  0.4470
 2849SOL     OW20179   0.193   1.601  16.479  0.3137 -0.2613 -0.0690
 2849SOL    HW120180   0.226   1.690  16.468  0.7071 -0.4072 -0.0899
 2849SOL    HW220181   0.138   1.593  16.401  0.5409  1.1230 -0.3816
 2850SOL     OW20182   3.345   4.004   9.578  0.5909 -0.2193  0.3367
 2850SOL    HW120183   3.263   3.991   9.530  1.1205  2.1252 -1.2593
 2850SOL    HW220184   3.317   4.054   9.654  0.9265  0.4972 -0.0114
 2851SOL     OW20185   4.201   1.688   3.653  0.3911 -0.1786  0.6203
 2851SOL    HW120186   4.199   1.602   3.695 -0.6691 -0.4841 -0.0499
 2851SOL    HW220187   4.295   1.702   3.662  0.2589  1.4596 -0.4111
 2852SOL     OW20188   4.246   1.353   3.371  0.0829 -0.3447 -0.0783
 2852SOL    HW120189   4.271   1.416   3.304 -0.2342  0.8972  0.9869
 2852SOL    HW220190   4.300   1.370   3.448 -1.9857  0.5461  1.1757
 2853SOL     OW20191   0.100   4.731   5.076 -0.2080 -0.6820  0.0704
 2853SOL    HW120192   0.010   4.710   5.100 -0.9665 -0.2901 -2.4628
 2853SOL    HW220193   0.158   4.667   5.119  0.0598  1.1288  2.4295
 2854SOL     OW20194   4.397   0.239   7.867 -0.2129  0.7551 -0.3614
 2854SOL    HW120195   4.470   0.177   7.862 -0.6176  0.1679  0.8916
 2854SOL    HW220196   4.332   0.173   7.889  0.4812  0.3292  0.4088
 2855SOL     OW20197   2.098   2.157   8.533 -0.4595 -0.2165  0.0237
 2855SOL    HW120198   2.100   2.072   8.577  1.2793 -0.7881 -1.1539
 2855SOL    HW220199   2.188   2.161   8.501 -0.1049 -0.5980  0.9707
 2856SOL     OW20200   0.308   2.842   7.607  0.8774  0.5091 -0.2353
 2856SOL    HW120201   0.367   2.821   7.679  0.5744 -2.9100 -0.9894
 2856SOL    HW220202   0.367   2.899   7.557  1.9740  1.1421  1.7920
 2857SOL     OW20203   2.317   3.324   7.891  0.2087  0.4947 -0.0249
 2857SOL    HW120204   2.236   3.369   7.918  0.3328  0.0922  1.0181
 2857SOL    HW220205   2.286   3.235   7.906 -1.0878  0.7068 -1.3803
 2858SOL     OW20206   3.864   2.671   4.286  0.4190 -0.3555 -0.2385
 2858SOL    HW120207   3.828   2.748   4.243  0.2245 -1.2330 -1.6397
 2858SOL    HW220208   3.876   2.626   4.203 -2.0310 -0.1552 -0.6859
 2859SOL     OW20209   0.656   3.329   2.659  0.0877  0.3443 -0.5699
 2859SOL    HW120210   0.684   3.421   2.658 -0.6812  0.5652 -1.1968
 2859SOL    HW220211   0.619   3.312   2.573  1.5101 -1.2283 -0.8753
 2860SOL     OW20212   3.870   3.687   4.658 -0.5458 -0.0251  0.1392
 2860SOL    HW120213   3.783   3.651   4.676 -0.5830 -0.8803 -1.8140
 2860SOL    HW220214   3.853   3.773   4.621 -2.3248  0.6579  2.4758
 2861SOL     OW20215   3.607   3.293  15.232  0.2291  0.0006 -0.2199
 2861SOL    HW120216   3.670   3.321  15.166 -0.5757  2.8963  0.2357
 2861SOL    HW220217   3.531   3.283  15.174  1.0420 -1.9235 -0.9521
 2862SOL     OW20218   4.151   3.042   3.308 -0.1472  0.1485 -0.2932
 2862SOL    HW120219   4.196   3.123   3.282 -1.0382  0.3550 -1.2149
 2862SOL    HW220220   4.194   2.965   3.270 -0.7190  0.1360 -0.9087
 2863SOL     OW20221   0.069   3.616   8.552 -0.0316  0.6064  0.2291
 2863SOL    HW120222   0.089   3.550   8.618 -1.6965  0.7808  0.9144
 2863SOL    HW220223   4.733   3.660   8.594 -0.2639  0.6077 -0.1880
 2864SOL     OW20224   3.514   3.730   5.704  0.1152 -0.2481  0.1011
 2864SOL    HW120225   3.554   3.703   5.786  0.3446 -1.4256 -0.4071
 2864SOL    HW220226   3.581   3.789   5.669 -1.5388  1.0632 -0.8705
 2865SOL     OW20227   4.127   0.467   4.129 -0.2851 -0.0326 -0.2629
 2865SOL    HW120228   4.173   0.450   4.047 -1.7127 -0.9724 -0.8529
 2865SOL    HW220229   4.129   0.563   4.130 -2.4339  0.0044 -0.7633
 2866SOL     OW20230   1.140   0.220   5.928 -0.2242 -0.3241 -0.4682
 2866SOL    HW120231   1.221   0.210   5.979  1.1165  0.4107 -2.4775
 2866SOL    HW220232   1.107   0.302   5.964 -0.3561  0.2451 -1.8962
 2867SOL     OW20233   2.492   0.926   3.824  0.0048 -0.4962 -0.2695
 2867SOL    HW120234   2.544   1.000   3.854 -2.8080  0.4451  2.2529
 2867SOL    HW220235   2.466   0.959   3.738 -0.0708 -1.7574 -0.7242
 2868SOL     OW20236   0.064   3.525  11.164 -0.3315 -0.0249 -0.3657
 2868SOL    HW120237   0.036   3.555  11.078  1.6685  2.0434 -0.3042
 2868SOL    HW220238   4.732   3.555  11.222 -0.9783 -0.7390 -0.7918
 2869SOL     OW20239   2.676   4.031   7.450  0.4413 -1.1779 -0.3549
 2869SOL    HW120240   2.639   4.045   7.537  0.6023  0.1760 -0.5054
 2869SOL    HW220241   2.684   4.122   7.422  0.2430 -0.6600  1.3090
 2870SOL     OW20242   0.985   2.532   8.960 -0.8859  0.0633  0.1318
 2870SOL    HW120243   0.984   2.441   8.988 -2.8832  0.3379  0.9842
 2870SOL    HW220244   0.945   2.575   9.035 -0.9768  0.8190 -0.3498
 2871SOL     OW20245   2.447   2.377   1.817 -0.2789  0.5650  0.1872
 2871SOL    HW120246   2.504   2.403   1.744 -0.7390 -2.5673 -1.3042
 2871SOL    HW220247   2.505   2.390   1.892  1.0579  0.4242 -0.8229
 2872SOL     OW20248   2.453   3.199   8.487  0.1386 -0.5791 -0.4168
 2872SOL    HW120249   2.389   3.235   8.426 -0.1526 -0.5239 -0.0811
 2872SOL    HW220250   2.415   3.121   8.529  0.4148  0.0543  1.0231
 2873SOL     OW20251   0.246   3.035   0.574 -0.3864 -0.0589  0.4107
 2873SOL    HW120252   0.177   3.100   0.588 -0.6016 -0.0857 -0.5470
 2873SOL    HW220253   0.322   3.091   0.589 -0.1923 -0.2521  0.1467
 2874SOL     OW20254   4.302   1.890  11.670  0.0358 -0.3860  0.1690
 2874SOL    HW120255   4.276   1.803  11.637  0.7917 -0.8390  0.7817
 2874SOL    HW220256   4.219   1.934  11.686  1.0072  1.6156 -0.2929
 2875SOL     OW20257   0.970   4.702   4.556  0.1229 -0.0901  0.4145
 2875SOL    HW120258   0.883   4.732   4.528  0.7884 -1.4422 -3.0745
 2875SOL    HW220259   1.004   0.051   4.578  1.3564  0.2331 -2.7041
 2876SOL     OW20260   2.333   0.323   3.794  0.0877 -0.1792 -0.4741
 2876SOL    HW120261   2.400   0.391   3.791  0.3015 -0.2780  1.9094
 2876SOL    HW220262   2.262   0.374   3.834 -0.9608  0.6329 -3.3391
 2877SOL     OW20263   0.588   0.519   2.072 -0.6843  0.2363  0.2237
 2877SOL    HW120264   0.549   0.590   2.021 -0.4993  0.8199  0.9042
 2877SOL    HW220265   0.635   0.571   2.136 -0.9581 -1.0406  1.4610
 2878SOL     OW20266   0.565   2.862   2.952 -0.2540  0.0674  0.0325
 2878SOL    HW120267   0.575   2.947   2.909  1.1839  0.5767  1.3720
 2878SOL    HW220268   0.651   2.846   2.992 -0.0419  0.3598 -0.3059
 2879SOL     OW20269   4.294   3.406   5.353  0.5424 -0.4929  0.4628
 2879SOL    HW120270   4.244   3.327   5.376 -0.4787 -0.0544 -0.2806
 2879SOL    HW220271   4.373   3.362   5.323  0.3730  0.0215 -0.7258
 2880SOL     OW20272   0.258   1.726   5.089  0.5108 -0.0900  0.0145
 2880SOL    HW120273   0.205   1.681   5.155  0.4111 -1.9600 -1.3481
 2880SOL    HW220274   0.196   1.724   5.016  1.8293 -2.0513 -1.0342
 2881SOL     OW20275   3.329   2.127   1.999  0.2694 -0.4177 -0.0135
 2881SOL    HW120276   3.354   2.036   1.983  2.6889  0.0445  1.1301
 2881SOL    HW220277   3.339   2.168   1.913 -1.2204 -2.5907 -1.1953
 2882SOL     OW20278   2.074   0.618  17.416  0.4865  0.2086 -0.2670
 2882SOL    HW120279   2.088   0.703  17.375  0.4805  0.7694  0.8895
 2882SOL    HW220280   1.983   0.598  17.393  0.1070  0.2382  1.1834
 2883SOL     OW20281   3.267   0.616  12.194 -0.6231  0.7298  0.0125
 2883SOL    HW120282   3.288   0.576  12.110  0.2523 -2.3154  1.6912
 2883SOL    HW220283   3.192   0.565  12.227 -1.6603  2.8775  1.0146
 2884SOL     OW20284   0.708   2.070   7.322  0.5033  0.2341  0.7001
 2884SOL    HW120285   0.627   2.023   7.305 -0.6321  1.8003  1.7604
 2884SOL    HW220286   0.769   2.022   7.265 -1.1046 -0.2648 -0.5923
 2885SOL     OW20287   1.475   4.110   3.652 -1.0844 -0.2128  0.2309
 2885SOL    HW120288   1.410   4.130   3.584 -1.2845  0.1010  0.5184
 2885SOL    HW220289   1.482   4.187   3.708 -0.0543 -0.2622  0.1795
 2886SOL     OW20290   4.396   2.419   3.459  0.6904 -0.2509  0.4606
 2886SOL    HW120291   4.376   2.371   3.539  1.0710 -2.4268 -0.7668
 2886SOL    HW220292   4.391   2.510   3.489 -0.2807 -0.9949  2.5721
 2887SOL     OW20293   1.347   3.567   2.839  0.2718  0.1721  0.4516
 2887SOL    HW120294   1.330   3.596   2.749  1.4780  0.6544  0.3831
 2887SOL    HW220295   1.257   3.573   2.873  1.1610  3.5488  2.2065
 2888SOL     OW20296   2.768   1.583   0.526 -0.0329 -0.1415 -0.0001
 2888SOL    HW120297   2.776   1.494   0.492  0.9407 -0.9590  2.3178
 2888SOL    HW220298   2.861   1.599   0.545 -0.0506  0.8477 -0.7303
 2889SOL     OW20299   1.549   4.330   5.141 -0.1850 -0.2108 -0.5587
 2889SOL    HW120300   1.631   4.378   5.140  0.3379 -1.0997 -0.1658
 2889SOL    HW220301   1.581   4.247   5.104  0.7248 -0.0954 -0.0121
 2890SOL     OW20302   2.512   4.404  14.742  0.1208 -0.4338  0.2913
 2890SOL    HW120303   2.441   4.353  14.782  0.4409 -2.1974 -1.3544
 2890SOL    HW220304   2.495   4.411  14.648 -0.0819 -1.3309  0.2586
 2891SOL     OW20305   1.237   0.591  15.432  0.4784  0.0181 -0.1337
 2891SOL    HW120306   1.171   0.574  15.499 -1.3798 -1.4222 -2.3044
 2891SOL    HW220307   1.182   0.626  15.362 -0.6141 -0.5200  0.4430
 2892SOL     OW20308   3.516   2.494   5.732  0.2375  0.3551  0.8951
 2892SOL    HW120309   3.434   2.445   5.732 -0.4145  1.4315 -0.6356
 2892SOL    HW220310   3.527   2.510   5.826  1.5119 -0.0245  0.8004
 2893SOL     OW20311   0.972   1.640   2.505 -0.6729  0.0260 -0.4142
 2893SOL    HW120312   0.912   1.711   2.481 -0.8180 -0.1860 -0.6771
 2893SOL    HW220313   0.941   1.571   2.447  1.2266 -0.4266 -0.8819
 2894SOL     OW20314   2.577   4.620   2.266  0.7917 -0.1295  0.6309
 2894SOL    HW120315   2.486   4.614   2.298  0.5280 -0.6213 -0.2106
 2894SOL    HW220316   2.579   4.533   2.226 -1.1372  1.4049 -2.7907
 2895SOL     OW20317   3.312   1.759   3.918  0.2202  0.0608  0.2553
 2895SOL    HW120318   3.357   1.703   3.982  0.7946  1.8365  1.4095
 2895SOL    HW220319   3.231   1.707   3.913 -0.3458  0.9340  0.4464
 2896SOL     OW20320   3.338   4.240  10.392  0.1890  0.0654 -0.2408
 2896SOL    HW120321   3.415   4.266  10.343 -0.0792  1.4084  0.0614
 2896SOL    HW220322   3.283   4.318  10.385 -0.2270 -0.3054 -1.1543
 2897SOL     OW20323   1.785   3.784   9.724  0.2662  0.5619 -0.7010
 2897SOL    HW120324   1.726   3.775   9.799  2.1140 -1.3386  0.5139
 2897SOL    HW220325   1.860   3.742   9.767  0.6197  2.7598  0.9045
 2898SOL     OW20326   4.088   4.021  13.112  0.0942 -0.1962 -0.5929
 2898SOL    HW120327   4.172   4.004  13.154 -0.2699 -0.5266 -0.0005
 2898SOL    HW220328   4.097   4.111  13.079 -0.5730  0.3505  0.7062
 2899SOL     OW20329   3.010   1.695   2.303 -0.0643 -0.0178 -0.7867
 2899SOL    HW120330   2.970   1.744   2.230  0.2869  1.0174 -0.2919
 2899SOL    HW220331   3.053   1.764   2.354 -1.4955  0.8478 -0.7534
 2900SOL     OW20332   3.693   4.114   2.552 -0.6218  0.8513  0.9167
 2900SOL    HW120333   3.671   4.197   2.595  1.9292  0.7896  2.3011
 2900SOL    HW220334   3.601   4.088   2.543  0.5835 -3.0259 -0.2729
 2901SOL     OW20335   3.156   0.217   2.235 -0.7009 -0.2368 -0.0591
 2901SOL    HW120336   3.219   0.145   2.244  0.0017  0.1701 -1.6573
 2901SOL    HW220337   3.210   0.267   2.174 -1.7799  1.2628  0.2329
 2902SOL     OW20338   0.104   1.598   5.293  0.8510  0.6264 -0.5870
 2902SOL    HW120339   0.014   1.631   5.299  0.4349 -1.0476  2.2702
 2902SOL    HW220340   0.093   1.507   5.266  1.9119  0.3782 -0.1977
 2903SOL     OW20341   1.605   1.649  12.821 -0.3562 -0.1637 -0.3667
 2903SOL    HW120342   1.529   1.665  12.877  1.2501 -1.3165  2.1752
 2903SOL    HW220343   1.672   1.599  12.867  0.3893  0.8852 -0.3220
 2904SOL     OW20344   1.302   1.512  12.114 -0.4671 -0.2220  0.3837
 2904SOL    HW120345   1.269   1.424  12.099 -0.9867  0.1032 -0.3501
 2904SOL    HW220346   1.221   1.558  12.090  0.0628  0.1034 -0.8047
 2905SOL     OW20347   0.233   1.431   2.092  0.2290  0.2545  0.0202
 2905SOL    HW120348   0.265   1.479   2.015 -2.0308  0.6144 -0.7298
 2905SOL    HW220349   0.145   1.416   2.057  0.8795 -2.1200 -0.6251
 2906SOL     OW20350   2.399   3.087   2.235 -0.0194 -0.0331  0.4325
 2906SOL    HW120351   2.349   3.168   2.226  1.3721  0.9582  1.6999
 2906SOL    HW220352   2.328   3.024   2.222 -0.4789  0.6086 -0.2261
 2907SOL     OW20353   1.248   4.316   2.005  0.1188  0.5880 -0.1149
 2907SOL    HW120354   1.249   4.405   2.040 -3.4965  0.7516 -0.5008
 2907SOL    HW220355   1.258   4.337   1.912  0.4662 -0.5995 -0.3428
 2908SOL     OW20356   2.811   0.447  12.003  0.4367 -0.1183 -0.8589
 2908SOL    HW120357   2.822   0.520  12.064 -2.4592 -0.6627  0.2870
 2908SOL    HW220358   2.721   0.423  12.022  1.1759 -1.0530  1.5458
 2909SOL     OW20359   3.929   4.089  14.704 -0.0276 -1.1172  0.6856
 2909SOL    HW120360   3.899   4.133  14.783  0.2252  1.4734 -0.6655
 2909SOL    HW220361   3.947   4.000  14.734 -1.2282 -1.1132  1.4103
 2910SOL     OW20362   4.009   2.211  11.923  0.1949 -0.2042 -0.2952
 2910SOL    HW120363   3.940   2.206  11.989 -0.5699 -1.9378 -1.2354
 2910SOL    HW220364   4.041   2.300  11.939  1.8582 -0.8981  0.1737
 2911SOL     OW20365   0.169   3.464   8.765  0.7050 -0.3544 -0.0366
 2911SOL    HW120366   0.163   3.370   8.779 -1.0897 -0.1246  0.7022
 2911SOL    HW220367   0.262   3.467   8.742  0.7407  0.9887  0.2638
 2912SOL     OW20368   2.872   2.253   7.673  0.0893  0.4092 -0.0575
 2912SOL    HW120369   2.928   2.198   7.618 -1.5774 -1.0681 -0.2804
 2912SOL    HW220370   2.913   2.338   7.657 -2.1091  1.3550 -0.6464
 2913SOL     OW20371   3.221   0.022  15.530 -0.0248  0.5679 -0.2440
 2913SOL    HW120372   3.194   4.689  15.471  1.2827 -1.9995  2.2691
 2913SOL    HW220373   3.189   0.101  15.487  0.8178  0.6919 -0.6562
 2914SOL     OW20374   1.750   0.286   6.293  0.1071 -0.0693 -0.2891
 2914SOL    HW120375   1.713   0.349   6.231 -0.4233  1.6297  1.7648
 2914SOL    HW220376   1.668   0.262   6.336  1.0652 -1.0819  0.9500
 2915SOL     OW20377   2.176   0.407  10.869  0.2912  0.5973  0.1646
 2915SOL    HW120378   2.122   0.419  10.947 -1.2440 -3.1731 -0.3286
 2915SOL    HW220379   2.265   0.399  10.903  0.4846 -1.3261 -0.7800
 2916SOL     OW20380   3.965   4.221  12.142 -1.0488 -0.2178  0.0004
 2916SOL    HW120381   4.037   4.222  12.205 -1.2716 -0.4781  0.2620
 2916SOL    HW220382   3.951   4.311  12.115 -1.6398 -0.5203 -0.7061
 2917SOL     OW20383   2.070   3.007   3.515 -0.2374  0.2597  0.2536
 2917SOL    HW120384   2.079   3.086   3.462  0.7693  1.0659  1.6225
 2917SOL    HW220385   1.993   2.976   3.467  0.0639 -0.8893  0.5062
 2918SOL     OW20386   0.380   1.952   7.007  0.0295  0.4398  0.2238
 2918SOL    HW120387   0.441   1.890   6.967  0.4261  0.5753  0.6212
 2918SOL    HW220388   0.365   2.008   6.931  0.4382 -0.2922 -0.3997
 2919SOL     OW20389   2.058   2.384   4.303 -0.2554 -0.3540 -0.4770
 2919SOL    HW120390   2.116   2.373   4.379  0.1797 -0.5258 -0.8382
 2919SOL    HW220391   2.047   2.479   4.298 -0.6399 -0.4293 -0.9805
 2920SOL     OW20392   1.490   0.450  11.088 -0.0485  0.0462 -0.6013
 2920SOL    HW120393   1.482   0.357  11.066  1.5767  0.1534 -1.6637
 2920SOL    HW220394   1.537   0.446  11.172 -1.2295  2.2643  0.1620
 2921SOL     OW20395   4.137   3.460  13.645 -0.0860 -0.1056 -0.3335
 2921SOL    HW120396   4.178   3.499  13.722  1.1403  1.2101 -1.6691
 2921SOL    HW220397   4.189   3.380  13.636 -0.8997 -0.8346  1.4446
 2922SOL     OW20398   1.023   2.975   5.439  0.4601 -0.6275 -0.8193
 2922SOL    HW120399   0.969   2.978   5.361 -0.8382 -2.5732  0.0227
 2922SOL    HW220400   0.972   2.904   5.477 -1.1528  0.7855 -0.3122
 2923SOL     OW20401   4.063   0.507   9.172 -0.1056 -0.0904  0.6370
 2923SOL    HW120402   4.077   0.417   9.203 -3.3355 -0.7039  0.3162
 2923SOL    HW220403   3.970   0.525   9.179  0.0639  1.4415 -1.1071
 2924SOL     OW20404   1.630   4.702   5.859 -0.1360 -0.3438  0.1620
 2924SOL    HW120405   1.588   4.661   5.934 -0.9774 -1.0807 -0.7151
 2924SOL    HW220406   1.603   4.637   5.794 -2.0022 -0.4355  1.0493
 2925SOL     OW20407   2.380   0.641   1.276 -0.3311 -0.3292 -0.3703
 2925SOL    HW120408   2.381   0.724   1.324  0.6128  0.2595 -1.4107
 2925SOL    HW220409   2.446   0.661   1.210 -0.8459  0.9510 -0.5036
 2926SOL     OW20410   4.188   0.979   7.431 -0.3447  0.1964  0.2441
 2926SOL    HW120411   4.279   0.972   7.401 -0.8817  1.3515 -1.6828
 2926SOL    HW220412   4.207   0.954   7.521  1.1099 -2.2216 -0.7378
 2927SOL     OW20413   0.814   0.516  16.603 -0.0031 -0.1066  0.3852
 2927SOL    HW120414   0.858   0.444  16.648  0.9782 -0.7550 -1.5805
 2927SOL    HW220415   0.791   0.467  16.523  3.8785 -0.4870 -0.4778
 2928SOL     OW20416   3.517   0.297   9.636 -0.6519  0.0618 -0.1054
 2928SOL    HW120417   3.492   0.264   9.550  0.9566  0.6660 -0.7958
 2928SOL    HW220418   3.432   0.297   9.680 -1.1629 -1.5059 -1.1081
 2929SOL     OW20419   2.648   1.413  11.749  0.8470 -0.0991  0.0966
 2929SOL    HW120420   2.591   1.466  11.693  1.3768 -0.0083 -0.3457
 2929SOL    HW220421   2.640   1.331  11.702 -0.2722 -0.9465  1.7405
 2930SOL     OW20422   1.571   4.231   5.807 -0.7537 -0.0449  0.2316
 2930SOL    HW120423   1.634   4.227   5.734 -0.9629  1.0752 -0.0208
 2930SOL    HW220424   1.543   4.140   5.816  0.7435 -0.4970  0.2860
 2931SOL     OW20425   2.995   1.364  16.098  0.3379  0.3696 -0.4315
 2931SOL    HW120426   2.918   1.356  16.041  0.3227  3.0503 -0.7626
 2931SOL    HW220427   3.051   1.423  16.048  3.7069  0.1540  3.1382
 2932SOL     OW20428   2.937   1.844  16.612  0.2094 -0.3524  0.1116
 2932SOL    HW120429   2.986   1.908  16.664  1.7045 -2.6860  1.5429
 2932SOL    HW220430   2.874   1.904  16.571  0.0417  0.0711  0.9900
 2933SOL     OW20431   3.584   0.605   2.480 -0.1785 -0.0935  0.2769
 2933SOL    HW120432   3.599   0.699   2.478 -1.9002  0.1428 -1.5824
 2933SOL    HW220433   3.492   0.612   2.505 -0.3962  0.6402 -0.7752
 2934SOL     OW20434   3.246   0.344   9.751  0.0485 -0.0819  0.2970
 2934SOL    HW120435   3.181   0.413   9.752  1.4726  1.2742 -0.4883
 2934SOL    HW220436   3.225   0.295   9.830  0.4835  1.2098  1.2115
 2935SOL     OW20437   0.211   4.086   8.273 -0.5000  0.1831 -0.1271
 2935SOL    HW120438   0.302   4.068   8.250 -1.2965 -0.3861 -2.8957
 2935SOL    HW220439   0.225   4.117   8.363 -0.8739 -1.6227  0.5394
 2936SOL     OW20440   3.557   1.046   8.529 -0.2631 -0.3605  0.4635
 2936SOL    HW120441   3.523   0.958   8.546 -0.8180 -0.1829  0.2603
 2936SOL    HW220442   3.526   1.042   8.439  0.3476  0.7783  0.2134
 2937SOL     OW20443   4.565   1.066   5.568 -0.1079 -0.0894 -0.2629
 2937SOL    HW120444   4.506   0.996   5.542 -0.8315  0.0830  0.9168
 2937SOL    HW220445   4.651   1.024   5.572  0.2050  0.5591 -0.0045
 2938SOL     OW20446   1.874   3.149  13.073 -0.1359 -0.2582 -0.7181
 2938SOL    HW120447   1.870   3.098  13.154 -0.9142  1.5662  0.4004
 2938SOL    HW220448   1.884   3.088  13.001  3.2552 -1.0977  0.4511
 2939SOL     OW20449   0.851   0.492   2.305 -0.2090 -0.5739  0.3521
 2939SOL    HW120450   0.776   0.440   2.334 -0.3101  0.6567  2.2848
 2939SOL    HW220451   0.822   0.577   2.273 -0.5889 -0.1471  1.8532
 2940SOL     OW20452   1.856   0.080   7.601 -0.2609 -0.9062 -0.0257
 2940SOL    HW120453   1.842   0.152   7.663 -2.6303  1.5758 -3.4326
 2940SOL    HW220454   1.950   0.062   7.611 -0.2591 -0.7883  0.1730
 2941SOL     OW20455   2.688   0.709   4.011 -0.0534 -0.2806 -0.0240
 2941SOL    HW120456   2.655   0.791   4.048 -1.3918 -0.8252 -0.0380
 2941SOL    HW220457   2.646   0.639   4.061  1.1253 -0.7055  0.3862
 2942SOL     OW20458   4.575   2.537   0.833 -0.0037 -1.5169  0.1392
 2942SOL    HW120459   4.596   2.626   0.805  1.7391 -1.3351  2.0557
 2942SOL    HW220460   4.649   2.478   0.822  0.2914 -0.6901 -2.4344
 2943SOL     OW20461   1.820   3.333   4.075  0.0420 -0.1884  0.0401
 2943SOL    HW120462   1.741   3.386   4.062  0.5150  1.0987  2.4758
 2943SOL    HW220463   1.845   3.315   3.984 -1.1493 -3.8287  0.4605
 2944SOL     OW20464   0.703   3.460   9.343 -0.4157 -0.1803  0.2698
 2944SOL    HW120465   0.699   3.365   9.343 -1.1404 -0.1586  1.4523
 2944SOL    HW220466   0.793   3.468   9.373 -0.0084 -0.4558 -0.9000
 2945SOL     OW20467   1.219   1.433   4.609  0.0910  0.1570  0.5932
 2945SOL    HW120468   1.302   1.477   4.628  1.7495 -0.6866 -4.5827
 2945SOL    HW220469   1.166   1.508   4.581  0.1139 -0.0065  0.1067
 2946SOL     OW20470   3.358   3.698  12.718 -0.1443 -0.5860  0.2500
 2946SOL    HW120471   3.309   3.780  12.717  0.0353 -0.4644  1.0615
 2946SOL    HW220472   3.364   3.681  12.812  0.9667 -3.8747 -0.4400
 2947SOL     OW20473   4.225   0.111   4.140  0.3192  0.2768  0.0906
 2947SOL    HW120474   4.131   0.125   4.151 -0.0179  0.2570 -2.9419
 2947SOL    HW220475   4.229   0.016   4.126 -1.4739 -0.0263  1.5626
 2948SOL     OW20476   4.154   3.580   8.184 -0.2897 -0.0659  0.7215
 2948SOL    HW120477   4.232   3.570   8.237  0.8678  1.0922 -0.7587
 2948SOL    HW220478   4.185   3.539   8.103 -0.8987  0.6428  0.1281
 2949SOL     OW20479   0.713   0.391   7.259 -0.4515 -0.4107 -0.3608
 2949SOL    HW120480   0.758   0.309   7.281  0.0023  0.3436  1.5520
 2949SOL    HW220481   0.629   0.380   7.304  1.1538  0.3307  2.8454
 2950SOL     OW20482   2.063   4.695   1.624 -0.2304 -0.0148  0.1376
 2950SOL    HW120483   2.113   4.730   1.698  1.0856 -2.9265  0.6116
 2950SOL    HW220484   2.113   4.726   1.548 -1.7035  1.6439 -0.1559
 2951SOL     OW20485   1.746   0.026   5.255  0.0529 -0.2182 -0.0785
 2951SOL    HW120486   1.799   0.105   5.242 -0.4338  0.4910  2.2721
 2951SOL    HW220487   1.685   0.062   5.320  0.0351 -0.1094 -0.1552
 2952SOL     OW20488   4.226   2.966   6.800  0.2747 -0.0134 -0.5673
 2952SOL    HW120489   4.201   2.874   6.788 -4.6372  1.5244 -2.0677
 2952SOL    HW220490   4.320   2.948   6.804 -0.0677 -1.6973  0.1076
 2953SOL     OW20491   1.387   1.884  12.762  0.4623 -0.0358  0.3013
 2953SOL    HW120492   1.440   1.865  12.684  0.7976  0.8678  0.3102
 2953SOL    HW220493   1.410   1.797  12.793  2.4108 -0.3737 -2.0887
 2954SOL     OW20494   0.767   0.089   5.032  0.1445 -0.1268  0.3052
 2954SOL    HW120495   0.818   0.015   4.999 -0.7515  0.4979 -2.5397
 2954SOL    HW220496   0.677   0.054   5.029 -0.0823  0.5625 -1.0926
 2955SOL     OW20497   4.164   1.801   2.841  0.6461  0.3315  0.0933
 2955SOL    HW120498   4.138   1.721   2.887 -3.4292  0.8952 -1.1670
 2955SOL    HW220499   4.212   1.833   2.917  2.0106 -1.1193 -0.1558
 2956SOL     OW20500   2.507   1.182   1.634 -0.0255 -0.2093 -0.5341
 2956SOL    HW120501   2.539   1.241   1.703 -0.5298 -0.4577 -0.0836
 2956SOL    HW220502   2.590   1.154   1.594  0.0818 -2.4137  1.2182
 2957SOL     OW20503   3.274   1.605  14.667  0.0860  0.1608  0.0858
 2957SOL    HW120504   3.299   1.590  14.758  1.2969 -1.5793 -0.5257
 2957SOL    HW220505   3.348   1.652  14.628 -0.1057  0.4351  0.0536
 2958SOL     OW20506   4.317   4.509   5.133 -0.2464  0.4784  0.3147
 2958SOL    HW120507   4.278   4.540   5.051 -2.4388  0.4758  1.3662
 2958SOL    HW220508   4.268   4.430   5.155 -0.3421  0.7603  1.0997
 2959SOL     OW20509   4.130   2.914   3.007  0.7470  0.2251  1.1419
 2959SOL    HW120510   4.185   2.860   3.063 -0.8194 -0.9434  1.5608
 2959SOL    HW220511   4.198   2.948   2.948  1.9682 -1.0540  1.8340
 2960SOL     OW20512   4.076   4.030   4.529  0.6382  0.6880  0.3582
 2960SOL    HW120513   4.047   4.067   4.445  2.5597  0.1219 -0.5626
 2960SOL    HW220514   4.020   3.954   4.544  0.7539  0.5223 -0.0357
 2961SOL     OW20515   3.337   4.458   2.027 -0.1840 -0.4850  0.2990
 2961SOL    HW120516   3.295   4.413   1.954  0.0004  1.3917 -0.9585
 2961SOL    HW220517   3.275   4.530   2.033  1.1710  0.6296  0.8339
 2962SOL     OW20518   1.438   1.363  16.739  0.2589 -0.1788  0.2390
 2962SOL    HW120519   1.360   1.371  16.684 -1.4604 -1.8887  2.4031
 2962SOL    HW220520   1.487   1.438  16.707  0.7311  0.2212  1.8912
 2963SOL     OW20521   3.986   2.693   1.645 -0.2784  0.3699  0.5480
 2963SOL    HW120522   3.907   2.709   1.594  0.2711  1.3519  0.0011
 2963SOL    HW220523   4.016   2.784   1.652 -0.9248  0.6869 -0.7177
 2964SOL     OW20524   1.236   4.417   7.028  0.4113  0.1837 -0.1854
 2964SOL    HW120525   1.190   4.339   7.058  0.0707  0.5921  0.3448
 2964SOL    HW220526   1.301   4.375   6.972 -1.6595 -1.9833 -0.9547
 2965SOL     OW20527   1.714   3.676   9.969  0.2422 -0.2595  0.2331
 2965SOL    HW120528   1.718   3.588  10.007 -0.5938 -0.3360  0.1556
 2965SOL    HW220529   1.662   3.723  10.034  0.3263 -0.2175  0.2691
 2966SOL     OW20530   1.260   4.612   2.784 -0.1743 -0.0936 -0.2407
 2966SOL    HW120531   1.201   4.674   2.826 -2.2001 -2.0993 -0.1331
 2966SOL    HW220532   1.234   4.630   2.694 -2.4428  0.4013  0.5151
 2967SOL     OW20533   4.508   3.630  15.112 -0.2240  0.5646 -0.6946
 2967SOL    HW120534   4.423   3.623  15.156 -0.8656  3.0321 -1.4881
 2967SOL    HW220535   4.491   3.715  15.069 -1.9751 -0.7372 -2.6269
 2968SOL     OW20536   4.425   3.581  12.674 -0.0358  0.0337  0.1033
 2968SOL    HW120537   4.488   3.610  12.609 -0.3558  2.6005  0.9484
 2968SOL    HW220538   4.375   3.521  12.618  0.5221 -0.0483 -0.3094
 2969SOL     OW20539   1.447   4.575  11.755 -0.5930  0.3458  0.0801
 2969SOL    HW120540   1.497   4.501  11.789 -0.3668 -0.8026 -2.7454
 2969SOL    HW220541   1.397   4.537  11.682 -2.1038 -1.8179  2.2072
 2970SOL     OW20542   2.904   3.153  12.421  0.4174  0.4092 -0.0353
 2970SOL    HW120543   2.964   3.227  12.432  2.1850 -1.0923  0.4903
 2970SOL    HW220544   2.888   3.160  12.327  0.9364  0.4366 -0.1231
 2971SOL     OW20545   3.112   2.918   9.151 -0.5143 -0.0403 -0.0294
 2971SOL    HW120546   3.058   2.844   9.125 -0.0202 -0.4872  0.2051
 2971SOL    HW220547   3.148   2.882   9.232  0.7992 -2.9077 -1.9008
 2972SOL     OW20548   4.163   1.984   4.268  0.3027 -0.8334 -0.1091
 2972SOL    HW120549   4.111   2.054   4.306  1.0260 -1.3897  1.8802
 2972SOL    HW220550   4.095   1.937   4.220  1.9567 -3.2486 -0.1068
 2973SOL     OW20551   1.723   1.851  16.374  0.0251 -0.2086 -0.4648
 2973SOL    HW120552   1.809   1.810  16.367 -0.7441 -2.0222  0.5759
 2973SOL    HW220553   1.685   1.818  16.293 -1.0322  0.1232 -0.1023
 2974SOL     OW20554   3.367   4.242   7.884  0.0458 -0.4401  0.4049
 2974SOL    HW120555   3.458   4.232   7.913 -0.4228  0.1252  2.0701
 2974SOL    HW220556   3.332   4.276   7.967 -2.1304 -0.8962 -0.3207
 2975SOL     OW20557   2.688   0.753   8.073 -0.3163  0.1129 -0.2581
 2975SOL    HW120558   2.652   0.714   7.993 -0.8012  1.0320 -0.4903
 2975SOL    HW220559   2.625   0.739   8.143 -1.2252  1.2549 -0.8365
 2976SOL     OW20560   2.152   1.324   7.998 -0.4786  0.2293  0.3124
 2976SOL    HW120561   2.083   1.260   8.014 -0.1064  0.3903  2.5652
 2976SOL    HW220562   2.148   1.332   7.903 -1.4122 -3.5346  0.0118
 2977SOL     OW20563   2.587   3.169   2.854  0.1290 -0.3869  0.2009
 2977SOL    HW120564   2.498   3.153   2.887  0.0139  1.1665  0.6152
 2977SOL    HW220565   2.634   3.119   2.921  0.5117 -2.4405 -1.5980
 2978SOL     OW20566   2.814   3.917   6.393  0.0908  0.4025 -0.7088
 2978SOL    HW120567   2.854   3.858   6.456  1.7567  0.6021 -1.5850
 2978SOL    HW220568   2.864   3.890   6.316  1.3364 -0.4047  0.3710
 2979SOL     OW20569   3.224   3.861   2.221 -0.2221  0.9156  0.2420
 2979SOL    HW120570   3.232   3.955   2.202  0.3844  0.5627 -1.2429
 2979SOL    HW220571   3.128   3.855   2.219  0.0561 -2.3558 -2.3924
 2980SOL     OW20572   0.689   2.497   8.403  0.2950  0.6012  0.1738
 2980SOL    HW120573   0.659   2.475   8.491  1.3967 -1.5224  0.0266
 2980SOL    HW220574   0.608   2.494   8.352 -1.1231  2.7718  2.2689
 2981SOL     OW20575   0.351   3.566   2.692 -0.1887 -0.4457  0.3883
 2981SOL    HW120576   0.325   3.477   2.667 -1.3068  0.6066 -2.1980
 2981SOL    HW220577   0.422   3.577   2.628 -1.4404  0.7989 -0.7817
 2982SOL     OW20578   0.846   3.190   2.468 -0.2086 -0.6388  0.2987
 2982SOL    HW120579   0.871   3.189   2.561  1.5923 -0.3137 -0.1868
 2982SOL    HW220580   0.907   3.261   2.450 -0.3134 -0.8615 -0.9075
 2983SOL     OW20581   1.190   1.835   3.247 -0.6350  0.0261  0.2274
 2983SOL    HW120582   1.237   1.767   3.198 -0.0913  0.2782  0.3995
 2983SOL    HW220583   1.195   1.805   3.338  2.0555  1.9716  0.7158
 2984SOL     OW20584   3.931   0.013  15.855  0.4126 -0.4244 -0.2601
 2984SOL    HW120585   3.951   4.657  15.847 -2.9362 -0.9973 -1.5594
 2984SOL    HW220586   3.857   0.017  15.915  1.7028 -2.9349  1.5128
 2985SOL     OW20587   3.058   1.912   5.157 -0.1672 -0.1306  0.6684
 2985SOL    HW120588   2.993   1.977   5.131  2.2805  1.6913 -0.9577
 2985SOL    HW220589   3.142   1.946   5.126  0.4784 -1.1127  1.3384
 2986SOL     OW20590   3.236   3.217  15.981 -0.2143 -0.3923  0.7928
 2986SOL    HW120591   3.330   3.235  15.984  0.0367 -1.6329  0.5409
 2986SOL    HW220592   3.191   3.287  15.934 -1.6518 -0.8275  1.5477
 2987SOL     OW20593   0.923   2.472   6.189  0.0408 -0.1827 -0.0237
 2987SOL    HW120594   0.848   2.413   6.202  0.4220 -0.4400  1.0039
 2987SOL    HW220595   0.896   2.522   6.112  2.3309  0.6247 -0.3129
 2988SOL     OW20596   1.067   3.624   2.952 -0.3450  0.5490 -0.4650
 2988SOL    HW120597   0.983   3.645   2.911  0.4697  1.0344 -1.8910
 2988SOL    HW220598   1.096   3.707   2.990 -0.1958  1.0994 -1.7717
 2989SOL     OW20599   4.629   0.299   9.978  0.1200  0.3068 -0.4885
 2989SOL    HW120600   4.632   0.312  10.073  0.1008  0.6598 -0.5352
 2989SOL    HW220601   4.716   0.323   9.948  0.5159  0.2213  0.6066
 2990SOL     OW20602   2.182   0.012   1.864  0.0514  0.0483  0.2424
 2990SOL    HW120603   2.210   4.659   1.869 -1.6319 -0.4692  0.1504
 2990SOL    HW220604   2.266   0.058   1.864  0.3244 -0.4562  0.0606
 2991SOL     OW20605   0.380   4.681   1.834 -0.0829  0.0879 -0.2411
 2991SOL    HW120606   0.330   4.621   1.778 -3.2402  2.8645 -0.3563
 2991SOL    HW220607   0.451   4.628   1.872  0.1345 -0.3792 -1.2902
 2992SOL     OW20608   2.634   2.038  16.858  0.6152  0.0135 -0.4461
 2992SOL    HW120609   2.596   2.094  16.790  0.9492 -0.5585 -1.1042
 2992SOL    HW220610   2.725   2.052  16.831  1.3309  0.2202  2.0830
 2993SOL     OW20611   3.438   0.601  12.396  0.1717 -0.0151 -0.0346
 2993SOL    HW120612   3.376   0.649  12.342  0.3834 -0.9226 -1.0786
 2993SOL    HW220613   3.400   0.618  12.482 -1.1266 -0.4858 -0.5173
 2994SOL     OW20614   1.646   3.455   3.920  0.4555  0.5171  0.2620
 2994SOL    HW120615   1.653   3.384   3.856 -0.2301  1.8781 -1.3571
 2994SOL    HW220616   1.553   3.475   3.920  0.5645  1.0797 -0.5056
 2995SOL     OW20617   0.452   2.406  11.638 -0.1192 -0.4100 -0.3905
 2995SOL    HW120618   0.490   2.320  11.655 -1.2951 -0.7660  0.4005
 2995SOL    HW220619   0.380   2.405  11.700  2.3728 -0.9767  2.5132
 2996SOL     OW20620   0.710   3.172   5.279  0.0541 -0.3158  0.3149
 2996SOL    HW120621   0.783   3.227   5.304  0.2075  0.8627 -2.6760
 2996SOL    HW220622   0.647   3.216   5.336 -1.6526 -1.4097 -0.7002
 2997SOL     OW20623   0.200   0.586   7.810 -0.2130 -0.4581  0.0320
 2997SOL    HW120624   0.142   0.646   7.764  0.8940  0.5872  0.0030
 2997SOL    HW220625   0.160   0.499   7.805 -1.4789  0.2274 -1.6937
 2998SOL     OW20626   3.740   4.585   3.771 -0.3255  0.0711 -0.1309
 2998SOL    HW120627   3.805   4.586   3.842 -1.9161  2.3125  1.2826
 2998SOL    HW220628   3.674   4.649   3.797 -0.4244 -0.1974  0.2893
 2999SOL     OW20629   0.735   2.466  10.786  0.0360 -0.3261  0.1455
 2999SOL    HW120630   0.720   2.561  10.787  0.5359 -0.2243 -1.3844
 2999SOL    HW220631   0.808   2.459  10.847  0.6680  0.9802 -0.4632
 3000SOL     OW20632   4.463   0.134   1.243 -0.2787  0.5936 -1.2470
 3000SOL    HW120633   4.506   0.217   1.222  2.0128 -0.1138  0.6698
 3000SOL    HW220634   4.399   0.154   1.311  1.0194  0.7302 -0.0785
 3001SOL     OW20635   0.029   2.712  13.107  0.1292 -0.0735 -0.1950
 3001SOL    HW120636   4.676   2.713  13.077 -0.0086  0.1476  0.2355
 3001SOL    HW220637   0.075   2.725  13.023 -0.4571 -0.2667 -0.5425
 3002SOL     OW20638   0.059   1.178   3.943  0.2404  0.2768  0.0706
 3002SOL    HW120639   0.093   1.109   4.001 -2.2175 -1.5233 -0.6555
 3002SOL    HW220640   0.145   1.204   3.909  0.6037 -0.4186  0.4387
 3003SOL     OW20641   3.252   1.621   5.353 -0.3311 -0.2169 -0.5651
 3003SOL    HW120642   3.208   1.697   5.391 -0.1339 -0.5407  0.3123
 3003SOL    HW220643   3.189   1.558   5.388  1.8245 -0.9940  1.8841
 3004SOL     OW20644   2.686   3.270   6.785  0.2050 -0.0722 -0.0949
 3004SOL    HW120645   2.621   3.339   6.795  3.3501  3.1089 -1.9109
 3004SOL    HW220646   2.768   3.318   6.798 -0.0576  0.6461 -1.1792
 3005SOL     OW20647   0.861   1.135  15.733 -0.3264 -0.2166  0.5682
 3005SOL    HW120648   0.870   1.051  15.687 -0.9172 -0.0568  0.1637
 3005SOL    HW220649   0.942   1.181  15.712 -0.5586  0.2360  0.6772
 3006SOL     OW20650   0.741   1.551   8.577 -0.8982 -0.1466 -0.1480
 3006SOL    HW120651   0.768   1.597   8.497  1.6612  0.2026  0.9345
 3006SOL    HW220652   0.819   1.497   8.584  0.7502  2.2826  0.2693
 3007SOL     OW20653   1.484   0.791  17.142  0.9421 -0.2847 -0.1344
 3007SOL    HW120654   1.437   0.872  17.161 -0.0830 -0.9237  0.0374
 3007SOL    HW220655   1.416   0.727  17.120  0.3216  0.8943 -1.6520
 3008SOL     OW20656   2.716   3.546  10.998  0.5057  0.3981 -0.6016
 3008SOL    HW120657   2.620   3.545  11.000  0.5091 -1.5461 -2.5760
 3008SOL    HW220658   2.730   3.636  10.968  1.6334  0.3170 -0.3013
 3009SOL     OW20659   1.742   0.766   7.420 -0.5051  0.2472  0.2298
 3009SOL    HW120660   1.668   0.820   7.392  0.3538  1.4020  0.1877
 3009SOL    HW220661   1.775   0.819   7.493  2.6534  0.3639 -1.2967
 3010SOL     OW20662   0.752   0.778   5.153 -0.5059 -0.1599  0.5689
 3010SOL    HW120663   0.776   0.819   5.069  1.1045 -2.7301 -0.2429
 3010SOL    HW220664   0.823   0.717   5.173 -2.4231 -2.8711 -0.8398
 3011SOL     OW20665   3.898   2.854  12.408  0.2803 -0.1710 -0.3599
 3011SOL    HW120666   3.859   2.876  12.324 -0.0517  2.0465  0.3851
 3011SOL    HW220667   3.820   2.836  12.461  1.2634  0.3156  1.2850
 3012SOL     OW20668   2.443   0.088   8.764  0.3699 -0.5651 -0.1045
 3012SOL    HW120669   2.527   0.132   8.757  0.0494  0.1487  0.4901
 3012SOL    HW220670   2.387   0.162   8.789  0.0501 -1.9439  3.3330
 3013SOL     OW20671   2.587   3.963   8.282  0.8966  0.1821 -0.0904
 3013SOL    HW120672   2.676   3.945   8.249  0.5580 -1.5991 -0.0672
 3013SOL    HW220673   2.575   4.057   8.290  2.9309  0.3702  0.8900
 3014SOL     OW20674   0.231   0.434   4.379 -0.4704  0.0618  0.0917
 3014SOL    HW120675   0.211   0.480   4.461 -1.5900 -0.0104 -0.1372
 3014SOL    HW220676   0.198   0.347   4.400  0.8007 -0.7530 -1.3575
 3015SOL     OW20677   2.734   0.228   7.448  0.0497 -0.2288  0.2541
 3015SOL    HW120678   2.646   0.247   7.480  0.2868  0.4378  0.5080
 3015SOL    HW220679   2.762   0.303   7.395 -1.8790  0.0861 -0.3377
 3016SOL     OW20680   3.382   3.869   2.435 -0.0003 -0.2644  0.6659
 3016SOL    HW120681   3.387   3.960   2.463  0.9516 -0.0006 -0.3649
 3016SOL    HW220682   3.334   3.881   2.353  0.8198  1.9998  0.5195
 3017SOL     OW20683   4.537   2.304   7.025  0.4611  0.0947  0.3869
 3017SOL    HW120684   4.454   2.258   7.013 -0.4781  1.4823  1.4294
 3017SOL    HW220685   4.589   2.237   7.069  0.9348  0.7701  0.8523
 3018SOL     OW20686   3.247   1.214   8.208  0.2392 -0.3234 -0.0038
 3018SOL    HW120687   3.172   1.212   8.149 -0.9048 -1.3733  1.4597
 3018SOL    HW220688   3.248   1.131   8.256 -1.7599  0.8765  2.1430
 3019SOL     OW20689   3.112   1.237   7.667  0.0312  0.4413 -0.5529
 3019SOL    HW120690   3.037   1.250   7.610 -0.1027  0.7733 -0.2995
 3019SOL    HW220691   3.125   1.143   7.660  2.3333  0.8123 -1.3062
 3020SOL     OW20692   0.885   4.596   4.928  0.2322  0.3397 -0.1303
 3020SOL    HW120693   0.862   4.516   4.975 -0.8353  1.5175  1.3708
 3020SOL    HW220694   0.888   4.558   4.841 -0.1469  0.2192 -0.0890
 3021SOL     OW20695   1.410   3.900  16.870 -0.3199 -0.3027  0.4439
 3021SOL    HW120696   1.343   3.963  16.843  1.9089  2.2659  1.0187
 3021SOL    HW220697   1.466   3.958  16.921 -1.9268  0.4901  1.3029
 3022SOL     OW20698   2.635   2.064   0.520  0.1632  0.1808  0.3283
 3022SOL    HW120699   2.670   1.995   0.464  0.7788  0.4279  0.4089
 3022SOL    HW220700   2.657   2.025   0.605 -0.0263 -1.8187 -0.5393
 3023SOL     OW20701   1.823   1.554   8.619 -0.2402 -0.2530 -0.0373
 3023SOL    HW120702   1.754   1.522   8.676  3.2811 -1.0700  3.8111
 3023SOL    HW220703   1.776   1.564   8.537  0.7465  0.4973 -0.5215
 3024SOL     OW20704   1.848   2.541   4.438 -0.4775 -0.0509 -0.0884
 3024SOL    HW120705   1.778   2.604   4.456 -1.1342 -1.6354  2.9346
 3024SOL    HW220706   1.928   2.592   4.427 -1.9431  2.1434 -0.4921
 3025SOL     OW20707   0.027   1.967   6.899 -0.2794  0.4819 -0.0529
 3025SOL    HW120708   0.061   1.877   6.907  1.5319  1.0732 -1.0438
 3025SOL    HW220709   4.686   1.942   6.851  0.7159  1.1225 -2.0309
 3026SOL     OW20710   0.405   2.063   4.881 -0.0100 -0.4520 -0.4465
 3026SOL    HW120711   0.397   2.147   4.836  1.7284  0.3309  0.7093
 3026SOL    HW220712   0.406   1.996   4.813  0.3547 -0.1568 -0.7311
 3027SOL     OW20713   0.731   1.933   6.502  0.2475  0.0390 -0.2347
 3027SOL    HW120714   0.745   1.942   6.408 -0.0801  2.1121 -0.0832
 3027SOL    HW220715   0.745   1.838   6.501  1.9679  0.2957 -0.5496
 3028SOL     OW20716   3.086   0.540   0.442  0.4466  0.2529 -0.4812
 3028SOL    HW120717   2.999   0.566   0.413  0.8524 -1.6965 -3.3847
 3028SOL    HW220718   3.065   0.465   0.498  5.1624 -0.8406 -0.2041
 3029SOL     OW20719   3.593   0.868   3.714 -0.0676  0.0585 -0.5848
 3029SOL    HW120720   3.670   0.905   3.756  0.9259 -0.6530 -1.7850
 3029SOL    HW220721   3.554   0.948   3.679 -1.3370 -0.6099 -0.7054
 3030SOL     OW20722   0.079   2.855   8.799  0.8852  0.9091 -0.2769
 3030SOL    HW120723   0.054   2.774   8.844  2.8078 -0.8648 -2.4411
 3030SOL    HW220724   0.170   2.826   8.787  1.0485  1.4171 -0.2774
 3031SOL     OW20725   4.383   0.367   4.306  0.7240 -0.1131 -0.9787
 3031SOL    HW120726   4.313   0.326   4.255 -1.9928 -0.3036  2.9423
 3031SOL    HW220727   4.427   0.425   4.244  0.7753  0.8110 -0.0815
 3032SOL     OW20728   2.249   4.371   1.538 -0.5114 -0.3974 -0.1864
 3032SOL    HW120729   2.266   4.282   1.569 -0.9157 -0.8523 -1.2681
 3032SOL    HW220730   2.172   4.390   1.592 -0.2883 -1.3546  0.4722
 3033SOL     OW20731   2.124   0.120   4.117  0.0984 -0.2250  0.0976
 3033SOL    HW120732   2.171   0.187   4.167 -0.9574 -0.1052  0.9483
 3033SOL    HW220733   2.191   0.057   4.092 -0.3556 -0.3491 -0.8124
 3034SOL     OW20734   0.412   1.501  13.545  0.1921 -0.4037  0.3568
 3034SOL    HW120735   0.382   1.537  13.462 -1.3633 -0.1449  1.0318
 3034SOL    HW220736   0.338   1.528  13.599  0.8271  1.3647  0.3311
 3035SOL     OW20737   1.525   0.169  11.078 -0.6430 -0.5349  0.0948
 3035SOL    HW120738   1.553   0.077  11.082 -0.0560 -0.3522  0.1816
 3035SOL    HW220739   1.501   0.173  10.985 -1.9589 -0.8307  0.4294
 3036SOL     OW20740   1.938   0.962  16.659 -0.4986 -0.2595 -0.5086
 3036SOL    HW120741   1.861   0.946  16.714 -0.5516  0.6855 -0.3046
 3036SOL    HW220742   1.897   0.947  16.574  0.2659 -0.0774 -0.8998
 3037SOL     OW20743   4.319   1.164   8.716  0.1961 -0.3150  0.5831
 3037SOL    HW120744   4.228   1.193   8.726  0.8127  1.7583  0.1564
 3037SOL    HW220745   4.345   1.189   8.804  0.2638  1.8568 -0.0626
 3038SOL     OW20746   3.433   2.106   3.344 -0.3996  0.2826 -0.2143
 3038SOL    HW120747   3.430   2.016   3.376  2.3775  0.6308  1.0694
 3038SOL    HW220748   3.340   2.124   3.330 -0.8060 -1.3392  0.4071
 3039SOL     OW20749   3.591   4.636   6.732 -0.0093 -0.0931 -0.3670
 3039SOL    HW120750   3.679   4.658   6.762 -0.1793  0.1202 -0.0280
 3039SOL    HW220751   3.609   4.617   6.640  0.2599 -1.4851 -0.0180
 3040SOL     OW20752   3.677   4.570   4.308 -0.1434 -0.1332 -0.4045
 3040SOL    HW120753   3.622   4.513   4.362 -0.2313  0.3999  0.0596
 3040SOL    HW220754   3.689   4.641   4.371  0.2192  1.0176 -1.7606
 3041SOL     OW20755   3.568   3.832   6.432  0.1843 -0.0827  0.2198
 3041SOL    HW120756   3.567   3.786   6.348 -0.3306  1.1768 -0.4676
 3041SOL    HW220757   3.579   3.921   6.400 -0.9230  0.1994  0.6337
 3042SOL     OW20758   2.086   2.686   4.341  0.0534 -0.1166 -0.0197
 3042SOL    HW120759   2.181   2.676   4.334  0.3529  1.6013  1.4690
 3042SOL    HW220760   2.066   2.763   4.287  1.6477  0.3123 -0.0016
 3043SOL     OW20761   4.141   3.310  17.342  0.4086 -0.0274  0.2243
 3043SOL    HW120762   4.205   3.241  17.358 -0.5191 -0.1899  3.1772
 3043SOL    HW220763   4.090   3.268  17.272  1.3978 -0.0664 -0.4797
 3044SOL     OW20764   2.413   2.731   5.414 -0.3677  0.1825 -0.9416
 3044SOL    HW120765   2.375   2.670   5.478  2.1968  0.8931  1.2525
 3044SOL    HW220766   2.507   2.728   5.431 -0.7131 -3.0652  0.5278
 3045SOL     OW20767   3.714   3.480   5.378  0.0274 -0.1239  0.1698
 3045SOL    HW120768   3.749   3.515   5.296 -0.3534  1.5888  0.7347
 3045SOL    HW220769   3.637   3.536   5.393 -1.0271 -1.4791 -0.2091
 3046SOL     OW20770   4.514   2.460  15.928  0.2456 -0.0095 -0.0399
 3046SOL    HW120771   4.587   2.406  15.898 -1.7518 -1.3248 -2.5009
 3046SOL    HW220772   4.485   2.409  16.003 -0.6671 -0.1155 -0.4696
 3047SOL     OW20773   0.717   1.003   8.235 -0.9077 -0.5127  0.0047
 3047SOL    HW120774   0.776   1.078   8.233 -2.5731  0.7504 -2.1036
 3047SOL    HW220775   0.742   0.960   8.153 -0.9984 -0.3401 -0.1134
 3048SOL     OW20776   3.065   3.890  12.924  0.2406 -0.3332 -0.5823
 3048SOL    HW120777   3.145   3.867  12.970  0.1568  2.2803  0.8514
 3048SOL    HW220778   3.008   3.906  12.999  1.3573 -1.4594  0.5175
 3049SOL     OW20779   3.242   2.457  15.779 -0.1963 -0.4946  0.2809
 3049SOL    HW120780   3.272   2.540  15.816 -1.5476  0.3246 -0.4824
 3049SOL    HW220781   3.311   2.402  15.816  1.6703  0.8519 -1.2389
 3050SOL     OW20782   1.320   0.961   9.902  0.0788 -0.3368  0.3155
 3050SOL    HW120783   1.369   1.032   9.861  2.8642 -1.5857  1.5199
 3050SOL    HW220784   1.244   0.939   9.848 -1.4389  2.7713  1.1849
 3051SOL     OW20785   1.890   2.288  17.126  0.0195  0.0373  0.1265
 3051SOL    HW120786   1.828   2.318  17.193 -0.5311 -2.6413  0.8032
 3051SOL    HW220787   1.857   2.327  17.044  0.1437  0.5279  0.3101
 3052SOL     OW20788   0.206   4.511   7.796 -0.3352 -0.2666 -0.4554
 3052SOL    HW120789   0.134   4.450   7.780  0.0077 -0.2725 -1.9973
 3052SOL    HW220790   0.224   4.538   7.706  0.0864  3.7626  0.8396
 3053SOL     OW20791   3.766   2.269   3.596 -0.0538  0.4301 -0.3612
 3053SOL    HW120792   3.734   2.311   3.516  0.7459  1.6448 -0.0301
 3053SOL    HW220793   3.744   2.180   3.568 -0.7143 -0.0577  1.7046
 3054SOL     OW20794   4.667   3.055   7.983 -0.2538  0.1774  0.5246
 3054SOL    HW120795   4.671   3.150   7.997 -2.1663  0.7874 -3.2060
 3054SOL    HW220796   4.676   3.045   7.888 -0.4049 -1.0125  0.6393
 3055SOL     OW20797   3.469   2.702   3.967 -0.2108 -0.0167 -0.2678
 3055SOL    HW120798   3.462   2.792   3.935 -0.9410 -0.0133 -0.0955
 3055SOL    HW220799   3.398   2.655   3.924 -2.0273  1.3929  1.1490
 3056SOL     OW20800   0.906   4.717   8.184  0.2585  0.1535 -0.4386
 3056SOL    HW120801   0.813   4.709   8.163  0.3278 -1.1769 -0.2586
 3056SOL    HW220802   0.910   0.073   8.204 -1.0120  0.0116  0.4132
 3057SOL     OW20803   0.849   0.304   4.880 -0.2038  0.1849  0.3495
 3057SOL    HW120804   0.810   0.253   4.952  1.4704  0.1613  1.2343
 3057SOL    HW220805   0.854   0.391   4.919 -2.4891  0.7713 -0.6877
 3058SOL     OW20806   2.069   0.428   1.750  0.2375 -0.0813  0.3155
 3058SOL    HW120807   2.148   0.470   1.717 -1.0282  0.7754 -1.6121
 3058SOL    HW220808   2.063   0.354   1.690  2.5421 -0.0699  0.1033
 3059SOL     OW20809   0.555   0.907   1.759  0.1204 -0.2797  0.2027
 3059SOL    HW120810   0.509   0.963   1.822  0.9078  0.5927  0.0049
 3059SOL    HW220811   0.629   0.875   1.810  0.2715  1.6161  1.1564
 3060SOL     OW20812   2.295   0.595   6.037  0.0719 -0.1236 -0.1669
 3060SOL    HW120813   2.230   0.543   5.989 -0.6235  0.2519  0.3672
 3060SOL    HW220814   2.347   0.634   5.967 -0.3077  0.3809 -0.1724
 3061SOL     OW20815   2.032   4.138   7.170  0.3026 -0.3783  0.3299
 3061SOL    HW120816   2.068   4.227   7.163 -1.8372  0.4191 -0.5913
 3061SOL    HW220817   2.077   4.102   7.246 -0.2497  1.6953  1.6370
 3062SOL     OW20818   1.541   2.549   3.266  0.0345 -0.0276 -0.9025
 3062SOL    HW120819   1.629   2.586   3.273 -0.3325  0.5533  0.5858
 3062SOL    HW220820   1.554   2.454   3.267  0.7486  0.0951  0.7986
 3063SOL     OW20821   2.710   2.601   9.012 -0.2152 -0.8228 -0.6792
 3063SOL    HW120822   2.684   2.557   9.093  0.8409 -0.2837 -0.0610
 3063SOL    HW220823   2.703   2.532   8.946  0.0992 -0.6821 -0.8568
 3064SOL     OW20824   0.326   3.021   8.673 -0.0959  0.4114  0.6687
 3064SOL    HW120825   0.377   3.005   8.753  0.8068 -2.7374 -0.5421
 3064SOL    HW220826   0.244   3.049   8.715  0.6629  0.6165  2.0248
 3065SOL     OW20827   4.266   3.203  10.721  0.8375 -0.1552  0.1900
 3065SOL    HW120828   4.176   3.183  10.695  0.2561  0.4827  1.7074
 3065SOL    HW220829   4.317   3.183  10.643  3.4566  0.7607  1.6353
 3066SOL     OW20830   2.452   2.630  15.164 -0.3635 -0.0967  0.0296
 3066SOL    HW120831   2.515   2.676  15.109 -1.1368  0.3101 -0.5172
 3066SOL    HW220832   2.478   2.538  15.154  1.1694  0.5564 -2.0197
 3067SOL     OW20833   3.343   4.204   8.599  0.3211 -0.0562  0.4851
 3067SOL    HW120834   3.321   4.179   8.689 -0.8872  2.1173  0.7843
 3067SOL    HW220835   3.251   4.202   8.570 -0.5469  0.3330  3.1963
 3068SOL     OW20836   4.161   3.686   4.376 -0.3220  0.0050  0.2711
 3068SOL    HW120837   4.190   3.595   4.370  1.3205  0.3745  2.3222
 3068SOL    HW220838   4.161   3.694   4.472 -2.5022  0.9496  0.1760
 3069SOL     OW20839   1.806   0.828   4.887  0.5921 -0.6381 -0.1047
 3069SOL    HW120840   1.847   0.742   4.896 -0.4161 -0.7749  3.0749
 3069SOL    HW220841   1.880   0.889   4.891  0.4426 -0.5195  0.8760
 3070SOL     OW20842   4.318   0.287   2.198  0.6596 -0.0171 -0.5386
 3070SOL    HW120843   4.349   0.374   2.171  2.7908 -0.1608  1.4313
 3070SOL    HW220844   4.385   0.264   2.262 -1.0988  0.2609  1.3939
 3071SOL     OW20845   1.262   1.389   0.156  0.0613 -0.1027  0.7016
 3071SOL    HW120846   1.250   1.399   0.250 -0.3338  2.2212  0.4249
 3071SOL    HW220847   1.193   1.326   0.138 -0.1628  0.8312 -1.7835
 3072SOL     OW20848   2.666   2.334  15.882  0.2729  0.2293 -0.6149
 3072SOL    HW120849   2.643   2.427  15.876  0.8172  0.4333  0.5104
 3072SOL    HW220850   2.584   2.298  15.849 -0.6042  0.5537  1.2380
 3073SOL     OW20851   3.939   2.417   0.980 -0.2612  0.1210 -0.0488
 3073SOL    HW120852   4.020   2.455   0.945  0.1340 -0.8899 -0.2329
 3073SOL    HW220853   3.927   2.355   0.909 -2.0424  0.1655  0.2173
 3074SOL     OW20854   0.457   1.754   1.546 -0.4712 -0.4186  0.1568
 3074SOL    HW120855   0.481   1.666   1.518 -0.2696 -0.0288 -0.9354
 3074SOL    HW220856   0.544   1.792   1.561 -0.0282 -0.6307 -1.8212
 3075SOL     OW20857   4.732   1.763   7.536  0.2149 -0.2986  0.0602
 3075SOL    HW120858   4.654   1.750   7.590  0.9945 -1.8017  0.8223
 3075SOL    HW220859   4.698   1.832   7.478  0.0737 -1.7077 -1.5130
 3076SOL     OW20860   3.232   1.681   0.725  0.5740  0.0246 -0.8887
 3076SOL    HW120861   3.315   1.636   0.740 -0.8138 -1.9630  0.8579
 3076SOL    HW220862   3.266   1.737   0.656  1.1402  1.1210  0.2853
 3077SOL     OW20863   4.196   1.698   6.628  0.2434  0.1120 -0.3222
 3077SOL    HW120864   4.264   1.641   6.594 -0.2904 -0.5572 -0.2620
 3077SOL    HW220865   4.115   1.669   6.586  0.7350 -0.6383 -0.7513
 3078SOL     OW20866   2.699   4.618  15.358 -0.1434  1.0833  0.0384
 3078SOL    HW120867   2.733   4.667  15.432  0.6581  0.2194  0.2317
 3078SOL    HW220868   2.604   4.620  15.370 -0.2768 -0.8822 -0.7768
 3079SOL     OW20869   0.515   2.915   9.486 -1.2012 -0.0231  1.1608
 3079SOL    HW120870   0.478   2.877   9.565 -0.6726 -0.9911  0.9473
 3079SOL    HW220871   0.588   2.966   9.521  0.2158 -1.0710 -0.2451
 3080SOL     OW20872   0.444   1.263   2.191 -0.1265  0.1323  0.1339
 3080SOL    HW120873   0.400   1.182   2.217 -0.2602 -0.2968 -1.4459
 3080SOL    HW220874   0.379   1.325   2.158 -0.8939  0.1407  1.6713
 3081SOL     OW20875   3.563   1.154   0.251  0.5881  0.7647 -0.1954
 3081SOL    HW120876   3.603   1.183   0.333 -0.1313  0.5834  0.2230
 3081SOL    HW220877   3.631   1.098   0.215 -0.5540 -0.9170  0.2805
 3082SOL     OW20878   3.779   4.395   6.828  0.1944  0.0828  0.4021
 3082SOL    HW120879   3.854   4.352   6.869  0.2251 -0.3286 -0.0830
 3082SOL    HW220880   3.805   4.486   6.816 -0.7169  0.1243 -1.2861
 3083SOL     OW20881   4.523   2.651   1.473 -0.0284  0.4830  0.1539
 3083SOL    HW120882   4.554   2.697   1.395 -0.1977 -1.9937 -1.3793
 3083SOL    HW220883   4.474   2.579   1.433  0.9833 -1.1162  1.7903
 3084SOL     OW20884   0.054   3.755   4.916 -0.0558  0.5638 -0.4337
 3084SOL    HW120885   0.067   3.670   4.957  3.2608  1.5309  0.4257
 3084SOL    HW220886   0.124   3.760   4.851 -0.4454  3.3896 -0.6265
 3085SOL     OW20887   4.192   1.100   2.748  0.0196 -0.3069 -0.0537
 3085SOL    HW120888   4.261   1.156   2.785 -0.7338  0.0840  0.7560
 3085SOL    HW220889   4.216   1.110   2.656  0.3408 -0.2178  0.0408
 3086SOL     OW20890   1.673   1.967   3.917  0.0197  0.0671 -0.0291
 3086SOL    HW120891   1.644   1.883   3.882 -2.0338  1.0773 -0.7430
 3086SOL    HW220892   1.591   1.998   3.957  0.0498 -0.2205  0.2538
 3087SOL     OW20893   1.970   2.241   6.024  0.0858  0.8954  0.4514
 3087SOL    HW120894   2.039   2.182   5.993 -0.9005 -0.9279  1.7391
 3087SOL    HW220895   1.931   2.179   6.085  2.5288 -0.6368  0.4739
 3088SOL     OW20896   0.800   3.776   2.424 -0.2132  0.0826 -0.6589
 3088SOL    HW120897   0.895   3.778   2.435 -0.2543 -0.8063 -0.1208
 3088SOL    HW220898   0.794   3.725   2.343  1.5185 -1.3278  0.1162
 3089SOL     OW20899   0.865   1.096   7.414  0.3995  0.6253  0.3966
 3089SOL    HW120900   0.949   1.087   7.370 -0.2655  1.1358 -0.9477
 3089SOL    HW220901   0.799   1.084   7.346 -0.3711 -0.8745  1.3981
 3090SOL     OW20902   2.692   2.406   8.124  0.3211 -0.8029  0.0654
 3090SOL    HW120903   2.731   2.494   8.121 -0.0242 -0.6543 -0.1841
 3090SOL    HW220904   2.710   2.370   8.037 -2.8018  0.3207 -1.0423
 3091SOL     OW20905   4.058   1.787  15.735  0.1207  0.5116 -0.4950
 3091SOL    HW120906   3.984   1.789  15.675 -0.2103  2.0864 -0.0224
 3091SOL    HW220907   4.056   1.695  15.763 -0.0597  0.1626 -1.6522
 3092SOL     OW20908   4.395   4.484   3.060 -0.1009 -0.1022  0.0783
 3092SOL    HW120909   4.378   4.398   3.023 -2.1089 -0.3506  1.5606
 3092SOL    HW220910   4.384   4.535   2.980  0.8815 -2.0975 -1.2930
 3093SOL     OW20911   4.597   2.001   3.501 -0.1773 -0.1032 -0.0698
 3093SOL    HW120912   4.556   2.077   3.458 -0.0664 -0.6234 -1.1111
 3093SOL    HW220913   4.609   1.943   3.426  0.2521 -0.6907  0.4570
 3094SOL     OW20914   0.015   1.452  13.483  0.2299  0.1413  0.1376
 3094SOL    HW120915   0.078   1.432  13.552 -0.4015 -1.5450  0.2271
 3094SOL    HW220916   0.003   1.364  13.449  0.7621  0.0362  0.2132
 3095SOL     OW20917   1.443   4.175   3.311  0.4138  0.0714  0.1415
 3095SOL    HW120918   1.352   4.186   3.338  0.4099  0.3478  0.0145
 3095SOL    HW220919   1.488   4.231   3.374  1.4548  1.1040 -1.5338
 3096SOL     OW20920   1.222   0.802   5.638  0.0527  0.1503 -0.0879
 3096SOL    HW120921   1.158   0.745   5.682 -0.8506  1.5911  0.4788
 3096SOL    HW220922   1.171   0.843   5.568 -0.7178 -1.9776 -0.7731
 3097SOL     OW20923   2.388   2.138  11.607  0.4467 -0.4860 -0.1399
 3097SOL    HW120924   2.318   2.137  11.542  0.2771  0.4347  0.0270
 3097SOL    HW220925   2.332   2.142  11.685 -0.7582 -3.3261 -0.8516
 3098SOL     OW20926   2.891   3.080   9.117  0.7456  0.2671 -0.1034
 3098SOL    HW120927   2.854   3.040   9.038  0.9765  1.0297 -0.5993
 3098SOL    HW220928   2.957   3.013   9.138  2.0037  2.1864  2.0697
 3099SOL     OW20929   4.722   3.579  15.748 -0.0388 -0.2580 -0.3764
 3099SOL    HW120930   4.674   3.616  15.822  1.0350  3.0234 -1.3048
 3099SOL    HW220931   0.050   3.642  15.721 -1.8099  0.9682 -1.8561
 3100SOL     OW20932   4.267   3.730   9.295  0.4821 -0.1468  0.5805
 3100SOL    HW120933   4.302   3.645   9.319  1.4044 -0.0132 -0.2979
 3100SOL    HW220934   4.197   3.712   9.232  0.7908  1.9546 -0.3763
 3101SOL     OW20935   3.392   3.299   1.137  0.1839  0.2998 -0.0807
 3101SOL    HW120936   3.462   3.269   1.079 -0.1094 -0.7098  0.0881
 3101SOL    HW220937   3.450   3.315   1.212  0.1607 -1.3981  0.3071
 3102SOL     OW20938   3.598   0.521   4.490  0.1019 -0.2598  0.4981
 3102SOL    HW120939   3.622   0.548   4.402 -0.6188 -0.3081  0.2849
 3102SOL    HW220940   3.686   0.488   4.509  0.2603  0.2682  0.6818
 3103SOL     OW20941   0.030   1.401   3.365  0.1026 -0.5457 -0.6743
 3103SOL    HW120942   0.083   1.349   3.304  0.7243 -2.3377  1.4005
 3103SOL    HW220943   0.058   1.362   3.448 -1.3443 -0.2861 -0.0670
 3104SOL     OW20944   1.949   2.337  11.415 -0.3413 -0.5641 -0.3650
 3104SOL    HW120945   2.042   2.343  11.395 -0.4702 -1.4047 -1.1633
 3104SOL    HW220946   1.898   2.329  11.335 -1.2857 -1.1024  0.2845
 3105SOL     OW20947   4.669   0.773   5.217  0.3718  0.0663 -0.5687
 3105SOL    HW120948   4.661   0.700   5.278  0.4824  0.8778  0.4094
 3105SOL    HW220949   4.728   0.728   5.156 -0.4445  0.3676 -1.5789
 3106SOL     OW20950   2.843   0.591   0.319 -0.0483  0.0733 -0.0555
 3106SOL    HW120951   2.759   0.585   0.365 -0.3246  0.1562 -0.5411
 3106SOL    HW220952   2.828   0.670   0.267  0.6133 -0.1021 -0.5147
 3107SOL     OW20953   1.125   2.519   3.502  0.3531 -0.3587 -0.7184
 3107SOL    HW120954   1.066   2.589   3.531 -1.2889 -1.2833 -1.8515
 3107SOL    HW220955   1.104   2.511   3.409  2.1956 -0.8544 -1.0744
 3108SOL     OW20956   3.505   2.585  11.573 -0.0710  0.1639  0.2002
 3108SOL    HW120957   3.451   2.577  11.495 -2.8563 -1.1574  2.2510
 3108SOL    HW220958   3.552   2.667  11.558  0.7712 -0.2172  0.7706
 3109SOL     OW20959   3.493   0.193   6.799 -0.1964 -0.1454 -0.2828
 3109SOL    HW120960   3.536   0.187   6.884  0.6406  2.4921 -0.5539
 3109SOL    HW220961   3.499   0.104   6.764  1.7033  0.7010 -2.0265
 3110SOL     OW20962   4.394   3.004  13.696 -0.1624 -0.0884 -0.1182
 3110SOL    HW120963   4.344   2.947  13.754 -1.2685  0.2339 -0.7397
 3110SOL    HW220964   4.439   2.937  13.645 -4.0914 -0.2677 -3.3935
 3111SOL     OW20965   2.439   4.193  17.191  0.2054 -0.4011  0.2706
 3111SOL    HW120966   2.453   4.285  17.171  0.9835 -0.6029 -0.1063
 3111SOL    HW220967   2.378   4.157  17.127 -0.6368  1.7736 -0.1408
 3112SOL     OW20968   3.630   3.456   6.615  0.0842 -0.0474  0.2985
 3112SOL    HW120969   3.696   3.419   6.674  2.5871  1.3226 -1.6345
 3112SOL    HW220970   3.688   3.486   6.545  1.1420  2.8285  2.3847
 3113SOL     OW20971   4.383   3.177  11.475 -0.4603 -0.3395  0.1521
 3113SOL    HW120972   4.399   3.221  11.392  1.0289 -0.1659  0.5382
 3113SOL    HW220973   4.296   3.144  11.454 -1.6012  2.0477  1.0622
 3114SOL     OW20974   3.232   2.328   6.414  0.3327  0.1821 -0.0932
 3114SOL    HW120975   3.310   2.353   6.364  0.7435  0.9398  0.9261
 3114SOL    HW220976   3.199   2.252   6.367  0.8953 -0.8720  1.2120
 3115SOL     OW20977   2.043   0.277   1.491  0.5315  0.0305  0.2838
 3115SOL    HW120978   2.093   0.320   1.421 -0.4019 -0.0959 -0.4681
 3115SOL    HW220979   2.080   0.189   1.486 -1.0321 -0.6679  0.8988
 3116SOL     OW20980   1.180   3.843  12.659 -0.0700  0.0183 -0.4023
 3116SOL    HW120981   1.183   3.922  12.713  0.6728 -0.0658 -0.3213
 3116SOL    HW220982   1.089   3.812  12.662 -0.5191  1.2837 -1.2835
 3117SOL     OW20983   2.657   3.293   4.125 -0.3476 -0.3018  0.2340
 3117SOL    HW120984   2.732   3.242   4.096 -0.3955 -1.8440  2.8441
 3117SOL    HW220985   2.605   3.222   4.165  0.2511  0.5466  2.5197
 3118SOL     OW20986   0.442   0.856   4.188 -0.5015  0.2582  0.1203
 3118SOL    HW120987   0.484   0.940   4.204  1.0526 -0.5284  0.1317
 3118SOL    HW220988   0.399   0.865   4.103  1.4682 -0.9056 -1.0049
 3119SOL     OW20989   2.037   3.837   2.074 -0.1841 -0.0643 -0.2347
 3119SOL    HW120990   1.977   3.804   2.141 -1.0298  2.3966  0.2013
 3119SOL    HW220991   1.983   3.834   1.996 -1.6838 -0.1088  0.8003
 3120SOL     OW20992   1.118   1.495   2.733 -0.3947 -0.0565 -0.0306
 3120SOL    HW120993   1.069   1.493   2.815  0.9253  0.4150  0.7638
 3120SOL    HW220994   1.042   1.523   2.683  0.4089  1.6166 -0.3089
 3121SOL     OW20995   3.961   1.462   5.927  0.2636 -0.5148  0.0466
 3121SOL    HW120996   3.925   1.373   5.920 -3.3762  0.8610  1.0199
 3121SOL    HW220997   3.880   1.513   5.933 -1.1169 -2.7572  0.8501
 3122SOL     OW20998   0.416   2.280   3.918 -0.0409  0.6909  0.2598
 3122SOL    HW120999   0.348   2.285   3.850  1.6090  2.3678 -1.2785
 3122SOL    HW221000   0.374   2.303   4.001  1.4649 -1.9567  1.7444
 3123SOL     OW21001   0.245   3.175   7.516 -0.1365  0.1261 -0.0260
 3123SOL    HW121002   0.237   3.236   7.442 -1.5668 -0.3350 -0.2609
 3123SOL    HW221003   0.338   3.187   7.536 -0.0527  1.1735 -1.0238
 3124SOL     OW21004   2.499   4.517   8.346  0.3855  0.4232  0.5736
 3124SOL    HW121005   2.413   4.504   8.307 -0.1319 -0.3207  1.9628
 3124SOL    HW221006   2.482   4.589   8.407  0.6503  1.7473 -0.8965
 3125SOL     OW21007   0.841   2.479   8.097 -0.1296 -0.4760  0.3443
 3125SOL    HW121008   0.796   2.403   8.134 -0.9766 -0.6505 -1.0769
 3125SOL    HW221009   0.929   2.444   8.086  0.1435 -0.1659  1.4874
 3126SOL     OW21010   4.620   3.796   6.294 -0.1778  0.7612  0.1107
 3126SOL    HW121011   4.642   3.705   6.315  0.8237 -0.1514 -4.6723
 3126SOL    HW221012   4.645   3.794   6.201  1.5903  1.5127  0.5596
 3127SOL     OW21013   2.861   2.816  14.431 -0.0505 -0.5155 -0.6881
 3127SOL    HW121014   2.861   2.725  14.460 -0.8750 -0.7286 -1.3663
 3127SOL    HW221015   2.909   2.859  14.502 -1.7939  2.6015 -1.3948
 3128SOL     OW21016   1.287   4.112   8.048  0.1247  0.7951  0.4124
 3128SOL    HW121017   1.240   4.188   8.082  0.8370  1.3547  0.1425
 3128SOL    HW221018   1.244   4.036   8.089  0.0881 -0.1238 -1.3311
 3129SOL     OW21019   2.859   1.234  16.648 -0.2673 -0.3482 -0.1732
 3129SOL    HW121020   2.924   1.297  16.618 -1.2065  1.8344  2.4066
 3129SOL    HW221021   2.866   1.168  16.578  0.2854 -0.9835  0.4812
 3130SOL     OW21022   2.194   2.025  16.268 -0.3591 -0.2487  0.5900
 3130SOL    HW121023   2.262   1.968  16.235  0.0671  1.1041 -0.8514
 3130SOL    HW221024   2.238   2.061  16.345 -1.7182  1.2692  0.6725
 3131SOL     OW21025   4.336   0.303  10.295  0.2702 -0.0161  0.7217
 3131SOL    HW121026   4.308   0.266  10.211 -0.4191  1.8270  0.1466
 3131SOL    HW221027   4.413   0.349  10.260 -1.0429  0.6379 -1.3266
 3132SOL     OW21028   3.491   1.585   7.866 -0.5001  0.1720 -0.0725
 3132SOL    HW121029   3.516   1.583   7.959  0.3337 -0.3049 -0.3106
 3132SOL    HW221030   3.566   1.544   7.823  0.5835  0.3353  1.6439
 3133SOL     OW21031   4.419   3.593   8.558  0.0693 -0.8327 -0.6099
 3133SOL    HW121032   4.345   3.568   8.614 -1.2523  2.5844 -0.7998
 3133SOL    HW221033   4.456   3.506   8.547  2.5712 -0.0434  1.4123
 3134SOL     OW21034   0.756   0.245   5.902  0.1053  0.1240 -0.6716
 3134SOL    HW121035   0.847   0.258   5.876  0.8383  2.5312  3.0479
 3134SOL    HW221036   0.742   0.158   5.864 -2.5363  1.4837 -2.7976
 3135SOL     OW21037   4.478   4.248   5.095  0.0695  0.1776 -0.5420
 3135SOL    HW121038   4.518   4.226   5.011 -1.5287 -2.2759 -0.6775
 3135SOL    HW221039   4.511   4.333   5.124  1.4213 -0.9232  1.1765
 3136SOL     OW21040   4.702   1.943   9.051  0.8709  0.1743  0.1445
 3136SOL    HW121041   4.663   2.015   9.100  0.4900  0.2941 -0.3422
 3136SOL    HW221042   4.697   1.982   8.964 -0.5406 -1.8385 -0.6768
 3137SOL     OW21043   4.367   1.444   1.326 -0.4963  0.3034 -0.0318
 3137SOL    HW121044   4.342   1.356   1.354  0.1503  0.2345  0.3415
 3137SOL    HW221045   4.368   1.483   1.414  0.6614  3.0243 -1.2430
 3138SOL     OW21046   4.501   0.955   7.371  0.1827 -0.3931  0.5826
 3138SOL    HW121047   4.507   0.962   7.275  1.7938  0.1786  0.7290
 3138SOL    HW221048   4.595   0.943   7.384  0.4547 -1.8629 -2.7586
 3139SOL     OW21049   1.035   1.799   6.517  0.0655 -0.1971  0.0591
 3139SOL    HW121050   1.070   1.745   6.446  0.5855  1.3907 -0.8701
 3139SOL    HW221051   1.035   1.743   6.595 -3.3271 -1.1497 -0.6208
 3140SOL     OW21052   2.111   0.537  16.640  0.3628  0.3524 -0.1901
 3140SOL    HW121053   2.058   0.525  16.719 -1.6573 -1.8134 -1.8929
 3140SOL    HW221054   2.161   0.456  16.637  1.8405  1.2568 -0.0481
 3141SOL     OW21055   2.599   0.964  13.756  0.1277  0.1492 -0.2490
 3141SOL    HW121056   2.555   0.879  13.766 -1.1134  0.6772 -1.1399
 3141SOL    HW221057   2.691   0.938  13.758  0.5020  1.3241 -1.9395
 3142SOL     OW21058   1.973   0.726   7.712  0.0858 -0.0362 -0.4772
 3142SOL    HW121059   1.931   0.811   7.697  0.3642  0.1424 -0.2212
 3142SOL    HW221060   1.978   0.692   7.622 -1.1648  0.6533 -0.8008
 3143SOL     OW21061   0.001   0.724  16.129  0.3321 -0.1740  0.5240
 3143SOL    HW121062   0.069   0.674  16.084 -0.0354  0.1011 -0.3246
 3143SOL    HW221063   4.697   0.657  16.182  1.4197 -1.8793 -0.7567
 3144SOL     OW21064   4.492   4.703  16.724  0.7633 -0.2019 -0.1130
 3144SOL    HW121065   4.437   4.626  16.738 -1.1706  1.2770  0.3756
 3144SOL    HW221066   4.423   0.013  16.679 -1.2693 -2.3414  0.7233
 3145SOL     OW21067   4.200   3.084   4.626  0.2183 -0.0010  0.0796
 3145SOL    HW121068   4.214   3.011   4.565  2.3270  3.1323 -3.1689
 3145SOL    HW221069   4.274   3.138   4.598  0.0176  0.0473 -0.3526
 3146SOL     OW21070   0.625   1.793  15.163  0.3280 -0.2889 -0.0006
 3146SOL    HW121071   0.668   1.876  15.144 -3.3679  2.5336  4.0534
 3146SOL    HW221072   0.669   1.736  15.100  2.6920  0.0681  1.3378
 3147SOL     OW21073   4.097   2.444   6.785  0.0448  0.3762 -0.0840
 3147SOL    HW121074   4.006   2.456   6.812  0.2016  0.3154  0.4799
 3147SOL    HW221075   4.135   2.383   6.849 -1.0229  1.8029  1.9152
 3148SOL     OW21076   2.050   3.151   4.634 -0.2551 -0.0335 -0.2459
 3148SOL    HW121077   1.982   3.215   4.613 -0.4972 -0.5914 -1.1893
 3148SOL    HW221078   2.005   3.072   4.603 -0.6829  1.3148 -3.0413
 3149SOL     OW21079   0.284   0.905   1.571 -0.0015 -0.3542 -0.4236
 3149SOL    HW121080   0.355   0.841   1.570 -1.3892 -1.8323 -1.6412
 3149SOL    HW221081   0.337   0.984   1.580 -1.3363  0.2978  1.6708
 3150SOL     OW21082   4.346   0.316  16.023  0.0061 -0.3254 -0.1279
 3150SOL    HW121083   4.330   0.377  16.095  0.2916 -1.6823  1.0903
 3150SOL    HW221084   4.298   0.239  16.055  2.1355 -0.6855  2.2377
 3151SOL     OW21085   0.807   0.121   9.427 -0.3097  1.0721  0.6404
 3151SOL    HW121086   0.822   0.062   9.353 -1.8253  1.1941  0.2301
 3151SOL    HW221087   0.891   0.164   9.441  0.3182  0.0658 -0.0363
 3152SOL     OW21088   3.800   0.811   2.733 -0.1170  0.0266 -0.2165
 3152SOL    HW121089   3.854   0.883   2.701 -0.3326  0.4102  0.2939
 3152SOL    HW221090   3.719   0.857   2.752 -0.3816 -0.6665  0.3645
 3153SOL     OW21091   4.685   2.840   3.514 -0.2318 -0.6435  0.0548
 3153SOL    HW121092   0.001   2.765   3.489  0.8751 -0.5686  2.1626
 3153SOL    HW221093   4.729   2.852   3.599  1.6923  3.0250 -1.4527
 3154SOL     OW21094   3.945   4.609   5.800  0.2438  0.2387 -0.2430
 3154SOL    HW121095   4.035   4.633   5.779  0.3743 -0.0856 -0.0524
 3154SOL    HW221096   3.911   4.698   5.803 -2.4196 -0.7567 -1.3994
 3155SOL     OW21097   4.675   3.511   5.860  0.0625 -0.1851 -0.4985
 3155SOL    HW121098   4.688   3.579   5.926 -0.4222 -1.4834  0.9323
 3155SOL    HW221099   4.736   3.534   5.789 -0.0966  1.2883 -0.1463
 3156SOL     OW21100   1.219   0.327   9.399  0.1731 -0.4115  1.0806
 3156SOL    HW121101   1.242   0.234   9.406  1.3964 -0.1892  0.0240
 3156SOL    HW221102   1.280   0.367   9.461  2.4853 -2.4337  0.1062
 3157SOL     OW21103   1.105   4.307   7.442 -0.2098 -0.3352 -0.2395
 3157SOL    HW121104   1.011   4.299   7.427 -0.5203  0.6821  1.1515
 3157SOL    HW221105   1.104   4.342   7.531  1.0676 -2.6351  0.6794
 3158SOL     OW21106   0.049   0.695   7.626  0.1463  0.9437 -0.0337
 3158SOL    HW121107   0.103   0.693   7.547  1.1875 -2.0226  0.7366
 3158SOL    HW221108   4.709   0.745   7.602  1.5578  3.3569  0.4530
 3159SOL     OW21109   1.423   1.123   4.493  0.3674 -0.0666 -0.4752
 3159SOL    HW121110   1.511   1.096   4.466  0.1916  1.0988 -2.1842
 3159SOL    HW221111   1.424   1.107   4.587  0.1206 -2.2936 -0.8431
 3160SOL     OW21112   0.858   2.251  14.527 -0.5440  0.1524  0.2997
 3160SOL    HW121113   0.774   2.285  14.497 -1.0967 -3.6433 -2.3840
 3160SOL    HW221114   0.824   2.175  14.573 -1.0095  0.2275  0.0814
 3161SOL     OW21115   0.834   2.214  14.864  0.2706  0.6927  0.0110
 3161SOL    HW121116   0.776   2.162  14.807  0.4878 -1.5030  1.8097
 3161SOL    HW221117   0.775   2.217  14.939 -1.8670  1.0243 -1.6856
 3162SOL     OW21118   3.233   4.296  14.900 -0.2935 -0.1316  0.0827
 3162SOL    HW121119   3.185   4.354  14.841 -0.0433 -0.2887 -0.2768
 3162SOL    HW221120   3.163   4.291  14.965  0.3044 -1.7743  0.6088
 3163SOL     OW21121   0.959   1.523   6.638  0.2099  0.0762  0.3482
 3163SOL    HW121122   0.923   1.457   6.696  3.6265 -1.7527  0.3447
 3163SOL    HW221123   1.039   1.556   6.679 -0.0996 -1.0473  1.8375
 3164SOL     OW21124   1.631   1.846  13.668 -0.0236  0.0998 -0.4207
 3164SOL    HW121125   1.638   1.830  13.574  0.0499  0.6822 -0.5137
 3164SOL    HW221126   1.581   1.926  13.683  0.1629  0.4261 -1.5513
 3165SOL     OW21127   4.581   0.546  16.316  0.9499 -0.0335 -0.5477
 3165SOL    HW121128   4.622   0.498  16.244  2.0077  0.4609 -0.2842
 3165SOL    HW221129   4.624   0.514  16.395  0.8494 -0.7646 -0.7916
 3166SOL     OW21130   1.234   0.324  10.309  0.7351 -0.2811 -0.0585
 3166SOL    HW121131   1.235   0.332  10.404 -0.4708 -1.3411  0.0368
 3166SOL    HW221132   1.163   0.263  10.291  1.0361 -0.4849 -0.5500
 3167SOL     OW21133   2.807   1.324   0.430  0.5358  0.1484  0.0239
 3167SOL    HW121134   2.864   1.298   0.358 -1.1654  1.7263 -1.8819
 3167SOL    HW221135   2.833   1.254   0.490 -2.2435 -0.1208  0.9482
 3168SOL     OW21136   3.091   1.962   3.055  0.4134  0.0739  0.2904
 3168SOL    HW121137   3.069   1.964   2.962 -0.1396 -0.4672  0.4087
 3168SOL    HW221138   3.183   1.943   3.039  0.7252  0.9506  0.9946
 3169SOL     OW21139   4.369   0.653   6.995 -0.3090  0.7872 -0.1020
 3169SOL    HW121140   4.282   0.618   6.977 -0.3405  1.1172 -0.5990
 3169SOL    HW221141   4.399   0.595   7.065 -0.7760 -0.0317 -0.5810
 3170SOL     OW21142   0.203   0.816   1.145  0.0833 -0.5534  0.5449
 3170SOL    HW121143   0.270   0.847   1.206  1.5341 -1.0572 -0.7710
 3170SOL    HW221144   0.187   0.724   1.168 -1.4660 -0.6123 -0.7390
 3171SOL     OW21145   1.958   1.209   0.160 -0.1482 -0.3799 -0.2041
 3171SOL    HW121146   2.033   1.154   0.183  0.7866  0.6713 -0.7211
 3171SOL    HW221147   1.976   1.211   0.066  1.9632  1.7527  0.2445
 3172SOL     OW21148   3.797   4.563   2.222 -0.4872  0.2974  0.0433
 3172SOL    HW121149   3.727   4.628   2.224 -1.2862 -0.5923  0.8865
 3172SOL    HW221150   3.734   4.491   2.232 -0.4084  0.2196 -0.0225
 3173SOL     OW21151   2.984   3.720  13.280 -0.7973  0.6549  0.1634
 3173SOL    HW121152   3.073   3.732  13.248 -0.5851  0.0129  0.5168
 3173SOL    HW221153   2.928   3.782  13.233 -2.5934 -0.5559  0.6833
 3174SOL     OW21154   4.067   1.111  14.844 -0.0280 -0.0945  0.0593
 3174SOL    HW121155   4.028   1.103  14.931  1.6120  1.4171  0.9192
 3174SOL    HW221156   4.077   1.206  14.834 -0.8630  0.1627  1.7208
 3175SOL     OW21157   1.435   0.800   7.445 -0.2076  0.1606  0.3925
 3175SOL    HW121158   1.466   0.808   7.536  0.6369  2.5435 -0.1022
 3175SOL    HW221159   1.429   0.705   7.436 -0.7711  0.4164 -1.7767
 3176SOL     OW21160   2.544   1.363   0.345 -0.2816  0.3599  0.1190
 3176SOL    HW121161   2.589   1.431   0.294  0.5126 -0.2437 -0.0024
 3176SOL    HW221162   2.614   1.334   0.403 -0.6490  1.8007  1.2679
 3177SOL     OW21163   1.067   3.918   6.363  0.1557  0.7845  0.4584
 3177SOL    HW121164   1.045   3.825   6.369  1.7132  0.3444 -0.7032
 3177SOL    HW221165   1.117   3.918   6.281  0.5839 -0.5071  0.7226
 3178SOL     OW21166   0.585   3.767   5.449 -0.2087 -0.1598 -0.6446
 3178SOL    HW121167   0.547   3.773   5.361  1.2418 -0.4517 -1.3008
 3178SOL    HW221168   0.680   3.763   5.436  0.0278 -1.5882  1.5974
 3179SOL     OW21169   1.989   0.709   8.017 -0.1026 -0.1785  0.2263
 3179SOL    HW121170   1.941   0.639   8.062  0.3167  0.0277  0.9845
 3179SOL    HW221171   1.944   0.709   7.932 -0.7695  3.5121  0.5658
 3180SOL     OW21172   4.290   3.221   7.553 -0.2129  0.1546 -0.4026
 3180SOL    HW121173   4.232   3.286   7.513 -1.1239  0.4979  1.4909
 3180SOL    HW221174   4.323   3.179   7.473 -1.0090  2.2368 -1.8353
 3181SOL     OW21175   2.572   0.027   5.562  1.0104 -0.0202 -0.0888
 3181SOL    HW121176   2.563   4.687   5.617 -0.8538  0.7672  0.7570
 3181SOL    HW221177   2.646   0.017   5.503  0.3266  0.7777 -1.0947
 3182SOL     OW21178   1.968   2.912   4.506 -0.0187  0.1974 -0.3324
 3182SOL    HW121179   1.879   2.892   4.477 -0.4907  0.0650  1.1733
 3182SOL    HW221180   2.019   2.833   4.486  0.6893  0.8094 -0.9203
 3183SOL     OW21181   0.127   0.285  13.164 -0.8166  0.5978  0.1508
 3183SOL    HW121182   0.165   0.323  13.085  0.4018  3.2705  1.9952
 3183SOL    HW221183   0.186   0.318  13.232  0.5892  1.5017 -1.5151
 3184SOL     OW21184   2.744   0.259   6.837 -0.5771  0.3313 -0.3246
 3184SOL    HW121185   2.752   0.339   6.887 -0.5704 -0.2430  0.5851
 3184SOL    HW221186   2.797   0.201   6.892  2.7064  1.6582 -2.0928
 3185SOL     OW21187   2.076   1.810   3.350 -0.0067 -0.2306  0.0279
 3185SOL    HW121188   2.167   1.833   3.367  0.1963 -1.2241  0.2584
 3185SOL    HW221189   2.067   1.855   3.266 -0.3120  1.3821  0.9262
 3186SOL     OW21190   2.195   1.308   7.179  0.4969 -0.4651  0.2954
 3186SOL    HW121191   2.169   1.248   7.110 -0.3604  0.7820 -0.4566
 3186SOL    HW221192   2.126   1.285   7.241 -0.0716 -1.9873 -0.9067
 3187SOL     OW21193   0.600   2.955   8.278  0.0511 -0.2009 -0.0192
 3187SOL    HW121194   0.608   2.878   8.221 -1.4622  0.5774 -1.2804
 3187SOL    HW221195   0.629   2.907   8.356  0.1611  0.5945  0.4289
 3188SOL     OW21196   3.847   1.016  14.991  0.0735  0.6464  0.0953
 3188SOL    HW121197   3.837   1.068  14.912  2.5681 -0.3106 -0.8489
 3188SOL    HW221198   3.770   1.030  15.046 -0.4705  1.7253 -0.9653
 3189SOL     OW21199   4.502   1.515   9.315 -0.2281 -0.4523  0.5640
 3189SOL    HW121200   4.588   1.556   9.325 -1.3110  1.9380  0.0944
 3189SOL    HW221201   4.462   1.582   9.260  2.6706  0.1067 -0.8654
 3190SOL     OW21202   1.659   4.716   0.557  0.3160 -0.8745 -0.2014
 3190SOL    HW121203   1.734   4.657   0.568  2.5585  2.2461  1.0685
 3190SOL    HW221204   1.660   0.004   0.465 -1.2656  0.9372  0.2951
 3191SOL     OW21205   2.049   0.829   3.379 -0.2213  0.1068 -0.1102
 3191SOL    HW121206   1.967   0.783   3.365  0.4224 -0.9836 -0.2670
 3191SOL    HW221207   2.103   0.761   3.419  2.2530  1.2607 -1.4853
 3192SOL     OW21208   1.559   1.789   7.606  0.0341  0.1060  0.7093
 3192SOL    HW121209   1.531   1.800   7.515 -0.7477 -0.7605  0.8483
 3192SOL    HW221210   1.620   1.863   7.610  1.9743 -1.3470 -1.5441
 3193SOL     OW21211   2.229   2.457   5.359 -0.6402 -0.0636  0.1596
 3193SOL    HW121212   2.190   2.373   5.337  0.1941 -0.5283  0.4690
 3193SOL    HW221213   2.159   2.501   5.406 -0.8993  0.9930 -1.1988
 3194SOL     OW21214   3.498   3.764   6.166 -0.5505  0.0177  0.0873
 3194SOL    HW121215   3.425   3.764   6.105 -1.9156 -1.5361  1.7395
 3194SOL    HW221216   3.562   3.766   6.094  1.3394 -0.4193  1.7456
 3195SOL     OW21217   4.314   2.287   6.168 -0.2110  0.4163 -0.7188
 3195SOL    HW121218   4.361   2.245   6.095  0.1267 -0.6297  0.0990
 3195SOL    HW221219   4.386   2.305   6.229  0.0988  0.5043 -1.1043
 3196SOL     OW21220   3.037   4.670   5.278  0.4935  0.2052 -0.0808
 3196SOL    HW121221   2.973   4.657   5.207 -1.6564 -1.0255  2.0630
 3196SOL    HW221222   3.065   4.579   5.285 -1.7787 -0.3975  1.0569
 3197SOL     OW21223   1.862   1.524   0.398 -0.2707  0.3780  0.1961
 3197SOL    HW121224   1.875   1.603   0.451  1.9941 -0.2319  0.5405
 3197SOL    HW221225   1.886   1.448   0.452  2.6048  1.7505  0.7985
 3198SOL     OW21226   0.512   4.298   6.730  0.5905 -0.2026 -0.3890
 3198SOL    HW121227   0.495   4.233   6.662 -0.2478 -0.0353 -0.3329
 3198SOL    HW221228   0.599   4.268   6.758  0.7929 -0.7314 -1.5973
 3199SOL     OW21229   1.342   0.980  17.712  0.0947 -0.4918 -0.5549
 3199SOL    HW121230   1.300   0.924   0.029 -2.6128 -0.8810 -2.5795
 3199SOL    HW221231   1.339   0.921  17.637 -1.1153 -0.8724 -0.2142
 3200SOL     OW21232   3.736   3.642   5.161  0.5159 -0.0487 -0.6651
 3200SOL    HW121233   3.824   3.664   5.128 -0.9555  1.0990 -3.7796
 3200SOL    HW221234   3.703   3.591   5.087  3.2708 -0.1430 -1.8318
 3201SOL     OW21235   3.414   2.829   5.281  0.7775 -0.5417 -0.6140
 3201SOL    HW121236   3.427   2.780   5.362  1.6750  1.7171  0.6031
 3201SOL    HW221237   3.502   2.865   5.280 -0.7324  3.0379 -2.5681
 3202SOL     OW21238   2.308   2.653   5.160  0.0750 -0.3008 -0.0038
 3202SOL    HW121239   2.338   2.688   5.244  0.7395 -0.2852 -0.2494
 3202SOL    HW221240   2.254   2.585   5.200 -0.5604  0.9357  1.2589
 3203SOL     OW21241   3.145   3.604   9.719 -0.2041 -0.3407 -0.5643
 3203SOL    HW121242   3.202   3.531   9.744 -0.7574 -0.5664  0.0276
 3203SOL    HW221243   3.201   3.654   9.660  1.3607 -2.3499 -0.8119
 3204SOL     OW21244   4.526   4.303   0.496  0.0285  0.5850 -0.1754
 3204SOL    HW121245   4.464   4.245   0.452 -1.5260  1.4395  0.8684
 3204SOL    HW221246   4.512   4.270   0.585 -0.4060 -1.4331 -0.9901
 3205SOL     OW21247   2.092   4.274   1.905  0.0330  0.2517 -0.3736
 3205SOL    HW121248   2.007   4.245   1.872  0.1085 -0.2421 -0.1276
 3205SOL    HW221249   2.109   4.346   1.845 -1.0748  3.2944  2.9691
 3206SOL     OW21250   0.871   2.080   4.689 -0.0477 -0.4979  0.2580
 3206SOL    HW121251   0.895   2.129   4.767 -0.4597  0.7019 -0.3639
 3206SOL    HW221252   0.816   2.012   4.726 -0.5026 -0.9751 -1.2832
 3207SOL     OW21253   1.799   3.363   9.375  0.1416  0.0057  0.3889
 3207SOL    HW121254   1.870   3.403   9.424  0.0244  0.1730  0.4229
 3207SOL    HW221255   1.772   3.440   9.323 -1.0882  0.7732  2.1711
 3208SOL     OW21256   2.974   2.635   9.587 -0.4015 -0.1078 -0.1047
 3208SOL    HW121257   2.926   2.649   9.506  0.9565  1.3476 -0.6613
 3208SOL    HW221258   3.012   2.717   9.617 -0.6572 -0.5080  1.3124
 3209SOL     OW21259   3.738   1.190  12.950 -0.1639  0.0517  0.2820
 3209SOL    HW121260   3.759   1.124  12.884 -0.4874  1.7546 -1.5349
 3209SOL    HW221261   3.644   1.201  12.944 -0.2154  0.8180  2.2924
 3210SOL     OW21262   3.811   0.950   3.848 -0.2669  0.2017 -0.2171
 3210SOL    HW121263   3.841   0.861   3.868  2.2043  0.9128 -0.7771
 3210SOL    HW221264   3.866   0.967   3.772 -0.5551  2.0374 -0.0152
 3211SOL     OW21265   0.451   3.311   6.724  0.6770 -0.3831  0.2873
 3211SOL    HW121266   0.539   3.283   6.751  0.7440 -0.9842 -0.5446
 3211SOL    HW221267   0.462   3.374   6.653  2.8839 -0.3141  0.6971
 3212SOL     OW21268   2.947   4.269   3.513 -0.2253 -0.0829  0.3593
 3212SOL    HW121269   2.925   4.326   3.586 -0.8875  1.0881 -0.7520
 3212SOL    HW221270   3.039   4.246   3.528  0.5100  2.1217 -0.7215
 3213SOL     OW21271   2.412   1.202   0.829  0.3998 -0.4701 -0.1894
 3213SOL    HW121272   2.446   1.270   0.771 -1.8932  0.3630 -0.5565
 3213SOL    HW221273   2.318   1.207   0.812  0.1765 -1.4388  0.7277
 3214SOL     OW21274   0.505   0.049   2.648 -0.5513  0.2904 -0.0829
 3214SOL    HW121275   0.412   0.044   2.629 -0.1403  0.2043 -2.1549
 3214SOL    HW221276   0.547   0.041   2.562 -0.0820 -3.6712  0.5294
 3215SOL     OW21277   1.291   1.401   2.287 -0.3515  0.3697  0.8460
 3215SOL    HW121278   1.272   1.495   2.278 -0.2333  0.4629  1.5428
 3215SOL    HW221279   1.262   1.385   2.377  0.2799  2.1784  1.3621
 3216SOL     OW21280   4.095   3.256   1.513 -0.0223  0.7312 -0.0930
 3216SOL    HW121281   4.171   3.313   1.503  1.0547 -0.3387  2.0317
 3216SOL    HW221282   4.132   3.171   1.488 -1.3460 -0.1818  1.0775
 3217SOL     OW21283   1.889   2.719   1.618 -0.8202 -0.4625 -0.8473
 3217SOL    HW121284   1.878   2.802   1.571  0.4004 -0.8470 -1.8085
 3217SOL    HW221285   1.830   2.743   1.690  0.9469 -0.9402  0.7763
 3218SOL     OW21286   4.042   2.197   6.114  0.0360 -0.1960 -0.3071
 3218SOL    HW121287   4.040   2.111   6.156  0.6821  0.2861  0.7125
 3218SOL    HW221288   4.131   2.227   6.133  0.2554 -0.3168 -1.1425
 3219SOL     OW21289   3.879   0.415  12.962  0.1496  0.1842 -0.0894
 3219SOL    HW121290   3.943   0.371  13.018 -0.3202  3.0439  2.7179
 3219SOL    HW221291   3.922   0.492  12.924  3.1733  0.5192  3.9665
 3220SOL     OW21292   4.694   1.959   4.173 -0.3072 -0.5536  0.0662
 3220SOL    HW121293   4.606   1.988   4.197 -0.3562 -0.3773 -0.3270
 3220SOL    HW221294   4.676   1.866   4.190  0.8577 -0.7196  0.4328
 3221SOL     OW21295   4.705   2.655   7.336  1.3925 -0.2279  0.1778
 3221SOL    HW121296   4.649   2.634   7.261  1.1489  0.7966  0.0676
 3221SOL    HW221297   0.030   2.584   7.326  2.5368  1.0909 -2.1937
 3222SOL     OW21298   4.648   1.165  10.953 -0.2879  0.5003 -0.1782
 3222SOL    HW121299   4.617   1.255  10.945 -2.1954 -0.0797  0.6593
 3222SOL    HW221300   4.645   1.160  11.048 -2.2612  0.5211 -0.2297
 3223SOL     OW21301   4.179   3.174   5.448 -0.4135  0.6326  0.4030
 3223SOL    HW121302   4.097   3.191   5.494 -0.0930  0.6639  0.9735
 3223SOL    HW221303   4.232   3.153   5.525  1.6231  1.2484 -0.8309
 3224SOL     OW21304   1.518   0.313  17.091 -0.5738  0.1189  0.0170
 3224SOL    HW121305   1.441   0.322  17.034 -0.3693  2.0351  0.0181
 3224SOL    HW221306   1.538   0.407  17.089  1.0253 -0.1954  1.1596
 3225SOL     OW21307   0.894   3.596   7.297  0.1180  0.1107 -0.4067
 3225SOL    HW121308   0.856   3.510   7.277  1.4762 -0.8441  1.1464
 3225SOL    HW221309   0.960   3.577   7.363 -1.1374 -1.2736  0.4655
 3226SOL     OW21310   0.935   0.215  16.340  0.0433 -0.0402  0.6576
 3226SOL    HW121311   0.935   0.129  16.382  2.6413  0.1986  1.1702
 3226SOL    HW221312   0.855   0.211  16.288  2.1454 -1.2307 -2.4531
 3227SOL     OW21313   3.556   4.717   5.647  0.0038 -0.4386  0.3562
 3227SOL    HW121314   3.480   4.737   5.593 -0.2110 -1.9486  0.0971
 3227SOL    HW221315   3.521   4.662   5.717 -0.8531 -1.4207 -0.8601
 3228SOL     OW21316   1.104   1.498   6.376 -0.3173 -0.1459 -0.6252
 3228SOL    HW121317   1.193   1.465   6.364 -0.3075  0.5241 -2.2325
 3228SOL    HW221318   1.088   1.473   6.468  3.3555  1.5730  0.4638
 3229SOL     OW21319   4.629   4.718   3.064 -0.4167  0.4961 -0.1891
 3229SOL    HW121320   4.601   0.064   3.028  0.5132  0.4778 -0.9335
 3229SOL    HW221321   4.585   4.662   2.999  1.0458 -0.2684 -0.5189
 3230SOL     OW21322   0.792   2.587   5.974 -0.6191  0.3477  0.0973
 3230SOL    HW121323   0.821   2.678   5.965  0.8282 -0.1120  0.1282
 3230SOL    HW221324   0.798   2.547   5.887 -0.7014  0.4160  0.0609
 3231SOL     OW21325   1.521   0.903   8.233 -0.4603  0.0473  0.3894
 3231SOL    HW121326   1.585   0.846   8.275  0.4568  0.4499 -0.4546
 3231SOL    HW221327   1.441   0.851   8.226  1.0206 -2.1445 -0.3896
 3232SOL     OW21328   2.955   0.116  17.723 -0.3615  0.0657  0.5254
 3232SOL    HW121329   3.024   0.139   0.036 -0.3382 -0.4236  0.6788
 3232SOL    HW221330   2.881   0.124   0.033 -1.8143  0.2039 -1.2838
 3233SOL     OW21331   0.016   3.837  16.308 -0.1865  0.0119  0.0442
 3233SOL    HW121332   4.713   3.824  16.393  0.4592 -2.6892 -0.0412
 3233SOL    HW221333   0.022   3.932  16.311 -1.3340  0.0424  1.3573
 3234SOL     OW21334   3.829   2.209   5.546 -0.5690  0.3330 -0.1241
 3234SOL    HW121335   3.742   2.173   5.528 -0.9396  1.0621  0.2023
 3234SOL    HW221336   3.830   2.294   5.502  0.1341  1.3233  1.7908
 3235SOL     OW21337   0.007   3.932   5.210  0.1061 -0.5652  0.6846
 3235SOL    HW121338   0.074   3.988   5.171 -1.7654  0.0505 -1.6352
 3235SOL    HW221339   4.730   3.872   5.138 -1.1920 -1.9079  2.0603
 3236SOL     OW21340   0.806   4.103   7.931 -0.5648  0.4563 -0.2816
 3236SOL    HW121341   0.785   4.135   7.843 -0.9358 -4.0643 -1.8432
 3236SOL    HW221342   0.798   4.189   7.971 -1.6618  0.5427 -0.6929
 3237SOL     OW21343   3.692   2.588   1.041  0.3703 -0.1929  0.5349
 3237SOL    HW121344   3.770   2.542   1.073  1.3134  0.0760 -1.3717
 3237SOL    HW221345   3.685   2.648   1.115  1.0104  1.6847 -0.9332
 3238SOL     OW21346   4.177   0.328   5.846 -0.5057  0.1963  0.2473
 3238SOL    HW121347   4.236   0.252   5.841 -0.6429  0.0791  0.4193
 3238SOL    HW221348   4.242   0.398   5.841 -0.7311  0.3812 -0.0901
 3239SOL     OW21349   0.326   4.712   4.568 -0.6129  0.1063 -0.8192
 3239SOL    HW121350   0.300   0.065   4.586 -1.4660 -0.4497  0.7253
 3239SOL    HW221351   0.305   4.677   4.655  0.3367 -0.0651 -0.6629
 3240SOL     OW21352   0.806   1.583   3.649 -0.4047  0.0282 -0.1500
 3240SOL    HW121353   0.875   1.539   3.699  0.5836  0.6320 -0.9713
 3240SOL    HW221354   0.756   1.506   3.621 -2.2891  1.1587  0.1699
 3241SOL     OW21355   3.401   4.419   2.846 -0.2444 -0.4553 -0.5549
 3241SOL    HW121356   3.332   4.371   2.891  0.3278 -0.9780 -0.2387
 3241SOL    HW221357   3.364   4.503   2.820  0.6744  0.3651  0.7446
 3242SOL     OW21358   2.459   1.991   2.199 -0.0724  0.3678 -0.2122
 3242SOL    HW121359   2.502   2.076   2.207  1.0984 -0.1949 -0.4247
 3242SOL    HW221360   2.435   1.993   2.106  0.3169  1.1628 -0.2938
 3243SOL     OW21361   3.094   2.288   4.691 -0.2185  0.3422 -0.1120
 3243SOL    HW121362   3.048   2.281   4.775 -1.9971  0.0682 -1.1024
 3243SOL    HW221363   3.067   2.376   4.665 -0.9239  0.2630  0.3639
 3244SOL     OW21364   0.643   3.371  13.205 -0.2731  0.3316 -0.0374
 3244SOL    HW121365   0.569   3.354  13.147  0.7047  0.2663 -1.2695
 3244SOL    HW221366   0.609   3.402  13.289 -0.6718 -0.3902  0.0699
 3245SOL     OW21367   2.777   2.917   6.828 -0.4710 -0.8355  0.3324
 3245SOL    HW121368   2.819   2.993   6.868 -1.3766 -0.1329 -0.0460
 3245SOL    HW221369   2.853   2.865   6.802  0.3752 -0.3358  1.8591
 3246SOL     OW21370   0.528   4.175   1.112 -0.9047  0.0347  0.8296
 3246SOL    HW121371   0.604   4.202   1.060 -0.9541 -1.5634 -0.0495
 3246SOL    HW221372   0.575   4.130   1.182  0.1066  1.0140  0.7851
 3247SOL     OW21373   1.695   2.971  15.945 -0.0444  0.4719 -0.5537
 3247SOL    HW121374   1.695   3.066  15.932 -0.5472  0.8220  2.1280
 3247SOL    HW221375   1.620   2.959  16.002  0.7695 -0.7142  0.2583
 3248SOL     OW21376   2.936   2.503   8.371  0.1837 -0.6326  0.2638
 3248SOL    HW121377   2.906   2.412   8.368 -1.3062 -0.1084 -0.7309
 3248SOL    HW221378   2.974   2.498   8.459 -1.8809 -2.1084  1.0907
 3249SOL     OW21379   0.925   3.178   4.857  0.0975  0.0140 -0.4957
 3249SOL    HW121380   0.845   3.187   4.805  0.6108 -2.4079 -1.6824
 3249SOL    HW221381   0.979   3.113   4.812 -0.7925 -0.6688 -0.5644
 3250SOL     OW21382   0.377   1.468   1.452 -0.4174  0.0892  0.1615
 3250SOL    HW121383   0.301   1.507   1.496 -0.6208 -1.2903  1.0395
 3250SOL    HW221384   0.338   1.397   1.400  0.7808 -2.4819  2.8050
 3251SOL     OW21385   0.586   2.183   9.234 -0.6751 -0.0108  0.1851
 3251SOL    HW121386   0.528   2.108   9.246  2.0339 -2.2607 -0.6902
 3251SOL    HW221387   0.604   2.203   9.326  1.5644  1.0968 -0.4790
 3252SOL     OW21388   3.839   4.209   5.373  0.2625  0.1750 -0.0354
 3252SOL    HW121389   3.859   4.158   5.452  2.2556 -0.6477 -1.0719
 3252SOL    HW221390   3.867   4.153   5.301  1.1475  1.4304 -0.6670
 3253SOL     OW21391   1.531   0.400   0.510  0.1007 -0.2022 -0.0408
 3253SOL    HW121392   1.568   0.331   0.565 -1.1733 -0.3637  0.6122
 3253SOL    HW221393   1.592   0.415   0.438  0.9457  1.2830  0.9739
 3254SOL     OW21394   3.843   1.800  15.598 -0.0253 -0.9089 -0.7092
 3254SOL    HW121395   3.805   1.878  15.559 -0.4440 -0.7046  0.1095
 3254SOL    HW221396   3.766   1.743  15.591 -0.1186 -0.8261 -0.3535
 3255SOL     OW21397   0.986   1.513   7.027  0.6979  0.3475 -0.1437
 3255SOL    HW121398   0.980   1.491   7.120  0.4632 -1.7571 -0.6606
 3255SOL    HW221399   0.895   1.540   7.013  0.7456  0.3129 -0.5032
 3256SOL     OW21400   0.812   2.531   8.731  0.8517  0.6750 -0.3606
 3256SOL    HW121401   0.727   2.540   8.775  0.8235  0.2565 -0.3221
 3256SOL    HW221402   0.877   2.515   8.799 -0.1334  0.3616  0.5146
 3257SOL     OW21403   4.682   3.638   0.627  0.9076  0.1019 -0.5459
 3257SOL    HW121404   4.725   3.591   0.698 -0.3003  0.5618  0.4849
 3257SOL    HW221405   0.013   3.621   0.563  1.0057 -2.1029  0.1842
 3258SOL     OW21406   2.276   3.597   7.330  0.2659 -0.0840  0.2518
 3258SOL    HW121407   2.250   3.621   7.241 -1.7319 -0.4573  0.7422
 3258SOL    HW221408   2.359   3.553   7.312  1.0569  0.9510  1.3291
 3259SOL     OW21409   3.982   3.226  10.763 -0.0619  0.4501 -0.3434
 3259SOL    HW121410   3.910   3.214  10.701  0.1011  0.3988 -0.5227
 3259SOL    HW221411   3.992   3.321  10.762 -0.4169  0.4858 -0.7450
 3260SOL     OW21412   0.317   0.582   6.368  0.5381 -0.2166 -0.1282
 3260SOL    HW121413   0.322   0.670   6.404 -1.9361 -0.3851  0.5662
 3260SOL    HW221414   0.314   0.593   6.273  1.4666  2.3233  0.1537
 3261SOL     OW21415   1.142   0.088   3.153  0.0868 -0.3766 -0.4743
 3261SOL    HW121416   1.088   0.144   3.209  0.1382  0.5414 -1.3450
 3261SOL    HW221417   1.218   0.080   3.210 -0.6272 -1.5090  0.2999
 3262SOL     OW21418   1.042   4.151  15.205  0.1929  0.0249  0.0078
 3262SOL    HW121419   1.067   4.082  15.266  2.4400  0.5314 -0.3317
 3262SOL    HW221420   0.947   4.148  15.204  0.2408 -0.8549 -2.1345
 3263SOL     OW21421   4.372   3.452  13.191 -0.0353  0.0453  0.2371
 3263SOL    HW121422   4.321   3.519  13.236 -0.0690 -0.3129  0.7352
 3263SOL    HW221423   4.314   3.378  13.213  0.7283 -0.7625 -0.5115
 3264SOL     OW21424   3.759   0.255  16.034  0.0913 -0.4294 -0.0239
 3264SOL    HW121425   3.691   0.315  16.004 -0.0408  0.0865  1.3301
 3264SOL    HW221426   3.840   0.304  16.020 -0.1000 -0.6203 -1.7749
 3265SOL     OW21427   1.355   3.483   0.978  0.7122  0.2820 -0.0626
 3265SOL    HW121428   1.335   3.513   0.890  0.6677 -0.8517 -0.4342
 3265SOL    HW221429   1.434   3.532   1.003  0.0195  1.2291  0.2688
 3266SOL     OW21430   2.279   1.182   2.726  0.7983  0.0825  0.4564
 3266SOL    HW121431   2.212   1.199   2.659  0.1141 -1.2873  0.8005
 3266SOL    HW221432   2.229   1.110   2.765  0.9645 -1.0297 -1.3322
 3267SOL     OW21433   1.058   1.202   9.561  0.7259  0.0401 -0.6558
 3267SOL    HW121434   1.059   1.214   9.656 -0.2978  0.4442 -0.6926
 3267SOL    HW221435   0.964   1.218   9.552  0.9913  2.0754  0.4599
 3268SOL     OW21436   0.440   0.738  12.515  0.9102  0.1435  0.2623
 3268SOL    HW121437   0.527   0.701  12.502  1.8337  2.1448  0.7514
 3268SOL    HW221438   0.396   0.676  12.573  0.1952  0.8724  0.5061
 3269SOL     OW21439   0.477   4.325   4.169 -0.5208  0.0235 -0.0834
 3269SOL    HW121440   0.384   4.324   4.147 -0.1393 -1.5807 -1.6217
 3269SOL    HW221441   0.476   4.310   4.264 -0.3452  0.9188  0.0546
 3270SOL     OW21442   4.721   4.236   4.520  0.5919 -0.2704  0.0930
 3270SOL    HW121443   0.020   4.148   4.533 -1.1947 -0.6482  2.7080
 3270SOL    HW221444   0.045   4.277   4.460 -0.4301  0.5773 -0.3762
 3271SOL     OW21445   4.167   3.629   0.250 -0.0909 -0.2442 -0.4310
 3271SOL    HW121446   4.207   3.680   0.321  0.5803  0.7682 -1.5452
 3271SOL    HW221447   4.157   3.546   0.298 -0.5369 -0.4278 -0.8475
 3272SOL     OW21448   4.662   3.891   0.048  0.0703  0.5791  0.0955
 3272SOL    HW121449   4.630   3.912  17.709 -0.3851  0.5041  0.2430
 3272SOL    HW221450   4.617   3.959   0.099  1.2011  1.4802 -0.0982
 3273SOL     OW21451   1.969   2.029   1.609  0.8681  0.3254 -0.6302
 3273SOL    HW121452   1.990   1.937   1.623  0.7334  0.3264 -0.4218
 3273SOL    HW221453   1.945   2.026   1.516  2.0359  0.9604 -0.9582
 3274SOL     OW21454   0.279   1.922  16.274 -0.3642  0.1021  0.8623
 3274SOL    HW121455   0.251   1.836  16.244 -1.9086  0.8592  0.1069
 3274SOL    HW221456   0.246   1.984  16.208 -0.0227 -1.1838 -0.5122
 3275SOL     OW21457   2.422   0.673  10.885  0.1582 -0.8882  0.3891
 3275SOL    HW121458   2.428   0.584  10.922  1.4175 -1.0540 -0.2295
 3275SOL    HW221459   2.422   0.727  10.964 -0.7612 -1.0879  0.5357
 3276SOL     OW21460   3.832   2.113   3.995 -0.2897 -0.4367 -0.4685
 3276SOL    HW121461   3.784   2.196   3.991  0.3761  0.0150  0.9378
 3276SOL    HW221462   3.762   2.049   4.003 -2.0625  1.3741 -1.4745
 3277SOL     OW21463   2.433   3.396  16.162 -0.4248  0.1056 -0.3327
 3277SOL    HW121464   2.364   3.345  16.119  0.0132  1.3307 -2.5003
 3277SOL    HW221465   2.426   3.353  16.247  3.8353  0.8448  0.4018
 3278SOL     OW21466   3.901   3.708   8.237  0.0326  0.1361  0.0460
 3278SOL    HW121467   3.875   3.724   8.327  1.6994 -0.7198  0.6674
 3278SOL    HW221468   3.982   3.659   8.248 -0.1698  0.0985  1.2787
 3279SOL     OW21469   3.689   0.071   5.178  0.0483 -0.7772  0.2477
 3279SOL    HW121470   3.625   0.032   5.119  1.0567  0.2963 -1.5540
 3279SOL    HW221471   3.765   0.014   5.180  0.6453  0.0501  1.6224
 3280SOL     OW21472   0.967   0.902   4.297 -0.9127  0.0824  1.0852
 3280SOL    HW121473   0.931   0.932   4.380  0.7528 -0.5883  2.0495
 3280SOL    HW221474   1.060   0.916   4.315 -0.3274 -2.0358 -0.2655
 3281SOL     OW21475   3.901   3.454   8.513  0.4234 -0.3023 -0.2581
 3281SOL    HW121476   3.922   3.367   8.545 -0.3418 -0.0634  0.9085
 3281SOL    HW221477   3.896   3.505   8.594  0.8975 -1.8898  0.7605
 3282SOL     OW21478   2.229   3.301   5.605  0.0423  0.1964  0.3652
 3282SOL    HW121479   2.159   3.365   5.602  1.9383  2.2040 -1.4937
 3282SOL    HW221480   2.223   3.269   5.695 -1.5872 -0.4441  0.0328
 3283SOL     OW21481   1.459   3.428   0.411  0.0874  0.0514  0.2960
 3283SOL    HW121482   1.473   3.334   0.417  1.4862  0.3162  1.1019
 3283SOL    HW221483   1.364   3.437   0.402  0.0918  0.0299  0.2237
 3284SOL     OW21484   4.078   1.128   4.173  0.1396  0.8577 -0.5387
 3284SOL    HW121485   4.099   1.049   4.224 -1.1023 -0.3492 -1.9073
 3284SOL    HW221486   4.155   1.179   4.200 -1.0856  1.5035  1.7050
 3285SOL     OW21487   2.632   2.210   4.056 -0.4407  0.1421  0.0119
 3285SOL    HW121488   2.664   2.166   4.135  1.1229  0.7979 -0.2568
 3285SOL    HW221489   2.600   2.129   4.016 -1.6629  0.4355  0.3919
 3286SOL     OW21490   4.606   3.897   0.528  0.2336 -0.5955 -0.0940
 3286SOL    HW121491   4.631   3.832   0.594  1.5037  1.1186  1.1089
 3286SOL    HW221492   4.560   3.834   0.473  0.0915 -1.3950  0.9365
 3287SOL     OW21493   1.432   0.122   6.929 -0.6494  0.2987 -0.4646
 3287SOL    HW121494   1.472   0.035   6.938 -1.1439 -0.1457 -2.8142
 3287SOL    HW221495   1.364   0.104   6.865 -1.5595  2.6744 -0.1573
 3288SOL     OW21496   0.304   0.791   2.552  0.3819 -0.0582 -0.1111
 3288SOL    HW121497   0.385   0.754   2.588  0.0672  0.7010  1.3570
 3288SOL    HW221498   0.259   0.708   2.537  0.8360 -0.3130 -0.0701
 3289SOL     OW21499   2.504   4.110   4.053 -0.8358  0.0757  0.7126
 3289SOL    HW121500   2.421   4.157   4.056 -0.1049  1.3392  0.9374
 3289SOL    HW221501   2.514   4.085   4.145  0.8313 -1.2497  0.1802
 3290SOL     OW21502   2.476   1.951  17.081  0.3006 -0.1673  0.1289
 3290SOL    HW121503   2.553   1.955  17.024  0.6354  1.5857  0.6796
 3290SOL    HW221504   2.444   2.040  17.068  0.8116  0.0163  0.1006
 3291SOL     OW21505   2.667   0.579   9.506 -0.1687 -0.0802 -0.1394
 3291SOL    HW121506   2.698   0.596   9.595 -0.5683  0.2259 -0.0566
 3291SOL    HW221507   2.753   0.556   9.471 -0.1279 -0.4375  0.1815
 3292SOL     OW21508   3.419   3.322   5.787 -0.1294  0.4470  0.1739
 3292SOL    HW121509   3.484   3.300   5.721  0.1181 -1.6107  1.0833
 3292SOL    HW221510   3.361   3.366   5.726  1.6459  1.5066 -0.7664
 3293SOL     OW21511   1.013   4.175   2.878  0.6914  0.1655  0.3592
 3293SOL    HW121512   0.976   4.195   2.963 -0.0414  0.3159  0.0022
 3293SOL    HW221513   0.955   4.220   2.817  0.2479  0.3283  0.9107
 3294SOL     OW21514   4.566   1.013   2.974  0.0975 -0.4447  0.1906
 3294SOL    HW121515   4.568   0.925   3.012  2.5447 -1.2678 -1.8307
 3294SOL    HW221516   4.560   1.077   3.045  3.6659  3.3422 -2.9107
 3295SOL     OW21517   1.784   3.684   4.007  0.0100 -0.5931 -0.1278
 3295SOL    HW121518   1.717   3.743   3.973  0.1436  1.4639  3.1206
 3295SOL    HW221519   1.752   3.597   3.985  0.3091 -0.8845  0.5829
 3296SOL     OW21520   4.463   3.212  10.509 -0.0574 -0.2178  0.3302
 3296SOL    HW121521   4.462   3.191  10.415 -1.8407  0.9683  0.0743
 3296SOL    HW221522   4.517   3.290  10.515  0.8185 -0.7399 -0.6860
 3297SOL     OW21523   2.770   0.042   5.366 -0.6918 -0.6184 -0.1509
 3297SOL    HW121524   2.797   0.104   5.298  0.5131 -0.0776  0.8317
 3297SOL    HW221525   2.842   0.032   5.428  0.2262  1.2658 -0.9300
 3298SOL     OW21526   2.961   2.429   7.106 -0.2862 -0.6273  0.0178
 3298SOL    HW121527   3.054   2.454   7.109 -0.0328 -1.7353  1.0008
 3298SOL    HW221528   2.927   2.507   7.061 -1.3695 -0.6191  0.8564
 3299SOL     OW21529   0.803   0.068   7.019  0.0128  0.3320 -0.6301
 3299SOL    HW121530   0.757   4.723   7.026 -2.9614  1.9474 -0.8413
 3299SOL    HW221531   0.891   0.049   7.052 -0.1923  0.7926  0.1955
 3300SOL     OW21532   3.297   1.958   1.629  0.5365 -0.1887  0.4349
 3300SOL    HW121533   3.212   1.990   1.601  1.0986  0.1036 -0.9495
 3300SOL    HW221534   3.272   1.866   1.617 -3.1390  1.3632 -3.6877
 3301SOL     OW21535   4.071   4.128   5.835 -0.2112 -0.0280  0.3865
 3301SOL    HW121536   4.111   4.181   5.904 -1.8683 -0.9456  2.0672
 3301SOL    HW221537   4.049   4.050   5.886 -1.0183  1.0943  1.7345
 3302SOL     OW21538   0.031   2.544  17.670 -0.1722 -0.0265  0.0313
 3302SOL    HW121539   4.732   2.548   0.009  1.9279 -2.7450  1.0353
 3302SOL    HW221540   0.120   2.552  17.706 -0.0709  0.1157 -0.2536
 3303SOL     OW21541   3.681   1.798   6.019 -0.1854 -0.5014 -0.0261
 3303SOL    HW121542   3.596   1.817   5.978 -0.9684  3.0271  3.2518
 3303SOL    HW221543   3.736   1.812   5.942 -1.7402 -0.4812 -1.1434
 3304SOL     OW21544   4.554   3.316   0.295 -0.5734 -0.3701 -0.4365
 3304SOL    HW121545   4.645   3.287   0.293  0.0901  1.5571  1.3376
 3304SOL    HW221546   4.546   3.385   0.361  0.2364  0.6663 -1.4184
 3305SOL     OW21547   2.548   0.588   7.582 -0.0806  0.9029  0.0738
 3305SOL    HW121548   2.483   0.588   7.512  0.0765 -1.3122 -0.0566
 3305SOL    HW221549   2.631   0.596   7.534 -1.0773 -0.7888 -1.8971
 3306SOL     OW21550   0.100   1.059   1.359  0.1354  0.5740 -0.0099
 3306SOL    HW121551   0.044   1.013   1.297  2.1003 -1.2852 -0.4139
 3306SOL    HW221552   0.149   0.988   1.400 -0.3197  0.6727  0.6996
 3307SOL     OW21553   3.975   2.545  17.476  0.0887 -0.3719  0.3165
 3307SOL    HW121554   3.919   2.496  17.415  0.9149 -0.0406 -0.6967
 3307SOL    HW221555   4.024   2.473  17.515  0.2235 -0.2479  0.3764
 3308SOL     OW21556   2.209   3.817   5.953 -0.0185  0.1811 -0.3195
 3308SOL    HW121557   2.212   3.803   5.859  0.0159  3.3209 -0.7830
 3308SOL    HW221558   2.251   3.734   5.978 -1.1101 -0.0158  0.8773
 3309SOL     OW21559   4.073   1.190  13.216  0.5253 -0.0558  0.2817
 3309SOL    HW121560   4.098   1.278  13.188 -0.7790 -0.0023 -0.7115
 3309SOL    HW221561   4.154   1.148  13.189 -0.1032 -1.1499  0.0949
 3310SOL     OW21562   0.066   1.245  16.389  0.5197  0.5402  0.1040
 3310SOL    HW121563   0.020   1.272  16.469  1.2728  2.3155 -0.0533
 3310SOL    HW221564   4.738   1.275  16.326  0.4147 -0.2748 -0.1744
 3311SOL     OW21565   2.923   0.778   2.688  0.0750 -0.2009 -0.0428
 3311SOL    HW121566   2.915   0.786   2.592  1.2794 -1.1752 -0.2191
 3311SOL    HW221567   2.837   0.768   2.729  0.3277 -0.3489  0.4413
 3312SOL     OW21568   1.884   3.281   3.159  0.1508 -0.2862 -0.0188
 3312SOL    HW121569   1.868   3.236   3.076  1.7132 -0.3887 -0.2727
 3312SOL    HW221570   1.835   3.362   3.145 -0.5974 -0.8738 -0.8305
 3313SOL     OW21571   1.434   2.904   7.169 -0.2842  0.1508 -0.1620
 3313SOL    HW121572   1.457   2.896   7.262 -1.3195 -0.2985  0.0518
 3313SOL    HW221573   1.442   2.999   7.162 -1.0443  0.1481 -0.9991
 3314SOL     OW21574   0.392   0.449   6.611 -0.0475  0.5449  0.0048
 3314SOL    HW121575   0.478   0.481   6.639  0.0997  0.2832 -0.1503
 3314SOL    HW221576   0.373   0.503   6.534 -2.1030  0.8689  0.7301
 3315SOL     OW21577   0.603   0.299   1.275  0.0727  0.9262  0.3515
 3315SOL    HW121578   0.522   0.264   1.310  1.4819 -0.3763  2.3004
 3315SOL    HW221579   0.645   0.228   1.227 -1.9022  0.4351 -0.6556
 3316SOL     OW21580   2.707   1.554  13.896  0.5270  0.3406  0.3087
 3316SOL    HW121581   2.665   1.552  13.982  1.4574  0.6140  0.7643
 3316SOL    HW221582   2.703   1.647  13.870  1.5387  1.0196  2.5944
 3317SOL     OW21583   2.480   2.321  14.076 -0.2993 -0.1212 -0.3558
 3317SOL    HW121584   2.538   2.394  14.054  1.6335 -1.5929 -0.1464
 3317SOL    HW221585   2.540   2.251  14.101 -1.2206 -0.2617  1.4705
 3318SOL     OW21586   1.537   1.853  12.538 -0.1150 -0.1350 -0.5315
 3318SOL    HW121587   1.539   1.949  12.534 -0.1476  0.0839  4.1282
 3318SOL    HW221588   1.541   1.838  12.444 -2.6543  0.1369 -0.6859
 3319SOL     OW21589   2.446   2.998   3.187 -0.9675  0.4883  0.0178
 3319SOL    HW121590   2.392   2.955   3.253  0.2616 -0.9126  0.1234
 3319SOL    HW221591   2.483   3.061   3.248  1.3198  0.4767 -1.3462
 3320SOL     OW21592   1.477   1.180   0.174 -0.0862  0.0431  0.5011
 3320SOL    HW121593   1.549   1.242   0.160 -0.1144 -0.6638 -2.7288
 3320SOL    HW221594   1.399   1.219   0.134 -0.4172 -0.2644  0.8521
 3321SOL     OW21595   1.031   0.638   2.808 -0.2008 -0.1495 -0.1232
 3321SOL    HW121596   0.955   0.688   2.837  0.0756 -0.2253  0.7193
 3321SOL    HW221597   0.984   0.566   2.765 -3.0254  1.2688  0.6126
 3322SOL     OW21598   2.974   3.749   2.502 -0.4654 -0.6593 -0.7412
 3322SOL    HW121599   3.060   3.738   2.542 -1.3379 -0.4849  1.1817
 3322SOL    HW221600   2.980   3.681   2.435 -0.0639 -1.9305  0.6071
 3323SOL     OW21601   2.215   1.407   1.844  0.2530 -0.5760 -0.5348
 3323SOL    HW121602   2.134   1.375   1.884  1.4259 -2.4203  0.3665
 3323SOL    HW221603   2.277   1.335   1.846  0.5605 -0.2829  0.5303
 3324SOL     OW21604   2.490   0.234   5.095 -0.4689 -0.2258  0.0532
 3324SOL    HW121605   2.561   0.175   5.068  0.9141  1.6675 -0.4652
 3324SOL    HW221606   2.536   0.289   5.158  2.3349 -1.8472 -0.5495
 3325SOL     OW21607   1.252   4.413   0.508  0.2653  0.0585 -1.1170
 3325SOL    HW121608   1.186   4.477   0.480  0.3141 -0.1346 -1.6842
 3325SOL    HW221609   1.326   4.446   0.457  1.2943  0.7514  0.8266
 3326SOL     OW21610   0.344   2.221   9.503 -0.0514 -0.2304 -0.2103
 3326SOL    HW121611   0.395   2.194   9.580  0.3542  1.6581  0.1917
 3326SOL    HW221612   0.410   2.273   9.457  1.1136 -0.9818  0.5957
 3327SOL     OW21613   2.663   1.026   4.684 -0.8686  0.2807  0.0471
 3327SOL    HW121614   2.727   0.992   4.621  1.2206  0.2774  2.1310
 3327SOL    HW221615   2.620   0.946   4.712  0.3816 -0.2280  0.5275
 3328SOL     OW21616   3.084   2.150   5.398  0.2079  0.4638  0.3729
 3328SOL    HW121617   3.148   2.216   5.375 -0.5928  2.4534  3.8461
 3328SOL    HW221618   3.136   2.072   5.418 -2.8963 -1.6918  0.0111
 3329SOL     OW21619   1.622   0.002   2.035  0.3211 -0.0936 -0.8060
 3329SOL    HW121620   1.691   4.689   1.992  1.6229  1.2475 -0.3005
 3329SOL    HW221621   1.653   0.061   2.103 -1.2002 -2.3882  1.9096
 3330SOL     OW21622   0.879   1.703   6.002  0.2559  0.2113 -0.1424
 3330SOL    HW121623   0.961   1.659   5.980  0.1646  0.7291 -1.5285
 3330SOL    HW221624   0.865   1.690   6.095  0.5314 -2.4135 -0.4609
 3331SOL     OW21625   2.595   2.851   1.821 -0.0329  0.4462  0.1511
 3331SOL    HW121626   2.509   2.860   1.779  0.7940 -0.7964 -1.8320
 3331SOL    HW221627   2.639   2.781   1.772  0.3951  1.3689 -0.7783
 3332SOL     OW21628   1.544   4.544   3.950 -0.6791 -0.0630 -0.1393
 3332SOL    HW121629   1.600   4.467   3.959  0.3304  0.4825 -1.6687
 3332SOL    HW221630   1.590   4.600   3.887 -0.8973 -0.7946 -0.9637
 3333SOL     OW21631   2.603   0.494  11.205  0.6500  0.5510  0.1682
 3333SOL    HW121632   2.667   0.444  11.255 -0.1197 -0.9822 -0.3728
 3333SOL    HW221633   2.604   0.580  11.247  3.0360  0.3029  0.6138
 3334SOL     OW21634   3.382   0.564   3.463 -0.2876  0.1004 -0.0355
 3334SOL    HW121635   3.388   0.624   3.538 -0.7028  0.7648 -0.5305
 3334SOL    HW221636   3.454   0.595   3.409  0.8120 -1.1670  0.7383
 3335SOL     OW21637   1.570   1.511   2.003 -1.2317 -0.2261 -0.3517
 3335SOL    HW121638   1.545   1.419   2.015 -1.3902 -0.0553  0.6759
 3335SOL    HW221639   1.624   1.518   1.925 -1.0050 -1.9614 -0.3701
 3336SOL     OW21640   1.762   4.353   0.267  0.0082  0.1673 -0.1507
 3336SOL    HW121641   1.791   4.437   0.232 -1.1289 -0.0299 -1.5822
 3336SOL    HW221642   1.805   4.291   0.208  1.6204  1.6510 -0.5170
 3337SOL     OW21643   3.334   1.908  12.560 -0.0331  0.2293 -0.1289
 3337SOL    HW121644   3.281   1.831  12.582  0.7102  0.5395  2.7742
 3337SOL    HW221645   3.294   1.935  12.477  2.6307 -0.9525 -1.8049
 3338SOL     OW21646   1.755   0.759   1.686 -0.7281 -1.1949 -0.4404
 3338SOL    HW121647   1.824   0.783   1.747 -0.9445 -0.5915 -0.4385
 3338SOL    HW221648   1.784   0.680   1.641 -1.9986 -3.4175  2.5859
 3339SOL     OW21649   3.828   3.105   9.374  0.3426  0.1030 -0.4247
 3339SOL    HW121650   3.878   3.084   9.296 -0.4289  1.9948 -1.4277
 3339SOL    HW221651   3.744   3.064   9.352  1.2427 -1.2979 -1.2087
 3340SOL     OW21652   3.993   0.575   3.666  0.4493  0.1362  0.2821
 3340SOL    HW121653   4.012   0.652   3.719  1.9915 -0.5540  0.7374
 3340SOL    HW221654   4.066   0.568   3.605  0.2777 -1.1148  0.2170
 3341SOL     OW21655   1.006   4.315   4.462  0.2015 -0.0103  0.1720
 3341SOL    HW121656   0.930   4.333   4.407  0.2777  1.6270  0.5942
 3341SOL    HW221657   1.062   4.390   4.440 -1.0876  1.8027  3.0800
 3342SOL     OW21658   2.166   1.089  12.086 -0.8687 -0.9864  0.7202
 3342SOL    HW121659   2.191   1.002  12.116  0.3208 -1.7231 -2.3515
 3342SOL    HW221660   2.242   1.144  12.105 -0.1640 -1.3624 -0.9880
 3343SOL     OW21661   1.476   3.651   5.532 -0.0008  0.3163 -0.0813
 3343SOL    HW121662   1.541   3.717   5.558 -0.2818  0.4388  0.3005
 3343SOL    HW221663   1.530   3.575   5.508 -0.6505 -0.1184 -0.1650
 3344SOL     OW21664   2.398   2.105   7.343  0.0064 -0.0868  0.3019
 3344SOL    HW121665   2.425   2.097   7.434  0.4975  0.0858  0.1771
 3344SOL    HW221666   2.447   2.184   7.321  0.3940 -0.8362 -1.6291
 3345SOL     OW21667   0.693   2.896   3.306  0.4223 -0.0489 -0.5113
 3345SOL    HW121668   0.652   2.967   3.257  2.1289  2.0052  1.0232
 3345SOL    HW221669   0.718   2.838   3.234 -0.5818 -0.6872 -0.3471
 3346SOL     OW21670   3.324   1.883   6.436 -0.0145  0.2222 -0.0607
 3346SOL    HW121671   3.348   1.853   6.524  0.7214 -0.0905 -0.3683
 3346SOL    HW221672   3.249   1.935   6.465 -1.4895 -0.9740 -1.7353
 3347SOL     OW21673   1.534   0.184   0.705  0.0349 -0.4329  0.5342
 3347SOL    HW121674   1.544   0.094   0.673 -1.7564 -0.2422 -0.6037
 3347SOL    HW221675   1.459   0.179   0.765 -0.9165 -1.5096 -0.7447
 3348SOL     OW21676   1.611   2.454   9.770  0.2828  0.0631 -0.4418
 3348SOL    HW121677   1.663   2.396   9.714  1.0289 -0.6023  0.9507
 3348SOL    HW221678   1.523   2.431   9.738  0.5174  0.2812 -1.2465
 3349SOL     OW21679   4.428   1.191   9.898 -1.2488 -0.1101 -0.3933
 3349SOL    HW121680   4.341   1.231   9.900 -0.1265  2.2823  0.7220
 3349SOL    HW221681   4.455   1.213   9.809 -2.6985 -2.0454 -1.3146
 3350SOL     OW21682   3.654   1.528   0.181 -0.3429  0.2001  0.5491
 3350SOL    HW121683   3.621   1.487   0.101  0.1142 -2.0770  1.5351
 3350SOL    HW221684   3.583   1.511   0.243 -0.9870  2.7005  0.5263
 3351SOL     OW21685   2.296   2.252  15.059 -0.2858  0.1363 -0.0266
 3351SOL    HW121686   2.283   2.158  15.074  0.1249  0.0446 -0.2637
 3351SOL    HW221687   2.232   2.287  15.122  0.9355  1.3617  0.5208
 3352SOL     OW21688   0.768   2.726   3.118 -0.2683  0.0087 -0.0312
 3352SOL    HW121689   0.744   2.633   3.119 -1.7640  0.3709 -1.0671
 3352SOL    HW221690   0.862   2.713   3.125 -0.1366  1.6920  1.2756
 3353SOL     OW21691   3.561   0.361   8.775 -0.0598  0.3141  0.0079
 3353SOL    HW121692   3.574   0.365   8.680 -2.8861 -0.6149 -0.3994
 3353SOL    HW221693   3.624   0.294   8.803 -1.2756 -0.8252  0.0114
 3354SOL     OW21694   2.739   1.063  15.312 -0.0316 -0.9655  0.3417
 3354SOL    HW121695   2.685   0.984  15.300 -0.3717 -0.8476  1.1042
 3354SOL    HW221696   2.724   1.061  15.407  2.0908  0.9238  0.7167
 3355SOL     OW21697   3.083   1.575   9.523 -0.1212  0.1646 -0.1163
 3355SOL    HW121698   3.085   1.486   9.558 -4.4428 -1.0710 -2.8911
 3355SOL    HW221699   3.145   1.572   9.450 -1.3519 -3.5770 -0.9862
 3356SOL     OW21700   0.836   3.109   0.631  0.7264  0.9447  0.0305
 3356SOL    HW121701   0.822   3.167   0.556  1.3012  0.6166 -0.3326
 3356SOL    HW221702   0.920   3.079   0.597 -1.6793 -0.5370 -4.6676
 3357SOL     OW21703   1.919   1.799   9.441 -0.5576  0.4832  0.4857
 3357SOL    HW121704   1.936   1.716   9.485  1.4766 -0.0036 -1.1679
 3357SOL    HW221705   1.935   1.858   9.514 -2.8446 -0.5899  1.8423
 3358SOL     OW21706   4.493   3.461   2.438 -0.6897 -0.6891 -0.6587
 3358SOL    HW121707   4.486   3.436   2.346 -2.1651  0.4212 -0.8397
 3358SOL    HW221708   4.407   3.501   2.449 -0.6374 -0.3973 -1.3116
 3359SOL     OW21709   1.248   1.746   2.555 -0.0868  0.2689  0.0454
 3359SOL    HW121710   1.304   1.671   2.534 -2.1443 -1.1225 -0.5152
 3359SOL    HW221711   1.162   1.712   2.530 -0.1158  2.0525 -2.2908
 3360SOL     OW21712   2.622   2.456   7.094  0.3180  1.0601 -0.1198
 3360SOL    HW121713   2.658   2.543   7.111  0.2793  0.8674  0.9909
 3360SOL    HW221714   2.660   2.419   7.015 -0.9356 -0.0439 -0.2095
 3361SOL     OW21715   3.464   0.428   7.201 -0.3569  0.2399 -0.7335
 3361SOL    HW121716   3.464   0.420   7.296  0.8288  1.7561 -0.6232
 3361SOL    HW221717   3.478   0.522   7.193  2.7213 -0.3090 -1.6630
 3362SOL     OW21718   2.126   2.573   0.139  0.6681 -0.2114 -0.0125
 3362SOL    HW121719   2.067   2.560   0.214  0.5253 -1.6426 -0.3708
 3362SOL    HW221720   2.065   2.568   0.065 -0.7269  0.8341  1.0527
 3363SOL     OW21721   0.168   2.984   8.307 -0.2915 -0.1143 -0.2496
 3363SOL    HW121722   0.221   3.063   8.299  0.6570 -0.7444 -0.2938
 3363SOL    HW221723   0.209   2.938   8.381  0.6616 -1.0015 -1.3187
 3364SOL     OW21724   1.176   3.052   9.293 -0.1391  0.3148 -0.3351
 3364SOL    HW121725   1.208   3.135   9.328 -0.0489 -0.1088  0.5878
 3364SOL    HW221726   1.176   3.087   9.203 -1.4932 -0.3392 -0.5806
 3365SOL     OW21727   2.361   3.302   5.050  0.3314 -0.2189 -0.2853
 3365SOL    HW121728   2.302   3.368   5.087  1.8028  1.5875 -1.1402
 3365SOL    HW221729   2.316   3.292   4.966 -0.7426 -1.3399  0.4185
 3366SOL     OW21730   3.034   2.506   1.447  0.1070 -0.0708 -0.5531
 3366SOL    HW121731   2.954   2.559   1.455  0.1963 -0.3779  2.1463
 3366SOL    HW221732   3.018   2.448   1.372  0.9271 -2.0012  0.7862
 3367SOL     OW21733   2.485   0.415   0.689 -0.2279  0.0613  0.3878
 3367SOL    HW121734   2.438   0.484   0.737 -0.2729  1.3949 -1.6014
 3367SOL    HW221735   2.413   0.356   0.666 -0.8666  0.9340  0.1263
 3368SOL     OW21736   3.426   3.543   1.697  0.6825 -0.0167  0.0947
 3368SOL    HW121737   3.349   3.497   1.663 -0.3674  0.5062  1.8045
 3368SOL    HW221738   3.436   3.501   1.782  3.7702 -2.7399 -1.5519
 3369SOL     OW21739   0.833   2.449   7.081  0.3452  0.9200  0.4499
 3369SOL    HW121740   0.806   2.534   7.045  1.2132  1.4018  0.9247
 3369SOL    HW221741   0.865   2.478   7.167  1.5478 -1.1461  0.6910
 3370SOL     OW21742   4.546   1.490   5.920 -0.3156 -0.5440 -0.8638
 3370SOL    HW121743   4.479   1.558   5.920 -0.5515 -0.7676 -0.2609
 3370SOL    HW221744   4.519   1.440   5.843 -0.9476 -0.7048 -0.5424
 3371SOL     OW21745   1.254   1.955   2.272  0.3831 -0.7817  0.0332
 3371SOL    HW121746   1.291   1.977   2.186  1.6285 -1.0626  0.4986
 3371SOL    HW221747   1.160   1.956   2.252  0.2103 -1.1736  0.8330
 3372SOL     OW21748   0.351   2.387   6.223 -0.0316 -0.1439 -0.3844
 3372SOL    HW121749   0.311   2.304   6.197  0.5816 -0.0774 -1.5781
 3372SOL    HW221750   0.311   2.399   6.309  0.8540  1.9975 -0.2506
 3373SOL     OW21751   1.103   1.460   9.262 -0.5864  0.0469  0.0284
 3373SOL    HW121752   1.034   1.465   9.196  0.3860  0.7408 -0.9384
 3373SOL    HW221753   1.060   1.502   9.336  0.1917 -2.3840  1.8702
 3374SOL     OW21754   4.079   0.045   9.094  0.6930 -0.4720 -0.1920
 3374SOL    HW121755   4.068   4.711   9.033 -0.5578 -1.3311  1.0642
 3374SOL    HW221756   4.154   0.088   9.052  0.3818 -0.3314 -0.5965
 3375SOL     OW21757   1.682   1.384  17.631  0.3479 -0.3301 -0.1049
 3375SOL    HW121758   1.706   1.377  17.724  1.2612  0.4779 -0.2807
 3375SOL    HW221759   1.587   1.392  17.645  0.4553  0.6925  0.0490
 3376SOL     OW21760   3.990   3.567   1.705  0.8554  0.2833  0.5267
 3376SOL    HW121761   4.042   3.589   1.627  1.3204  2.5676  1.4797
 3376SOL    HW221762   3.935   3.645   1.713 -0.2913 -0.1493 -2.9600
 3377SOL     OW21763   3.766   4.413   3.378 -0.3421 -0.0142 -0.2116
 3377SOL    HW121764   3.727   4.402   3.464 -0.1623 -0.9346 -0.2515
 3377SOL    HW221765   3.860   4.401   3.395 -0.4892  2.0331  2.0858
 3378SOL     OW21766   0.122   4.041   1.759  0.1576 -0.2565 -0.4411
 3378SOL    HW121767   0.111   4.120   1.813  1.1102  0.2961 -1.0556
 3378SOL    HW221768   0.034   4.008   1.776  0.4035 -0.7208 -0.0731
 3379SOL     OW21769   2.552   4.539   8.984 -0.1946 -0.2193 -0.8859
 3379SOL    HW121770   2.564   4.620   9.033  0.9931 -0.6523 -0.4853
 3379SOL    HW221771   2.611   4.552   8.910  2.3051 -0.4343  1.0989
 3380SOL     OW21772   2.985   3.957   3.615  0.8283  0.4349  0.0448
 3380SOL    HW121773   2.935   3.936   3.693 -1.4156  0.9163 -1.2623
 3380SOL    HW221774   3.038   4.028   3.651 -0.9254  1.0940  1.2767
 3381SOL     OW21775   2.241   4.531   1.298 -0.2626  0.0178  0.1966
 3381SOL    HW121776   2.323   4.482   1.302  0.6264  1.5629  1.2359
 3381SOL    HW221777   2.175   4.464   1.312  0.0990 -0.3082  0.3331
 3382SOL     OW21778   1.337   2.673   7.479  0.3943 -0.1054  0.4829
 3382SOL    HW121779   1.245   2.649   7.474  1.0920 -2.3482 -1.1497
 3382SOL    HW221780   1.354   2.675   7.573  1.5905 -0.0912  0.2668
 3383SOL     OW21781   0.045   4.615   4.470 -0.2987  0.1438  0.2505
 3383SOL    HW121782   0.089   4.697   4.489 -2.6844  1.5346 -0.2649
 3383SOL    HW221783   0.027   4.619   4.377 -2.4400  0.8014  0.6951
 3384SOL     OW21784   1.362   0.330   1.791  0.3993  0.3880 -0.2740
 3384SOL    HW121785   1.430   0.313   1.726  1.5785  0.7159  0.8667
 3384SOL    HW221786   1.311   0.249   1.794 -0.8744  1.1958 -0.1866
 3385SOL     OW21787   2.299   1.946   1.412 -0.1230  0.0080 -0.2362
 3385SOL    HW121788   2.334   1.887   1.345 -2.3602 -1.0279 -0.4795
 3385SOL    HW221789   2.213   1.975   1.382 -0.8685 -0.5504  1.3675
 3386SOL     OW21790   4.156   2.587   2.770 -0.2156  0.3545 -0.3351
 3386SOL    HW121791   4.089   2.648   2.801 -0.4728 -0.5648  0.8931
 3386SOL    HW221792   4.111   2.503   2.779 -0.6475  0.5307 -0.8280
 3387SOL     OW21793   2.783   1.517  14.410 -0.3069  0.6006  0.3056
 3387SOL    HW121794   2.832   1.482  14.484  1.0768  2.6050  0.3387
 3387SOL    HW221795   2.727   1.587  14.441 -1.1986  0.4494 -0.9588
 3388SOL     OW21796   2.274   1.354  14.301 -0.1401  0.3415 -0.3895
 3388SOL    HW121797   2.214   1.428  14.312 -0.7053 -0.0326 -0.9537
 3388SOL    HW221798   2.317   1.353  14.386 -0.6624  0.3872 -0.1270
 3389SOL     OW21799   2.114   2.488   5.782  0.3183 -0.1892 -0.0168
 3389SOL    HW121800   2.147   2.401   5.804  1.2557  0.5305  1.4564
 3389SOL    HW221801   2.021   2.468   5.771  0.1596  0.5988 -0.0964
 3390SOL     OW21802   1.474   1.129   4.759 -0.6631 -0.1538 -0.2372
 3390SOL    HW121803   1.570   1.129   4.766 -0.6792 -4.6341  0.2156
 3390SOL    HW221804   1.444   1.168   4.841  0.6381  0.0497  0.1431
 3391SOL     OW21805   4.093   4.089   4.260  0.1581 -0.1785 -0.2856
 3391SOL    HW121806   4.054   4.003   4.242  1.6186 -0.8061 -0.4862
 3391SOL    HW221807   4.182   4.071   4.229  0.1262 -0.1290 -0.4052
 3392SOL     OW21808   1.413   1.741   1.184 -0.5059 -0.4227 -0.9488
 3392SOL    HW121809   1.351   1.675   1.152 -0.1652 -1.1950 -0.0448
 3392SOL    HW221810   1.432   1.711   1.273 -3.1431 -0.7230 -0.4778
 3393SOL     OW21811   0.899   4.282   5.732  0.1386 -0.1614 -0.0010
 3393SOL    HW121812   0.959   4.234   5.789 -1.2080 -0.4767  1.1507
 3393SOL    HW221813   0.821   4.288   5.788 -0.6556  0.7586 -1.2004
 3394SOL     OW21814   0.981   4.473   7.946  0.0181  0.2143  0.4620
 3394SOL    HW121815   0.941   4.525   7.876 -0.5965 -0.3069  0.4299
 3394SOL    HW221816   0.902   4.449   7.996  1.1343  1.4829  2.8538
 3395SOL     OW21817   0.034   1.010   5.217  0.2832  0.4257  0.1474
 3395SOL    HW121818   0.046   1.006   5.122  2.1360 -3.3262  0.5461
 3395SOL    HW221819   4.730   0.925   5.230  0.6059  0.3910  0.9152
 3396SOL     OW21820   3.253   0.557  11.268 -0.4934 -0.8272 -0.5633
 3396SOL    HW121821   3.267   0.614  11.193 -0.9044  1.6729  1.2523
 3396SOL    HW221822   3.345   0.546  11.293 -0.6209 -0.7123 -0.0522
 3397SOL     OW21823   0.226   0.856   1.989 -0.1546  0.8963  0.4643
 3397SOL    HW121824   0.240   0.897   2.074 -1.4008 -0.1927  1.1873
 3397SOL    HW221825   0.242   0.763   2.002  0.1590  0.8563 -0.1761
 3398SOL     OW21826   2.753   2.541   1.918 -0.2812  0.2757 -0.1719
 3398SOL    HW121827   2.842   2.558   1.949 -0.6757 -0.9769  1.5933
 3398SOL    HW221828   2.704   2.614   1.955 -0.0460  0.2063  0.2703
 3399SOL     OW21829   1.318   1.503   4.985  0.1115  0.5244 -0.4681
 3399SOL    HW121830   1.352   1.414   4.972 -0.4498 -0.0253  1.9081
 3399SOL    HW221831   1.282   1.489   5.072 -1.3179 -1.5186 -1.3746
 3400SOL     OW21832   2.490   3.998  10.336 -0.6985  0.0103  0.6299
 3400SOL    HW121833   2.425   3.998  10.266  1.0752  3.1052 -1.0205
 3400SOL    HW221834   2.442   3.941  10.396 -0.7602 -2.3484 -1.6361
 3401SOL     OW21835   0.560   3.816   7.498 -0.0411  0.7642 -0.0032
 3401SOL    HW121836   0.495   3.801   7.429 -0.1892  1.4738 -0.0132
 3401SOL    HW221837   0.631   3.773   7.449  0.5662  0.9053  0.7578
 3402SOL     OW21838   3.929   1.660   2.629  0.0961  0.4592 -0.1846
 3402SOL    HW121839   4.024   1.647   2.623 -0.1297 -1.3918  0.3718
 3402SOL    HW221840   3.928   1.743   2.676  2.8677  0.4742 -0.1154
 3403SOL     OW21841   0.817   1.561  10.498 -0.2931  0.1136  0.3841
 3403SOL    HW121842   0.785   1.575  10.409 -0.7167 -1.1898  0.3287
 3403SOL    HW221843   0.838   1.469  10.484 -2.9722 -0.4984  0.3492
 3404SOL     OW21844   2.663   1.115   9.612 -0.1876 -0.7223  0.4023
 3404SOL    HW121845   2.755   1.106   9.589  0.4380  1.3707  2.1069
 3404SOL    HW221846   2.634   1.027   9.589  1.0594 -0.8698 -0.6265
 3405SOL     OW21847   0.781   0.031   4.056  0.9253 -0.3460 -0.4424
 3405SOL    HW121848   0.823   4.688   4.028  1.6684  0.1448 -0.7445
 3405SOL    HW221849   0.715   0.037   3.987  0.1829 -1.7609  0.1369
 3406SOL     OW21850   1.345   4.109  17.180  0.2532 -0.3762 -0.1796
 3406SOL    HW121851   1.408   4.180  17.172 -0.7498  0.8195  2.5645
 3406SOL    HW221852   1.395   4.029  17.196  1.5022  0.5319  0.4462
 3407SOL     OW21853   3.699   4.344   5.572  0.2021 -0.5023 -0.6664
 3407SOL    HW121854   3.662   4.400   5.504  1.6907 -0.1735 -1.2083
 3407SOL    HW221855   3.777   4.307   5.530  1.4279  1.1512  0.1024
 3408SOL     OW21856   4.544   2.217   7.614  0.3019  0.3346  0.7831
 3408SOL    HW121857   4.564   2.287   7.552  2.2329  0.3364  1.4230
 3408SOL    HW221858   4.529   2.258   7.699 -1.1696  0.6258  0.3818
 3409SOL     OW21859   2.350   2.812   9.991 -0.2330 -0.0973 -0.3660
 3409SOL    HW121860   2.262   2.806  10.027  0.2798  2.3406  1.3065
 3409SOL    HW221861   2.370   2.906   9.995  1.0335 -0.3240 -1.1388
 3410SOL     OW21862   4.730   1.574   1.261 -0.4328  0.4745  0.2314
 3410SOL    HW121863   0.069   1.595   1.207 -0.8044 -0.9244 -0.8442
 3410SOL    HW221864   0.026   1.506   1.319  2.0493 -0.6504 -2.5534
 3411SOL     OW21865   4.284   1.565  11.021 -0.0750 -0.9485  0.5290
 3411SOL    HW121866   4.313   1.559  11.112 -0.1824  0.5500  0.6676
 3411SOL    HW221867   4.352   1.610  10.970 -1.4744  0.9765  0.3516
 3412SOL     OW21868   1.849   2.111   7.115  0.2859 -0.1609 -0.7903
 3412SOL    HW121869   1.820   2.176   7.178  0.2502 -0.4378 -0.5211
 3412SOL    HW221870   1.889   2.173   7.054 -0.7531  0.9449 -0.3247
 3413SOL     OW21871   3.514   1.922   2.108 -0.2886  0.4781 -0.0101
 3413SOL    HW121872   3.594   1.975   2.107 -0.6813  1.0774  0.0922
 3413SOL    HW221873   3.462   1.976   2.168 -1.2559 -0.3221 -0.1282
 3414SOL     OW21874   3.039   0.101   1.713  0.2655 -0.2573  0.5684
 3414SOL    HW121875   3.090   0.181   1.704  2.3914 -1.8423 -1.4675
 3414SOL    HW221876   2.955   0.136   1.685  0.7161  0.3705  0.0159
 3415SOL     OW21877   4.383   1.530   6.538 -0.3948 -0.1308 -0.7059
 3415SOL    HW121878   4.414   1.504   6.451  0.2349  0.5633 -0.6901
 3415SOL    HW221879   4.336   1.453   6.570 -0.0164 -0.4016 -0.8131
 3416SOL     OW21880   1.172   3.772   8.576  0.1126 -0.8931  0.1039
 3416SOL    HW121881   1.233   3.847   8.574  0.4069 -1.0789  1.7859
 3416SOL    HW221882   1.222   3.720   8.639 -2.0228 -3.7026 -0.5326
 3417SOL     OW21883   4.634   1.524   8.945 -0.0732  0.3687  0.1218
 3417SOL    HW121884   4.617   1.575   9.024  1.3703 -0.3716  0.9331
 3417SOL    HW221885   4.709   1.573   8.910 -0.9135  0.7168 -1.1928
 3418SOL     OW21886   0.782   0.630   8.587  0.3128  0.0135 -0.3762
 3418SOL    HW121887   0.863   0.672   8.559  1.2578 -1.9238 -0.5436
 3418SOL    HW221888   0.755   0.699   8.648  2.1896  0.6706 -0.3023
 3419SOL     OW21889   3.123   3.270   1.093 -0.3672 -0.4206  0.3912
 3419SOL    HW121890   3.209   3.312   1.093 -0.2860 -0.5738 -2.7106
 3419SOL    HW221891   3.152   3.185   1.125  0.9647  0.4104  1.3907
 3420SOL     OW21892   0.202   4.615   3.616 -0.2710  0.6537  0.2046
 3420SOL    HW121893   0.200   4.560   3.695 -2.6642 -3.6384 -2.7974
 3420SOL    HW221894   0.275   4.674   3.632  1.0126 -1.1653  1.0606
 3421SOL     OW21895   1.627   3.047  13.694  0.6131  0.0035  0.7935
 3421SOL    HW121896   1.660   3.028  13.782 -0.5790 -1.9683  0.8091
 3421SOL    HW221897   1.546   2.996  13.691 -0.0778  1.2656 -2.1336
 3422SOL     OW21898   4.695   1.323   1.602 -0.0886  0.4098 -0.3822
 3422SOL    HW121899   0.006   1.308   1.521  0.2644  0.6125 -0.2059
 3422SOL    HW221900   4.703   1.417   1.612  0.0123  0.2660  0.9022
 3423SOL     OW21901   1.672   1.264   5.844 -0.1633  0.0211 -0.2384
 3423SOL    HW121902   1.592   1.222   5.876  0.0652  1.2500  1.9100
 3423SOL    HW221903   1.733   1.190   5.852  0.1368  0.3875  0.8000
 3424SOL     OW21904   4.663   0.227   6.433 -0.4307 -0.2440  0.2040
 3424SOL    HW121905   4.700   0.152   6.386  1.5971 -1.2172  3.3730
 3424SOL    HW221906   4.684   0.307   6.386  0.7854 -0.8233 -0.2614
 3425SOL     OW21907   1.390   2.980   7.477  0.3189  0.1775  0.2723
 3425SOL    HW121908   1.369   2.887   7.475 -1.4535  0.5765  0.3641
 3425SOL    HW221909   1.309   3.014   7.438  2.0815  2.5518 -1.3734
 3426SOL     OW21910   2.978   3.985   8.452 -0.0424  0.5512  0.6932
 3426SOL    HW121911   2.937   3.912   8.498 -1.3536  0.2899 -0.8698
 3426SOL    HW221912   3.030   3.945   8.382 -1.0540 -0.8446  0.7323
 3427SOL     OW21913   3.391   0.885   3.516 -0.0917 -0.5710  0.2511
 3427SOL    HW121914   3.319   0.874   3.454 -0.8842  0.1000  1.0495
 3427SOL    HW221915   3.462   0.907   3.456  0.6638 -1.3269  0.8672
 3428SOL     OW21916   4.656   2.767  17.591 -0.1243 -0.3028 -0.3180
 3428SOL    HW121917   4.612   2.744  17.509 -0.0346  3.1780 -1.3531
 3428SOL    HW221918   4.714   2.692  17.606  1.4522  1.1846  0.9767
 3429SOL     OW21919   3.028   2.660  17.390 -1.1465 -0.0032  0.0929
 3429SOL    HW121920   3.059   2.748  17.367 -0.2652 -0.4828 -0.5662
 3429SOL    HW221921   3.092   2.635  17.457  0.0867  3.2468  0.1210
 3430SOL     OW21922   1.231   2.142   9.179  0.4508  0.3325  0.1541
 3430SOL    HW121923   1.161   2.190   9.222 -0.2169  0.2284 -0.8083
 3430SOL    HW221924   1.272   2.222   9.148 -0.4438  0.4719 -0.6743
 3431SOL     OW21925   3.449   2.370   2.449  0.0540  0.1094  0.4290
 3431SOL    HW121926   3.519   2.432   2.430 -0.4135  0.0942 -1.3778
 3431SOL    HW221927   3.454   2.320   2.367 -1.0248  0.5851  0.0650
 3432SOL     OW21928   2.713   2.292   1.252  0.2557 -0.5397  0.1945
 3432SOL    HW121929   2.653   2.255   1.316  0.9167 -1.1487  0.4676
 3432SOL    HW221930   2.686   2.254   1.168  0.8812  0.0618 -0.2865
 3433SOL     OW21931   0.295   3.085   6.767 -0.2355 -0.8404 -0.2540
 3433SOL    HW121932   0.331   3.172   6.752 -2.0473 -0.3606 -1.9013
 3433SOL    HW221933   0.378   3.046   6.791  0.1666 -0.5660 -1.2054
 3434SOL     OW21934   4.529   2.243   5.784 -0.6768 -0.1725  0.3171
 3434SOL    HW121935   4.536   2.196   5.702  1.5141 -1.7628  1.4230
 3434SOL    HW221936   4.578   2.323   5.763 -0.2687  0.0212  1.9909
 3435SOL     OW21937   3.472   0.160   6.240 -0.1878  0.3418  0.4454
 3435SOL    HW121938   3.437   0.072   6.234 -1.1552  0.8348 -1.2795
 3435SOL    HW221939   3.546   0.160   6.179  0.7057 -0.3339  1.5384
 3436SOL     OW21940   1.586   2.409   5.072  0.2911 -0.1773  0.0147
 3436SOL    HW121941   1.604   2.400   5.166 -0.1997 -0.4853  0.0825
 3436SOL    HW221942   1.494   2.437   5.066 -0.0960 -0.8537  2.8792
 3437SOL     OW21943   0.066   2.231   9.868 -0.1120  0.2494  0.6660
 3437SOL    HW121944   0.117   2.159   9.831  1.1009  1.7387 -0.5974
 3437SOL    HW221945   0.127   2.270   9.932 -0.3854 -0.2399  1.2256
 3438SOL     OW21946   0.862   2.850   1.846  0.2492 -0.1174 -0.3857
 3438SOL    HW121947   0.861   2.946   1.852  0.6961 -0.1069 -0.4940
 3438SOL    HW221948   0.894   2.843   1.756  1.3776  1.4694 -0.1013
 3439SOL     OW21949   4.627   0.847   9.341  0.4612  0.6437 -0.7390
 3439SOL    HW121950   4.639   0.840   9.436  2.1643 -0.4098 -1.0268
 3439SOL    HW221951   4.563   0.918   9.343 -1.0155 -0.6650 -2.0652
 3440SOL     OW21952   1.164   1.685   3.794  0.0562  0.4531  0.0297
 3440SOL    HW121953   1.191   1.762   3.845 -0.2211  0.1399  0.6519
 3440SOL    HW221954   1.250   1.653   3.765 -0.6473 -0.9094 -0.5171
 3441SOL     OW21955   2.101   2.177  12.345  0.2322  0.2355  0.3926
 3441SOL    HW121956   2.124   2.141  12.259  1.7973 -1.9287  1.7051
 3441SOL    HW221957   2.056   2.102  12.383 -0.0913  1.3216  2.1588
 3442SOL     OW21958   0.482   3.971   6.090  0.4433  0.2693 -0.2710
 3442SOL    HW121959   0.449   4.006   6.172  0.0343  0.4391 -0.5104
 3442SOL    HW221960   0.549   4.035   6.066 -2.1064  2.7613 -0.7405
 3443SOL     OW21961   1.957   3.474   3.326 -0.0024  0.5016 -0.3611
 3443SOL    HW121962   1.960   3.386   3.288  1.1669 -0.2693  1.5275
 3443SOL    HW221963   2.022   3.521   3.275  1.8301 -1.3669  0.2680
 3444SOL     OW21964   3.136   0.854   8.624 -0.2111  0.3032  0.3942
 3444SOL    HW121965   3.175   0.779   8.670  0.9310  0.0911 -0.9310
 3444SOL    HW221966   3.053   0.811   8.604  1.4576 -2.0618 -1.4593
 3445SOL     OW21967   2.027   0.541   4.878 -0.2872  0.2422  0.4241
 3445SOL    HW121968   1.965   0.483   4.920 -0.2361 -0.2250 -0.1551
 3445SOL    HW221969   2.109   0.530   4.927 -1.1392  1.1523  2.0813
 3446SOL     OW21970   4.474   4.046   6.093  0.4275  0.1011 -0.1936
 3446SOL    HW121971   4.488   3.993   6.014  0.5604  0.6204 -0.5167
 3446SOL    HW221972   4.563   4.055   6.127  0.2101 -0.6934  0.6023
 3447SOL     OW21973   2.322   3.249   5.952  0.3556  0.3759 -0.5799
 3447SOL    HW121974   2.333   3.166   5.999 -0.9323  1.0358  0.8969
 3447SOL    HW221975   2.414   3.274   5.953  0.9319 -1.7402  0.0216
 3448SOL     OW21976   3.692   2.356  11.551 -0.1991 -0.0276 -0.0024
 3448SOL    HW121977   3.667   2.360  11.459 -3.8407 -0.1982  0.9948
 3448SOL    HW221978   3.636   2.430  11.573  2.0131  2.3043 -2.2145
 3449SOL     OW21979   3.482   4.395   5.092  0.2631 -0.7812  0.1936
 3449SOL    HW121980   3.463   4.354   5.007  0.2738 -2.8049  1.1494
 3449SOL    HW221981   3.556   4.335   5.104  1.3043  0.3609 -0.5759
 3450SOL     OW21982   3.037   1.139   8.030 -0.3745 -0.5181 -0.0614
 3450SOL    HW121983   2.990   1.193   7.967  0.3121 -1.1124 -1.0889
 3450SOL    HW221984   2.966   1.123   8.092  1.7263 -0.0257  2.5199
 3451SOL     OW21985   2.321   0.983   7.275 -0.2979 -0.5255  0.7142
 3451SOL    HW121986   2.302   0.937   7.357 -0.6635 -0.5324  0.6270
 3451SOL    HW221987   2.381   0.926   7.227  0.0039  0.8792 -0.6003
 3452SOL     OW21988   0.286   0.915   8.053  0.4113 -0.1220 -0.1619
 3452SOL    HW121989   0.334   0.905   8.135 -0.3139  0.5341  0.3411
 3452SOL    HW221990   0.273   0.824   8.025 -0.8958  0.8792 -2.8820
 3453SOL     OW21991   0.574   2.016  15.746  0.0422 -0.4106 -0.0954
 3453SOL    HW121992   0.662   2.005  15.781 -0.1113 -0.9904  0.1158
 3453SOL    HW221993   0.524   1.945  15.787  2.1898 -2.3426 -0.8302
 3454SOL     OW21994   0.331   2.240   0.059  0.5495 -0.1909  0.1902
 3454SOL    HW121995   0.239   2.241   0.084  0.6276 -0.5460  0.4748
 3454SOL    HW221996   0.357   2.149   0.048 -0.2736 -0.1779 -1.9598
 3455SOL     OW21997   2.057   1.232   5.749 -0.2961 -0.0790  0.0061
 3455SOL    HW121998   1.996   1.283   5.695 -1.2889  0.6025  1.7813
 3455SOL    HW221999   2.144   1.242   5.709 -0.2134 -0.3721  0.1106
 3456SOL     OW22000   3.037   0.538   3.842  0.1174 -0.3572 -0.0353
 3456SOL    HW122001   3.068   0.528   3.752 -2.6196  1.3055 -1.1720
 3456SOL    HW222002   2.964   0.599   3.828  1.3262  1.0924  0.0728
 3457SOL     OW22003   0.755   2.863   1.393  0.7720 -0.0541  0.1121
 3457SOL    HW122004   0.692   2.929   1.423  1.8444  1.2989 -0.6328
 3457SOL    HW222005   0.790   2.909   1.317 -0.7846  1.5448  0.3607
 3458SOL     OW22006   0.609   1.915   4.492  0.4220 -0.1647  0.2563
 3458SOL    HW122007   0.614   1.871   4.406  2.7405  0.2780  0.1643
 3458SOL    HW222008   0.680   1.870   4.538 -1.0085 -1.2665  1.3568
 3459SOL     OW22009   1.348   2.777   5.521 -0.5544 -0.0260 -0.3054
 3459SOL    HW122010   1.275   2.787   5.582 -1.0857 -0.9558 -0.7892
 3459SOL    HW222011   1.362   2.684   5.537 -0.2257  0.0541 -0.1252
 3460SOL     OW22012   0.943   3.387   0.779 -0.5109 -0.2978 -0.6753
 3460SOL    HW122013   0.955   3.337   0.860 -0.3182 -2.3254 -1.9512
 3460SOL    HW222014   0.963   3.323   0.711 -0.0367 -1.1259  0.2515
 3461SOL     OW22015   2.966   4.079  15.609 -0.2369 -0.7044  0.4594
 3461SOL    HW122016   2.900   4.128  15.559  1.6105  2.3378  0.9703
 3461SOL    HW222017   3.027   4.043  15.544 -0.2848 -2.3094  1.3223
 3462SOL     OW22018   0.871   2.407   2.500  0.0638  0.0822 -0.1746
 3462SOL    HW122019   0.789   2.368   2.529  0.3722 -0.9972 -0.7631
 3462SOL    HW222020   0.835   2.476   2.443  0.5873  0.2420 -0.3143
 3463SOL     OW22021   2.026   1.545   9.504  0.5099 -0.1450  0.4481
 3463SOL    HW122022   1.950   1.494   9.478  0.9656 -1.1263  1.0411
 3463SOL    HW222023   2.013   1.561   9.598 -1.0997  2.4408 -0.2089
 3464SOL     OW22024   1.768   4.184   7.637  0.0838 -0.1980 -0.5054
 3464SOL    HW122025   1.701   4.240   7.598 -0.6777 -0.7877 -0.0307
 3464SOL    HW222026   1.844   4.202   7.581  0.9381 -1.4305  0.2598
 3465SOL     OW22027   2.176   2.734   6.395 -0.3071 -0.3656 -0.7484
 3465SOL    HW122028   2.157   2.683   6.316  2.9295 -0.8017 -1.2435
 3465SOL    HW222029   2.154   2.678   6.469 -0.2194  0.6144  0.0152
 3466SOL     OW22030   2.335   1.281   6.849 -0.2863  0.3764  0.1893
 3466SOL    HW122031   2.276   1.213   6.881  1.0471 -0.1653  1.4568
 3466SOL    HW222032   2.416   1.261   6.896  1.1578  2.7030 -1.3080
 3467SOL     OW22033   3.852   1.463   4.461 -0.3288  0.6918 -0.1598
 3467SOL    HW122034   3.834   1.457   4.367 -0.2342  0.0537 -0.1336
 3467SOL    HW222035   3.917   1.393   4.462 -2.4099 -1.2709 -0.3117
 3468SOL     OW22036   1.061   3.028  16.654 -0.0266 -0.2036 -0.0369
 3468SOL    HW122037   1.091   2.988  16.572  0.1977  0.0750 -0.0930
 3468SOL    HW222038   1.146   3.028  16.698  0.2023 -1.7570 -0.4815
 3469SOL     OW22039   4.056   1.608   1.547 -0.0515 -0.1255 -0.7394
 3469SOL    HW122040   4.005   1.648   1.618 -1.6931  0.0505 -2.0085
 3469SOL    HW222041   4.146   1.608   1.578  0.6789 -0.0466 -2.8614
 3470SOL     OW22042   1.443   4.265  13.084  0.3413  0.2059  0.2998
 3470SOL    HW122043   1.507   4.277  13.155  1.3822  1.5344 -0.8525
 3470SOL    HW222044   1.443   4.173  13.061  0.4835 -0.4417  2.8574
 3471SOL     OW22045   2.346   1.032   6.222 -0.1875  0.3773  0.1817
 3471SOL    HW122046   2.417   1.071   6.171 -0.1892 -0.5615 -0.5528
 3471SOL    HW222047   2.291   1.109   6.235 -0.4861 -0.0817  1.6521
 3472SOL     OW22048   2.044   4.317  11.389  0.3369 -0.1728 -0.1837
 3472SOL    HW122049   2.014   4.336  11.478 -0.1600  1.2566 -0.6685
 3472SOL    HW222050   2.137   4.339  11.396  0.3949 -0.3751 -0.3337
 3473SOL     OW22051   2.524   4.335   2.188 -0.2779  0.0806 -0.4938
 3473SOL    HW122052   2.571   4.277   2.249  0.7685 -0.9781 -2.2842
 3473SOL    HW222053   2.437   4.310   2.217  0.5270 -1.9063  0.2736
 3474SOL     OW22054   2.702   2.427   6.221 -0.0065 -0.8894  0.5843
 3474SOL    HW122055   2.737   2.514   6.202 -2.7974 -0.2614 -1.5561
 3474SOL    HW222056   2.709   2.383   6.136  0.1012 -0.2488  0.2635
 3475SOL     OW22057   3.447   0.751   3.889 -0.3168  0.3327  0.0592
 3475SOL    HW122058   3.368   0.759   3.835 -0.2483 -0.4294 -0.1473
 3475SOL    HW222059   3.504   0.786   3.821 -0.3249 -1.3378 -0.8085
 3476SOL     OW22060   1.058   1.550   7.881  0.4843 -0.7701  0.0725
 3476SOL    HW122061   1.086   1.515   7.965 -1.4631 -0.8651  0.6943
 3476SOL    HW222062   1.138   1.591   7.850  0.2992  0.6702  1.4867
 3477SOL     OW22063   3.432   1.772   5.907 -0.4713 -0.1664 -0.6476
 3477SOL    HW122064   3.386   1.689   5.910 -1.7999  0.5758 -0.4114
 3477SOL    HW222065   3.442   1.787   5.813 -0.2073  1.8919 -0.2935
 3478SOL     OW22066   1.251   1.956   4.670 -1.1539  0.5585 -0.2091
 3478SOL    HW122067   1.284   1.996   4.589  1.2673  2.5104  1.7511
 3478SOL    HW222068   1.242   2.037   4.721  2.7092  1.4549 -0.9518
 3479SOL     OW22069   2.507   0.430   5.619 -0.3975 -0.0861  0.7587
 3479SOL    HW122070   2.439   0.398   5.560  2.9990 -1.2020 -2.5198
 3479SOL    HW222071   2.492   0.522   5.598 -2.0853 -0.6347 -0.4308
 3480SOL     OW22072   3.768   3.896   5.662 -0.1128  0.5093 -0.5979
 3480SOL    HW122073   3.706   3.963   5.691 -0.7898  1.2215 -3.6346
 3480SOL    HW222074   3.814   3.928   5.584  2.9413 -0.2155  0.9296
 3481SOL     OW22075   1.442   1.629  13.297 -0.3308  0.2910  0.4908
 3481SOL    HW122076   1.509   1.588  13.352  2.6662  2.5357 -1.5171
 3481SOL    HW222077   1.447   1.719  13.330 -0.2489  0.1811  0.7793
 3482SOL     OW22078   1.045   0.827  15.334  0.5387 -0.4985 -0.2498
 3482SOL    HW122079   1.001   0.790  15.411  0.5342  0.6914  0.3208
 3482SOL    HW222080   1.027   0.920  15.352  0.6831 -0.8315  1.6083
 3483SOL     OW22081   3.746   2.522  12.711  0.0389  0.5803 -0.1292
 3483SOL    HW122082   3.678   2.578  12.747 -0.2226  1.1431 -1.5160
 3483SOL    HW222083   3.820   2.561  12.757  0.0794  1.9205 -1.3493
 3484SOL     OW22084   1.091   0.574   8.444  0.3833  0.5390  0.0419
 3484SOL    HW122085   1.126   0.503   8.498 -0.4500 -0.4827 -0.7525
 3484SOL    HW222086   1.020   0.527   8.400  0.7237  1.6871 -1.7262
 3485SOL     OW22087   2.478   1.467  11.537  0.2780  0.1378  0.0437
 3485SOL    HW122088   2.534   1.436  11.466  3.0161  0.7835  1.9309
 3485SOL    HW222089   2.398   1.467  11.485 -0.8836  0.0824  1.8410
 3486SOL     OW22090   4.306   2.819   4.548  0.6472 -0.4231  0.4047
 3486SOL    HW122091   4.361   2.838   4.624  2.4512 -3.7550 -0.0609
 3486SOL    HW222092   4.367   2.801   4.477 -0.0852  0.8438 -0.5360
 3487SOL     OW22093   2.364   4.238   6.139  0.0391  0.4556  0.1041
 3487SOL    HW122094   2.362   4.145   6.162  0.9345  0.3599 -0.2274
 3487SOL    HW222095   2.445   4.273   6.175  0.1995 -0.7220  0.8882
 3488SOL     OW22096   0.465   3.705   6.697  0.5806 -0.3562 -0.2516
 3488SOL    HW122097   0.487   3.780   6.641 -1.4169  1.1376  0.9768
 3488SOL    HW222098   0.480   3.625   6.647  1.5714 -0.4212  0.1499
 3489SOL     OW22099   4.107   0.371   7.251  0.2526 -0.1412  0.1610
 3489SOL    HW122100   4.118   0.299   7.313 -0.0161 -0.0526  0.3149
 3489SOL    HW222101   4.101   0.329   7.165 -1.7535  0.8103 -0.1751
 3490SOL     OW22102   3.911   4.189   7.698 -0.3798 -0.3883  0.4176
 3490SOL    HW122103   3.868   4.272   7.680  2.3434  0.4964 -2.0832
 3490SOL    HW222104   3.978   4.206   7.764  0.1698  0.5381 -0.3760
 3491SOL     OW22105   2.467   1.570   4.606  0.0150 -0.0244 -0.4174
 3491SOL    HW122106   2.493   1.485   4.643  1.3716  0.7210  0.3432
 3491SOL    HW222107   2.544   1.625   4.620  0.9807 -1.1487 -1.3023
 3492SOL     OW22108   2.286   2.105  14.410  0.1648  0.2455  0.2215
 3492SOL    HW122109   2.262   2.189  14.371 -0.4301 -0.1244 -0.2158
 3492SOL    HW222110   2.381   2.107  14.416  0.1086  2.7802  0.3514
 3493SOL     OW22111   1.379   4.660  15.447  0.0028  0.2007  0.1109
 3493SOL    HW122112   1.386   4.590  15.382 -0.3897  1.4837 -1.3163
 3493SOL    HW222113   1.392   4.622  15.534  0.3337 -0.0945 -0.0694
 3494SOL     OW22114   3.297   4.268   4.629 -0.2956 -0.6820  0.4935
 3494SOL    HW122115   3.209   4.305   4.637  0.5229  1.4923 -0.7738
 3494SOL    HW222116   3.276   4.186   4.584 -0.5189  0.8347 -2.2075
 3495SOL     OW22117   4.240   2.409   7.448 -0.1964  0.3902  0.3785
 3495SOL    HW122118   4.179   2.431   7.378 -1.1460  0.4043  1.2118
 3495SOL    HW222119   4.313   2.367   7.402  1.2676  0.2867  2.7958
 3496SOL     OW22120   3.158   1.119   5.048  0.1420  0.0788 -0.2698
 3496SOL    HW122121   3.235   1.077   5.086  0.3138  0.0110 -0.6914
 3496SOL    HW222122   3.129   1.170   5.123  1.4664 -0.3516  0.5355
 3497SOL     OW22123   3.099   2.823   2.592 -0.5558  0.2787  0.1202
 3497SOL    HW122124   3.191   2.799   2.585 -0.7923 -0.7426  0.5722
 3497SOL    HW222125   3.068   2.786   2.509  0.3417 -0.1188 -0.0381
 3498SOL     OW22126   0.337   3.967   2.818 -0.0917 -0.8691  0.3655
 3498SOL    HW122127   0.342   4.018   2.737 -2.6256  0.6218  1.1413
 3498SOL    HW222128   0.245   3.940   2.812 -0.8410  1.2413  2.2062
 3499SOL     OW22129   3.364   1.785   6.704  0.0682  0.5410 -0.3491
 3499SOL    HW122130   3.458   1.765   6.712  0.3955  2.5741  0.9328
 3499SOL    HW222131   3.343   1.798   6.797  0.4002  0.7126 -0.2948
 3500SOL     OW22132   2.087   4.299  11.081 -0.0978  0.3663  0.7383
 3500SOL    HW122133   2.050   4.378  11.041 -0.7741  0.0018  0.6507
 3500SOL    HW222134   2.030   4.272  11.153  1.0976 -1.7970  0.8726
 3501SOL     OW22135   1.426   2.251   0.085 -0.7880 -0.1577  0.0464
 3501SOL    HW122136   1.359   2.297   0.135  0.6696  1.1458  0.7554
 3501SOL    HW222137   1.413   2.161   0.115 -0.7445  0.1620  1.0275
 3502SOL     OW22138   2.516   1.499   3.632 -0.8164 -0.3186  0.0378
 3502SOL    HW122139   2.507   1.562   3.704  1.5382  0.0943 -0.0556
 3502SOL    HW222140   2.481   1.426   3.684  1.7549 -1.6073 -0.0372
 3503SOL     OW22141   0.329   2.419   5.936  0.2498  0.2523  0.3572
 3503SOL    HW122142   0.318   2.452   6.025  2.5007  1.0176  0.3643
 3503SOL    HW222143   0.258   2.357   5.921  0.1969  0.0691  1.3542
 3504SOL     OW22144   1.584   3.458   8.739  0.1671  0.4736 -0.1212
 3504SOL    HW122145   1.658   3.403   8.767 -0.2510  1.4249  2.8724
 3504SOL    HW222146   1.623   3.504   8.665  2.0190 -0.2877  0.3747
 3505SOL     OW22147   3.917   1.003   3.595 -0.2011  0.2670 -0.1404
 3505SOL    HW122148   3.966   0.958   3.527  0.6416  0.8956  0.0558
 3505SOL    HW222149   3.823   0.995   3.578 -0.3410  0.2688  0.6509
 3506SOL     OW22150   3.929   0.904   8.021 -0.2644  0.0352  1.3352
 3506SOL    HW122151   3.870   0.886   8.095 -1.4094  1.8582  0.8722
 3506SOL    HW222152   3.882   0.979   7.985 -1.2587 -2.0483 -1.7449
 3507SOL     OW22153   3.905   0.879   7.680 -0.0671  0.7127 -0.1936
 3507SOL    HW122154   3.939   0.795   7.710 -3.9241 -0.9906 -0.7111
 3507SOL    HW222155   3.899   0.917   7.768  0.4121 -2.4386  1.1856
 3508SOL     OW22156   0.110   0.976   1.760 -0.6026 -0.4182 -0.7966
 3508SOL    HW122157   0.184   0.948   1.813 -0.4706 -1.5295 -1.5628
 3508SOL    HW222158   0.133   0.949   1.671  1.0852  0.8098 -0.7308
 3509SOL     OW22159   0.724   4.027   5.804  0.1849  0.0556  0.0092
 3509SOL    HW122160   0.729   4.035   5.899 -2.6863 -0.7108  0.2433
 3509SOL    HW222161   0.641   4.069   5.780 -0.1122 -0.3552  0.3211
 3510SOL     OW22162   1.860   1.450   4.262  0.1165 -0.0706  0.2570
 3510SOL    HW122163   1.771   1.449   4.297  0.2649  0.5819  0.6482
 3510SOL    HW222164   1.847   1.490   4.176  0.5528  0.1820  0.3122
 3511SOL     OW22165   3.305   2.315   5.402  0.0020  0.2266  0.1682
 3511SOL    HW122166   3.337   2.226   5.415  0.5666  0.6264  1.5052
 3511SOL    HW222167   3.372   2.358   5.348 -0.0044  2.1335  1.6472
 3512SOL     OW22168   1.846   0.267   2.640 -0.0445  0.2517 -0.2017
 3512SOL    HW122169   1.867   0.217   2.561 -3.0875 -1.7144  0.2253
 3512SOL    HW222170   1.797   0.204   2.693 -2.2432  2.2352  0.1222
 3513SOL     OW22171   1.485   2.476   4.226  0.1594  0.3663  0.5787
 3513SOL    HW122172   1.394   2.449   4.215  1.1680 -3.0822  0.7576
 3513SOL    HW222173   1.532   2.393   4.220 -0.5624  0.1662 -2.0893
 3514SOL     OW22174   1.787   1.701   0.903  0.1282  0.2578  0.1238
 3514SOL    HW122175   1.794   1.796   0.913 -1.2409  0.7147 -3.1034
 3514SOL    HW222176   1.727   1.671   0.971  0.2654 -0.0467  0.1085
 3515SOL     OW22177   2.884   2.202   8.397  0.2621  0.7086 -0.1423
 3515SOL    HW122178   2.963   2.159   8.366 -1.0965 -2.1130  0.2466
 3515SOL    HW222179   2.881   2.146   8.475  0.6013  2.1150  0.8864
 3516SOL     OW22180   0.306   2.784   0.506  0.0638  0.0208 -0.1557
 3516SOL    HW122181   0.264   2.867   0.531  1.0504  0.4018  0.2417
 3516SOL    HW222182   0.392   2.789   0.550 -2.6551  1.5398  5.0506
 3517SOL     OW22183   0.467   2.907   0.225 -0.1444  0.0471 -0.1846
 3517SOL    HW122184   0.513   2.934   0.304  0.1904 -0.0993 -0.3315
 3517SOL    HW222185   0.399   2.851   0.263 -1.0061  1.1951 -0.0501
 3518SOL     OW22186   0.642   0.568   3.552  0.1773  0.4505  0.1711
 3518SOL    HW122187   0.656   0.604   3.640 -0.9898 -1.2941  1.0750
 3518SOL    HW222188   0.547   0.567   3.540  0.5283 -1.8693 -2.2825
 3519SOL     OW22189   3.236   2.314   6.058  0.5548 -0.0574 -0.6544
 3519SOL    HW122190   3.321   2.293   6.097  0.2153 -2.7425 -1.4016
 3519SOL    HW222191   3.185   2.237   6.080  0.1859  0.9843  2.0594
 3520SOL     OW22192   1.025   2.736   7.122 -0.4045 -0.0366  0.0459
 3520SOL    HW122193   0.938   2.758   7.088  0.1516 -1.6892 -2.4920
 3520SOL    HW222194   1.078   2.812   7.097 -0.2970  0.5164  1.9518
 3521SOL     OW22195   0.827   3.348   1.561 -0.5442  0.4368 -0.4272
 3521SOL    HW122196   0.828   3.321   1.470  1.0634 -1.1224  0.0414
 3521SOL    HW222197   0.920   3.350   1.584 -0.4575  0.5509 -0.7823
 3522SOL     OW22198   1.031   3.402   2.481  0.6806  0.5970 -0.2036
 3522SOL    HW122199   0.983   3.454   2.545 -2.2367  1.3392 -3.0343
 3522SOL    HW222200   1.123   3.405   2.508  0.6269 -1.9775  0.2990
 3523SOL     OW22201   0.313   3.333  14.727 -0.1181  0.0440 -0.4942
 3523SOL    HW122202   0.300   3.290  14.811 -0.5057  1.2779  0.0801
 3523SOL    HW222203   0.256   3.277  14.674 -2.1426 -0.1241  1.8399
 3524SOL     OW22204   2.405   0.887   1.410 -0.0799 -0.1060 -0.4694
 3524SOL    HW122205   2.376   0.974   1.383  0.3662  0.2766  0.2827
 3524SOL    HW222206   2.500   0.903   1.418 -0.6016  2.5638  0.3908
 3525SOL     OW22207   4.522   4.270   2.499 -0.6843  0.1114 -0.0381
 3525SOL    HW122208   4.438   4.315   2.508  0.2641  1.5131  1.7137
 3525SOL    HW222209   4.496   4.184   2.532  1.1705 -0.0382  0.9748
 3526SOL     OW22210   3.609   3.158   3.746  0.0938  0.4294  0.6684
 3526SOL    HW122211   3.545   3.224   3.772  0.0278  0.0872  1.3703
 3526SOL    HW222212   3.644   3.191   3.663 -0.9694 -0.6216 -0.1983
 3527SOL     OW22213   4.024   2.933   8.653  0.7503  0.4226  0.2004
 3527SOL    HW122214   4.080   3.011   8.658  2.0698 -0.5569  0.5970
 3527SOL    HW222215   4.066   2.901   8.573  0.5569 -0.7936  0.5895
 3528SOL     OW22216   4.229   0.682   8.090  0.6401 -0.3879 -0.2061
 3528SOL    HW122217   4.256   0.591   8.073 -0.3884 -0.6796 -0.2434
 3528SOL    HW222218   4.230   0.679   8.185 -0.7383  1.3058 -0.1529
 3529SOL     OW22219   0.619   4.363   3.873  0.4088  0.1551 -0.2817
 3529SOL    HW122220   0.656   4.285   3.915 -0.2414  0.3385  0.6352
 3529SOL    HW222221   0.525   4.348   3.877  0.5732 -0.7728  0.2041
 3530SOL     OW22222   0.585   1.779   3.305  0.0360 -0.2427 -0.5917
 3530SOL    HW122223   0.556   1.870   3.293  0.7391 -0.0971 -1.1369
 3530SOL    HW222224   0.680   1.780   3.304  0.0237 -2.5839 -2.6510
 3531SOL     OW22225   2.466   4.251  13.948 -0.4963 -0.0573  0.3567
 3531SOL    HW122226   2.381   4.224  13.983  0.4027  0.5178  2.9992
 3531SOL    HW222227   2.439   4.327  13.897 -0.3755 -0.3863 -0.2033
 3532SOL     OW22228   0.720   4.508   6.225 -0.6105  0.1100  0.2223
 3532SOL    HW122229   0.636   4.517   6.270 -0.2652  2.6654  0.3372
 3532SOL    HW222230   0.771   4.585   6.248 -0.3403 -0.0227  0.0683
 3533SOL     OW22231   4.271   4.417   4.704  0.6198  0.6557 -0.3696
 3533SOL    HW122232   4.308   4.502   4.681 -1.1613  0.8791 -2.3526
 3533SOL    HW222233   4.351   4.374   4.736  0.0546 -1.1897 -1.4797
 3534SOL     OW22234   0.781   0.897   4.542  0.1327  0.1808 -0.1182
 3534SOL    HW122235   0.690   0.927   4.542 -0.4115 -1.4945 -3.2008
 3534SOL    HW222236   0.766   0.813   4.501 -0.4500  0.4085 -0.3786
 3535SOL     OW22237   2.231   1.943  15.442 -0.5903 -0.1083 -0.6512
 3535SOL    HW122238   2.157   1.912  15.495 -0.3136  0.7936  0.2566
 3535SOL    HW222239   2.190   1.983  15.365 -0.1810 -2.8983 -2.3226
 3536SOL     OW22240   4.419   1.887   6.190  0.0411  0.2962 -0.2152
 3536SOL    HW122241   4.372   1.957   6.236  0.6291  0.4846  0.1061
 3536SOL    HW222242   4.481   1.860   6.257 -0.1992 -1.1773 -0.5818
 3537SOL     OW22243   3.950   0.031  13.072 -0.2452 -0.2454 -0.0094
 3537SOL    HW122244   3.861   0.043  13.038 -0.4460 -1.4773  0.0637
 3537SOL    HW222245   4.005   0.045  12.995  0.6601  2.0172  1.0681
 3538SOL     OW22246   1.195   0.931   0.820 -0.1283 -0.3078 -0.2893
 3538SOL    HW122247   1.183   1.015   0.865 -0.7310 -0.4870 -0.1199
 3538SOL    HW222248   1.138   0.949   0.745  1.1238 -0.0308 -1.1762
 3539SOL     OW22249   4.013   1.964   4.745  0.0136  0.1630  0.3251
 3539SOL    HW122250   3.965   2.025   4.801 -1.6432 -0.5646 -0.2733
 3539SOL    HW222251   3.943   1.909   4.709  0.2061  0.9488 -1.2227
 3540SOL     OW22252   1.957   1.391   1.004  0.2185 -0.1486 -0.4191
 3540SOL    HW122253   1.899   1.362   1.073  1.2257 -3.1058 -0.7794
 3540SOL    HW222254   1.996   1.309   0.970  2.2926  0.4343  0.5277
 3541SOL     OW22255   3.525   2.368   7.331 -0.0298 -0.7564 -0.4664
 3541SOL    HW122256   3.573   2.319   7.264 -1.4947  0.0766 -2.1134
 3541SOL    HW222257   3.518   2.451   7.284 -1.2961 -1.1341 -0.9285
 3542SOL     OW22258   1.401   2.894  11.514  0.0202 -0.8233 -0.3084
 3542SOL    HW122259   1.444   2.808  11.517  4.2149  1.2581  0.0379
 3542SOL    HW222260   1.422   2.925  11.426  0.3663 -0.0359  0.0496
 3543SOL     OW22261   2.354   4.195  15.424  0.2101 -0.2087 -0.1327
 3543SOL    HW122262   2.377   4.264  15.362  2.3536  0.6372  1.6179
 3543SOL    HW222263   2.325   4.127  15.363 -2.2689  0.3901  0.3950
 3544SOL     OW22264   1.574   1.929   4.712 -0.1591 -0.5525 -0.6698
 3544SOL    HW122265   1.478   1.934   4.713 -0.2369 -2.2750  1.4681
 3544SOL    HW222266   1.594   2.008   4.764 -1.1652 -1.3469  0.9544
 3545SOL     OW22267   3.238   2.083   9.240  0.0293  0.0494  0.1072
 3545SOL    HW122268   3.301   2.154   9.253  0.0240  0.0103  0.3498
 3545SOL    HW222269   3.224   2.048   9.328 -1.8673  0.1522 -0.1550
 3546SOL     OW22270   2.858   0.940   4.518 -0.1591 -0.2724 -0.1588
 3546SOL    HW122271   2.910   1.018   4.532 -0.8382 -0.1347  1.5709
 3546SOL    HW222272   2.810   0.974   4.442 -1.4949 -1.4291  0.1616
 3547SOL     OW22273   0.903   1.396   1.746  0.0240  0.8818 -0.2206
 3547SOL    HW122274   0.847   1.472   1.760  1.5705  2.0532 -0.4528
 3547SOL    HW222275   0.982   1.442   1.717  0.6243 -0.1171 -0.1662
 3548SOL     OW22276   3.498   3.529   6.898  0.7736 -0.0582  0.4623
 3548SOL    HW122277   3.566   3.547   6.833  0.1608  2.5918  0.5599
 3548SOL    HW222278   3.532   3.577   6.974  0.9929 -1.6506  1.3762
 3549SOL     OW22279   3.306   2.770   5.049 -0.4580 -0.1522  0.6383
 3549SOL    HW122280   3.358   2.705   5.003 -0.8232 -1.7735  2.5174
 3549SOL    HW222281   3.334   2.760   5.140  0.4377 -0.5063  0.3248
 3550SOL     OW22282   1.311   0.528   4.653  0.2399  0.4569  0.5077
 3550SOL    HW122283   1.301   0.433   4.663 -0.3683  0.2585 -1.8960
 3550SOL    HW222284   1.309   0.563   4.742 -0.9164  1.2513  0.1639
 3551SOL     OW22285   3.006   1.003   7.510 -0.6242 -0.0556  0.2536
 3551SOL    HW122286   3.084   0.965   7.471  0.2874  0.1873  1.8434
 3551SOL    HW222287   3.010   0.953   7.592 -0.7516 -3.4981 -1.8583
 3552SOL     OW22288   4.453   3.066   0.259 -0.3426 -0.3219  0.1081
 3552SOL    HW122289   4.480   3.157   0.249  2.0699 -1.0302  0.1741
 3552SOL    HW222290   4.472   3.033   0.171  5.1281 -1.5757  1.7256
 3553SOL     OW22291   2.038   2.899   8.375  0.0824 -0.5189 -0.0732
 3553SOL    HW122292   2.009   2.872   8.288  2.3199  0.8266 -1.2433
 3553SOL    HW222293   1.978   2.856   8.435 -0.1191  0.8600  0.6945
 3554SOL     OW22294   2.116   3.635   7.731  0.1001  0.0717 -0.0870
 3554SOL    HW122295   2.100   3.588   7.813  0.6258 -1.2163 -0.7288
 3554SOL    HW222296   2.174   3.571   7.690 -0.8109 -0.0559 -1.1456
 3555SOL     OW22297   0.590   0.707   1.399  0.0025 -0.2276  0.1763
 3555SOL    HW122298   0.530   0.659   1.455 -1.6136  0.8437 -0.6327
 3555SOL    HW222299   0.665   0.703   1.459 -0.0992  0.7515  0.3713
 3556SOL     OW22300   0.490   1.908   7.278 -0.0051  0.2094  0.1778
 3556SOL    HW122301   0.498   1.813   7.284 -1.0745  0.0853 -0.3495
 3556SOL    HW222302   0.427   1.908   7.207  1.0237  0.5597 -0.7364
 3557SOL     OW22303   1.931   2.937   1.151  0.1149 -0.1309 -0.3895
 3557SOL    HW122304   1.947   2.845   1.128 -1.5738 -0.2373 -1.1666
 3557SOL    HW222305   1.968   2.984   1.077  1.0685  0.5554  0.5249
 3558SOL     OW22306   0.228   3.725  12.193 -0.0614  0.2957 -0.2811
 3558SOL    HW122307   0.232   3.717  12.098  1.2883 -1.0341 -0.0988
 3558SOL    HW222308   0.305   3.780  12.206 -0.5053  1.0406 -0.7835
 3559SOL     OW22309   1.186   3.712  13.492 -0.1556 -0.2158  0.2838
 3559SOL    HW122310   1.183   3.618  13.477 -1.1388 -0.3563  1.3645
 3559SOL    HW222311   1.167   3.746  13.404  1.3599 -0.8068 -0.2680
 3560SOL     OW22312   0.479   2.028  11.471  0.1246 -0.3018 -0.2561
 3560SOL    HW122313   0.529   2.070  11.541 -0.3033  1.1372 -0.7929
 3560SOL    HW222314   0.460   2.104  11.415  0.5778 -0.2327 -0.3171
 3561SOL     OW22315   0.921   0.633   4.270  0.4575  0.6254 -0.2316
 3561SOL    HW122316   0.933   0.727   4.260  0.3612  0.6547 -0.0851
 3561SOL    HW222317   0.985   0.622   4.340  0.6494  1.2264 -0.3197
 3562SOL     OW22318   2.093   4.510   7.620  0.5965 -0.1216 -0.5746
 3562SOL    HW122319   2.046   4.460   7.687  0.3957 -0.6845 -1.1387
 3562SOL    HW222320   2.182   4.492   7.650  0.9378  0.2597 -1.3626
 3563SOL     OW22321   2.628   1.525   7.640 -0.5039 -0.7509 -0.1606
 3563SOL    HW122322   2.695   1.541   7.707  0.1159  1.6776 -1.3449
 3563SOL    HW222323   2.655   1.575   7.563  2.2050 -3.5237 -1.0102
 3564SOL     OW22324   1.109   1.224   4.828  0.4711 -0.9242  0.2192
 3564SOL    HW122325   1.162   1.254   4.755 -0.2108 -2.4908 -0.9030
 3564SOL    HW222326   1.046   1.293   4.848  1.6858 -0.0072  0.8995
 3565SOL     OW22327   3.665   0.283   2.290 -0.6762 -0.2783 -0.1043
 3565SOL    HW122328   3.684   0.331   2.371 -0.7104 -0.8839  0.2659
 3565SOL    HW222329   3.572   0.306   2.289 -0.3422  1.0259 -1.1781
 3566SOL     OW22330   0.796   3.694   1.066 -0.8208  0.3181  0.1791
 3566SOL    HW122331   0.879   3.659   1.031  0.4746  1.8322  1.7342
 3566SOL    HW222332   0.813   3.788   1.067 -0.4622  0.2362  1.2118
 3567SOL     OW22333   3.097   1.814   5.779 -0.2887 -0.2614  0.5455
 3567SOL    HW122334   3.172   1.873   5.784 -0.8227  0.6258 -2.0826
 3567SOL    HW222335   3.085   1.813   5.684 -2.2776 -2.8308  0.8248
 3568SOL     OW22336   3.511   1.266   9.932 -0.3589  0.5140  0.3941
 3568SOL    HW122337   3.543   1.250   9.843 -2.0787  0.3578 -0.1965
 3568SOL    HW222338   3.479   1.356   9.926  1.0363  1.0415  0.7098
 3569SOL     OW22339   4.692   2.936   2.840  0.5186 -0.1771 -0.0965
 3569SOL    HW122340   0.007   2.878   2.786  0.1529  1.7957 -2.5228
 3569SOL    HW222341   4.729   2.928   2.928 -1.6973  0.1242  0.8668
 3570SOL     OW22342   1.956   0.057   5.822  0.3089 -0.1042  0.2538
 3570SOL    HW122343   2.038   0.101   5.801 -0.0572  0.6617  0.4433
 3570SOL    HW222344   1.917   0.113   5.889 -2.5125 -0.8668 -0.7053
 3571SOL     OW22345   0.424   1.602  10.805  0.0317 -0.0747 -0.1220
 3571SOL    HW122346   0.504   1.624  10.756 -0.8147 -0.3786 -1.6183
 3571SOL    HW222347   0.399   1.522  10.759  0.8565 -0.8400  0.7523
 3572SOL     OW22348   3.660   0.690   9.172  0.2918  0.0554 -0.3851
 3572SOL    HW122349   3.644   0.610   9.223 -2.0435  3.1643  3.7418
 3572SOL    HW222350   3.665   0.640   9.091 -0.5054  0.1867 -0.5123
 3573SOL     OW22351   4.730   3.202   2.750 -0.0896 -0.0564  0.3307
 3573SOL    HW122352   4.693   3.173   2.667  0.4702 -0.6030  0.2800
 3573SOL    HW222353   4.713   3.126   2.805  0.0709  0.4108  1.0314
 3574SOL     OW22354   3.138   2.189  12.191 -0.6416  0.1200 -0.0080
 3574SOL    HW122355   3.072   2.255  12.210  1.4402  2.1737  0.0115
 3574SOL    HW222356   3.206   2.246  12.155 -1.1144  0.7996  0.1986
 3575SOL     OW22357   1.288   3.866   2.082 -0.3933  0.9086  0.0445
 3575SOL    HW122358   1.207   3.818   2.096 -0.5413  1.4190  0.8715
 3575SOL    HW222359   1.267   3.930   2.013  0.8891  1.0041 -0.2595
 3576SOL     OW22360   2.602   4.252   5.149 -0.5585  0.1280  0.1279
 3576SOL    HW122361   2.654   4.266   5.228 -0.6326 -0.9341  0.3650
 3576SOL    HW222362   2.556   4.334   5.134 -0.8220  0.2162  1.4536
 3577SOL     OW22363   0.795   1.588   4.453  0.1280 -0.5409  0.0323
 3577SOL    HW122364   0.710   1.557   4.484 -0.5060  0.8880 -0.2684
 3577SOL    HW222365   0.764   1.624   4.369  1.7855  1.4635  0.2785
 3578SOL     OW22366   0.382   2.804   8.511  0.1167 -0.3220 -0.7256
 3578SOL    HW122367   0.326   2.768   8.580  0.9549  0.8634  0.5883
 3578SOL    HW222368   0.425   2.879   8.552 -0.6359 -1.0052  1.3235
 3579SOL     OW22369   3.495   0.382   5.959 -0.2747 -0.1213  0.1332
 3579SOL    HW122370   3.445   0.433   6.023  0.6343  1.3659 -0.3609
 3579SOL    HW222371   3.415   0.364   5.909 -0.1860 -1.4797  0.4664
 3580SOL     OW22372   3.104   4.471   2.732  0.4701 -0.3959  0.2944
 3580SOL    HW122373   3.026   4.446   2.781  1.7062  0.0369  2.4875
 3580SOL    HW222374   3.130   4.546   2.786  1.2626  0.3301 -1.0983
 3581SOL     OW22375   1.765   2.869   7.786  0.4150  0.6533  0.1293
 3581SOL    HW122376   1.725   2.925   7.852 -0.2374 -0.8801  1.0503
 3581SOL    HW222377   1.776   2.927   7.711  1.5997  2.6887  1.8997
 3582SOL     OW22378   1.493   1.183   0.450  0.1528 -0.1602 -0.1085
 3582SOL    HW122379   1.500   1.189   0.354 -1.0675 -2.9550 -0.3898
 3582SOL    HW222380   1.398   1.179   0.461  0.0930 -0.2695 -0.6519
 3583SOL     OW22381   3.625   3.308   8.771 -0.4936 -0.3022  0.1887
 3583SOL    HW122382   3.558   3.308   8.839 -0.4794  3.8421  0.2547
 3583SOL    HW222383   3.563   3.295   8.698  1.4873 -1.1398 -1.3365
 3584SOL     OW22384   2.344   1.957  15.139 -0.1280 -0.1864 -0.0775
 3584SOL    HW122385   2.304   1.871  15.154 -0.5532 -0.0988 -0.6749
 3584SOL    HW222386   2.438   1.952  15.124 -0.3505 -0.8543 -1.2859
 3585SOL     OW22387   1.721   0.723   8.258  0.6230  0.2899  0.0626
 3585SOL    HW122388   1.752   0.673   8.182 -1.1894  0.0201 -0.5179
 3585SOL    HW222389   1.765   0.805   8.234 -0.7453  1.2233  0.7096
 3586SOL     OW22390   3.817   0.429   9.285  0.2979  0.1333 -0.0849
 3586SOL    HW122391   3.824   0.460   9.376 -2.7022 -0.3880  0.3368
 3586SOL    HW222392   3.892   0.372   9.275 -0.5340 -1.0466  0.4232
 3587SOL     OW22393   3.925   2.244   3.288  0.3168 -0.1785  0.1256
 3587SOL    HW122394   4.002   2.261   3.233  1.8021 -1.5466  1.7606
 3587SOL    HW222395   3.962   2.293   3.362 -2.2356  0.8993  0.6740
 3588SOL     OW22396   0.029   0.580  11.048  0.2028  0.0535 -0.4495
 3588SOL    HW122397   0.065   0.664  11.077  1.1128 -0.8411  1.0208
 3588SOL    HW222398   0.106   0.530  11.022  1.5779  1.0297  1.7771
 3589SOL     OW22399   0.339   0.885  12.751 -0.0391 -0.5509 -0.0200
 3589SOL    HW122400   0.283   0.955  12.718 -0.2296 -1.7743 -2.3468
 3589SOL    HW222401   0.354   0.851  12.663 -0.3680 -0.4825 -0.1046
 3590SOL     OW22402   0.492   4.285   8.770  0.1038 -0.1379 -0.1215
 3590SOL    HW122403   0.564   4.264   8.830 -0.3313  0.7530  0.7263
 3590SOL    HW222404   0.449   4.362   8.807 -0.6590 -1.6117  2.0511
 3591SOL     OW22405   0.651   1.073   7.204 -0.1197 -0.2153  0.0943
 3591SOL    HW122406   0.567   1.041   7.170 -0.9788  1.9605  0.1941
 3591SOL    HW222407   0.614   1.133   7.269 -0.1407 -0.0662 -0.0564
 3592SOL     OW22408   1.985   1.468   2.408  0.1644  0.8202  0.0895
 3592SOL    HW122409   1.940   1.398   2.360 -0.3976  0.4723  1.1206
 3592SOL    HW222410   2.069   1.425   2.423 -1.1064 -1.5947  0.2677
 3593SOL     OW22411   2.792   1.797  17.065 -0.2201 -0.0401  0.0248
 3593SOL    HW122412   2.758   1.782  16.977 -1.2852  2.2594  0.0275
 3593SOL    HW222413   2.717   1.769  17.117 -0.6942  1.2437  0.0559
 3594SOL     OW22414   2.250   1.686  17.477  0.2019  0.0015 -0.1241
 3594SOL    HW122415   2.263   1.769  17.432  2.8872 -2.1338 -3.3300
 3594SOL    HW222416   2.245   1.717  17.567  0.9110  1.2528 -0.5272
 3595SOL     OW22417   0.043   2.647   6.417 -0.4338  0.1305  0.0940
 3595SOL    HW122418   0.019   2.650   6.324 -0.8744 -0.4971  0.1910
 3595SOL    HW222419   0.076   2.733   6.446 -1.4339  0.4838  0.1860
 3596SOL     OW22420   4.035   3.853   9.520 -0.1966  0.1243 -0.4582
 3596SOL    HW122421   4.023   3.948   9.522 -0.8530  0.0241  0.4835
 3596SOL    HW222422   4.128   3.852   9.500 -0.6927  0.1712 -2.8351
 3597SOL     OW22423   2.053   2.921   5.666  0.1718  0.0288  0.4712
 3597SOL    HW122424   1.963   2.951   5.665 -0.2683 -1.3090 -0.8721
 3597SOL    HW222425   2.091   2.975   5.735 -0.7237 -0.4981  1.3563
 3598SOL     OW22426   3.972   1.355   7.450 -0.5931  0.4588  0.5034
 3598SOL    HW122427   3.990   1.394   7.536 -1.0908  3.2654 -0.6772
 3598SOL    HW222428   3.927   1.274   7.474 -2.0169  0.9047 -0.6729
 3599SOL     OW22429   1.838   3.446   5.115 -0.3711  0.0081  0.0606
 3599SOL    HW122430   1.789   3.366   5.094  2.0513 -1.2343 -0.8125
 3599SOL    HW222431   1.923   3.412   5.141 -1.0775 -1.2595  0.7292
 3600SOL     OW22432   3.880   4.554   1.095  0.5245  0.2154  0.6736
 3600SOL    HW122433   3.955   4.587   1.145  0.8607  3.4160 -1.8963
 3600SOL    HW222434   3.897   4.460   1.097  2.4324  0.5363 -0.3700
 3601SOL     OW22435   2.039   4.551   6.240  0.2463 -0.3107  0.0239
 3601SOL    HW122436   1.978   4.586   6.175  1.9217  0.7957 -0.9303
 3601SOL    HW222437   1.985   4.504   6.304  1.5719  1.0495  2.1614
 3602SOL     OW22438   3.717   0.203   0.996  0.2730  0.2449  0.6880
 3602SOL    HW122439   3.653   0.198   0.925  0.7217 -0.9663  0.3670
 3602SOL    HW222440   3.759   0.286   0.974  2.0956 -0.9692 -0.4254
 3603SOL     OW22441   4.172   1.610   2.113 -0.1177 -0.5176 -0.2056
 3603SOL    HW122442   4.234   1.663   2.063 -1.1435  0.6395 -0.2674
 3603SOL    HW222443   4.125   1.566   2.042 -0.2943 -1.8045  0.7006
 3604SOL     OW22444   4.606   0.433   4.825 -0.4061 -0.0304  0.1984
 3604SOL    HW122445   4.691   0.393   4.844 -0.0930  0.9903  0.8979
 3604SOL    HW222446   4.612   0.441   4.730 -1.2659 -1.5485  0.0137
 3605SOL     OW22447   0.137   1.800   3.178 -0.2260  0.0471 -0.4858
 3605SOL    HW122448   0.066   1.736   3.175 -1.0130  0.8603  0.6284
 3605SOL    HW222449   0.198   1.748   3.230 -2.1452 -0.7999  0.9162
 3606SOL     OW22450   0.235   1.834   7.994  0.1982  0.3612 -0.0596
 3606SOL    HW122451   0.298   1.892   8.036 -1.3626  1.1862  1.1328
 3606SOL    HW222452   0.175   1.890   7.946  0.1116  1.4313  1.3210
 3607SOL     OW22453   1.926   3.809   4.198  0.0774 -0.2843  0.5490
 3607SOL    HW122454   1.883   3.777   4.119  3.9216  1.2137 -2.1443
 3607SOL    HW222455   1.990   3.738   4.202  1.4933  0.9057 -1.1375
 3608SOL     OW22456   2.142   3.649   8.585 -0.0112  0.3728 -0.6348
 3608SOL    HW122457   2.184   3.569   8.618 -0.6175 -0.6607 -2.3966
 3608SOL    HW222458   2.071   3.607   8.536 -0.0734 -2.1364  1.5843
 3609SOL     OW22459   3.680   1.528   5.938 -0.1587 -0.2272 -0.1225
 3609SOL    HW122460   3.588   1.503   5.939 -0.5367  1.1449  2.7818
 3609SOL    HW222461   3.688   1.600   6.001 -0.3129  0.3721 -0.7919
 3610SOL     OW22462   0.906   2.780   4.624  0.1286 -0.1649 -0.6621
 3610SOL    HW122463   0.932   2.698   4.666 -0.0750 -0.5627 -1.3161
 3610SOL    HW222464   0.812   2.779   4.644  0.6857 -0.9374  2.0147
 3611SOL     OW22465   4.598   4.679   1.402 -0.7759  0.3424 -0.0317
 3611SOL    HW122466   4.678   4.629   1.382 -0.6379  0.0039  1.3913
 3611SOL    HW222467   4.597   4.726   1.319  1.8592  1.4754  0.5724
 3612SOL     OW22468   0.557   2.199  16.707 -0.1107 -0.1653 -0.0064
 3612SOL    HW122469   0.642   2.156  16.705 -0.1665 -0.3059  0.7804
 3612SOL    HW222470   0.582   2.254  16.781 -1.9036 -0.4121  0.7673
 3613SOL     OW22471   2.070   3.853   6.788 -0.5123 -0.3511 -0.5427
 3613SOL    HW122472   2.047   3.878   6.878  0.9213 -1.1947  0.0555
 3613SOL    HW222473   2.090   3.760   6.805 -0.4243 -0.2380 -0.0130
 3614SOL     OW22474   0.213   2.750   0.252 -0.0806  0.2745  0.1011
 3614SOL    HW122475   0.150   2.820   0.233  1.5712  1.4462 -1.0436
 3614SOL    HW222476   0.238   2.784   0.338  0.2437  1.8114 -0.5906
 3615SOL     OW22477   1.051   1.973   7.927  0.3263 -1.0470  0.0557
 3615SOL    HW122478   1.040   1.919   7.849  0.5912 -1.8093  0.5429
 3615SOL    HW222479   1.058   2.061   7.891  0.1514 -0.6318  1.0447
 3616SOL     OW22480   1.099   0.998   2.250  0.0473 -0.5601 -0.4077
 3616SOL    HW122481   1.096   1.084   2.208  1.2680  0.6994  2.0557
 3616SOL    HW222482   1.036   1.000   2.322  0.9869  1.2506  0.3674
 3617SOL     OW22483   1.494   3.712   0.740 -0.1058  0.0427  0.5133
 3617SOL    HW122484   1.451   3.626   0.741 -1.8149  0.8956 -0.0858
 3617SOL    HW222485   1.522   3.715   0.648  0.3851  0.3237  0.6719
 3618SOL     OW22486   0.372   1.539   2.340  0.4180 -0.2329  0.5072
 3618SOL    HW122487   0.369   1.497   2.254  2.7126 -1.8628  1.2563
 3618SOL    HW222488   0.278   1.539   2.357  0.4189 -1.2307  0.4832
 3619SOL     OW22489   2.176   4.346  17.691 -0.4541  0.1215  0.4908
 3619SOL    HW122490   2.114   4.286  17.733  1.0717 -1.9517 -0.2035
 3619SOL    HW222491   2.142   4.435  17.693 -2.3106 -0.5523 -1.4005
 3620SOL     OW22492   1.391   1.384   4.386  0.0256 -0.0024 -0.6664
 3620SOL    HW122493   1.309   1.431   4.399  1.4630  2.1947  0.4486
 3620SOL    HW222494   1.396   1.323   4.460 -2.3392 -1.1864 -1.4828
 3621SOL     OW22495   3.320   0.910  11.223  0.6019  0.6285 -0.3940
 3621SOL    HW122496   3.300   0.838  11.163  0.3455  2.1471 -2.1308
 3621SOL    HW222497   3.300   0.985  11.167  1.4025  0.3967 -0.9797
 3622SOL     OW22498   1.124   0.812   8.694  0.5535 -0.0536  0.3915
 3622SOL    HW122499   1.076   0.883   8.737  0.7705  1.4922 -1.9705
 3622SOL    HW222500   1.088   0.740   8.747  3.1359 -1.0052  0.8865
 3623SOL     OW22501   3.201   1.300   4.076  0.1429 -0.5737 -0.4610
 3623SOL    HW122502   3.171   1.210   4.088  1.0507 -0.8523 -0.2555
 3623SOL    HW222503   3.129   1.358   4.100  0.2839 -0.3391 -0.5979
 3624SOL     OW22504   3.914   0.703   3.106 -0.0519  0.4545 -0.1373
 3624SOL    HW122505   3.985   0.743   3.055 -0.1227  0.0043 -0.5902
 3624SOL    HW222506   3.958   0.633   3.154 -2.2924 -2.6180 -2.5871
 3625SOL     OW22507   1.304   1.876   3.920 -0.1332 -0.3526 -0.0114
 3625SOL    HW122508   1.344   1.963   3.915  0.7946 -0.6590  2.1199
 3625SOL    HW222509   1.383   1.836   3.956 -0.0886  0.5461  0.8861
 3626SOL     OW22510   2.291   3.989   1.041  0.1668 -0.2842  0.1018
 3626SOL    HW122511   2.331   4.076   1.037  0.4522 -0.4810 -1.5489
 3626SOL    HW222512   2.318   3.964   1.129  2.2258  0.0549 -0.4380
 3627SOL     OW22513   2.654   1.221  17.744 -0.6615  0.9710 -0.5522
 3627SOL    HW122514   2.695   1.298  17.705 -0.1502  0.4007 -1.1374
 3627SOL    HW222515   2.576   1.260   0.034 -0.4292  1.1112 -0.2370
 3628SOL     OW22516   4.189   2.552   3.288 -0.0775  0.0933 -0.0607
 3628SOL    HW122517   4.242   2.499   3.348 -1.4808 -0.2832  0.8434
 3628SOL    HW222518   4.102   2.511   3.287 -0.8764  1.7523  1.7927
 3629SOL     OW22519   3.504   2.630   7.216  0.3617 -0.2195  0.5863
 3629SOL    HW122520   3.552   2.684   7.154  1.0631 -1.3918  0.1042
 3629SOL    HW222521   3.414   2.661   7.206  0.6496  1.7717  4.1405
 3630SOL     OW22522   0.539   3.088   3.181  0.3283  0.3407 -0.5596
 3630SOL    HW122523   0.569   3.108   3.092  3.2748  0.1951  0.4105
 3630SOL    HW222524   0.457   3.138   3.186  0.3591  0.3125  0.0989
 3631SOL     OW22525   2.397   2.549   8.229 -0.3618  0.7797 -0.4680
 3631SOL    HW122526   2.415   2.485   8.161 -0.8509 -1.5068  1.5586
 3631SOL    HW222527   2.399   2.633   8.182 -1.3861  0.8047 -0.4686
 3632SOL     OW22528   2.979   0.397   0.211 -0.6645 -0.3016  0.0836
 3632SOL    HW122529   2.977   0.406   0.115  1.4613  0.7833  0.1297
 3632SOL    HW222530   2.923   0.469   0.239 -1.1145 -1.0607  1.1187
 3633SOL     OW22531   3.148   2.895  14.790  0.0443  0.3651  0.3420
 3633SOL    HW122532   3.106   2.809  14.795 -0.2385  0.5962  1.7968
 3633SOL    HW222533   3.243   2.883  14.780 -0.2099 -1.0830 -0.3815
 3634SOL     OW22534   1.283   2.993   4.841 -0.7976  0.2512  0.2127
 3634SOL    HW122535   1.299   3.074   4.888 -0.1739 -0.2721  0.8949
 3634SOL    HW222536   1.370   2.953   4.839 -0.8411  0.1234  1.1025
 3635SOL     OW22537   3.364   4.325   2.269  0.3143  0.0660  0.7394
 3635SOL    HW122538   3.361   4.376   2.188 -0.0387  2.0433  1.9970
 3635SOL    HW222539   3.341   4.237   2.238  0.5350 -0.0119  0.7943
 3636SOL     OW22540   4.251   2.094   0.722  0.2915  0.1984 -0.4015
 3636SOL    HW122541   4.320   2.090   0.656 -0.9181  0.7170 -1.6790
 3636SOL    HW222542   4.277   2.175   0.767  0.1272 -0.3876  0.7607
 3637SOL     OW22543   0.791   0.377  10.413 -0.0064  0.3291 -0.0613
 3637SOL    HW122544   0.711   0.334  10.441 -1.4055  0.6870 -3.4705
 3637SOL    HW222545   0.837   0.300  10.378  0.4779  0.3826  0.4539
 3638SOL     OW22546   1.923   3.768   4.881  0.6206 -0.4235 -0.1118
 3638SOL    HW122547   1.931   3.862   4.896 -1.6260 -0.3500  0.7250
 3638SOL    HW222548   1.861   3.764   4.808  0.5857 -2.3137  0.0258
 3639SOL     OW22549   3.432   2.755   8.354  0.5306  0.0475 -0.4300
 3639SOL    HW122550   3.365   2.815   8.321 -0.7153 -0.5878  0.9293
 3639SOL    HW222551   3.496   2.817   8.388 -1.1942  0.5310  1.9630
 3640SOL     OW22552   1.065   2.965   8.032  0.0860  0.0650  0.4173
 3640SOL    HW122553   1.048   2.873   8.012 -0.7390  0.8891 -2.6653
 3640SOL    HW222554   1.027   2.969   8.120 -0.1017 -0.2973  0.3495
 3641SOL     OW22555   1.641   3.975  13.635  0.3661  0.1911  0.3895
 3641SOL    HW122556   1.607   3.930  13.557 -1.6700 -0.5071  1.6684
 3641SOL    HW222557   1.556   3.966  13.679  0.7440 -0.3038  1.0211
 3642SOL     OW22558   0.493   3.410   7.459 -0.0529 -0.5825 -0.2830
 3642SOL    HW122559   0.544   3.373   7.388 -0.0827  0.8324 -1.0463
 3642SOL    HW222560   0.553   3.433   7.530  1.2051 -2.7453 -0.6739
 3643SOL     OW22561   0.482   0.841  12.265 -0.6041 -0.5664  0.3416
 3643SOL    HW122562   0.576   0.825  12.258 -0.3752  0.6955  0.4195
 3643SOL    HW222563   0.455   0.784  12.337 -2.9908  0.7881  0.5436
 3644SOL     OW22564   4.383   3.387   2.201 -0.4322  0.5206  0.0996
 3644SOL    HW122565   4.302   3.358   2.245  0.9801 -1.3591  1.4755
 3644SOL    HW222566   4.400   3.314   2.141 -1.3407  1.8508 -1.7861
 3645SOL     OW22567   1.860   4.493   8.112  0.4847 -0.4710 -0.0153
 3645SOL    HW122568   1.819   4.433   8.050 -0.4618  1.8069 -1.5822
 3645SOL    HW222569   1.934   4.524   8.059  0.9435 -0.8618  0.3941
 3646SOL     OW22570   1.584   3.917   8.384  0.3132  0.2031  0.4071
 3646SOL    HW122571   1.673   3.888   8.402  0.7087  0.9115 -0.4003
 3646SOL    HW222572   1.602   4.009   8.364  0.5098  0.5393  2.1432
 3647SOL     OW22573   0.324   3.209   9.229 -0.2741 -0.2750  0.5907
 3647SOL    HW122574   0.271   3.224   9.308 -1.2929  1.1152 -0.3464
 3647SOL    HW222575   0.297   3.284   9.175 -0.3484  0.9230  2.2963
 3648SOL     OW22576   2.314   0.855  17.628  0.2246  0.3957 -0.4290
 3648SOL    HW122577   2.285   0.831  17.539  0.4424 -0.7398 -0.1898
 3648SOL    HW222578   2.279   0.783  17.680  1.7175  0.6236  0.8716
 3649SOL     OW22579   3.836   0.360   9.566  0.2251  0.2511  0.2742
 3649SOL    HW122580   3.931   0.354   9.575  0.3675  1.8199 -0.2184
 3649SOL    HW222581   3.811   0.268   9.581 -1.2294  0.8699  1.6797
 3650SOL     OW22582   0.295   1.847  11.033  0.1664  0.3137 -0.1775
 3650SOL    HW122583   0.239   1.814  10.963 -0.7362 -0.2668  0.8114
 3650SOL    HW222584   0.282   1.941  11.026  1.8027  0.4165 -1.5630
 3651SOL     OW22585   2.068   2.663   5.536  0.5413  0.2152  0.4239
 3651SOL    HW122586   2.058   2.751   5.572 -0.3660  0.6259 -0.8373
 3651SOL    HW222587   2.076   2.610   5.615  3.1127  0.7400  0.5066
 3652SOL     OW22588   0.404   2.702   7.170  0.2050 -0.1488 -0.9087
 3652SOL    HW122589   0.462   2.626   7.165 -1.0728 -1.1504 -0.6559
 3652SOL    HW222590   0.396   2.719   7.264 -0.9136  0.5803 -1.1406
 3653SOL     OW22591   3.639   0.978   9.414 -0.3744  0.3433 -0.2027
 3653SOL    HW122592   3.664   1.071   9.416  1.6771 -0.2199  0.8893
 3653SOL    HW222593   3.702   0.942   9.476 -0.4735  1.1180  0.3433
 3654SOL     OW22594   0.548   1.001   4.546  0.1063 -0.3191  0.6762
 3654SOL    HW122595   0.529   1.029   4.635  1.7660  0.7837  0.6895
 3654SOL    HW222596   0.458   0.993   4.513  0.7437 -2.9307 -0.4459
 3655SOL     OW22597   3.897   2.643   9.082 -0.0325  0.2759 -0.3504
 3655SOL    HW122598   3.933   2.619   8.997  1.0145  0.5180  0.0211
 3655SOL    HW222599   3.870   2.556   9.110  0.9199  0.7799  2.1534
 3656SOL     OW22600   3.166   0.532   5.387 -0.1424  0.2269 -0.2863
 3656SOL    HW122601   3.141   0.505   5.299  0.3351 -1.5266  0.1261
 3656SOL    HW222602   3.135   0.623   5.381 -0.2544  0.1914 -0.2473
 3657SOL     OW22603   0.733   3.019   9.626 -0.0478  0.0002  0.2564
 3657SOL    HW122604   0.800   3.083   9.601 -0.9171  1.1530  0.8939
 3657SOL    HW222605   0.783   2.973   9.693 -0.5199  0.6064  1.0344
 3658SOL     OW22606   0.528   1.103   4.216 -0.0931 -0.4939 -0.0346
 3658SOL    HW122607   0.617   1.138   4.220  0.9181 -2.7955 -2.4505
 3658SOL    HW222608   0.475   1.177   4.244 -0.0977  0.5451 -2.8008
 3659SOL     OW22609   1.571   0.039   9.435 -0.2293 -0.3974  0.0610
 3659SOL    HW122610   1.476   0.049   9.423 -0.0661  0.0738 -0.8316
 3659SOL    HW222611   1.573   4.705   9.498 -0.4401  0.0480  0.5772
 3660SOL     OW22612   3.927   1.743   1.737  0.6075 -0.2298  0.1585
 3660SOL    HW122613   3.946   1.729   1.829  1.0881  1.7571  0.3527
 3660SOL    HW222614   3.839   1.777   1.752  0.4150 -1.1856  1.2488
 3661SOL     OW22615   1.328   0.859  14.559 -0.0811 -0.4342 -0.0055
 3661SOL    HW122616   1.401   0.861  14.621  0.5956 -2.2384 -0.7355
 3661SOL    HW222617   1.255   0.831  14.614 -1.6202  0.0840 -1.8056
 3662SOL     OW22618   1.402   3.297   7.992 -0.0645  0.1449  0.1643
 3662SOL    HW122619   1.483   3.301   7.941  0.0053  2.5474  0.4517
 3662SOL    HW222620   1.362   3.238   7.928  0.0310 -1.8284  1.9211
 3663SOL     OW22621   0.633   1.924   8.915  0.0266  0.6210 -0.0199
 3663SOL    HW122622   0.569   1.908   8.984 -2.0535  1.5092 -1.7488
 3663SOL    HW222623   0.616   1.844   8.865 -1.0403  1.1788 -0.5384
 3664SOL     OW22624   2.614   2.098  14.134 -0.2397  0.7154 -0.8768
 3664SOL    HW122625   2.567   2.036  14.079  0.3401 -0.6775  0.1916
 3664SOL    HW222626   2.702   2.065  14.116 -1.0555 -0.6699 -2.3092
 3665SOL     OW22627   3.910   0.321   7.007 -0.1939 -0.5405  0.2442
 3665SOL    HW122628   3.932   0.360   7.091  1.1881 -0.4023 -0.1825
 3665SOL    HW222629   3.928   0.389   6.941  2.6686 -1.8409 -0.3199
 3666SOL     OW22630   1.428   2.714   6.548 -0.0367  0.0340  0.2980
 3666SOL    HW122631   1.517   2.705   6.580  1.2629  3.5323 -2.3335
 3666SOL    HW222632   1.405   2.628   6.510  1.1039 -0.3042  0.3806
 3667SOL     OW22633   3.259   1.199   2.041  0.0393  0.0761  0.4192
 3667SOL    HW122634   3.226   1.183   2.130 -0.4056  1.4112  0.4953
 3667SOL    HW222635   3.343   1.245   2.047 -0.0124  0.1965  0.1988
 3668SOL     OW22636   4.473   2.802   4.336  0.8041 -0.7910 -0.5515
 3668SOL    HW122637   4.415   2.751   4.280 -1.7949  0.9008  0.6204
 3668SOL    HW222638   4.513   2.865   4.276 -1.5546  2.4534  1.2463
 3669SOL     OW22639   2.950   0.144  13.332  0.2831  1.0204 -0.1129
 3669SOL    HW122640   2.974   0.213  13.270 -0.5690  0.4916 -1.0387
 3669SOL    HW222641   2.897   0.082  13.281 -0.4829  0.6735  1.1048
 3670SOL     OW22642   2.950   1.503   8.463  0.1239  0.1919  0.0033
 3670SOL    HW122643   2.909   1.589   8.455 -0.0745 -0.2204 -3.4806
 3670SOL    HW222644   2.880   1.462   8.514  1.5583 -0.2506  1.6172
 3671SOL     OW22645   2.561   4.024  11.434  0.9478 -0.2487 -0.2386
 3671SOL    HW122646   2.572   3.964  11.361  1.3616 -0.6570  0.1545
 3671SOL    HW222647   2.631   4.085  11.414  1.8260 -1.3199 -0.4175
 3672SOL     OW22648   0.594   3.501   0.571 -0.5334  0.0520 -0.0609
 3672SOL    HW122649   0.626   3.505   0.662 -2.7090 -1.2497  0.7583
 3672SOL    HW222650   0.500   3.495   0.588 -1.0192  2.5713 -1.8792
 3673SOL     OW22651   4.413   2.768   8.315 -0.2043  0.3699 -0.3930
 3673SOL    HW122652   4.396   2.709   8.241 -1.0450 -2.1638  1.8115
 3673SOL    HW222653   4.493   2.809   8.284 -0.1103 -0.9543 -1.9464
 3674SOL     OW22654   0.191   4.057  15.912 -0.4119  0.1127 -0.2098
 3674SOL    HW122655   0.174   4.151  15.903  0.8762  0.2703 -1.0354
 3674SOL    HW222656   0.116   4.022  15.863  0.5670  0.1726 -1.7766
 3675SOL     OW22657   2.925   1.216  15.179 -0.0874 -0.6954  0.4854
 3675SOL    HW122658   2.962   1.141  15.134 -0.5970  0.2202 -1.4418
 3675SOL    HW222659   2.860   1.174  15.235 -0.5457  0.6630  0.9786
 3676SOL     OW22660   0.607   0.023   1.086  0.3313 -0.2861  0.1470
 3676SOL    HW122661   0.552   4.683   1.082 -0.8379  0.5263  0.6974
 3676SOL    HW222662   0.550   0.083   1.039  0.6107  0.1286  0.3340
 3677SOL     OW22663   4.517   3.991  17.567 -0.3718 -0.4703 -0.0393
 3677SOL    HW122664   4.445   3.992  17.630 -1.6920  1.4299 -1.5847
 3677SOL    HW222665   4.516   4.081  17.534  1.8650 -1.5875 -3.1637
 3678SOL     OW22666   1.900   2.732   8.571 -0.1516 -0.3923  0.2560
 3678SOL    HW122667   1.878   2.783   8.649 -0.4921 -0.2742  0.0797
 3678SOL    HW222668   1.946   2.660   8.614 -0.3490  0.2444  1.5183
 3679SOL     OW22669   2.605   4.417   7.174 -0.4064 -0.4748 -0.4373
 3679SOL    HW122670   2.555   4.490   7.138  0.8767 -1.3205 -3.9082
 3679SOL    HW222671   2.699   4.430   7.161 -0.6025  1.1966 -0.0795
 3680SOL     OW22672   0.773   0.434   9.478  0.4693 -0.2245  0.2115
 3680SOL    HW122673   0.846   0.373   9.485  0.8856  0.1832 -0.6660
 3680SOL    HW222674   0.790   0.498   9.547  0.3933 -0.3268  0.3256
 3681SOL     OW22675   1.340   2.243  11.122  0.1254  0.5564 -0.1596
 3681SOL    HW122676   1.433   2.236  11.100  0.0792  0.7329 -0.4057
 3681SOL    HW222677   1.334   2.308  11.191  1.3665 -0.9438  1.3755
 3682SOL     OW22678   2.076   3.662   8.874 -0.2964  0.4811  0.2170
 3682SOL    HW122679   2.042   3.737   8.923 -0.4913 -0.6456  1.8031
 3682SOL    HW222680   2.106   3.705   8.794  1.7132  1.7363  1.6275
 3683SOL     OW22681   0.506   1.448   8.416  0.3467 -0.0907 -0.4455
 3683SOL    HW122682   0.533   1.522   8.469  1.6296 -0.5353 -0.4729
 3683SOL    HW222683   0.552   1.374   8.456  2.0010  0.9442 -0.4625
 3684SOL     OW22684   0.212   1.796   4.269  0.6536 -0.0598 -0.2728
 3684SOL    HW122685   0.279   1.856   4.302  0.3666  0.1622 -0.0954
 3684SOL    HW222686   0.140   1.827   4.324  0.9810 -1.2238  0.8372
 3685SOL     OW22687   4.093   0.579   6.056 -0.1213 -0.0510 -0.2192
 3685SOL    HW122688   4.074   0.658   6.107  0.8145 -0.3951  0.6580
 3685SOL    HW222689   4.066   0.613   5.970  1.3078  0.0243 -0.6407
 3686SOL     OW22690   2.760   0.964   8.829  0.5203 -0.0427  0.0246
 3686SOL    HW122691   2.743   0.973   8.923  0.7668  0.2558  0.0423
 3686SOL    HW222692   2.717   0.882   8.809 -0.1749  0.0187  1.2163
 3687SOL     OW22693   1.493   2.536  11.811 -0.4678  0.2288 -0.3680
 3687SOL    HW122694   1.542   2.454  11.810 -1.4710 -0.3655 -0.0603
 3687SOL    HW222695   1.486   2.560  11.719 -0.4415  1.2168 -0.1166
 3688SOL     OW22696   2.753   1.436   6.142  0.5537  0.1835  0.4701
 3688SOL    HW122697   2.739   1.445   6.237  0.6907  1.0928  0.4079
 3688SOL    HW222698   2.718   1.518   6.108  3.0463  0.4483 -1.4270
 3689SOL     OW22699   1.769   0.092   3.245  0.6073 -0.1113  0.3819
 3689SOL    HW122700   1.815   0.017   3.282  0.3347  0.5986  2.1441
 3689SOL    HW222701   1.710   0.051   3.181  3.1805 -1.0157 -1.3942
 3690SOL     OW22702   4.515   4.383   1.729  0.1988  0.7045  0.6495
 3690SOL    HW122703   4.451   4.426   1.672  0.0416  0.0389  0.3290
 3690SOL    HW222704   4.534   4.440   1.804 -2.3507  0.6619  1.3454
 3691SOL     OW22705   1.917   0.515   7.198 -0.0478 -0.0788 -0.1839
 3691SOL    HW122706   1.876   0.442   7.245 -1.5899  0.3199 -0.9202
 3691SOL    HW222707   1.975   0.474   7.134 -1.3057  1.3105 -2.2111
 3692SOL     OW22708   0.149   1.178   4.332  0.5057  0.3282 -0.0129
 3692SOL    HW122709   0.198   1.150   4.409  2.1162  0.5076 -0.9795
 3692SOL    HW222710   0.059   1.144   4.338  0.0213  1.8821  1.7745
 3693SOL     OW22711   2.456   1.223   7.346  0.3843  0.3025  0.0558
 3693SOL    HW122712   2.385   1.170   7.310 -0.5974  1.7489 -0.0937
 3693SOL    HW222713   2.534   1.172   7.323  0.8404  1.0328 -0.0232
 3694SOL     OW22714   1.433   1.664   8.060 -0.0950 -0.1406  0.1021
 3694SOL    HW122715   1.518   1.687   8.021 -0.5996  0.2895 -0.7638
 3694SOL    HW222716   1.392   1.746   8.032  1.7378  0.4591 -0.8920
 3695SOL     OW22717   2.054   2.887  13.155 -0.2495 -0.3328  0.2076
 3695SOL    HW122718   2.101   2.936  13.088  1.1911 -1.6811  0.2501
 3695SOL    HW222719   2.008   2.820  13.104  1.7078 -0.9916 -0.6746
 3696SOL     OW22720   3.171   0.251   5.417 -0.2060 -0.0433 -0.2946
 3696SOL    HW122721   3.174   0.181   5.351  0.5140  1.8487 -2.2644
 3696SOL    HW222722   3.247   0.302   5.390  0.3374 -2.1091 -2.6347
 3697SOL     OW22723   2.799   0.235   4.543 -0.0009  0.9935  0.2710
 3697SOL    HW122724   2.844   0.196   4.618  1.7962  1.0588 -0.7833
 3697SOL    HW222725   2.784   0.319   4.587  1.8092  0.3783  2.0826
 3698SOL     OW22726   1.773   2.055  16.708 -0.1833  0.5376 -0.3361
 3698SOL    HW122727   1.821   1.976  16.731  0.8015  1.1537 -0.2609
 3698SOL    HW222728   1.758   2.050  16.614 -0.5098 -3.5477 -0.0630
 3699SOL     OW22729   0.538   0.556   1.178 -0.3491  0.0356  0.2230
 3699SOL    HW122730   0.557   0.603   1.259  0.7277 -1.4286  0.8207
 3699SOL    HW222731   0.588   0.474   1.182 -1.1121 -0.5603 -2.3217
 3700SOL     OW22732   2.390   0.018   4.482 -0.0521  0.0924 -0.5404
 3700SOL    HW122733   2.403   0.011   4.576  0.1095  0.2990 -0.5491
 3700SOL    HW222734   2.301   0.052   4.474  0.4928  1.0812 -2.4420
 3701SOL     OW22735   4.100   1.598   2.993 -0.0684  0.1174 -0.1238
 3701SOL    HW122736   4.053   1.526   3.034 -3.7312  1.2425 -2.3752
 3701SOL    HW222737   4.182   1.552   2.975  0.2536  0.9318 -0.7928
 3702SOL     OW22738   4.089   0.065   3.805 -0.1443  0.0682 -0.3880
 3702SOL    HW122739   4.006   0.112   3.817 -0.1576 -0.8718  3.1993
 3702SOL    HW222740   4.084   0.035   3.714  0.0581 -0.1857 -0.3143
 3703SOL     OW22741   0.572   0.441   5.379 -0.4296  0.3423  0.4459
 3703SOL    HW122742   0.486   0.416   5.413 -0.5854 -1.5867 -1.3959
 3703SOL    HW222743   0.621   0.457   5.460 -0.4175 -0.6490  0.6325
 3704SOL     OW22744   0.881   0.748   9.657  0.3740 -0.1229 -0.1699
 3704SOL    HW122745   0.915   0.724   9.743  1.7717 -0.0773 -0.7201
 3704SOL    HW222746   0.833   0.827   9.680  0.1589 -0.7407  1.5034
 3705SOL     OW22747   2.729   4.128   4.947  0.6685  0.0438  0.0761
 3705SOL    HW122748   2.686   4.161   5.027  0.6660  1.0723 -0.3515
 3705SOL    HW222749   2.698   4.183   4.876  0.0492 -0.5144 -0.0880
 3706SOL     OW22750   2.929   3.666   8.676  0.8602  0.8314  0.1073
 3706SOL    HW122751   2.850   3.711   8.645  1.2088  1.7584  0.5493
 3706SOL    HW222752   2.969   3.624   8.600  0.7864 -0.7192  0.9267
 3707SOL     OW22753   0.959   3.905   7.799  0.4352  0.1972  0.3835
 3707SOL    HW122754   1.033   3.891   7.857 -0.0412 -0.2992  0.8751
 3707SOL    HW222755   0.907   3.971   7.845  1.6653  1.4593 -0.0467
 3708SOL     OW22756   4.466   0.655   3.300 -0.3681  0.2095 -0.3744
 3708SOL    HW122757   4.418   0.593   3.246  0.5733 -0.0480 -0.9240
 3708SOL    HW222758   4.522   0.599   3.356 -1.6611  0.5678  1.2756
 3709SOL     OW22759   4.159   0.193  11.435 -0.4228 -0.1808  0.7614
 3709SOL    HW122760   4.089   0.155  11.488 -0.1096  0.1497  1.4142
 3709SOL    HW222761   4.244   0.163  11.468 -0.1649 -1.4469 -1.0569
 3710SOL     OW22762   0.464   2.192   2.308 -0.5236 -0.3044  0.2641
 3710SOL    HW122763   0.408   2.223   2.379  0.4989  0.1523  0.8674
 3710SOL    HW222764   0.508   2.268   2.270  0.4009 -0.4813  0.9696
 3711SOL     OW22765   4.447   3.770  10.202  0.5214 -0.4066 -0.3211
 3711SOL    HW122766   4.410   3.686  10.174  2.5563 -0.8380 -1.7705
 3711SOL    HW222767   4.419   3.772  10.293 -3.4212 -2.6409 -1.4783
 3712SOL     OW22768   0.363   2.846   3.166  0.3984 -0.5216 -0.5466
 3712SOL    HW122769   0.384   2.932   3.203  0.6276 -1.6722  2.0026
 3712SOL    HW222770   0.418   2.856   3.089  1.9387 -0.2383  0.5913
 3713SOL     OW22771   3.162   0.320   7.991 -0.2315  0.6001 -0.3906
 3713SOL    HW122772   3.139   0.413   7.994 -1.4346  0.3506 -1.9387
 3713SOL    HW222773   3.248   0.319   8.033 -0.2379 -0.0411 -0.3875
 3714SOL     OW22774   4.309   1.702   4.447  0.3602 -1.0930 -0.3415
 3714SOL    HW122775   4.321   1.791   4.478  1.0430 -1.0530 -0.7243
 3714SOL    HW222776   4.383   1.684   4.389  0.2763  1.4647 -1.2369
 3715SOL     OW22777   2.399   0.895  15.483 -0.4303 -0.2918  0.3918
 3715SOL    HW122778   2.394   0.800  15.490 -0.9900 -0.4299 -1.8738
 3715SOL    HW222779   2.425   0.909  15.574  2.5215  1.4529 -0.7120
 3716SOL     OW22780   2.823   0.498   7.879 -0.2640  0.3136 -0.0091
 3716SOL    HW122781   2.748   0.555   7.900 -1.5497 -0.0565 -3.6078
 3716SOL    HW222782   2.787   0.414   7.907  0.7979  0.3590  1.4927
 3717SOL     OW22783   1.507   3.875  11.051  0.2829  0.1770  0.2905
 3717SOL    HW122784   1.547   3.871  10.964 -0.5758  0.2083 -0.1045
 3717SOL    HW222785   1.415   3.895  11.032  0.1567 -0.9744 -0.3207
 3718SOL     OW22786   2.471   2.179   1.442  0.0056  0.3485  0.1245
 3718SOL    HW122787   2.413   2.213   1.511  0.0314 -0.5187  0.5796
 3718SOL    HW222788   2.431   2.092   1.435 -2.7354  1.6471 -0.3515
 3719SOL     OW22789   0.096   1.543   9.244 -0.2186  0.3883 -0.4600
 3719SOL    HW122790   0.133   1.610   9.186  2.0247 -0.6849 -0.2777
 3719SOL    HW222791   0.109   1.582   9.331  3.3872 -2.3226  0.2469
 3720SOL     OW22792   2.927   4.251  12.381 -0.4600 -0.2264  0.6456
 3720SOL    HW122793   2.886   4.222  12.462  1.6186 -2.2853  0.9131
 3720SOL    HW222794   2.995   4.304  12.423 -0.5930 -0.3077  0.9590
 3721SOL     OW22795   2.797   3.025   8.338  0.4932 -0.2875  0.7090
 3721SOL    HW122796   2.837   3.108   8.311 -1.3885  0.4652  0.2488
 3721SOL    HW222797   2.845   2.988   8.413  3.6187  0.6087 -0.8510
 3722SOL     OW22798   1.972   0.210   2.095  0.4383 -0.1283 -0.4336
 3722SOL    HW122799   1.946   0.213   2.187  1.6598 -0.4054 -0.0925
 3722SOL    HW222800   1.971   0.303   2.072  1.4052 -0.0617 -0.1972
 3723SOL     OW22801   2.720   1.490   3.425  0.6230 -0.6678 -0.0512
 3723SOL    HW122802   2.666   1.490   3.504 -0.1872  1.5164 -0.6016
 3723SOL    HW222803   2.649   1.467   3.366  1.2282 -1.8948 -0.3103
 3724SOL     OW22804   0.292   0.618   8.058  0.2604  0.1384  0.1585
 3724SOL    HW122805   0.251   0.587   7.978  2.0654 -0.2347 -0.6234
 3724SOL    HW222806   0.371   0.564   8.065 -0.6185 -1.2476 -0.5928
 3725SOL     OW22807   0.068   1.752   3.791  0.6919  0.0080  0.0089
 3725SOL    HW122808   0.033   1.694   3.724  0.5110 -3.1782  2.8995
 3725SOL    HW222809   0.130   1.793   3.731  0.5723  0.0433 -0.0913
 3726SOL     OW22810   4.578   1.348   7.310 -0.1799  0.0121 -0.4384
 3726SOL    HW122811   4.545   1.295   7.237  0.7265 -1.8197  0.4916
 3726SOL    HW222812   4.594   1.284   7.379  0.6675 -0.6405 -1.2499
 3727SOL     OW22813   4.523   4.692   7.238 -0.1096  0.1222  0.2945
 3727SOL    HW122814   4.474   4.688   7.155 -0.0860  1.7811  0.1983
 3727SOL    HW222815   4.608   4.666   7.205 -0.6667 -1.0367 -0.2174
 3728SOL     OW22816   3.402   2.016   4.059 -0.5240  0.0452  0.0815
 3728SOL    HW122817   3.360   1.933   4.035 -1.1736  0.7332 -1.1918
 3728SOL    HW222818   3.489   2.000   4.021 -1.4988 -1.2563 -1.6344
 3729SOL     OW22819   1.763   2.812   3.624  0.9427 -0.4985  0.0767
 3729SOL    HW122820   1.695   2.746   3.607  0.8027 -0.4573  0.4730
 3729SOL    HW222821   1.841   2.761   3.602 -0.4418 -3.0651  1.0038
 3730SOL     OW22822   0.600   2.833   7.717 -0.4651  1.2116 -0.4072
 3730SOL    HW122823   0.668   2.862   7.778  1.6758 -2.2447 -1.1161
 3730SOL    HW222824   0.621   2.741   7.700 -0.5064  1.1276  0.0138
 3731SOL     OW22825   3.595   1.680  16.910 -0.3599 -0.3312  0.5172
 3731SOL    HW122826   3.614   1.668  16.817  2.3381  1.7196  0.7948
 3731SOL    HW222827   3.683   1.689  16.946 -0.0782 -0.7180 -0.0689
 3732SOL     OW22828   3.781   3.777   3.013 -0.5933  0.4939 -0.2552
 3732SOL    HW122829   3.726   3.705   3.044  1.3905 -2.2923 -3.0845
 3732SOL    HW222830   3.850   3.732   2.964  0.5739  1.3728  0.5914
 3733SOL     OW22831   0.255   4.526  15.249  0.0176 -0.4474 -0.1254
 3733SOL    HW122832   0.334   4.567  15.286  0.6201 -0.0669 -1.8451
 3733SOL    HW222833   0.221   4.494  15.333  0.5650 -0.3379  0.1392
 3734SOL     OW22834   1.948   0.542   2.997 -0.4635 -0.6574  0.7698
 3734SOL    HW122835   1.984   0.507   2.916 -1.0747 -1.6520  0.9304
 3734SOL    HW222836   1.883   0.472   3.002 -0.2702 -0.9538 -1.0085
 3735SOL     OW22837   2.533   1.051  13.301  0.8565 -0.5516 -0.1189
 3735SOL    HW122838   2.555   0.966  13.341 -1.2474 -0.2555  1.6970
 3735SOL    HW222839   2.439   1.045  13.287  1.1432  0.6629 -2.4377
 3736SOL     OW22840   0.205   2.588   3.052  0.1159  0.2667 -0.3563
 3736SOL    HW122841   0.135   2.525   3.070  1.1377 -0.8232 -0.1713
 3736SOL    HW222842   0.238   2.601   3.141  1.5271  0.8716 -0.9699
 3737SOL     OW22843   0.760   2.073  12.089  0.0139  0.2317 -0.2340
 3737SOL    HW122844   0.722   2.092  12.004  2.3377 -2.2523 -1.8116
 3737SOL    HW222845   0.687   2.031  12.134 -1.8572  1.3769 -2.1943
 3738SOL     OW22846   1.103   1.154   7.259 -0.4251  0.1275 -0.1238
 3738SOL    HW122847   1.161   1.109   7.320 -0.3488 -0.4474 -0.6233
 3738SOL    HW222848   1.129   1.114   7.176  1.1075 -0.7855  0.8075
 3739SOL     OW22849   1.985   0.601   1.016 -0.1331  0.2293 -0.1542
 3739SOL    HW122850   2.013   0.510   1.029  1.0879  0.5295 -0.7617
 3739SOL    HW222851   1.892   0.608   1.037 -0.1119 -2.3522  0.9068
 3740SOL     OW22852   4.145   2.790   3.948 -0.2447  0.1025 -0.1316
 3740SOL    HW122853   4.165   2.739   4.027  0.5725 -0.0671 -0.4480
 3740SOL    HW222854   4.213   2.765   3.885 -0.1266 -0.1819  0.1061
 3741SOL     OW22855   1.197   3.958   6.594 -0.2965  0.1696  0.1029
 3741SOL    HW122856   1.138   3.980   6.666  0.1851 -0.2380  0.6173
 3741SOL    HW222857   1.137   3.943   6.520 -0.0326  0.2371 -0.1262
 3742SOL     OW22858   4.274   0.999   8.344 -0.2857  0.0474 -0.1291
 3742SOL    HW122859   4.245   1.009   8.253 -0.2674  0.1747 -0.1199
 3742SOL    HW222860   4.193   0.969   8.386 -1.5159  0.9669 -1.8345
 3743SOL     OW22861   3.006   0.568   9.709 -0.3931 -0.4230 -0.4362
 3743SOL    HW122862   2.966   0.554   9.623  2.2382  0.9238 -1.8900
 3743SOL    HW222863   3.060   0.646   9.699 -0.3625 -0.7736 -3.0602
 3744SOL     OW22864   2.455   2.940   6.603  0.2220  0.4050 -0.2377
 3744SOL    HW122865   2.468   3.013   6.664 -0.8327  0.8554 -0.5465
 3744SOL    HW222866   2.534   2.891   6.623  0.4850  0.6574 -0.6524
 3745SOL     OW22867   2.650   1.626  15.385  0.3240  0.3522 -0.0838
 3745SOL    HW122868   2.743   1.647  15.392 -0.6095  3.7722  2.5967
 3745SOL    HW222869   2.616   1.715  15.401 -1.1454 -0.3677  0.7677
 3746SOL     OW22870   4.365   4.113   7.281 -0.1587  0.1738  0.6234
 3746SOL    HW122871   4.428   4.185   7.269 -0.2874 -0.2348 -2.5180
 3746SOL    HW222872   4.385   4.079   7.368  1.2880 -1.3669 -0.3276
 3747SOL     OW22873   2.563   1.687  17.268 -0.4130  0.4243 -0.5680
 3747SOL    HW122874   2.488   1.739  17.298 -3.0844 -4.8257  1.9007
 3747SOL    HW222875   2.530   1.632  17.196 -0.3714 -2.7894  1.8576
 3748SOL     OW22876   0.430   0.267  11.420  0.1936 -0.4657  0.2509
 3748SOL    HW122877   0.366   0.337  11.415 -1.1893 -1.7993 -1.0591
 3748SOL    HW222878   0.393   0.205  11.357 -0.8818 -0.3085  0.7330
 3749SOL     OW22879   3.724   3.298   6.835  0.7505  0.3109 -0.1709
 3749SOL    HW122880   3.805   3.250   6.818  1.0378  1.2903 -1.5728
 3749SOL    HW222881   3.697   3.272   6.924  1.8422 -0.2089  0.0054
 3750SOL     OW22882   4.642   1.603   6.668  0.2396 -0.3334 -0.6164
 3750SOL    HW122883   4.554   1.584   6.637  0.5267  1.0070 -2.2229
 3750SOL    HW222884   4.690   1.626   6.588  2.3174  2.7069  1.5129
 3751SOL     OW22885   3.541   4.369  13.412 -0.0318 -0.1629  0.0650
 3751SOL    HW122886   3.536   4.348  13.318 -1.1759  0.1802  0.0390
 3751SOL    HW222887   3.635   4.373  13.428 -0.2032 -0.6081  1.1885
 3752SOL     OW22888   4.392   4.257   8.159 -0.5003  0.0419 -0.2538
 3752SOL    HW122889   4.315   4.314   8.171 -0.4348  0.0665  0.0404
 3752SOL    HW222890   4.387   4.188   8.224 -2.8016  0.4594  0.0347
 3753SOL     OW22891   1.082   4.186   6.819 -0.3667 -0.3432  0.0648
 3753SOL    HW122892   1.057   4.094   6.825  1.5424 -0.8616  0.1453
 3753SOL    HW222893   1.109   4.198   6.910 -0.1228 -3.3941  0.3763
 3754SOL     OW22894   1.159   0.908  15.673 -0.2208 -0.2872  0.1792
 3754SOL    HW122895   1.175   0.948  15.588  0.0980 -0.2208  0.2705
 3754SOL    HW222896   1.064   0.903  15.675 -0.4168  2.7534 -2.7615
 3755SOL     OW22897   1.931   3.084   7.083  0.2242 -0.4402 -0.2330
 3755SOL    HW122898   1.992   3.038   7.141 -1.0985 -0.0382  1.4630
 3755SOL    HW222899   1.881   3.133   7.147 -0.2419 -1.1451 -0.0574
 3756SOL     OW22900   1.301   1.625   5.225 -0.1415 -0.1412 -0.1545
 3756SOL    HW122901   1.238   1.697   5.221 -0.7517 -0.7023 -0.5446
 3756SOL    HW222902   1.327   1.629   5.317  1.4308  1.4023 -0.6667
 3757SOL     OW22903   2.778   1.538   4.475 -0.1086  0.0698 -0.2719
 3757SOL    HW122904   2.870   1.562   4.488 -0.5973  0.9280  1.6061
 3757SOL    HW222905   2.773   1.471   4.543  1.4803 -1.3893 -1.5901
 3758SOL     OW22906   2.929   1.058  11.824  0.0825 -0.1309  0.5998
 3758SOL    HW122907   2.935   1.060  11.729  1.0499 -0.9930  0.6319
 3758SOL    HW222908   2.991   0.993  11.857  0.6895  1.3596  2.4407
 3759SOL     OW22909   0.824   4.271   7.709 -0.1326  0.2698 -0.2463
 3759SOL    HW122910   0.860   4.259   7.622  1.7072  1.5156  0.3401
 3759SOL    HW222911   0.859   4.360   7.715  0.4245  0.1015 -1.0146
 3760SOL     OW22912   2.685   3.384   1.873 -0.1690 -0.6261  0.3064
 3760SOL    HW122913   2.614   3.320   1.868 -0.7783 -0.0153  1.1791
 3760SOL    HW222914   2.703   3.400   1.780  0.2067  2.7367  0.9520
 3761SOL     OW22915   4.736   2.513   3.551  0.1020  0.1287  0.1363
 3761SOL    HW122916   0.040   2.473   3.474  0.7670  0.3093  0.4006
 3761SOL    HW222917   4.651   2.473   3.536 -1.2541  2.6612  1.1552
 3762SOL     OW22918   2.745   3.625  16.122 -0.8538  0.2040 -0.7068
 3762SOL    HW122919   2.728   3.568  16.197  1.3640  1.9743  1.1746
 3762SOL    HW222920   2.787   3.701  16.162  1.0728 -0.4279 -1.4858
 3763SOL     OW22921   0.044   0.914   9.104  0.3891 -0.0305 -0.1786
 3763SOL    HW122922   0.122   0.951   9.145  0.9357 -1.1889 -0.1782
 3763SOL    HW222923   4.734   0.895   9.185  0.3380 -1.4579 -0.5446
 3764SOL     OW22924   4.008   1.997   0.694 -0.4538  0.3719 -0.1775
 3764SOL    HW122925   3.969   2.073   0.737 -2.0197  0.0702 -1.0621
 3764SOL    HW222926   4.103   2.007   0.703 -0.0563 -0.8828 -2.8163
 3765SOL     OW22927   1.365   2.004   6.209  0.3028  0.7941  0.0707
 3765SOL    HW122928   1.401   1.921   6.179 -1.0848 -0.7084  2.5404
 3765SOL    HW222929   1.386   1.997   6.302 -0.1510 -0.8165  0.0515
 3766SOL     OW22930   3.336   3.964   3.245  0.3381  0.0191  0.2977
 3766SOL    HW122931   3.400   3.922   3.188  0.3425 -0.6265  0.7769
 3766SOL    HW222932   3.262   3.913   3.211  1.6638 -0.2523 -2.1442
 3767SOL     OW22933   4.676   0.974   6.007  0.2989 -0.1729 -0.8456
 3767SOL    HW122934   4.670   1.069   6.001  0.9759 -0.2482 -2.8511
 3767SOL    HW222935   4.731   0.956   5.931  1.9572  0.1377  0.2786
 3768SOL     OW22936   2.978   0.139   2.976  0.0452  0.1493 -0.4963
 3768SOL    HW122937   3.026   0.222   2.971  0.3772 -0.0224 -0.1635
 3768SOL    HW222938   2.988   0.116   3.069  0.7080  2.0533 -0.1046
 3769SOL     OW22939   2.400   0.239   1.365  0.0328  0.3690  0.5085
 3769SOL    HW122940   2.483   0.249   1.319 -0.0987 -0.6389  0.0531
 3769SOL    HW222941   2.428   0.206   1.450 -1.5494 -1.5929  0.2541
 3770SOL     OW22942   2.556   3.138   8.170  0.2735 -0.3059 -0.0314
 3770SOL    HW122943   2.518   3.156   8.255 -0.1060 -2.1096  0.1718
 3770SOL    HW222944   2.631   3.086   8.200 -2.0576 -4.4838 -1.4248
 3771SOL     OW22945   0.499   0.685   4.656 -0.7540 -0.1764  0.1957
 3771SOL    HW122946   0.526   0.691   4.564 -1.3943 -1.5546 -0.0723
 3771SOL    HW222947   0.479   0.592   4.663  0.1416 -0.2957  1.1899
 3772SOL     OW22948   2.719   1.120   3.461  0.3700 -0.2519  0.3492
 3772SOL    HW122949   2.728   1.187   3.528 -0.6110  1.6411 -1.4238
 3772SOL    HW222950   2.702   1.045   3.518 -1.3584 -0.0287  0.1137
 3773SOL     OW22951   1.210   3.674   3.671  0.4771 -0.2942  0.3300
 3773SOL    HW122952   1.208   3.615   3.596 -2.4510 -1.0279  0.9938
 3773SOL    HW222953   1.126   3.670   3.717  0.7914  0.2425  0.9503
 3774SOL     OW22954   3.832   3.234   1.431  0.0819  0.5014 -0.0333
 3774SOL    HW122955   3.926   3.239   1.446  0.3669  2.2789 -2.3906
 3774SOL    HW222956   3.801   3.312   1.478  0.3812  1.5374 -1.5511
 3775SOL     OW22957   2.707   2.242   2.818 -0.2294  0.2279  0.3941
 3775SOL    HW122958   2.794   2.267   2.851  0.1094 -1.0275  0.4747
 3775SOL    HW222959   2.722   2.228   2.725  0.0984  1.1719  0.3059
 3776SOL     OW22960   3.677   1.743  10.446 -0.4095  0.2651  0.0225
 3776SOL    HW122961   3.658   1.814  10.507 -1.6531  0.2724 -0.3858
 3776SOL    HW222962   3.747   1.696  10.491 -1.1687  0.2900  1.2452
 3777SOL     OW22963   2.528   3.994   2.775  0.6550  0.0348  0.1139
 3777SOL    HW122964   2.585   3.920   2.796  1.2974  0.9394  1.5809
 3777SOL    HW222965   2.587   4.041   2.717 -0.0184 -0.7647 -1.2204
 3778SOL     OW22966   3.114   3.952   7.502 -0.0033 -0.2024  0.0555
 3778SOL    HW122967   3.149   4.012   7.436 -2.5002 -0.0854 -1.1776
 3778SOL    HW222968   3.058   4.014   7.549 -1.0837 -1.9173  1.0472
 3779SOL     OW22969   1.910   4.209   8.734 -0.6356 -0.9232 -0.1435
 3779SOL    HW122970   1.978   4.250   8.680 -0.8751 -0.3896 -0.0442
 3779SOL    HW222971   1.857   4.285   8.759 -1.3770 -1.9706  1.4279
 3780SOL     OW22972   0.457   2.595   1.596  0.2361  0.0890 -0.4394
 3780SOL    HW122973   0.385   2.620   1.654  0.5415 -0.9160  0.3641
 3780SOL    HW222974   0.453   2.672   1.539  1.3666  1.4111  1.2711
 3781SOL     OW22975   2.514   1.880  17.623 -0.2529 -0.4472 -0.1647
 3781SOL    HW122976   2.524   1.873  17.528 -0.1872 -0.0349 -0.1880
 3781SOL    HW222977   2.419   1.877  17.624 -0.3102  0.7764 -1.4959
 3782SOL     OW22978   0.336   2.694  10.886 -0.0682  0.5849 -0.2622
 3782SOL    HW122979   0.331   2.677  10.980  0.8189  2.0686  0.0499
 3782SOL    HW222980   0.330   2.605  10.851  0.4737  1.6991 -3.2550
 3783SOL     OW22981   2.390   0.813  12.370  0.1706 -0.4398 -0.5752
 3783SOL    HW122982   2.357   0.886  12.423 -1.1379 -2.3088  1.1746
 3783SOL    HW222983   2.454   0.775  12.431  0.0023  1.8359  1.0327
 3784SOL     OW22984   2.585   3.964   5.838  0.0774 -0.3354  0.3623
 3784SOL    HW122985   2.503   3.917   5.853  1.3679 -2.5360  0.5408
 3784SOL    HW222986   2.600   3.931   5.750 -0.2368  1.9100 -0.5469
 3785SOL     OW22987   4.500   4.046   3.672  0.3364  0.1966 -0.3081
 3785SOL    HW122988   4.505   4.056   3.768 -0.0489 -0.5227 -0.2133
 3785SOL    HW222989   4.513   4.137   3.646  0.8104  0.3424  0.4072
 3786SOL     OW22990   4.663   1.732   8.586 -0.0211 -0.3250 -0.5140
 3786SOL    HW122991   4.590   1.747   8.527  1.1110 -0.1902 -1.8733
 3786SOL    HW222992   4.618   1.676   8.649 -0.0509  0.2062 -0.0652
 3787SOL     OW22993   0.020   2.321   3.900 -0.1168 -0.0967 -0.1294
 3787SOL    HW122994   4.709   2.403   3.903  0.4747  0.2438  0.0971
 3787SOL    HW222995   0.080   2.336   3.828  0.9678 -1.7578  0.4334
 3788SOL     OW22996   1.651   2.546   5.608  0.2563 -0.2145 -0.0139
 3788SOL    HW122997   1.680   2.562   5.697 -2.3240  1.7309  0.4934
 3788SOL    HW222998   1.732   2.511   5.571  0.0467  0.4133 -1.0669
 3789SOL     OW22999   0.265   0.182   1.941 -0.1973 -1.1661  0.0422
 3789SOL    HW123000   0.322   0.110   1.912  2.0707  1.3320 -1.6506
 3789SOL    HW223001   0.202   0.196   1.871  1.5060 -0.4065 -1.3362
 3790SOL     OW23002   4.031   1.925  16.447  0.4095 -0.0663 -0.0562
 3790SOL    HW123003   4.113   1.911  16.399  0.2907 -0.3297 -0.1792
 3790SOL    HW223004   4.061   1.993  16.508 -2.7047  1.5610 -0.3411
 3791SOL     OW23005   2.655   1.189  15.591 -0.2688  0.2585  0.2002
 3791SOL    HW123006   2.698   1.272  15.612 -0.5047  0.7151 -1.1013
 3791SOL    HW223007   2.606   1.222  15.515 -0.6433 -0.5059  0.1156
 3792SOL     OW23008   3.453   3.924   3.842  0.4205 -0.1196  0.3783
 3792SOL    HW123009   3.386   3.902   3.777  1.1792  1.4126 -0.9204
 3792SOL    HW223010   3.417   3.872   3.914 -3.2628  2.8378  0.6733
 3793SOL     OW23011   2.933   2.821   2.803 -0.1710  0.8654 -0.0356
 3793SOL    HW123012   2.872   2.751   2.780 -1.4008  2.0332 -0.2804
 3793SOL    HW223013   3.005   2.815   2.741 -0.0474 -0.6678  0.2519
 3794SOL     OW23014   1.518   2.618   1.746 -0.0176  0.3032 -0.3381
 3794SOL    HW123015   1.573   2.696   1.744  0.3827  0.0017 -2.0195
 3794SOL    HW223016   1.476   2.637   1.829  1.1981 -0.3777  0.4347
 3795SOL     OW23017   0.243   0.995   2.262  0.0970 -0.6064  0.1785
 3795SOL    HW123018   0.249   1.027   2.352  0.3100  0.7595 -0.3275
 3795SOL    HW223019   0.150   1.010   2.250  0.7235  1.9755 -1.4655
 3796SOL     OW23020   3.146   3.657  14.168  0.4190 -0.2459  0.3836
 3796SOL    HW123021   3.104   3.641  14.084  3.3149  1.6687 -1.4193
 3796SOL    HW223022   3.086   3.716  14.216  0.6433 -0.5073  0.9891
 3797SOL     OW23023   4.498   2.082  12.444  0.0807  0.0342 -0.0554
 3797SOL    HW123024   4.453   2.163  12.422 -1.3635 -0.8821 -0.4974
 3797SOL    HW223025   4.439   2.018  12.403  1.0971 -0.8763 -0.0899
 3798SOL     OW23026   2.936   3.259   1.919  0.0640 -0.3244  1.0246
 3798SOL    HW123027   2.890   3.175   1.919  0.1891 -0.3929  2.4097
 3798SOL    HW223028   2.865   3.316   1.950 -2.3394 -1.3225 -2.6187
 3799SOL     OW23029   1.215   2.312  15.345  0.4642  0.1066  0.4771
 3799SOL    HW123030   1.136   2.271  15.311  1.3908 -1.3219  0.0471
 3799SOL    HW223031   1.225   2.383  15.281  0.1157  0.4567  0.8059
 3800SOL     OW23032   0.150   0.848   0.325  0.5854  0.7324 -0.3569
 3800SOL    HW123033   0.061   0.813   0.334  0.6364  0.3623 -1.2785
 3800SOL    HW223034   0.128   0.938   0.301 -0.7260  0.5947  0.3249
 3801SOL     OW23035   3.858   2.933   6.577 -0.2382 -0.2143 -0.4100
 3801SOL    HW123036   3.895   2.875   6.511  1.5491  1.2757 -0.7150
 3801SOL    HW223037   3.859   3.018   6.532 -1.6039  1.0031  1.8744
 3802SOL     OW23038   2.917   0.768   1.296  0.0283  0.1163  0.1200
 3802SOL    HW123039   2.977   0.809   1.358 -2.8126  1.2322  2.1256
 3802SOL    HW223040   2.973   0.707   1.249 -0.5221  0.2076 -0.6520
 3803SOL     OW23041   3.682   0.189   6.094 -0.4400  0.5772  0.5156
 3803SOL    HW123042   3.774   0.207   6.112 -0.1362  0.5403 -0.9608
 3803SOL    HW223043   3.640   0.265   6.054 -1.4880 -0.0409  0.4167
 3804SOL     OW23044   1.099   2.395   3.749 -0.5746 -0.0832  0.2204
 3804SOL    HW123045   1.151   2.327   3.706 -1.6102 -1.0808  0.5485
 3804SOL    HW223046   1.079   2.449   3.673 -1.7828  0.1981  0.7494
 3805SOL     OW23047   0.066   1.687   9.455  0.2346 -0.1746 -0.2775
 3805SOL    HW123048   0.123   1.753   9.494 -1.7806  0.2726  1.8740
 3805SOL    HW223049   0.007   1.735   9.397  2.7736  0.4027 -2.3906
 3806SOL     OW23050   2.712   2.566  17.016  0.2081 -0.1740  0.1035
 3806SOL    HW123051   2.751   2.555  17.103  0.3756  0.3716  0.0998
 3806SOL    HW223052   2.780   2.606  16.961 -1.6236 -0.9136 -2.7012
 3807SOL     OW23053   2.630   0.866   9.483 -0.1617 -0.0203  0.2353
 3807SOL    HW123054   2.721   0.888   9.463 -0.3206 -0.0028 -0.4679
 3807SOL    HW223055   2.627   0.772   9.495  0.3681 -0.4452 -2.8261
 3808SOL     OW23056   3.217   1.475  15.156 -0.3045 -0.0208 -0.3323
 3808SOL    HW123057   3.196   1.461  15.063 -2.1106  0.7037 -0.0363
 3808SOL    HW223058   3.247   1.565  15.143  1.4252 -0.3965  0.9745
 3809SOL     OW23059   3.355   1.782   7.490  0.3520  0.1570 -0.2849
 3809SOL    HW123060   3.319   1.761   7.576 -1.6259 -0.1972 -1.2011
 3809SOL    HW223061   3.303   1.720   7.439  1.0905 -1.4063  0.8802
 3810SOL     OW23062   3.752   2.022  13.861 -0.0596 -0.3238 -0.1678
 3810SOL    HW123063   3.803   2.069  13.795 -2.2272 -0.0521 -1.6526
 3810SOL    HW223064   3.777   1.935  13.830  0.0336 -0.5059  0.4223
 3811SOL     OW23065   2.252   1.415  11.360  0.7601  0.6079  0.0440
 3811SOL    HW123066   2.170   1.456  11.332 -0.5547 -2.2502 -0.2873
 3811SOL    HW223067   2.232   1.324  11.381  0.7250 -0.0650 -2.8316
 3812SOL     OW23068   3.340   3.499  15.850 -0.4272  0.1179 -0.0019
 3812SOL    HW123069   3.249   3.470  15.847 -0.8038  1.1650  1.3539
 3812SOL    HW223070   3.335   3.589  15.884  0.5312  0.0517  0.3334
 3813SOL     OW23071   2.691   1.924   7.035  0.3678  0.0595  0.1897
 3813SOL    HW123072   2.780   1.898   7.056 -0.3199 -1.4981  1.1326
 3813SOL    HW223073   2.701   2.015   7.062 -2.8468  0.5533 -0.2548
 3814SOL     OW23074   0.011   3.560   6.942  0.0002  0.2649  0.1300
 3814SOL    HW123075   4.654   3.559   6.958  0.2559  3.6367  1.9342
 3814SOL    HW223076   0.029   3.616   7.018 -1.2295 -0.3981  0.9272
 3815SOL     OW23077   3.163   0.317  14.096 -0.2092 -0.1671 -0.1863
 3815SOL    HW123078   3.106   0.331  14.171  0.3423  2.1041 -0.1823
 3815SOL    HW223079   3.154   0.224  14.079  1.1653 -0.7027  2.0098
 3816SOL     OW23080   3.066   4.282   6.708 -0.1994  0.1274  0.0284
 3816SOL    HW123081   3.020   4.322   6.634  1.2290  2.0140  0.1717
 3816SOL    HW223082   3.046   4.340   6.781  1.0013  1.0114 -0.3407
 3817SOL     OW23083   0.316   1.566   6.444  0.1362  0.0741 -0.1853
 3817SOL    HW123084   0.308   1.661   6.434  1.1389  0.2319  0.4799
 3817SOL    HW223085   0.309   1.536   6.353  3.3108  1.7562 -0.9913
 3818SOL     OW23086   3.414   3.563   4.274  0.0798  0.7663  0.1398
 3818SOL    HW123087   3.424   3.545   4.180 -0.7784 -1.8766  0.5694
 3818SOL    HW223088   3.501   3.596   4.295  0.8989 -0.7891 -0.7403
 3819SOL     OW23089   0.689   3.819   4.162  0.0475  0.7084 -0.5937
 3819SOL    HW123090   0.766   3.867   4.195  1.6872 -0.8762 -2.0821
 3819SOL    HW223091   0.652   3.780   4.241 -0.4419 -0.9655 -1.6546
 3820SOL     OW23092   1.525   3.691  13.518  0.0418  0.6070  0.2808
 3820SOL    HW123093   1.438   3.714  13.551 -0.1197  1.1802 -0.5600
 3820SOL    HW223094   1.568   3.654  13.595 -0.9906  1.5525  1.2960
 3821SOL     OW23095   3.921   1.344  12.333  0.0193 -0.6210 -0.4469
 3821SOL    HW123096   3.994   1.288  12.305  0.5185  1.3605 -3.0703
 3821SOL    HW223097   3.883   1.380  12.253  0.5494  3.5784  1.2120
 3822SOL     OW23098   4.659   1.316   8.005 -0.2147 -0.0041 -0.3586
 3822SOL    HW123099   4.634   1.306   8.097  0.3296 -1.3145 -0.3476
 3822SOL    HW223100   0.013   1.340   8.006 -1.1141  3.4176  0.6044
 3823SOL     OW23101   1.306   3.298  13.145  0.0497 -0.3552  0.3013
 3823SOL    HW123102   1.359   3.230  13.187 -1.7980 -2.2196 -0.3973
 3823SOL    HW223103   1.334   3.366  13.206 -3.1504  0.4149  0.8968
 3824SOL     OW23104   0.207   2.165   6.156 -0.1221 -0.3164  0.0695
 3824SOL    HW123105   0.162   2.160   6.072 -0.2962  2.2058  0.0328
 3824SOL    HW223106   0.241   2.075   6.162  1.1459  0.4079  4.0448
 3825SOL     OW23107   2.987   2.524   2.742 -0.1003  0.0474  0.0464
 3825SOL    HW123108   3.051   2.478   2.688  0.0877  0.2251  0.1163
 3825SOL    HW223109   2.991   2.475   2.824  0.9869  1.2341  0.7098
 3826SOL     OW23110   4.210   1.033  12.872 -0.3924 -0.6703  0.4213
 3826SOL    HW123111   4.296   1.014  12.834 -0.0867  0.5236  0.5151
 3826SOL    HW223112   4.214   1.010  12.965  0.5480 -1.3949  0.1994
 3827SOL     OW23113   4.016   1.710   5.017  0.0455  0.3879  0.0291
 3827SOL    HW123114   3.990   1.639   5.075 -2.3677  0.6466 -0.7479
 3827SOL    HW223115   3.931   1.751   5.004 -0.2138  0.0978  0.8482
 3828SOL     OW23116   3.246   2.055   5.813  0.2866 -0.1410 -0.1051
 3828SOL    HW123117   3.188   2.089   5.881 -2.0457 -0.3283 -2.0300
 3828SOL    HW223118   3.329   2.053   5.861 -0.3536  2.6534  1.0690
 3829SOL     OW23119   0.942   2.256  15.282  0.2207  0.4202  0.2891
 3829SOL    HW123120   0.989   2.239  15.201 -0.7206  1.7953 -0.5389
 3829SOL    HW223121   0.873   2.314  15.249 -0.5783  0.0616  1.3054
 3830SOL     OW23122   3.041   0.844  11.914 -0.1426  0.2463 -0.2261
 3830SOL    HW123123   3.002   0.759  11.934 -3.5946  1.6034 -1.1779
 3830SOL    HW223124   3.069   0.859  12.005 -1.5933  0.6581  0.1396
 3831SOL     OW23125   4.517   0.937   9.057 -0.4444 -0.0475  0.7929
 3831SOL    HW123126   4.612   0.931   9.062 -0.6382 -0.4566  3.7521
 3831SOL    HW223127   4.487   0.857   9.099 -2.1219 -0.4862 -1.2019
 3832SOL     OW23128   0.225   3.713  14.066  0.2164 -0.3277  0.3076
 3832SOL    HW123129   0.251   3.758  14.146 -0.5466  0.6227  0.0182
 3832SOL    HW223130   0.141   3.671  14.083  0.0082  1.0308  2.5583
 3833SOL     OW23131   0.362   2.610   7.462  0.1911  0.8917  0.3640
 3833SOL    HW123132   0.327   2.679   7.518 -0.6438  2.2285 -1.7997
 3833SOL    HW223133   0.284   2.570   7.425  0.4906 -0.0307  0.7439
 3834SOL     OW23134   0.345   3.351   5.760  0.2883  0.6524  0.3453
 3834SOL    HW123135   0.417   3.308   5.714 -1.1369 -2.4780  1.0609
 3834SOL    HW223136   0.361   3.307   5.843 -2.8688  1.9611  1.6244
 3835SOL     OW23137   1.320   1.408   3.612  0.2200  0.1759  0.0593
 3835SOL    HW123138   1.315   1.312   3.621  0.8271  0.1586  0.1861
 3835SOL    HW223139   1.411   1.432   3.628 -0.3735  1.8315  0.8925
 3836SOL     OW23140   4.571   0.894   0.990  0.0637  0.2742  0.1007
 3836SOL    HW123141   4.600   0.980   0.961  0.4956 -0.3146 -1.1949
 3836SOL    HW223142   4.637   0.839   0.949  0.3936 -0.2509  1.3442
 3837SOL     OW23143   1.103   0.495  17.309  0.0795 -0.3147 -0.2965
 3837SOL    HW123144   1.056   0.534  17.384  0.0938 -0.7293 -0.0750
 3837SOL    HW223145   1.130   0.407  17.336  0.0042  0.4376  2.3147
 3838SOL     OW23146   3.183   0.374   4.804 -0.0876  0.2133  0.0306
 3838SOL    HW123147   3.218   0.421   4.728 -0.5753 -0.3719 -0.5686
 3838SOL    HW223148   3.266   0.346   4.842 -0.5092  1.0650  1.5494
 3839SOL     OW23149   0.642   0.461   7.625 -0.5853  0.4810 -0.2417
 3839SOL    HW123150   0.673   0.550   7.605 -1.8629  1.2793  1.3834
 3839SOL    HW223151   0.697   0.412   7.563 -0.3668 -1.3168  1.3541
 3840SOL     OW23152   1.702   1.447   0.799 -0.0585 -0.1864  0.0534
 3840SOL    HW123153   1.731   1.538   0.807 -2.5328  0.5102  1.2624
 3840SOL    HW223154   1.764   1.408   0.860  1.0159 -2.3614 -2.4463
 3841SOL     OW23155   1.960   0.766   5.850 -0.3073  0.1828 -0.5845
 3841SOL    HW123156   1.922   0.686   5.886  0.4494 -0.3099 -0.8808
 3841SOL    HW223157   1.987   0.810   5.931 -3.2842  2.7133 -0.9772
 3842SOL     OW23158   3.643   4.043   6.280  0.1598  0.1062  0.8967
 3842SOL    HW123159   3.695   4.123   6.267  2.0338 -1.5589 -1.8199
 3842SOL    HW223160   3.569   4.064   6.224  0.7970 -2.9062 -1.0854
 3843SOL     OW23161   1.807   0.419  10.951 -0.4694  0.3678 -0.0881
 3843SOL    HW123162   1.780   0.509  10.934 -0.0322  1.1801  3.6379
 3843SOL    HW223163   1.898   0.434  10.974  0.1321 -0.9444 -1.6017
 3844SOL     OW23164   2.459   3.114  13.741 -0.1601  0.0602  0.0323
 3844SOL    HW123165   2.391   3.167  13.784  0.1365  1.7745 -1.6324
 3844SOL    HW223166   2.494   3.174  13.675 -3.9010  0.6973 -1.3753
 3845SOL     OW23167   0.161   0.143   6.730 -0.1799 -0.0662 -0.2287
 3845SOL    HW123168   0.234   0.160   6.671  1.9384 -3.1343  1.4923
 3845SOL    HW223169   0.114   0.072   6.686 -1.6251 -0.6975  2.3206
 3846SOL     OW23170   0.859   2.000   9.038 -0.3011  0.0978  0.3099
 3846SOL    HW123171   0.772   1.980   9.002  0.2340 -0.7996 -0.4805
 3846SOL    HW223172   0.893   2.055   8.968 -0.4049  1.9409  1.7155
 3847SOL     OW23173   2.415   1.463  11.942 -0.4583 -0.1834 -0.1247
 3847SOL    HW123174   2.430   1.557  11.935 -1.9334 -0.0694 -1.9710
 3847SOL    HW223175   2.502   1.430  11.922 -0.6262 -0.9052  0.3346
 3848SOL     OW23176   3.488   2.134  12.574  0.0116  0.1015  0.1332
 3848SOL    HW123177   3.449   2.047  12.566 -0.8439  0.4066  0.9847
 3848SOL    HW223178   3.438   2.162  12.651  0.8917 -0.1255  0.7860
 3849SOL     OW23179   3.014   3.395   7.791 -0.3741  0.0160  0.5745
 3849SOL    HW123180   2.958   3.457   7.745 -0.0477 -0.7346 -0.8373
 3849SOL    HW223181   2.948   3.334   7.823 -0.9793 -0.1491 -0.9678
 3850SOL     OW23182   0.627   0.952   7.593 -0.4437 -0.1326  0.4685
 3850SOL    HW123183   0.705   0.992   7.553 -0.5976 -0.0738  0.2295
 3850SOL    HW223184   0.610   1.009   7.668 -1.9825  1.3900 -1.0251
 3851SOL     OW23185   3.817   3.590   3.720 -0.1832  0.3917 -0.0050
 3851SOL    HW123186   3.868   3.512   3.698  0.8800  0.7750  1.1166
 3851SOL    HW223187   3.744   3.582   3.659  0.8508 -0.5065 -1.1439
 3852SOL     OW23188   0.998   0.120   9.050  0.5224  0.2825 -0.0451
 3852SOL    HW123189   0.912   0.149   9.019  1.2743 -0.1229 -2.5003
 3852SOL    HW223190   0.963   0.062   9.118 -1.8952 -0.5439 -1.9660
 3853SOL     OW23191   2.328   1.986  10.411 -0.4742  0.2403 -0.1440
 3853SOL    HW123192   2.399   2.039  10.447 -0.6148 -0.5951  1.3617
 3853SOL    HW223193   2.351   1.895  10.430  2.0594  1.2750  1.7834
 3854SOL     OW23194   2.696   2.781   6.487 -0.5285 -0.0292 -0.1732
 3854SOL    HW123195   2.613   2.757   6.445 -1.5179  0.6990  1.3528
 3854SOL    HW223196   2.735   2.694   6.480  1.7562  0.8964  1.1193
 3855SOL     OW23197   0.523   0.951   3.731 -0.1350 -0.5401  0.0301
 3855SOL    HW123198   0.587   0.880   3.728 -0.0925 -0.5329  0.8481
 3855SOL    HW223199   0.562   0.999   3.804  0.6831 -0.0974 -0.6886
 3856SOL     OW23200   4.020   4.518   2.091 -0.4335 -0.1993 -0.4887
 3856SOL    HW123201   4.037   4.596   2.144  1.3224  0.9787 -2.7823
 3856SOL    HW223202   3.935   4.490   2.124 -0.7560 -0.3746 -1.4515
 3857SOL     OW23203   0.927   0.778  14.338 -0.2075  0.4578 -0.8469
 3857SOL    HW123204   1.015   0.812  14.349 -0.5718  0.6880  1.3562
 3857SOL    HW223205   0.910   0.734  14.422  2.4063  1.5220  0.2519
 3858SOL     OW23206   1.893   0.971   1.040 -0.1132  0.0904  0.0507
 3858SOL    HW123207   1.942   0.977   1.122 -0.4417 -1.1378  0.3446
 3858SOL    HW223208   1.839   0.895   1.060 -1.3332  1.3682  1.6069
 3859SOL     OW23209   1.301   1.924   8.399  0.0553 -0.6009 -0.7038
 3859SOL    HW123210   1.370   1.932   8.464 -0.0282 -2.9583 -0.3480
 3859SOL    HW223211   1.235   1.930   8.467  1.9495  1.5054  0.9444
 3860SOL     OW23212   3.083   2.372   2.366 -0.1613  0.2203  0.1588
 3860SOL    HW123213   3.117   2.362   2.277  0.6332  0.2645  0.4604
 3860SOL    HW223214   3.073   2.278   2.381 -0.2273  0.2366  0.2177
 3861SOL     OW23215   0.703   1.660   2.039  0.3265 -0.4323  0.6389
 3861SOL    HW123216   0.773   1.709   2.083 -0.1019  0.6879  0.0810
 3861SOL    HW223217   0.740   1.647   1.952 -0.3963  0.3100  0.2191
 3862SOL     OW23218   4.340   3.067   5.055 -0.3158 -0.6497 -0.0959
 3862SOL    HW123219   4.299   3.048   5.139 -1.3530  2.3467  0.0725
 3862SOL    HW223220   4.271   3.063   4.988 -0.6324  3.1607 -0.0402
 3863SOL     OW23221   4.165   2.150  14.826  0.8058 -0.1475  0.2814
 3863SOL    HW123222   4.153   2.151  14.731  0.0531 -2.2664  0.3386
 3863SOL    HW223223   4.098   2.217  14.842 -0.5222 -1.5644  0.6634
 3864SOL     OW23224   2.181   2.296   7.603  0.0870  0.1456  0.2269
 3864SOL    HW123225   2.175   2.211   7.560  2.8564 -0.1952  0.5534
 3864SOL    HW223226   2.185   2.356   7.528  0.4408 -1.1307 -0.7678
 3865SOL     OW23227   2.359   0.129   8.099  0.4180  0.3711 -0.1633
 3865SOL    HW123228   2.268   0.143   8.123  0.3266 -0.0695 -0.2612
 3865SOL    HW223229   2.393   0.096   8.182  1.5356 -0.4674 -0.9464
 3866SOL     OW23230   1.138   2.706  12.479 -0.0336  0.0502  0.4554
 3866SOL    HW123231   1.084   2.747  12.411 -0.3798 -0.2099  0.5758
 3866SOL    HW223232   1.202   2.773  12.503 -0.0088  0.7448 -1.5423
 3867SOL     OW23233   0.558   1.586   6.706  0.3184 -0.4438 -0.5445
 3867SOL    HW123234   0.497   1.525   6.666  0.6426 -2.0009  1.3602
 3867SOL    HW223235   0.500   1.662   6.707 -0.8292 -1.3333  1.2074
 3868SOL     OW23236   2.001   0.113   7.040  0.6007  0.2586 -0.3229
 3868SOL    HW123237   1.956   0.080   6.962 -0.8706  0.6218  0.3729
 3868SOL    HW223238   1.954   0.067   7.110 -1.2502  0.9944 -1.0680
 3869SOL     OW23239   3.811   1.367   8.370  0.0799  0.3255  0.4132
 3869SOL    HW123240   3.889   1.328   8.331  0.7203  1.2820  0.7403
 3869SOL    HW223241   3.805   1.321   8.454 -0.4554  1.8094  1.1766
 3870SOL     OW23242   2.581   0.434  15.029  0.1776 -0.1453 -0.2905
 3870SOL    HW123243   2.555   0.344  15.007  1.6010 -0.8174  0.7339
 3870SOL    HW223244   2.494   0.470  15.014  0.8864  1.6184 -0.0973
 3871SOL     OW23245   2.089   2.668  11.412  0.0090 -0.3541 -0.3013
 3871SOL    HW123246   2.121   2.701  11.496 -0.1146  0.1503 -0.4520
 3871SOL    HW223247   2.096   2.573  11.414  0.2006 -0.3185  0.6946
 3872SOL     OW23248   0.439   4.572  16.382  0.5913 -0.6880  0.4971
 3872SOL    HW123249   0.517   4.517  16.390  2.9434  2.3644 -1.0514
 3872SOL    HW223250   0.402   4.570  16.470  1.6263 -1.8997  0.8954
 3873SOL     OW23251   1.802   1.037   7.117  0.0302 -0.5402  0.4013
 3873SOL    HW123252   1.840   0.950   7.102 -0.2635 -0.6851  0.4972
 3873SOL    HW223253   1.715   1.021   7.155  0.8943  1.9189  3.4200
 3874SOL     OW23254   2.874   0.750  14.940 -0.1732  0.3328 -0.3403
 3874SOL    HW123255   2.792   0.747  14.890  0.2511  0.1666 -1.0196
 3874SOL    HW223256   2.942   0.770  14.876 -0.3543  0.1313 -0.5962
 3875SOL     OW23257   3.333   2.436  12.369  0.8250  0.1315  0.4354
 3875SOL    HW123258   3.420   2.400  12.380  0.8493  0.3098  0.8460
 3875SOL    HW223259   3.300   2.395  12.449 -0.8910  0.9573  0.1674
 3876SOL     OW23260   1.942   4.291   4.288  0.5249  0.4517  0.0718
 3876SOL    HW123261   1.936   4.371   4.234 -2.1031 -0.7844 -1.4420
 3876SOL    HW223262   1.969   4.227   4.222 -0.9415  2.1979 -2.2287
 3877SOL     OW23263   3.848   1.516   7.748  0.2509  0.0785 -0.1712
 3877SOL    HW123264   3.872   1.453   7.815 -0.4331 -1.5494 -1.4612
 3877SOL    HW223265   3.851   1.597   7.799  0.8093  0.2214 -0.4318
 3878SOL     OW23266   4.461   3.943   5.832 -0.4310 -0.1030  0.2851
 3878SOL    HW123267   4.389   3.883   5.812  1.0205 -1.0211 -2.2636
 3878SOL    HW223268   4.417   4.026   5.817  0.0999  0.2446  0.6928
 3879SOL     OW23269   0.544   3.563   3.109  0.0119  0.2004  0.1258
 3879SOL    HW123270   0.502   3.512   3.039 -1.5765 -0.9458  1.9027
 3879SOL    HW223271   0.616   3.505   3.132 -0.3209 -0.5164 -0.6537
 3880SOL     OW23272   0.721   1.460   4.018 -0.6391  0.0854 -0.1686
 3880SOL    HW123273   0.799   1.475   3.965  2.0524  0.4816  3.8692
 3880SOL    HW223274   0.693   1.551   4.026 -0.1014  0.2157  0.2928
 3881SOL     OW23275   0.332   1.991   7.531  0.0344  0.0843 -0.1914
 3881SOL    HW123276   0.266   2.057   7.554  0.1526  0.2446 -0.3109
 3881SOL    HW223277   0.344   1.992   7.436  0.2777 -2.4661 -0.1886
 3882SOL     OW23278   1.535   2.706   0.786 -0.6800  0.2758 -0.6841
 3882SOL    HW123279   1.555   2.640   0.720  0.2102 -0.4495  0.2977
 3882SOL    HW223280   1.609   2.763   0.806  0.4762 -0.8699 -1.7467
 3883SOL     OW23281   1.817   1.450   1.307  0.1296  0.8424  0.3650
 3883SOL    HW123282   1.815   1.410   1.394 -2.2806 -1.9141 -0.9347
 3883SOL    HW223283   1.776   1.381   1.255 -1.2838  0.2179  2.3095
 3884SOL     OW23284   0.919   2.638  14.222 -0.2339  0.2776  0.3793
 3884SOL    HW123285   0.877   2.704  14.277  1.1325  2.2931 -0.9788
 3884SOL    HW223286   0.882   2.658  14.136 -0.5344 -0.8410  0.2476
 3885SOL     OW23287   2.288   0.973   7.690  0.4646 -0.5860  0.1698
 3885SOL    HW123288   2.284   0.888   7.646  0.3151  0.4027 -1.7147
 3885SOL    HW223289   2.376   0.964   7.727  0.3056 -0.7342  0.5207
 3886SOL     OW23290   1.189   4.056   1.923  0.0890  0.1189  0.1647
 3886SOL    HW123291   1.138   4.074   1.845 -0.3626 -0.2272  0.3805
 3886SOL    HW223292   1.187   4.140   1.968  3.4594  0.1356  0.3320
 3887SOL     OW23293   2.829   2.067   1.054  0.6036 -0.2949  0.4399
 3887SOL    HW123294   2.847   2.138   0.992  1.5962  1.0875  2.3001
 3887SOL    HW223295   2.814   1.994   0.994 -0.6921  2.2080 -2.2616
 3888SOL     OW23296   4.458   0.843   5.452 -0.3624  0.4839 -0.3273
 3888SOL    HW123297   4.403   0.767   5.432 -1.2501  0.6209  1.6700
 3888SOL    HW223298   4.501   0.810   5.531  1.4767  1.8127 -0.7695
 3889SOL     OW23299   2.375   3.017   6.116 -0.0426 -0.0482  0.2605
 3889SOL    HW123300   2.346   3.015   6.207 -0.1682  4.3632  0.3191
 3889SOL    HW223301   2.463   3.052   6.132  0.5466 -0.7218 -1.4243
 3890SOL     OW23302   1.854   0.525  15.620  0.2992 -0.3208  0.2128
 3890SOL    HW123303   1.896   0.534  15.706 -1.1038 -0.2437  0.8931
 3890SOL    HW223304   1.761   0.544  15.633  0.2322 -0.6752  0.2248
 3891SOL     OW23305   3.328   4.550  10.130 -0.4900  0.8761  0.2361
 3891SOL    HW123306   3.385   4.507  10.066  0.5148  2.0944  0.3158
 3891SOL    HW223307   3.389   4.589  10.193  0.3345 -1.6053  0.9386
 3892SOL     OW23308   0.753   0.080   8.745  0.0666 -0.1561 -0.0810
 3892SOL    HW123309   0.759   0.109   8.836  2.9207  1.1539 -0.6899
 3892SOL    HW223310   0.661   0.097   8.724  0.5639 -1.5614 -3.4147
 3893SOL     OW23311   3.678   3.109  13.632  0.0798 -0.1665  0.6121
 3893SOL    HW123312   3.746   3.065  13.582 -0.0126 -0.9015  1.1350
 3893SOL    HW223313   3.651   3.186  13.582  2.6517 -0.0254 -0.5401
 3894SOL     OW23314   3.053   1.057   9.735 -0.3651  0.0945 -0.0490
 3894SOL    HW123315   3.059   1.119   9.662  0.7684 -0.1898 -0.1913
 3894SOL    HW223316   3.004   1.112   9.796 -0.9966  0.3995 -0.8261
 3895SOL     OW23317   4.218   1.272  12.223 -0.5844 -0.8087 -0.1330
 3895SOL    HW123318   4.199   1.311  12.138  1.9540 -2.4973 -1.4756
 3895SOL    HW223319   4.295   1.223  12.192 -0.5271 -1.2006  0.6359
 3896SOL     OW23320   4.453   1.720   9.098  0.4400 -0.2178  0.2226
 3896SOL    HW123321   4.443   1.766   9.015  1.2614  2.7894  1.7682
 3896SOL    HW223322   4.369   1.732   9.143  0.5500  1.4306 -0.0395
 3897SOL     OW23323   1.460   4.666   1.678  0.5482 -0.1807 -0.5054
 3897SOL    HW123324   1.506   0.011   1.663 -0.1678  0.5833  1.5809
 3897SOL    HW223325   1.370   4.695   1.658 -0.4150 -3.1687 -0.5111
 3898SOL     OW23326   1.237   0.463   0.454  0.4439  0.1696  0.2242
 3898SOL    HW123327   1.199   0.381   0.486  1.4878 -0.1228  0.6896
 3898SOL    HW223328   1.329   0.449   0.477  0.1233  2.5934  2.8467
 3899SOL     OW23329   3.690   2.845   4.104  0.3792  0.0469 -0.0682
 3899SOL    HW123330   3.697   2.922   4.048  0.3393  0.1697  0.0957
 3899SOL    HW223331   3.641   2.787   4.045  0.3457  1.7987 -1.7572
 3900SOL     OW23332   2.160   3.251  17.674  0.0439  0.6826 -0.0888
 3900SOL    HW123333   2.076   3.295  17.687  0.3941  1.0517  1.0065
 3900SOL    HW223334   2.198   3.241   0.012 -1.3910 -1.1119  0.3217
 3901SOL     OW23335   3.151   2.001   8.847 -0.3407  0.1569  0.3746
 3901SOL    HW123336   3.135   1.934   8.915 -0.5863  0.9432  1.0947
 3901SOL    HW223337   3.243   1.984   8.829 -1.4258 -1.7828 -3.2698
 3902SOL     OW23338   0.143   1.009   3.612 -0.1872 -0.6448  0.7177
 3902SOL    HW123339   0.113   0.952   3.683 -1.9827 -0.7456 -0.1137
 3902SOL    HW223340   0.090   0.976   3.540 -0.9994  0.6089  0.7493
 3903SOL     OW23341   2.675   0.044   5.032 -0.7232 -0.3135  0.4937
 3903SOL    HW123342   2.736   4.710   5.048 -0.9863 -0.7917 -0.6910
 3903SOL    HW223343   2.690   0.056   4.938 -1.5292 -1.4909  0.2130
 3904SOL     OW23344   4.611   1.832   4.651 -0.2864  0.3138  0.3254
 3904SOL    HW123345   4.573   1.765   4.707 -0.3281 -1.7407 -2.1350
 3904SOL    HW223346   4.532   1.853   4.601  1.1352  2.2066 -1.1707
 3905SOL     OW23347   1.771   2.379  17.356  0.1127 -0.8429  0.8295
 3905SOL    HW123348   1.848   2.433  17.371  0.0990 -0.4511 -0.4568
 3905SOL    HW223349   1.708   2.449  17.374 -0.7633 -0.7881 -2.3466
 3906SOL     OW23350   4.140   1.325  15.115 -0.8388  0.4130 -0.3043
 3906SOL    HW123351   4.231   1.353  15.114 -0.8784  0.5470 -0.2042
 3906SOL    HW223352   4.116   1.356  15.027  0.4778  0.5162 -0.6177
 3907SOL     OW23353   2.380   4.719   7.217  0.2684 -0.0723 -0.4151
 3907SOL    HW123354   2.364   4.666   7.295 -0.0989  1.0848  0.2951
 3907SOL    HW223355   2.297   4.689   7.179 -1.0227  0.9979  1.5343
 3908SOL     OW23356   3.405   2.091   6.280 -0.4509  0.0453  0.5459
 3908SOL    HW123357   3.391   2.000   6.305 -0.4479 -0.4585 -1.3222
 3908SOL    HW223358   3.438   2.127   6.363 -2.2514 -0.5156  1.5152
 3909SOL     OW23359   3.069   0.618   7.866  0.5019 -0.2163 -0.1955
 3909SOL    HW123360   2.977   0.615   7.840  0.0025 -1.0957  1.7207
 3909SOL    HW223361   3.075   0.682   7.937 -0.8339 -1.5171  1.0724
 3910SOL     OW23362   0.432   0.064   3.632  0.3046 -0.2496  0.0907
 3910SOL    HW123363   0.462   0.062   3.541  1.4009  0.3056  0.4331
 3910SOL    HW223364   0.444   0.158   3.648  2.5837 -0.0216 -2.7492
 3911SOL     OW23365   0.645   0.197   4.740 -0.1088  0.3074 -0.2969
 3911SOL    HW123366   0.718   0.234   4.789 -0.8688 -0.3997  1.3915
 3911SOL    HW223367   0.685   0.155   4.664  1.1464  0.4398  0.2875
 3912SOL     OW23368   1.511   2.911   8.483  0.0488  0.4088  0.1603
 3912SOL    HW123369   1.564   2.988   8.461  0.6432 -0.0131  0.1203
 3912SOL    HW223370   1.454   2.950   8.549  0.6505  2.0164 -0.2731
 3913SOL     OW23371   1.196   4.534   2.233  0.0573 -0.0546  0.0362
 3913SOL    HW123372   1.244   4.457   2.263 -0.0049  0.0302  0.3594
 3913SOL    HW223373   1.208   4.593   2.308  1.5354  2.8020 -2.4513
 3914SOL     OW23374   2.056   1.827   5.737  0.3064 -0.3452 -0.4017
 3914SOL    HW123375   2.014   1.824   5.651  0.5792 -0.3575 -0.5352
 3914SOL    HW223376   1.983   1.816   5.798 -0.2512  0.4929 -0.9088
 3915SOL     OW23377   0.535   4.689   2.365 -0.1162 -0.3457 -0.1430
 3915SOL    HW123378   0.535   4.597   2.341  0.7591 -0.6981  1.2307
 3915SOL    HW223379   0.593   4.727   2.299 -0.7785 -0.4029 -0.7633
 3916SOL     OW23380   1.553   3.760   8.685  0.4302  0.5451 -0.4600
 3916SOL    HW123381   1.609   3.777   8.760 -0.0565  0.8597 -0.1692
 3916SOL    HW223382   1.614   3.720   8.623  1.2952 -0.6965  1.2155
 3917SOL     OW23383   3.922   3.622   7.927  0.9214 -1.2341 -0.2791
 3917SOL    HW123384   3.970   3.539   7.930  3.0564 -0.0158 -0.8547
 3917SOL    HW223385   3.866   3.620   8.005  2.9948 -2.2437  1.2004
 3918SOL     OW23386   4.592   0.791  10.101 -0.3868  0.2929  0.1002
 3918SOL    HW123387   4.549   0.835  10.174 -1.1814 -1.8915  0.9672
 3918SOL    HW223388   4.518   0.788  10.041 -1.3273 -0.8762  1.3000
 3919SOL     OW23389   2.397   2.318   4.194  0.0230 -0.2422  0.7084
 3919SOL    HW123390   2.348   2.350   4.119 -0.9293 -0.0752  1.3945
 3919SOL    HW223391   2.474   2.272   4.160  1.3691  0.7947  2.3239
 3920SOL     OW23392   0.099   2.523   5.300 -0.0489  0.2362  0.2042
 3920SOL    HW123393   0.008   2.519   5.328 -0.7627 -0.6886 -2.2462
 3920SOL    HW223394   0.106   2.429   5.284 -1.3855 -0.2511  2.5189
 3921SOL     OW23395   0.139   4.390  10.947 -0.0748 -0.3412 -0.0109
 3921SOL    HW123396   0.232   4.383  10.969  0.1225  0.8279 -0.4839
 3921SOL    HW223397   0.152   4.463  10.887  1.7501 -1.3761 -0.8557
 3922SOL     OW23398   1.527   1.943  11.532 -1.1805  0.0948  0.1146
 3922SOL    HW123399   1.532   2.017  11.591  0.8055 -2.0092  2.5636
 3922SOL    HW223400   1.551   1.990  11.452  1.9423 -2.7575 -0.6433
 3923SOL     OW23401   0.925   3.656   3.532 -0.0661 -0.7302  0.3236
 3923SOL    HW123402   0.863   3.593   3.496 -0.9597  1.0664 -1.2975
 3923SOL    HW223403   0.933   3.623   3.622 -1.8805  0.3587  0.8937
 3924SOL     OW23404   4.542   3.632   7.725  0.1744  0.4764 -0.2355
 3924SOL    HW123405   4.494   3.560   7.766  1.4707 -0.3527 -0.1551
 3924SOL    HW223406   4.594   3.670   7.796  2.9279 -0.5005 -1.7446
 3925SOL     OW23407   3.100   3.621   5.621  0.4565  0.4685 -0.3297
 3925SOL    HW123408   3.119   3.711   5.646  2.1869 -0.5374  1.8821
 3925SOL    HW223409   3.032   3.627   5.554  0.4405 -0.4738 -0.4066
 3926SOL     OW23410   1.238   3.287   9.432 -0.0971  0.2449  0.1306
 3926SOL    HW123411   1.333   3.286   9.446  0.2424  0.3558 -2.0874
 3926SOL    HW223412   1.199   3.346   9.495  0.9382 -0.6505  1.6219
 3927SOL     OW23413   2.390   2.328  17.332  0.3836 -0.2373 -0.0737
 3927SOL    HW123414   2.431   2.271  17.397 -0.7547  1.2745  1.9401
 3927SOL    HW223415   2.411   2.415  17.364  0.3088 -0.5430  0.7961
 3928SOL     OW23416   2.231   2.487   2.457 -0.0495 -0.9780  0.1130
 3928SOL    HW123417   2.149   2.517   2.496 -0.3928 -1.0858 -0.5249
 3928SOL    HW223418   2.195   2.407   2.418 -0.9394 -0.5999  0.1581
 3929SOL     OW23419   2.286   0.789  13.980  0.7315  0.0375 -0.2866
 3929SOL    HW123420   2.381   0.792  13.993  1.0271 -2.4410 -1.8615
 3929SOL    HW223421   2.258   0.880  13.985  2.5705  0.6183 -0.4579
 3930SOL     OW23422   4.695   3.104   5.353 -0.3984 -0.2565  0.3579
 3930SOL    HW123423   0.041   3.135   5.318  1.5848 -2.4687  3.1861
 3930SOL    HW223424   4.667   3.055   5.275  1.1203 -0.1017 -0.2818
 3931SOL     OW23425   1.681   0.201   5.694 -0.2378 -0.2678 -0.1711
 3931SOL    HW123426   1.604   0.238   5.737  1.3614 -1.9313  4.0756
 3931SOL    HW223427   1.689   0.122   5.747  0.2546  0.2921  0.5820
 3932SOL     OW23428   1.001   2.223   4.943 -0.8516  0.6448  0.0071
 3932SOL    HW123429   0.980   2.179   5.025 -0.9766  1.0786  0.2045
 3932SOL    HW223430   0.927   2.283   4.936 -0.8015  0.6891 -0.1590
 3933SOL     OW23431   2.749   4.527   0.324 -0.3516 -0.2199  0.1311
 3933SOL    HW123432   2.735   4.618   0.299  0.1817  0.1990  1.3073
 3933SOL    HW223433   2.683   4.486   0.268  0.3705  0.2702 -1.0773
 3934SOL     OW23434   0.149   0.283  14.973  0.0122 -0.4491 -0.2438
 3934SOL    HW123435   0.199   0.201  14.971  0.9159  0.0664  1.0473
 3934SOL    HW223436   0.093   0.279  14.895 -0.7012 -2.1637  0.3499
 3935SOL     OW23437   4.717   4.313   2.693 -0.0183  0.5460 -0.1412
 3935SOL    HW123438   4.657   4.388   2.694 -0.7646 -0.0796  1.3369
 3935SOL    HW223439   4.697   4.281   2.605  3.2855 -3.3444  0.5272
 3936SOL     OW23440   1.126   3.979  13.649  0.2117 -0.1355 -0.3244
 3936SOL    HW123441   1.078   3.902  13.678 -0.5362  1.2322  2.0918
 3936SOL    HW223442   1.115   3.987  13.554  0.9188  0.4466 -0.3580
 3937SOL     OW23443   4.273   1.189   1.415 -0.3254  0.5377 -0.2993
 3937SOL    HW123444   4.347   1.162   1.469 -2.1142 -2.8620  0.4718
 3937SOL    HW223445   4.215   1.113   1.411 -0.5906  0.7198  0.0346
 3938SOL     OW23446   3.551   3.240   6.086  0.8279  0.2135 -0.4569
 3938SOL    HW123447   3.584   3.279   6.006  0.7542  2.7931  0.7801
 3938SOL    HW223448   3.460   3.271   6.090  0.8916  0.1221  1.5832
 3939SOL     OW23449   1.233   1.424  14.482 -0.5455  0.2572  0.1338
 3939SOL    HW123450   1.248   1.501  14.538 -1.5569 -0.3503  1.2557
 3939SOL    HW223451   1.248   1.348  14.539 -0.2370 -0.0767 -0.3880
 3940SOL     OW23452   3.063   3.065   5.790 -0.1866 -0.2149  0.3667
 3940SOL    HW123453   3.156   3.053   5.810 -0.3790  0.8580  1.9492
 3940SOL    HW223454   3.049   2.978   5.753  0.4525 -0.9409  1.8219
 3941SOL     OW23455   3.540   4.291   8.797 -0.3717 -0.1313 -0.0669
 3941SOL    HW123456   3.586   4.282   8.881  0.0318  0.9506 -0.1775
 3941SOL    HW223457   3.468   4.340   8.835 -0.8909 -1.8047  1.1389
 3942SOL     OW23458   4.265   4.649   6.398  0.0892  0.7945 -0.5902
 3942SOL    HW123459   4.335   4.681   6.455 -0.9431 -1.4096  1.9002
 3942SOL    HW223460   4.309   4.665   6.314 -1.5699  2.0169 -1.2420
 3943SOL     OW23461   4.076   4.480   9.318 -0.6401 -0.1443  0.1001
 3943SOL    HW123462   4.136   4.405   9.324 -1.3766 -0.7570 -0.2834
 3943SOL    HW223463   4.001   4.454   9.371  0.3019 -2.9026  0.0893
 3944SOL     OW23464   3.092   3.112   6.337  0.4451  0.4707 -0.0290
 3944SOL    HW123465   3.093   3.038   6.398  1.3808 -0.2433 -0.8964
 3944SOL    HW223466   3.184   3.128   6.314  0.2342  0.9625 -0.5314
 3945SOL     OW23467   1.996   2.793   7.535 -0.1088  0.8182  0.3936
 3945SOL    HW123468   1.930   2.842   7.485 -2.2373  0.0553  2.4742
 3945SOL    HW223469   2.070   2.788   7.474  0.2654 -0.5710  0.9625
 3946SOL     OW23470   3.428   0.810   9.500 -0.2185 -0.3707 -0.2584
 3946SOL    HW123471   3.508   0.859   9.483  0.0443 -0.5759  0.3986
 3946SOL    HW223472   3.466   0.723   9.508  2.4685  0.9076  0.5956
 3947SOL     OW23473   1.982   2.521   7.339 -0.3015 -0.5928  0.4107
 3947SOL    HW123474   1.962   2.458   7.269  0.5419  0.0359 -0.3760
 3947SOL    HW223475   2.056   2.484   7.388  0.4174  1.8059  1.1359
 3948SOL     OW23476   2.228   3.806   3.951 -0.5018 -0.3268  0.8475
 3948SOL    HW123477   2.140   3.768   3.949 -0.2419 -1.0962  3.5280
 3948SOL    HW223478   2.257   3.819   3.861  0.2242  0.6855  1.2367
 3949SOL     OW23479   4.306   2.623  12.468  0.7008  0.4326  0.2935
 3949SOL    HW123480   4.253   2.668  12.402 -0.8688 -3.1583 -0.8592
 3949SOL    HW223481   4.236   2.580  12.516  0.8650  1.1196  1.1532
 3950SOL     OW23482   1.546   0.844   5.277 -0.6901  0.5319  0.5100
 3950SOL    HW123483   1.600   0.888   5.342 -0.0287 -3.4865  2.6304
 3950SOL    HW223484   1.574   0.882   5.194 -1.4070 -2.8475 -1.2806
 3951SOL     OW23485   1.217   2.699  12.135  0.0166 -0.5656  0.5714
 3951SOL    HW123486   1.136   2.660  12.167 -0.0739  1.0862  2.3317
 3951SOL    HW223487   1.207   2.688  12.040  0.2873 -0.6196  0.5498
 3952SOL     OW23488   2.330   0.037   5.754  0.1546  0.2331  0.7207
 3952SOL    HW123489   2.408   4.734   5.717  0.0431  2.0943 -1.5090
 3952SOL    HW223490   2.259   4.717   5.727  1.1113 -1.0591  0.9550
 3953SOL     OW23491   4.678   3.492   4.208 -0.3863 -0.0446  0.0235
 3953SOL    HW123492   4.663   3.584   4.231  0.9774 -0.1545  1.3020
 3953SOL    HW223493   0.021   3.500   4.158 -1.0559 -2.5140 -1.4499
 3954SOL     OW23494   3.601   1.027   1.644  0.0458 -0.0750 -0.5439
 3954SOL    HW123495   3.603   1.044   1.738 -1.9224 -0.8155 -0.3700
 3954SOL    HW223496   3.589   1.115   1.608 -0.2340  0.6835  1.4545
 3955SOL     OW23497   1.035   3.198   4.345  0.2393  0.1931  0.3023
 3955SOL    HW123498   1.031   3.245   4.428  0.3049 -0.6989  0.8096
 3955SOL    HW223499   0.980   3.121   4.363 -0.2659  0.2011 -1.1598
 3956SOL     OW23500   2.083   2.458   3.283  0.0056 -0.3865 -0.1237
 3956SOL    HW123501   2.150   2.478   3.218  0.2159  0.0726  0.2380
 3956SOL    HW223502   2.107   2.370   3.313  0.8815 -0.6613 -1.6102
 3957SOL     OW23503   1.524   3.834   9.568 -0.6628 -0.3718 -0.0034
 3957SOL    HW123504   1.600   3.886   9.543 -0.3536 -0.2663  1.1415
 3957SOL    HW223505   1.510   3.870   9.655 -3.0667 -0.8146 -0.1993
 3958SOL     OW23506   3.760   3.544   6.169  0.5860  0.1010 -0.2343
 3958SOL    HW123507   3.829   3.500   6.119  0.5940  1.1937 -1.2039
 3958SOL    HW223508   3.683   3.511   6.123 -0.9034  0.4584  1.9926
 3959SOL     OW23509   2.395   4.588   1.613  0.3536  0.1164 -0.8169
 3959SOL    HW123510   2.472   4.591   1.555  0.7182 -3.5838 -0.5339
 3959SOL    HW223511   2.344   4.518   1.572 -0.6974  0.0129  0.6874
 3960SOL     OW23512   3.342   0.605   6.515 -0.9233 -0.3572  0.2503
 3960SOL    HW123513   3.294   0.543   6.570 -0.1472  1.2810  2.8297
 3960SOL    HW223514   3.307   0.691   6.538  2.6346  1.4681 -1.1533
 3961SOL     OW23515   4.553   2.102  15.479 -0.2649 -0.1792 -0.0779
 3961SOL    HW123516   4.591   2.139  15.559 -0.2990 -0.9568  0.3048
 3961SOL    HW223517   4.465   2.131  15.504  0.6796  1.7116  0.9869
 3962SOL     OW23518   0.289   4.402   5.973  0.0775 -0.2834  0.5078
 3962SOL    HW123519   0.303   4.423   5.881 -0.6013  1.7532  0.8696
 3962SOL    HW223520   0.272   4.308   5.967  2.6477 -0.7886  1.0216
 3963SOL     OW23521   0.679   2.291   7.906  0.0606  0.3499 -0.0284
 3963SOL    HW123522   0.683   2.203   7.943  2.1095  0.0253 -1.0099
 3963SOL    HW223523   0.591   2.302   7.869 -0.9146 -2.5126  1.3932
 3964SOL     OW23524   2.015   4.642  14.894 -0.1163  0.9801  0.5098
 3964SOL    HW123525   1.973   4.724  14.920 -2.6600 -0.3090  0.3700
 3964SOL    HW223526   2.050   4.662  14.807 -0.7887 -0.0413  0.0237
 3965SOL     OW23527   2.298   0.361   6.854 -0.2987 -0.3880 -0.6996
 3965SOL    HW123528   2.309   0.411   6.773 -0.2283 -2.1754 -1.7846
 3965SOL    HW223529   2.350   0.284   6.834 -0.0525 -0.9883  2.1857
 3966SOL     OW23530   0.686   1.562   0.466  0.4012 -0.1514  0.0586
 3966SOL    HW123531   0.625   1.570   0.540 -0.4136  0.7454 -0.7001
 3966SOL    HW223532   0.691   1.653   0.438  0.9905  0.5692  2.5298
 3967SOL     OW23533   4.282   3.921  11.031  0.0015  0.0443  0.0380
 3967SOL    HW123534   4.288   3.868  10.952  2.0763  2.9325 -1.7200
 3967SOL    HW223535   4.364   3.893  11.072 -0.9572 -0.4418  1.6346
 3968SOL     OW23536   1.813   2.991   5.792  0.2446 -0.5293 -0.3019
 3968SOL    HW123537   1.718   2.995   5.782  0.0566 -3.6933  0.4818
 3968SOL    HW223538   1.833   3.084   5.800  1.7751 -0.7586 -1.5373
 3969SOL     OW23539   3.839   3.214  15.087 -0.9305  0.0532 -0.2731
 3969SOL    HW123540   3.800   3.298  15.066 -1.6937  0.4551  2.8132
 3969SOL    HW223541   3.812   3.160  15.013  2.0196  0.7249 -1.8632
 3970SOL     OW23542   4.563   2.900  10.959 -0.0090  0.2528 -0.2435
 3970SOL    HW123543   4.646   2.889  11.006 -0.0648 -1.8299 -0.6749
 3970SOL    HW223544   4.550   2.995  10.970  2.7207  0.7917 -1.9081
 3971SOL     OW23545   1.161   3.188   5.542 -0.1012  0.3560 -0.6699
 3971SOL    HW123546   1.148   3.272   5.498  1.5719  1.1830  0.4241
 3971SOL    HW223547   1.108   3.121   5.500 -2.0956  2.2793 -1.2108
 3972SOL     OW23548   1.676   1.697  15.338  0.0398 -0.2325  0.2796
 3972SOL    HW123549   1.709   1.732  15.421  2.3308  2.2825 -1.7556
 3972SOL    HW223550   1.592   1.742  15.330 -0.2279 -1.2421 -2.3980
 3973SOL     OW23551   1.799   2.832   9.987 -0.5276 -0.4288  0.9834
 3973SOL    HW123552   1.837   2.756   9.943  1.3098  0.9129  0.2580
 3973SOL    HW223553   1.725   2.852   9.930  0.0550  2.3354  1.1696
 3974SOL     OW23554   3.608   0.993  17.550  0.1219 -0.0803  0.2452
 3974SOL    HW123555   3.691   0.954  17.578  0.0444 -0.9936 -0.7955
 3974SOL    HW223556   3.535   0.966  17.606  0.9493  0.5675  1.6313
 3975SOL     OW23557   3.123   1.691   7.133 -0.0353 -0.2688 -0.5336
 3975SOL    HW123558   3.110   1.737   7.050 -3.3915  0.2286  0.2609
 3975SOL    HW223559   3.041   1.642   7.133  0.6296 -1.4008 -1.6472
 3976SOL     OW23560   2.537   2.049   4.968  0.6534  0.3492 -0.1479
 3976SOL    HW123561   2.466   1.991   4.942  1.9164 -1.5600  0.6620
 3976SOL    HW223562   2.499   2.135   4.987  2.1582  1.0528 -0.3166
 3977SOL     OW23563   4.233   3.309   9.818  0.6031 -0.1527  0.8661
 3977SOL    HW123564   4.315   3.334   9.775 -1.0299 -0.2109 -2.3118
 3977SOL    HW223565   4.187   3.392   9.809 -2.8623 -2.0506  0.9087
 3978SOL     OW23566   3.908   0.330   7.558 -0.7531  0.0974 -0.4900
 3978SOL    HW123567   3.965   0.259   7.528 -0.3059 -0.6060  2.0362
 3978SOL    HW223568   3.983   0.389   7.561 -0.9603  0.3657 -0.6050
 3979SOL     OW23569   4.185   0.630   2.621  0.0127  0.2483  1.0738
 3979SOL    HW123570   4.262   0.630   2.564 -0.1402  0.9068  0.8712
 3979SOL    HW223571   4.117   0.670   2.567  1.0444  4.3175  2.8096
 3980SOL     OW23572   1.663   2.665   7.095  0.1180  0.2770 -0.3008
 3980SOL    HW123573   1.616   2.631   7.171  3.1183 -1.8993  0.5742
 3980SOL    HW223574   1.742   2.696   7.139  0.7287  0.0721 -1.2595
 3981SOL     OW23575   3.074   4.419   8.101  0.5838 -0.1330  1.3822
 3981SOL    HW123576   3.144   4.356   8.117 -1.1528 -1.7904  2.6017
 3981SOL    HW223577   3.005   4.368   8.057 -1.0100  2.0882  1.3240
 3982SOL     OW23578   3.286   0.651  17.344 -0.4799  0.4794 -0.2631
 3982SOL    HW123579   3.319   0.721  17.288 -0.4892  0.3965 -0.3708
 3982SOL    HW223580   3.285   0.584  17.276 -2.5457 -0.0438  0.2976
 3983SOL     OW23581   4.386   3.501   8.272 -0.4167 -0.0406  0.4335
 3983SOL    HW123582   4.464   3.524   8.223  0.1574  1.2831  1.9566
 3983SOL    HW223583   4.425   3.450   8.343 -0.5168 -0.6128  0.0752
 3984SOL     OW23584   2.230   3.722   2.785  0.4358 -0.9330 -0.2551
 3984SOL    HW123585   2.272   3.677   2.858 -0.8233 -1.4077  0.1762
 3984SOL    HW223586   2.254   3.811   2.810  0.3935 -0.7730 -0.7848
 3985SOL     OW23587   2.384   0.166  15.493 -0.4510  0.1230 -0.1972
 3985SOL    HW123588   2.352   0.256  15.488 -0.7636  0.2162  3.1867
 3985SOL    HW223589   2.453   0.173  15.559 -0.7286  1.0465 -0.0128
 3986SOL     OW23590   3.678   0.973   2.446  0.1861 -0.0733  0.4017
 3986SOL    HW123591   3.608   0.943   2.504  0.1023 -0.5434  0.0615
 3986SOL    HW223592   3.697   1.064   2.467  2.1049 -0.6948  1.4544
 3987SOL     OW23593   0.922   0.531   6.626 -0.4865  0.1613  0.1044
 3987SOL    HW123594   1.001   0.479   6.611  0.1439  0.7630  1.2684
 3987SOL    HW223595   0.944   0.556   6.716 -1.0368  2.7772 -0.4739
 3988SOL     OW23596   3.264   0.322   7.006 -0.6001 -0.0790 -0.3177
 3988SOL    HW123597   3.332   0.314   7.072 -2.7745  2.8116  2.2981
 3988SOL    HW223598   3.286   0.408   6.969 -0.1530  1.0016  2.4259
 3989SOL     OW23599   3.561   3.169   4.393  0.1932 -0.2064  0.0383
 3989SOL    HW123600   3.522   3.117   4.323  2.8369 -0.7829 -1.0047
 3989SOL    HW223601   3.489   3.219   4.432 -0.9103 -1.6537 -0.1726
 3990SOL     OW23602   3.013   4.293  15.040 -0.0349  0.1444  0.2481
 3990SOL    HW123603   2.968   4.209  15.050  0.5150  0.0892  2.2288
 3990SOL    HW223604   2.941   4.348  15.070 -0.2440 -0.3918  0.7359
 3991SOL     OW23605   4.656   1.747  12.141 -0.2991  0.4117 -0.1412
 3991SOL    HW123606   4.632   1.681  12.075  0.8709  0.5193 -0.6780
 3991SOL    HW223607   4.725   1.692  12.178  1.6337  2.6163 -0.4892
 3992SOL     OW23608   4.049   1.495   7.224  0.4496  0.2583 -0.0903
 3992SOL    HW123609   4.143   1.503   7.244 -0.4262  4.4372  2.2435
 3992SOL    HW223610   4.020   1.441   7.298 -0.7002 -1.2978 -1.6799
 3993SOL     OW23611   0.178   0.395   7.351 -0.4000  0.1581 -0.0041
 3993SOL    HW123612   0.118   0.414   7.423  0.4920  1.0378  0.5179
 3993SOL    HW223613   0.160   0.452   7.277 -3.3624 -0.0490  0.5895
 3994SOL     OW23614   1.073   3.345  13.036  0.5598 -0.3582 -0.1247
 3994SOL    HW123615   1.157   3.333  13.080  0.3194  1.1229  0.7234
 3994SOL    HW223616   1.058   3.259  12.996 -0.4354 -1.7254  3.1709
 3995SOL     OW23617   1.460   1.729  14.229 -0.3722 -0.2359 -0.4248
 3995SOL    HW123618   1.413   1.770  14.301  2.5028  0.6049  0.9955
 3995SOL    HW223619   1.390   1.748  14.168 -2.1283 -1.2569  1.2754
 3996SOL     OW23620   4.557   1.303   4.293 -0.7071  0.2875 -0.2898
 3996SOL    HW123621   4.567   1.349   4.377  3.3251 -1.1936  0.0871
 3996SOL    HW223622   4.642   1.321   4.253 -0.3818 -2.2633 -0.7214
 3997SOL     OW23623   1.301   1.209   2.955 -1.2377 -0.3634  0.2956
 3997SOL    HW123624   1.303   1.191   2.861  1.5159 -0.5875  0.3819
 3997SOL    HW223625   1.206   1.218   2.964 -1.4630 -1.5305 -0.8570
 3998SOL     OW23626   2.821   3.857   7.944  0.1604 -0.0556 -0.2560
 3998SOL    HW123627   2.893   3.920   7.955  0.2185  0.4464 -3.5507
 3998SOL    HW223628   2.846   3.837   7.854  1.5963  1.3463 -0.1772
 3999SOL     OW23629   1.021   4.399   8.796 -0.4271 -0.0088 -0.0403
 3999SOL    HW123630   1.050   4.308   8.800 -2.0826 -0.5977 -1.6465
 3999SOL    HW223631   0.997   4.397   8.704  3.0581 -2.1595 -0.9262
 4000SOL     OW23632   3.016   0.299  15.728  0.5311  0.2251  0.4647
 4000SOL    HW123633   2.954   0.318  15.799  0.8408  2.7876  0.0333
 4000SOL    HW223634   3.095   0.343  15.758  0.3450  1.5885 -1.0686
 4001SOL     OW23635   2.002   1.793   5.088 -0.0625 -0.0893  0.0829
 4001SOL    HW123636   1.947   1.853   5.137 -0.3710  0.0558 -0.4378
 4001SOL    HW223637   2.060   1.855   5.041  0.0798 -1.1283 -1.1261
 4002SOL     OW23638   2.518   3.488   7.356 -0.1399 -0.1908  0.2094
 4002SOL    HW123639   2.556   3.417   7.303  1.5358  0.7323  0.1539
 4002SOL    HW223640   2.589   3.536   7.399  2.3749 -0.8502 -3.1562
 4003SOL     OW23641   2.097   4.268   1.193 -0.1416  0.5517  0.5458
 4003SOL    HW123642   2.107   4.217   1.273 -1.7119  0.9691  1.0145
 4003SOL    HW223643   2.186   4.261   1.157 -0.5494 -1.2757 -0.1006
 4004SOL     OW23644   3.843   1.776   4.641 -0.1844  0.7118 -0.5671
 4004SOL    HW123645   3.762   1.798   4.594 -0.2294  0.7598 -0.4682
 4004SOL    HW223646   3.866   1.694   4.598  0.6520  0.6171  0.0856
 4005SOL     OW23647   0.313   2.132   5.235 -0.2665 -0.3498  0.1077
 4005SOL    HW123648   0.272   2.065   5.181 -0.1573  0.7345 -1.3112
 4005SOL    HW223649   0.402   2.096   5.238  0.5896  1.7656  0.2797
 4006SOL     OW23650   0.354   2.570   4.615 -0.3214  0.4890  0.2774
 4006SOL    HW123651   0.315   2.553   4.530  0.2794 -2.0867  0.5375
 4006SOL    HW223652   0.332   2.490   4.662 -0.6276  0.7422  0.5645
 4007SOL     OW23653   1.906   2.193   4.187 -0.7220 -0.6683  0.1237
 4007SOL    HW123654   1.927   2.121   4.246 -2.8816 -1.7430 -0.4058
 4007SOL    HW223655   1.961   2.255   4.234 -0.3917 -0.6729 -0.2701
 4008SOL     OW23656   2.317   0.930  16.078  0.2608 -0.3486 -0.4376
 4008SOL    HW123657   2.256   0.910  16.149  0.5492  0.8475  0.1508
 4008SOL    HW223658   2.401   0.910  16.118  0.1385  0.6144  0.2957
 4009SOL     OW23659   0.891   0.547  10.225  0.2893  0.3815  0.1970
 4009SOL    HW123660   0.810   0.515  10.186  0.4094  0.5244 -0.1709
 4009SOL    HW223661   0.907   0.487  10.298 -0.2600  1.4939  1.2171
 4010SOL     OW23662   2.833   3.628  13.493 -0.3557  0.0327  0.0865
 4010SOL    HW123663   2.851   3.718  13.521  0.9440  0.3290 -1.7228
 4010SOL    HW223664   2.885   3.629  13.413 -1.7033 -0.0164 -0.7872
 4011SOL     OW23665   2.230   1.124   1.612 -0.4722  0.3611  0.4465
 4011SOL    HW123666   2.309   1.115   1.666  2.4979  1.1778 -3.7984
 4011SOL    HW223667   2.259   1.073   1.536  0.8514  1.2711  0.3552
 4012SOL     OW23668   2.761   3.101   3.160  0.1096 -0.5052 -0.5864
 4012SOL    HW123669   2.712   3.029   3.120 -0.7473  0.3965 -1.1698
 4012SOL    HW223670   2.824   3.127   3.093  0.6506  0.0567  0.1432
 4013SOL     OW23671   1.075   0.529   5.777 -0.7544 -0.5110  0.4551
 4013SOL    HW123672   1.057   0.466   5.708 -0.7480  0.6801 -0.6388
 4013SOL    HW223673   1.057   0.485   5.860  2.0881 -0.6750  1.0075
 4014SOL     OW23674   2.597   2.834   1.219  0.3389 -0.0751 -0.2405
 4014SOL    HW123675   2.565   2.771   1.155  0.9831 -0.9318  0.2926
 4014SOL    HW223676   2.617   2.907   1.159  1.1573  0.7624  1.0520
 4015SOL     OW23677   3.549   4.095   5.583 -0.3390  0.0365  0.3780
 4015SOL    HW123678   3.548   4.094   5.488  1.9524 -1.1180  0.3725
 4015SOL    HW223679   3.560   4.190   5.595  0.7271  0.1146 -1.3509
 4016SOL     OW23680   0.845   3.476   4.664 -0.0799  0.5793 -0.2679
 4016SOL    HW123681   0.821   3.482   4.571  0.2100 -1.7281 -0.4864
 4016SOL    HW223682   0.910   3.407   4.651 -0.1997  0.7332 -1.6702
 4017SOL     OW23683   3.150   4.618   2.172  0.0725 -0.8409  0.1595
 4017SOL    HW123684   3.155   4.563   2.250 -0.8200 -1.9423 -0.5551
 4017SOL    HW223685   3.057   4.637   2.156  0.0419 -1.8338 -0.8248
 4018SOL     OW23686   1.725   1.211   4.801  0.6653  0.0665  0.1466
 4018SOL    HW123687   1.744   1.304   4.815 -2.2045  0.6594  0.0378
 4018SOL    HW223688   1.772   1.206   4.717  0.8602 -1.0636  0.3348
 4019SOL     OW23689   3.113   3.798   7.242 -0.5263 -0.0765 -0.5322
 4019SOL    HW123690   3.192   3.744   7.249 -0.2439  0.2442 -1.3359
 4019SOL    HW223691   3.056   3.779   7.317 -0.3454  0.1117 -0.3485
 4020SOL     OW23692   1.757   1.571   7.524 -0.0356 -0.7070  0.1597
 4020SOL    HW123693   1.702   1.626   7.579  1.9702 -0.6977  2.1584
 4020SOL    HW223694   1.778   1.633   7.454  1.2256 -0.1311  1.0440
 4021SOL     OW23695   3.485   0.916   9.196 -0.0899  0.0405 -0.0314
 4021SOL    HW123696   3.526   0.830   9.192  2.5976  1.3003  0.2530
 4021SOL    HW223697   3.540   0.955   9.265 -0.0952 -2.3478  1.2929
 4022SOL     OW23698   4.269   0.955  14.695  0.3711 -0.2749  0.0532
 4022SOL    HW123699   4.219   0.995  14.624 -0.1645  1.4646  1.3875
 4022SOL    HW223700   4.200   0.955  14.761 -0.9083  0.4816 -1.2768
 4023SOL     OW23701   1.412   1.712   5.482 -0.3733 -0.2161  0.1215
 4023SOL    HW123702   1.349   1.641   5.498 -2.4576  1.6186  0.0808
 4023SOL    HW223703   1.381   1.764   5.556 -0.4156 -2.6658  1.8165
 4024SOL     OW23704   2.507   1.926  15.397  0.0016 -0.2013  0.8743
 4024SOL    HW123705   2.412   1.917  15.386  0.0304  2.3885 -1.4784
 4024SOL    HW223706   2.536   1.923  15.306  2.5253  1.9236  1.6315
 4025SOL     OW23707   1.419   2.126   4.005 -0.4180  0.4933 -0.3894
 4025SOL    HW123708   1.373   2.195   3.958 -0.2464  0.1941 -0.9918
 4025SOL    HW223709   1.451   2.171   4.083 -2.5169  0.3777  0.5224
 4026SOL     OW23710   2.071   2.568   6.637  0.0971  0.1749 -0.3692
 4026SOL    HW123711   2.160   2.598   6.658 -1.0078  1.4293  2.5985
 4026SOL    HW223712   2.032   2.575   6.724 -1.5024  0.1068 -1.0926
 4027SOL     OW23713   3.033   3.517   6.349 -0.1020 -0.2255 -0.0501
 4027SOL    HW123714   2.991   3.552   6.270  0.0220 -0.1596 -0.0873
 4027SOL    HW223715   3.105   3.579   6.362 -2.3384  2.7677 -2.0836
 4028SOL     OW23716   1.666   1.912   7.185 -0.1548 -0.4618 -0.1729
 4028SOL    HW123717   1.701   1.998   7.164  1.0925 -1.1215 -0.7370
 4028SOL    HW223718   1.647   1.877   7.098 -1.5549 -0.3881  0.0912
 4029SOL     OW23719   0.752   3.284   2.144  0.6099 -0.0609  0.5228
 4029SOL    HW123720   0.833   3.334   2.152 -1.1967  3.2426 -1.6524
 4029SOL    HW223721   0.745   3.285   2.048 -0.0232 -1.7382  0.5542
 4030SOL     OW23722   2.121   0.810   9.789  0.0027  0.0284  0.0649
 4030SOL    HW123723   2.102   0.856   9.707  0.2850  0.3727  0.1896
 4030SOL    HW223724   2.212   0.785   9.775  0.2423  0.9239 -0.0340
 4031SOL     OW23725   4.411   2.271  14.240 -0.2335  0.2370  0.2118
 4031SOL    HW123726   4.415   2.245  14.332 -0.5313 -0.8501 -0.0896
 4031SOL    HW223727   4.480   2.337  14.243  0.2939 -0.3574  1.2197
 4032SOL     OW23728   3.589   2.324  12.397 -0.4901  0.1739  0.2345
 4032SOL    HW123729   3.567   2.268  12.471 -1.7442  0.8534  0.3629
 4032SOL    HW223730   3.612   2.409  12.435 -1.5842  0.6206 -0.1133
 4033SOL     OW23731   3.814   2.484   7.303  0.4157  0.4168 -0.2833
 4033SOL    HW123732   3.825   2.389   7.295  1.6412  0.3674  1.9067
 4033SOL    HW223733   3.785   2.502   7.392  1.3194 -0.9147  0.2868
 4034SOL     OW23734   2.161   1.399   6.004 -0.1727 -0.5389 -0.6572
 4034SOL    HW123735   2.159   1.422   5.911 -2.9224 -0.0726 -0.4569
 4034SOL    HW223736   2.256   1.404   6.016 -0.1937 -3.2999  0.6248
 4035SOL     OW23737   3.839   0.623   7.423  0.0951  0.4066  0.2560
 4035SOL    HW123738   3.824   0.718   7.415 -1.7393  0.0220 -0.6639
 4035SOL    HW223739   3.911   0.618   7.486 -1.1890 -0.0966  1.6723
 4036SOL     OW23740   0.343   0.979  14.389 -0.7226  0.1859 -0.0522
 4036SOL    HW123741   0.273   1.023  14.340 -1.8525 -0.3201  1.1279
 4036SOL    HW223742   0.295   0.904  14.423 -0.3278 -0.1974 -0.3384
 4037SOL     OW23743   4.396   1.003   0.756  0.4612 -0.2224  0.4145
 4037SOL    HW123744   4.472   1.061   0.763  1.1552 -1.0367 -0.3847
 4037SOL    HW223745   4.409   0.946   0.832 -0.2630  0.8604  1.3522
 4038SOL     OW23746   1.361   1.926   7.958  0.5683 -0.2639 -0.0636
 4038SOL    HW123747   1.317   1.925   7.873  0.8974 -0.3166 -0.2351
 4038SOL    HW223748   1.333   2.008   7.998  0.2422  0.4559 -1.8137
 4039SOL     OW23749   0.052   1.124   6.405 -0.1186  0.3850 -0.5779
 4039SOL    HW123750   0.122   1.170   6.357  1.3085  0.1261  1.2422
 4039SOL    HW223751   4.711   1.144   6.355 -0.3672 -0.5042 -0.5323
 4040SOL     OW23752   4.276   3.296   3.928  0.3252 -0.4351 -0.0848
 4040SOL    HW123753   4.310   3.230   3.867  0.7368  0.2630 -0.6066
 4040SOL    HW223754   4.358   3.328   3.965  1.2247  1.7666 -3.9678
 4041SOL     OW23755   3.634   0.807   8.298  0.3617  0.1224  0.2751
 4041SOL    HW123756   3.568   0.797   8.367 -0.1743  1.7250  0.0037
 4041SOL    HW223757   3.573   0.794   8.226 -0.2055 -0.7122  0.9047
 4042SOL     OW23758   0.771   1.223   6.520  0.2127 -0.1168  0.4756
 4042SOL    HW123759   0.814   1.211   6.605  1.2254  1.3699  0.1728
 4042SOL    HW223760   0.708   1.295   6.526 -1.7953 -1.7686 -0.6666
 4043SOL     OW23761   2.432   2.727   2.936 -0.7577  0.7157 -0.2274
 4043SOL    HW123762   2.412   2.657   2.875  1.1812  0.2411 -0.3194
 4043SOL    HW223763   2.383   2.802   2.902  0.7618  1.3200 -1.0596
 4044SOL     OW23764   3.410   2.417   4.053  0.2990 -0.4329 -0.3641
 4044SOL    HW123765   3.344   2.370   4.105 -0.1737 -1.2716 -1.7081
 4044SOL    HW223766   3.355   2.462   3.989 -0.9424  0.8826  1.5859
 4045SOL     OW23767   0.330   0.934   3.934  0.1430 -0.2577  0.4414
 4045SOL    HW123768   0.385   0.942   3.856  0.6387  0.1664  0.8309
 4045SOL    HW223769   0.273   0.864   3.902  2.1047 -1.3768 -0.5883
 4046SOL     OW23770   2.362   2.743   6.069 -0.8212 -0.3620  0.5553
 4046SOL    HW123771   2.270   2.715   6.066 -0.7449 -0.5957  0.4095
 4046SOL    HW223772   2.360   2.837   6.089 -2.4900 -0.5075  1.0535
 4047SOL     OW23773   2.518   0.117   1.570 -0.1978 -0.5597 -0.2742
 4047SOL    HW123774   2.443   0.060   1.584  0.3527 -1.4950 -1.1380
 4047SOL    HW223775   2.590   0.053   1.565 -1.0031 -1.4654 -0.2170
 4048SOL     OW23776   0.847   0.820   3.530 -0.4033 -0.2753  0.1862
 4048SOL    HW123777   0.847   0.827   3.625 -0.6645 -0.1137  0.1750
 4048SOL    HW223778   0.936   0.847   3.507 -1.2823  0.2357 -2.6979
 4049SOL     OW23779   1.860   2.619  16.782 -0.2518  0.0142 -0.1144
 4049SOL    HW123780   1.934   2.600  16.840  1.5540  0.6175 -2.1975
 4049SOL    HW223781   1.797   2.550  16.802  1.4666 -0.8871  2.1713
 4050SOL     OW23782   3.886   3.842   7.714  0.0615  0.2870  0.4714
 4050SOL    HW123783   3.918   3.761   7.754  1.5899  0.3586 -0.6227
 4050SOL    HW223784   3.917   3.913   7.770 -0.9029  0.8581  0.2897
 4051SOL     OW23785   2.779   2.065  14.460 -0.1137 -0.5470 -0.0435
 4051SOL    HW123786   2.861   2.023  14.432  1.3552  1.8519  0.7412
 4051SOL    HW223787   2.791   2.106  14.545  0.8979 -0.3550 -0.2848
 4052SOL     OW23788   2.999   4.474   4.963  0.0691  0.2885  0.8129
 4052SOL    HW123789   3.091   4.500   4.951 -0.2434  1.2846  0.5901
 4052SOL    HW223790   3.020   4.418   5.038 -1.0744 -0.1050  0.8300
 4053SOL     OW23791   2.831   4.321   5.750  0.5858 -0.1380 -0.2900
 4053SOL    HW123792   2.896   4.380   5.789 -0.8585  1.1484  0.1985
 4053SOL    HW223793   2.797   4.375   5.678  0.1516  0.3043  0.2472
 4054SOL     OW23794   2.270   3.594   8.247 -0.0898 -0.7013 -0.0664
 4054SOL    HW123795   2.213   3.647   8.191  0.2806  0.0632  0.2870
 4054SOL    HW223796   2.327   3.654   8.295 -0.5616 -1.9685  2.0972
 4055SOL     OW23797   4.571   2.571   7.127 -0.1086 -0.2798  0.7905
 4055SOL    HW123798   4.525   2.487   7.132  1.0127 -1.0162 -1.2408
 4055SOL    HW223799   4.649   2.556   7.073 -0.3477  0.8472  0.1464
 4056SOL     OW23800   3.250   1.035   3.817 -0.1999 -0.4062 -0.5374
 4056SOL    HW123801   3.279   0.957   3.770 -0.2102 -0.7510  0.0153
 4056SOL    HW223802   3.237   1.098   3.747  2.2845 -0.4278 -1.0272
 4057SOL     OW23803   3.253   3.383   6.991  0.4896  0.0908 -0.3239
 4057SOL    HW123804   3.315   3.429   6.935 -0.2532  1.4082 -0.0682
 4057SOL    HW223805   3.176   3.387   6.934 -0.6074  3.4469  1.4214
 4058SOL     OW23806   0.110   1.959  10.037  0.0853  0.4797 -0.4205
 4058SOL    HW123807   0.031   1.916  10.005  0.4856 -1.1094  0.7299
 4058SOL    HW223808   0.163   1.969   9.958 -1.9458 -1.6634 -2.0479
 4059SOL     OW23809   2.784   4.228   9.176 -0.2176 -0.1389  0.5029
 4059SOL    HW123810   2.784   4.133   9.188  0.2478 -0.5031 -2.4403
 4059SOL    HW223811   2.856   4.251   9.235  0.0090  0.0399  0.1581
 4060SOL     OW23812   1.980   4.636   4.144 -0.0382  0.0992  0.1981
 4060SOL    HW123813   1.896   4.660   4.182 -0.7568 -1.3831 -0.4815
 4060SOL    HW223814   2.023   4.722   4.138  1.0105 -0.5515 -1.5513
 4061SOL     OW23815   3.478   3.706   9.369 -0.2387  0.1293 -0.1061
 4061SOL    HW123816   3.556   3.753   9.341 -0.2110  0.6584  0.8629
 4061SOL    HW223817   3.433   3.686   9.287  1.7689 -3.6665 -0.2816
 4062SOL     OW23818   4.322   1.097  17.327 -0.2726  0.0372 -0.4252
 4062SOL    HW123819   4.301   1.167  17.389 -2.7167  0.6093 -1.9203
 4062SOL    HW223820   4.415   1.079  17.342 -0.4510 -0.5972 -0.0802
 4063SOL     OW23821   0.098   1.154  15.955  0.0455  0.1530  0.3994
 4063SOL    HW123822   0.148   1.211  16.013 -2.5966  1.5637  1.2365
 4063SOL    HW223823   0.119   1.068  15.991 -0.0491  1.0296  2.5181
 4064SOL     OW23824   0.572   1.018   6.884 -0.4484  0.2716  0.5880
 4064SOL    HW123825   0.665   1.039   6.893 -0.6535  1.8510 -1.0651
 4064SOL    HW223826   0.570   0.991   6.793 -1.4813 -1.0040  0.9951
 4065SOL     OW23827   3.537   1.336  16.494  0.6198 -0.0032 -0.1029
 4065SOL    HW123828   3.572   1.408  16.546  0.0222 -0.9574  1.6024
 4065SOL    HW223829   3.601   1.306  16.429  0.9248  0.1367  0.1312
 4066SOL     OW23830   0.496   4.427   8.520  0.2471 -0.0708  0.2162
 4066SOL    HW123831   0.475   4.518   8.541  0.6392  0.6427 -2.5415
 4066SOL    HW223832   0.502   4.392   8.609  1.5207  0.3907  0.3088
 4067SOL     OW23833   3.117   0.278  11.897 -0.0856 -0.0894 -0.2960
 4067SOL    HW123834   3.144   0.327  11.820  1.6610 -1.5212 -0.5971
 4067SOL    HW223835   3.039   0.229  11.871  0.8392 -1.0732 -1.2067
 4068SOL     OW23836   2.751   2.415   8.813  0.2967 -0.0311 -0.2996
 4068SOL    HW123837   2.699   2.409   8.733 -0.4856  0.2759  0.1881
 4068SOL    HW223838   2.802   2.334   8.810 -1.1641 -0.9842  0.4804
 4069SOL     OW23839   4.113   3.067   4.201  0.1079  0.2066 -0.3986
 4069SOL    HW123840   4.065   3.116   4.267  0.9447 -2.3897  2.1736
 4069SOL    HW223841   4.071   2.982   4.217 -0.2081  0.4711  0.1681
 4070SOL     OW23842   0.326   3.494  15.509  0.2316  0.2020  0.1929
 4070SOL    HW123843   0.276   3.437  15.451  2.1014 -1.1644 -0.0957
 4070SOL    HW223844   0.286   3.579  15.494 -0.2325 -0.0076  0.2564
 4071SOL     OW23845   2.904   4.707  14.281  0.2139  0.2347 -0.0715
 4071SOL    HW123846   2.986   0.001  14.243  0.0865  1.1642  0.4473
 4071SOL    HW223847   2.930   4.616  14.267  2.2171  0.7502  0.2729
 4072SOL     OW23848   0.577   0.853   2.923  0.0406 -0.0512  0.1578
 4072SOL    HW123849   0.494   0.841   2.877  0.5345 -1.4962 -0.3573
 4072SOL    HW223850   0.556   0.907   2.999  0.4136 -2.0706  1.6874
 4073SOL     OW23851   2.091   1.519   6.862  0.1395 -0.4442 -0.6265
 4073SOL    HW123852   2.078   1.504   6.768 -2.0123 -0.9799 -0.2424
 4073SOL    HW223853   2.071   1.434   6.902  0.6010 -0.4467 -0.4023
 4074SOL     OW23854   1.641   4.614  14.135  0.1734 -0.5767  0.4697
 4074SOL    HW123855   1.582   4.604  14.060 -1.2270  0.9477  1.3619
 4074SOL    HW223856   1.596   4.683  14.183  1.5266  1.5375 -1.3024
 4075SOL     OW23857   2.761   1.725  14.727 -0.1668  0.2051  0.2786
 4075SOL    HW123858   2.688   1.706  14.667 -1.2453  1.0810  1.3014
 4075SOL    HW223859   2.835   1.683  14.685  0.6975  2.0533 -0.0408
 4076SOL     OW23860   0.772   2.032  15.169  0.1606  0.6589 -0.1429
 4076SOL    HW123861   0.734   2.107  15.122  2.3437  1.7412 -0.2225
 4076SOL    HW223862   0.841   2.067  15.225 -0.7057  0.4002  1.0708
 4077SOL     OW23863   0.662   2.673   0.333 -0.0639  0.0921  0.0264
 4077SOL    HW123864   0.588   2.631   0.289 -0.8742 -0.8255  2.2937
 4077SOL    HW223865   0.642   2.675   0.426  1.2150  0.5623  0.2864
 4078SOL     OW23866   0.181   0.969  13.964 -0.4891 -0.3918 -0.6853
 4078SOL    HW123867   0.154   0.891  13.914 -1.5918 -0.5053  0.0952
 4078SOL    HW223868   0.176   1.042  13.902 -1.0589 -2.3195 -2.9353
 4079SOL     OW23869   1.866   3.361   7.177 -0.0492  0.4437  0.0915
 4079SOL    HW123870   1.959   3.356   7.202  0.3511  1.0447 -1.2718
 4079SOL    HW223871   1.875   3.427   7.108  0.9673  1.0906  0.8272
 4080SOL     OW23872   2.862   2.982   3.394  0.5105  0.1897  0.1570
 4080SOL    HW123873   2.825   3.031   3.322  0.4969 -0.2559 -0.1406
 4080SOL    HW223874   2.949   3.018   3.408  0.5120 -0.2434  1.2705
 4081SOL     OW23875   2.072   0.315   6.194 -0.0308 -0.2878  0.6780
 4081SOL    HW123876   2.027   0.294   6.112  1.7104  1.5369 -0.7634
 4081SOL    HW223877   2.103   0.226   6.212  1.6156  0.4854  1.7319
 4082SOL     OW23878   4.065   0.723   6.382  0.4570  0.6143  0.7911
 4082SOL    HW123879   3.982   0.764   6.406  0.2372 -0.2396  1.4851
 4082SOL    HW223880   4.059   0.642   6.432 -0.2624 -0.8124 -1.6653
 4083SOL     OW23881   2.710   0.799  15.441 -0.7976 -0.0545 -0.2292
 4083SOL    HW123882   2.716   0.790  15.345 -0.9367 -0.8638 -0.1611
 4083SOL    HW223883   2.660   0.720  15.459  0.5145 -0.9362 -0.4686
 4084SOL     OW23884   1.628   1.796   5.372  0.0522  0.0456 -0.5848
 4084SOL    HW123885   1.536   1.798   5.398  0.8153 -0.1728  2.1295
 4084SOL    HW223886   1.630   1.727   5.305 -1.1991 -1.9640  1.4380
 4085SOL     OW23887   4.453   0.931  10.281 -0.4387  0.0476  0.2593
 4085SOL    HW123888   4.448   1.002  10.345  1.0448 -0.3613  0.8383
 4085SOL    HW223889   4.373   0.887  10.310 -2.2771  3.0520 -0.2743
 4086SOL     OW23890   1.953   0.416   4.533  0.5931 -0.0755  0.3545
 4086SOL    HW123891   1.922   0.500   4.500 -0.8158 -1.9176 -3.0449
 4086SOL    HW223892   1.873   0.368   4.511 -1.0591  1.7763  2.3692
 4087SOL     OW23893   1.880   2.007   9.146 -0.1106 -0.2305  0.2595
 4087SOL    HW123894   1.852   2.070   9.079 -1.1852 -0.7688  0.2054
 4087SOL    HW223895   1.823   1.932   9.128 -0.3392  0.1043 -0.3932
 4088SOL     OW23896   2.883   2.619  10.676  0.1073 -0.1657  0.0104
 4088SOL    HW123897   2.812   2.676  10.645  0.4776  0.9998  1.2749
 4088SOL    HW223898   2.903   2.583  10.590 -0.7139  0.8061 -0.5899
 4089SOL     OW23899   3.254   0.996   5.604 -0.2926 -1.2012  0.0874
 4089SOL    HW123900   3.171   0.980   5.650 -0.5669  0.3449  0.1641
 4089SOL    HW223901   3.244   0.943   5.525 -0.4806  1.4529 -1.6787
 4090SOL     OW23902   0.332   4.201   8.489  0.1421 -0.4405  0.4853
 4090SOL    HW123903   0.256   4.257   8.504  2.2192  2.2261  1.1275
 4090SOL    HW223904   0.390   4.265   8.448 -1.8091  1.1893  0.2511
 4091SOL     OW23905   1.374   0.559   8.746  0.0436  0.2889 -0.5617
 4091SOL    HW123906   1.385   0.645   8.785 -2.9808  0.4673 -0.0836
 4091SOL    HW223907   1.380   0.577   8.652  1.0563 -1.6167 -0.8690
 4092SOL     OW23908   2.217   0.425   8.502 -0.2226 -0.8938  0.2325
 4092SOL    HW123909   2.219   0.424   8.598 -1.2313 -1.1665  0.2484
 4092SOL    HW223910   2.266   0.505   8.483  2.8570 -2.2092  2.6955
 4093SOL     OW23911   3.900   4.633   7.236  0.8325 -0.2522 -0.0883
 4093SOL    HW123912   3.920   4.540   7.222  0.0057 -0.6479  1.2966
 4093SOL    HW223913   3.831   4.627   7.302  0.5450  1.7376 -0.2078
 4094SOL     OW23914   0.241   2.727   5.430 -0.2658 -0.6031 -0.6391
 4094SOL    HW123915   0.188   2.663   5.384 -0.9185 -0.3283 -0.2667
 4094SOL    HW223916   0.182   2.758   5.499  1.4496 -1.6301  1.2842
 4095SOL     OW23917   1.406   3.986   2.467  0.4925 -0.0445 -0.5770
 4095SOL    HW123918   1.368   4.003   2.380  1.7806  1.5378 -0.8231
 4095SOL    HW223919   1.405   4.064   2.522  1.6747  0.4018 -1.1923
 4096SOL     OW23920   2.793   1.999   8.621 -0.6971  0.2771 -0.6274
 4096SOL    HW123921   2.771   2.040   8.706 -1.0734 -2.4877  0.5952
 4096SOL    HW223922   2.878   1.966   8.647 -1.6358 -1.9638 -0.4432
 4097SOL     OW23923   2.859   0.299   8.400 -0.7083  0.4822 -0.2353
 4097SOL    HW123924   2.766   0.303   8.377 -0.6942 -1.0757 -0.5834
 4097SOL    HW223925   2.907   0.292   8.318 -0.8944 -1.0648 -0.2109
 4098SOL     OW23926   4.672   0.393   6.035  0.0480 -0.0306 -0.1797
 4098SOL    HW123927   4.688   0.393   6.130  0.5034  0.6673 -0.2579
 4098SOL    HW223928   0.022   0.373   6.003  0.1916 -1.2868  0.9888
 4099SOL     OW23929   3.013   2.156   6.289 -0.3247 -0.6663 -0.0941
 4099SOL    HW123930   3.039   2.156   6.382  0.1640  1.2790 -0.2393
 4099SOL    HW223931   2.919   2.169   6.302 -0.6199 -1.0253 -1.9719
 4100SOL     OW23932   3.238   4.547   8.590  0.2677  0.2215 -0.0396
 4100SOL    HW123933   3.152   4.510   8.609  0.6613 -0.4987  0.3237
 4100SOL    HW223934   3.223   4.567   8.497  0.7365 -0.6654 -0.3075
 4101SOL     OW23935   2.012   3.859   2.661  0.5750 -0.1954  0.8124
 4101SOL    HW123936   2.034   3.933   2.718 -2.3611  1.1542  0.1927
 4101SOL    HW223937   2.083   3.796   2.672 -0.0084 -0.7158  1.5392
 4102SOL     OW23938   0.972   1.717   2.075 -0.4175 -0.3280  0.0297
 4102SOL    HW123939   1.017   1.773   2.011  0.5288  0.2156  1.1838
 4102SOL    HW223940   0.982   1.767   2.156  2.1302  0.4180 -0.7562
 4103SOL     OW23941   3.641   3.562   4.676  0.1888  0.1061 -0.1554
 4103SOL    HW123942   3.582   3.603   4.740  0.1914  2.3093 -1.5680
 4103SOL    HW223943   3.575   3.519   4.622  0.2852 -0.4837  0.1988
 4104SOL     OW23944   3.419   2.934   1.117 -0.4233  0.2206 -0.4797
 4104SOL    HW123945   3.347   2.989   1.145 -0.9882  0.0871 -1.6563
 4104SOL    HW223946   3.446   2.977   1.036  1.4642  1.5417  0.8683
 4105SOL     OW23947   4.373   1.349  17.074 -0.0084  0.2546  0.0304
 4105SOL    HW123948   4.318   1.353  17.152 -1.9359 -1.4852 -1.2405
 4105SOL    HW223949   4.443   1.293  17.107  0.5566  2.0259  1.8503
 4106SOL     OW23950   1.167   2.857   8.375 -0.2484 -0.4403  0.7843
 4106SOL    HW123951   1.094   2.904   8.336  1.3820  2.3854  1.0606
 4106SOL    HW223952   1.178   2.924   8.443  0.8529 -0.5669  0.7390
 4107SOL     OW23953   3.413   3.310   7.484 -0.3659 -0.0373 -0.0345
 4107SOL    HW123954   3.387   3.352   7.565 -1.0073 -1.8252  0.6778
 4107SOL    HW223955   3.357   3.233   7.472  0.4634 -0.7941  1.0265
 4108SOL     OW23956   1.776   2.595   1.392 -0.5337 -0.2859  0.2132
 4108SOL    HW123957   1.772   2.501   1.411 -0.8841 -0.1312  0.9325
 4108SOL    HW223958   1.815   2.626   1.474 -0.6833 -0.4197  0.3380
 4109SOL     OW23959   2.847   4.553   5.596 -0.3361  0.2812 -0.2834
 4109SOL    HW123960   2.817   4.599   5.674 -1.5842 -0.0378 -0.5771
 4109SOL    HW223961   2.922   4.606   5.569 -1.3550  1.5780 -0.5808
 4110SOL     OW23962   2.826   3.278   7.937  0.8568 -0.7142  0.7771
 4110SOL    HW123963   2.793   3.331   8.010  0.8944 -0.0244  0.2898
 4110SOL    HW223964   2.746   3.237   7.906  1.9371 -1.3238 -1.1674
 4111SOL     OW23965   3.567   1.437   7.297  0.2668 -0.6378  0.0029
 4111SOL    HW123966   3.648   1.473   7.260 -0.0621 -0.2136 -0.2917
 4111SOL    HW223967   3.584   1.442   7.391 -3.4404 -0.3472  0.6465
 4112SOL     OW23968   4.672   4.358  15.204 -0.3610 -0.1057  0.1675
 4112SOL    HW123969   4.673   4.431  15.141 -0.5339 -1.7286 -1.7242
 4112SOL    HW223970   0.013   4.309  15.180 -0.2967  0.0145  0.1325
 4113SOL     OW23971   0.240   3.756   5.210 -0.1383 -0.6674 -0.1169
 4113SOL    HW123972   0.303   3.810   5.162 -0.9524 -1.4153 -2.0375
 4113SOL    HW223973   0.241   3.680   5.152  1.4261 -0.5268 -0.2740
 4114SOL     OW23974   1.490   3.208   6.199 -0.1703  0.4371 -0.0793
 4114SOL    HW123975   1.537   3.291   6.206 -1.5040  1.3594 -2.0576
 4114SOL    HW223976   1.554   3.141   6.222 -0.2864  0.2238 -0.3807
 4115SOL     OW23977   0.941   0.871   6.002 -0.1545 -0.4709 -0.2362
 4115SOL    HW123978   0.901   0.788   6.028  0.6554 -0.7197  0.2222
 4115SOL    HW223979   0.926   0.867   5.907  1.2031 -0.6043 -0.4497
 4116SOL     OW23980   4.628   3.857   6.788 -0.9533 -0.1670  0.4238
 4116SOL    HW123981   4.715   3.881   6.755 -1.8799  1.9062 -0.4781
 4116SOL    HW223982   4.572   3.934   6.782  0.2839  0.5491 -2.3568
 4117SOL     OW23983   0.608   0.156  10.023  0.0804 -0.0354  0.0763
 4117SOL    HW123984   0.535   0.103  10.054 -0.8084  1.0211 -0.2454
 4117SOL    HW223985   0.646   0.093   9.961 -0.7313 -1.1631  0.7199
 4118SOL     OW23986   4.433   3.200   4.525 -0.7392  0.5022  0.5204
 4118SOL    HW123987   4.409   3.292   4.521  1.2097  0.9659 -0.7854
 4118SOL    HW223988   4.438   3.184   4.431  0.1825  0.1652  0.6264
 4119SOL     OW23989   1.742   0.082   1.638 -0.4892 -0.0216 -0.2734
 4119SOL    HW123990   1.791   0.087   1.720 -0.2818  1.2014 -0.4681
 4119SOL    HW223991   1.802   0.025   1.588 -0.0638  0.4507 -0.3051
 4120SOL     OW23992   2.915   1.783   1.790 -0.0791  0.4738 -0.5223
 4120SOL    HW123993   2.840   1.737   1.751  1.7105 -0.9558 -2.2829
 4120SOL    HW223994   2.874   1.868   1.808 -2.3522 -0.8160  0.3990
 4121SOL     OW23995   2.118   2.188   5.347  0.9764  0.1012  0.8224
 4121SOL    HW123996   2.058   2.124   5.309 -0.2936  1.1832  0.9986
 4121SOL    HW223997   2.082   2.194   5.436 -1.9122  0.2037 -0.3468
 4122SOL     OW23998   3.879   0.735   4.748 -0.4949 -0.4121  0.1414
 4122SOL    HW123999   3.863   0.785   4.668 -0.8816 -0.1149  0.4047
 4122SOL    HW224000   3.972   0.712   4.740 -1.3859 -3.0801 -2.6583
 4123SOL     OW24001   2.629   0.973   2.116 -0.2646  0.2169 -0.2943
 4123SOL    HW124002   2.718   0.966   2.149 -0.2930 -2.8905 -0.8618
 4123SOL    HW224003   2.661   0.983   2.026  0.8475  1.4306  0.2326
 4124SOL     OW24004   2.266   0.640   2.405  0.0246  0.3499 -0.1255
 4124SOL    HW124005   2.251   0.669   2.495  2.0997  4.5575 -1.1302
 4124SOL    HW224006   2.344   0.694   2.390  1.3128 -1.5599 -0.2583
 4125SOL     OW24007   4.344   0.833  11.972  0.2628  0.6494  0.0213
 4125SOL    HW124008   4.271   0.770  11.976  1.6366 -1.0042 -0.8454
 4125SOL    HW224009   4.320   0.909  12.025  0.6457 -0.1717  1.3634
 4126SOL     OW24010   2.757   0.621  14.229  0.1094  0.2242  0.4527
 4126SOL    HW124011   2.800   0.569  14.161 -1.2159  0.1072 -0.3094
 4126SOL    HW224012   2.670   0.582  14.237  0.1682  0.4582  2.0850
 4127SOL     OW24013   2.962   3.638   9.134 -0.4128 -0.1757  0.0959
 4127SOL    HW124014   2.955   3.543   9.127  2.8151 -0.5005  1.1640
 4127SOL    HW224015   2.887   3.662   9.188 -0.2590 -0.1023  0.2786
 4128SOL     OW24016   3.985   3.122   6.780  0.4137  0.4925 -0.2465
 4128SOL    HW124017   3.945   3.089   6.860  0.3812 -1.0148 -0.8794
 4128SOL    HW224018   4.076   3.094   6.791 -0.9147 -3.0267  1.5932
 4129SOL     OW24019   1.071   3.203  12.353  0.4131 -0.4457 -0.8306
 4129SOL    HW124020   1.048   3.162  12.436 -1.1729 -0.9439 -1.5000
 4129SOL    HW224021   1.156   3.240  12.375  0.1763 -0.5027  0.1726
 4130SOL     OW24022   4.519   2.232   3.299  0.0029  0.2730 -0.2009
 4130SOL    HW124023   4.478   2.240   3.213 -1.4476  0.7105  0.5288
 4130SOL    HW224024   4.467   2.291   3.353 -1.5551 -0.4194 -0.9338
 4131SOL     OW24025   4.334   1.316  13.319  0.3742  0.2844  0.9378
 4131SOL    HW124026   4.323   1.321  13.224  1.4236 -0.2175  0.7794
 4131SOL    HW224027   4.381   1.232  13.322 -0.0061  0.0428  0.2405
 4132SOL     OW24028   4.529   1.007  13.316 -0.2204 -0.2547  0.1262
 4132SOL    HW124029   4.564   1.048  13.237  0.0386  1.3303  1.0601
 4132SOL    HW224030   4.606   1.009  13.373 -0.3714  0.5799  0.2976
 4133SOL     OW24031   4.184   4.585  11.171  0.0873  0.3713 -0.2060
 4133SOL    HW124032   4.102   4.613  11.211 -1.3353 -3.4679 -0.4565
 4133SOL    HW224033   4.221   4.537  11.245  0.3712  2.1841  0.8420
 4134SOL     OW24034   0.845   2.792   8.670 -0.4434  0.2150 -0.4355
 4134SOL    HW124035   0.936   2.820   8.677 -0.0668 -0.7120 -1.5056
 4134SOL    HW224036   0.850   2.699   8.692 -0.5667  0.8724  2.4090
 4135SOL     OW24037   0.288   0.372   1.460  0.6348  0.3294  0.0302
 4135SOL    HW124038   0.254   0.319   1.532 -1.5625 -0.2195 -1.4372
 4135SOL    HW224039   0.309   0.313   1.388  1.1688 -0.7255  1.0577
 4136SOL     OW24040   3.528   3.617  17.028  0.4861  0.7247 -0.1850
 4136SOL    HW124041   3.489   3.619  17.115 -0.9415 -0.5668 -0.7907
 4136SOL    HW224042   3.586   3.693  17.021  2.2619 -0.5215  1.1451
 4137SOL     OW24043   1.148   2.156   4.225  0.2447  0.3308 -0.2931
 4137SOL    HW124044   1.088   2.107   4.169 -0.6670 -0.5525  1.4619
 4137SOL    HW224045   1.211   2.090   4.253 -1.1487 -0.4478  0.9795
 4138SOL     OW24046   0.081   3.256   0.297  0.3349 -0.2753 -0.3354
 4138SOL    HW124047   0.129   3.323   0.248 -0.8648  1.4846  0.8926
 4138SOL    HW224048   0.098   3.286   0.386  1.3502  0.5046 -0.7883
 4139SOL     OW24049   3.582   2.914   7.010  1.2243  0.1101 -0.4007
 4139SOL    HW124050   3.611   2.909   6.919 -0.2612  0.3409 -0.8780
 4139SOL    HW224051   3.660   2.929   7.063  1.0067 -2.9139  0.7700
 4140SOL     OW24052   3.275   2.228  13.073  0.2966 -0.3825 -0.4600
 4140SOL    HW124053   3.215   2.163  13.110 -0.7430  0.1463 -1.2143
 4140SOL    HW224054   3.329   2.236  13.151 -0.0611  1.4532 -0.3921
 4141SOL     OW24055   0.907   1.456   4.909  0.6529 -0.5652 -0.2479
 4141SOL    HW124056   0.937   1.544   4.889  0.1299 -0.3309  0.0016
 4141SOL    HW224057   0.828   1.442   4.857  0.6259 -3.0262  0.4325
 4142SOL     OW24058   3.707   2.230   5.181 -0.4331  0.2985 -0.0271
 4142SOL    HW124059   3.782   2.276   5.218  1.0411 -2.1507  0.0942
 4142SOL    HW224060   3.669   2.187   5.257  0.2321 -1.0114 -0.4228
 4143SOL     OW24061   1.973   1.707   3.858  0.1045  0.5095 -0.0934
 4143SOL    HW124062   2.016   1.663   3.785  0.1627  0.5281 -0.0697
 4143SOL    HW224063   1.948   1.794   3.826  0.7942  0.4257 -0.8641
 4144SOL     OW24064   3.516   0.682   7.070  0.0367  0.4203 -0.1166
 4144SOL    HW124065   3.573   0.633   7.010  0.7618  2.4953 -1.1165
 4144SOL    HW224066   3.556   0.769   7.061 -0.9168  0.7056 -1.6398
 4145SOL     OW24067   1.329   1.438  16.461  0.1592  0.0492 -0.3754
 4145SOL    HW124068   1.416   1.438  16.420  0.4783 -0.7005  0.2967
 4145SOL    HW224069   1.277   1.399  16.391 -0.5148  0.5603 -0.1485
 4146SOL     OW24070   3.823   2.846   7.781 -0.4028  0.1036  0.0501
 4146SOL    HW124071   3.867   2.923   7.744 -2.0534  0.6602 -0.7438
 4146SOL    HW224072   3.898   2.792   7.807  0.7776  1.2586 -0.9561
 4147SOL     OW24073   4.174   3.176   6.987  0.4386  0.0390  0.2445
 4147SOL    HW124074   4.253   3.228   6.970 -0.0789  0.6314 -0.3910
 4147SOL    HW224075   4.205   3.092   6.954 -1.5836 -0.4341 -0.4329
 4148SOL     OW24076   1.601   1.668   4.629 -0.3914  0.3256 -0.0248
 4148SOL    HW124077   1.515   1.661   4.670 -0.2358 -0.7710  0.0948
 4148SOL    HW224078   1.616   1.762   4.644  1.2662  0.2214 -1.0239
 4149SOL     OW24079   3.671   2.475  11.310  0.3739  0.2325  0.6182
 4149SOL    HW124080   3.628   2.560  11.308  0.3916  0.2751  3.0876
 4149SOL    HW224081   3.673   2.459  11.215 -1.9193 -1.8014  0.9052
 4150SOL     OW24082   0.382   3.903   4.311 -0.2538 -0.2890  0.7197
 4150SOL    HW124083   0.437   3.917   4.234  0.9039  0.4456  1.6804
 4150SOL    HW224084   0.314   3.845   4.277 -2.0492  1.5106  1.2413
 4151SOL     OW24085   3.470   1.347   2.019  0.2372  0.2600 -0.0665
 4151SOL    HW124086   3.441   1.426   1.974 -1.4514 -0.3370 -0.0142
 4151SOL    HW224087   3.476   1.388   2.105 -0.3781  0.6124 -0.1974
 4152SOL     OW24088   3.371   3.736   3.505 -0.2338 -0.1292 -0.1834
 4152SOL    HW124089   3.287   3.689   3.504 -1.1302  1.4204  2.2102
 4152SOL    HW224090   3.348   3.821   3.543  0.8312  0.3226 -0.5521
 4153SOL     OW24091   0.117   3.922   7.952  1.4245  0.2820  0.4596
 4153SOL    HW124092   0.052   3.855   7.974  1.8067 -0.2872 -0.1203
 4153SOL    HW224093   0.196   3.869   7.967  0.3747 -1.9232 -1.8004
 4154SOL     OW24094   3.688   0.322   8.549 -0.0595 -0.2214  0.2146
 4154SOL    HW124095   3.782   0.312   8.537  0.0623 -0.7897  1.6352
 4154SOL    HW224096   3.659   0.240   8.508 -1.5015  0.5862 -0.3737
 4155SOL     OW24097   1.667   3.991  14.889  0.1500  0.2445  0.1551
 4155SOL    HW124098   1.708   4.068  14.850  2.0316 -0.7434  0.1839
 4155SOL    HW224099   1.583   4.007  14.846  1.1346  2.7322 -0.8493
 4156SOL     OW24100   3.594   0.950  13.812  0.3154 -0.0728  0.1606
 4156SOL    HW124101   3.570   0.952  13.905  2.3180 -2.4481  0.7010
 4156SOL    HW224102   3.511   0.912  13.783  1.4837 -1.1566 -1.7411
 4157SOL     OW24103   3.552   1.715  13.183 -0.1826  0.0983 -0.4130
 4157SOL    HW124104   3.492   1.790  13.193  0.5746  0.7355 -0.6332
 4157SOL    HW224105   3.619   1.760  13.131 -0.6472  0.8236 -0.3880
 4158SOL     OW24106   1.098   4.467   5.154  0.3327 -0.1023  0.0519
 4158SOL    HW124107   1.136   4.415   5.084  2.6460 -0.3580  1.4814
 4158SOL    HW224108   1.178   4.517   5.169 -1.0389  2.2285 -0.2923
 4159SOL     OW24109   1.884   3.051   3.333  0.5248  0.4163  0.3194
 4159SOL    HW124110   1.908   3.135   3.293 -2.1677  0.9200 -0.2320
 4159SOL    HW224111   1.798   3.038   3.293 -0.0441 -1.2290  2.0733
 4160SOL     OW24112   3.663   3.045  10.829 -0.3791 -0.0437 -0.6280
 4160SOL    HW124113   3.736   2.988  10.851 -2.1413 -1.2596  2.1075
 4160SOL    HW224114   3.632   3.080  10.913 -1.7648 -3.5935  0.3227
 4161SOL     OW24115   3.501   2.719   6.431  0.3825  0.0110  0.1732
 4161SOL    HW124116   3.528   2.799   6.386 -0.3374 -0.3863 -0.9660
 4161SOL    HW224117   3.439   2.754   6.496  1.4024  2.7987 -0.3899
 4162SOL     OW24118   2.542   3.461   9.154  0.5101  0.2619  0.4111
 4162SOL    HW124119   2.453   3.472   9.119  0.2618  0.1450  1.0037
 4162SOL    HW224120   2.572   3.378   9.117  1.4552  0.6867  0.2250
 4163SOL     OW24121   1.723   2.823   2.580  0.2083  0.4945  0.4123
 4163SOL    HW124122   1.671   2.881   2.635  0.6985  0.2468  1.1320
 4163SOL    HW224123   1.802   2.805   2.631  0.1450  1.1613  0.7456
 4164SOL     OW24124   0.235   1.384   7.290 -0.1610 -0.3416 -0.4563
 4164SOL    HW124125   0.221   1.471   7.326 -0.9205 -0.7009  0.1212
 4164SOL    HW224126   0.160   1.385   7.230  0.9239  0.5172 -1.7749
 4165SOL     OW24127   0.764   3.378   1.080 -0.0711  0.3811 -0.7098
 4165SOL    HW124128   0.782   3.371   1.173  1.3145  1.3493 -0.8961
 4165SOL    HW224129   0.700   3.308   1.067  0.9308 -0.5853 -0.4942
 4166SOL     OW24130   2.735   2.393   9.544  0.0715  0.3302  0.2320
 4166SOL    HW124131   2.651   2.429   9.518  0.9595  2.8926  0.9195
 4166SOL    HW224132   2.774   2.479   9.561 -0.6386  0.9185 -1.1505
 4167SOL     OW24133   4.376   0.466   3.097  0.4981 -0.1047 -0.0787
 4167SOL    HW124134   4.328   0.492   3.018 -0.1304 -0.6469  0.1179
 4167SOL    HW224135   4.345   0.375   3.097 -1.1630  0.4517 -2.4697
 4168SOL     OW24136   2.176   1.974   4.616  0.6805 -0.0120  0.1604
 4168SOL    HW124137   2.267   1.992   4.642  0.2913 -0.3484  1.7447
 4168SOL    HW224138   2.172   1.880   4.600  0.0983  0.2415 -1.1553
 4169SOL     OW24139   1.785   1.697   6.671  0.3669  0.4130  0.1080
 4169SOL    HW124140   1.866   1.721   6.627  0.5258  1.0112  0.7286
 4169SOL    HW224141   1.815   1.669   6.758 -0.7311  1.1804  0.7423
 4170SOL     OW24142   2.234   4.443   4.236 -0.0977  0.5085 -0.1699
 4170SOL    HW124143   2.203   4.505   4.170  0.4400  0.2914 -0.6269
 4170SOL    HW224144   2.280   4.497   4.301  0.0789  0.3380 -0.1557
 4171SOL     OW24145   4.133   4.441   8.178  0.6795  0.1699 -0.2768
 4171SOL    HW124146   4.098   4.500   8.245 -2.2942 -0.3715 -1.3568
 4171SOL    HW224147   4.090   4.358   8.198 -0.0014  1.4819  3.8061
 4172SOL     OW24148   1.512   2.427   8.740 -0.1337  0.2191  0.0193
 4172SOL    HW124149   1.500   2.369   8.665 -1.2646  1.3400 -0.6621
 4172SOL    HW224150   1.547   2.508   8.703 -0.5122  0.4526  0.1699
 4173SOL     OW24151   1.018   4.676   6.769  0.0157  0.6477 -0.6781
 4173SOL    HW124152   1.005   4.642   6.858  0.1734  0.9023 -0.5585
 4173SOL    HW224153   0.931   4.698   6.736  0.4163  0.2879 -1.9735
 4174SOL     OW24154   1.090   3.273   8.445 -0.1524  0.2342 -0.4694
 4174SOL    HW124155   1.115   3.364   8.426  1.1062 -0.0642 -0.2762
 4174SOL    HW224156   1.017   3.283   8.506  0.3996 -1.7737  0.5272
 4175SOL     OW24157   4.405   2.561   2.874  0.4699  0.1020  0.2781
 4175SOL    HW124158   4.319   2.568   2.832 -0.1141 -1.9066  1.1228
 4175SOL    HW224159   4.422   2.654   2.890 -2.1707 -0.0337  3.7592
 4176SOL     OW24160   2.206   2.850  14.317  0.4557  0.1123  0.2071
 4176SOL    HW124161   2.175   2.940  14.318 -2.0293 -0.7342 -1.1701
 4176SOL    HW224162   2.128   2.798  14.335  1.7661 -1.3891  1.5840
 4177SOL     OW24163   0.914   3.743   4.637  0.4221  0.4400  0.3250
 4177SOL    HW124164   0.873   3.794   4.706  1.3681  2.9888 -0.9915
 4177SOL    HW224165   0.897   3.652   4.661 -0.9944  0.7620  0.5049
 4178SOL     OW24166   3.952   1.125  15.269  0.0576 -0.2146 -0.1152
 4178SOL    HW124167   3.936   1.081  15.186 -0.6702  1.7662 -1.0255
 4178SOL    HW224168   4.034   1.167  15.243 -0.0146  0.9266  1.4852
 4179SOL     OW24169   2.315   3.371  10.538  0.1435  0.0020  0.2584
 4179SOL    HW124170   2.253   3.345  10.606  1.6060 -0.7644  1.3044
 4179SOL    HW224171   2.316   3.467  10.537 -0.4203  0.0070  0.3539
 4180SOL     OW24172   1.894   2.542   2.343 -0.2233  0.1358 -0.0814
 4180SOL    HW124173   1.867   2.542   2.435  0.4832  2.0801  0.1316
 4180SOL    HW224174   1.827   2.483   2.308  0.8031 -1.1022  0.0651
 4181SOL     OW24175   1.900   1.844   1.398  0.1454 -0.0746  0.4982
 4181SOL    HW124176   1.827   1.799   1.440  1.2474 -0.8739  1.5358
 4181SOL    HW224177   1.941   1.771   1.352  0.1862  1.3809 -1.7507
 4182SOL     OW24178   1.186   2.488   1.829 -0.2257  0.3496 -0.1218
 4182SOL    HW124179   1.092   2.506   1.834 -0.5244 -1.1086 -0.3760
 4182SOL    HW224180   1.219   2.569   1.867  0.3853 -0.0936  0.2931
 4183SOL     OW24181   1.922   2.197  15.259 -0.2913 -0.2789  0.9153
 4183SOL    HW124182   1.957   2.187  15.171  0.8367 -1.1215  1.4442
 4183SOL    HW224183   1.945   2.112  15.297  2.3310 -0.1192 -0.3054
 4184SOL     OW24184   3.353   2.054   5.517 -0.2377  1.0416  0.1269
 4184SOL    HW124185   3.314   2.094   5.595 -0.9135 -0.5360  0.5886
 4184SOL    HW224186   3.391   1.976   5.557 -0.2249  0.7710 -0.4041
 4185SOL     OW24187   2.347   0.888  13.077 -0.7584  0.5000 -0.2511
 4185SOL    HW124188   2.415   0.921  13.018 -0.6024  1.0448  0.2353
 4185SOL    HW224189   2.308   0.970  13.104 -2.3322 -0.8702  1.5986
 4186SOL     OW24190   0.107   2.144   4.321  0.1829 -0.4385 -0.4769
 4186SOL    HW124191   0.130   2.090   4.396 -0.3034 -0.3877 -0.2905
 4186SOL    HW224192   0.079   2.068   4.270  1.2816 -1.9364  1.2045
 4187SOL     OW24193   1.766   2.664   2.026  0.0394  0.7978  0.0436
 4187SOL    HW124194   1.781   2.574   1.994  0.1929  0.6550  0.5257
 4187SOL    HW224195   1.671   2.667   2.028 -0.0528 -0.7199 -1.5346
 4188SOL     OW24196   1.987   3.142   4.173 -0.3846 -0.8801 -0.1101
 4188SOL    HW124197   2.063   3.196   4.195  0.2204 -0.8507 -2.2199
 4188SOL    HW224198   1.949   3.202   4.110 -0.6325 -0.2264  0.6721
 4189SOL     OW24199   3.374   3.942  16.408  0.4531  0.4858 -0.0950
 4189SOL    HW124200   3.464   3.958  16.381 -0.3281  1.4365 -2.1280
 4189SOL    HW224201   3.367   4.026  16.454  1.6686 -0.9745  2.7776
 4190SOL     OW24202   3.440   2.223   9.887  0.7021  0.1594 -0.4474
 4190SOL    HW124203   3.493   2.294   9.849  1.5577 -0.3869 -0.2652
 4190SOL    HW224204   3.493   2.169   9.945 -1.4086 -0.2641  1.0847
 4191SOL     OW24205   2.436   0.518   7.045 -0.4501 -0.2364  0.2207
 4191SOL    HW124206   2.429   0.430   7.080  0.0381  0.4802  2.0974
 4191SOL    HW224207   2.370   0.517   6.975  1.1851  0.3619 -1.3244
 4192SOL     OW24208   1.442   3.968   5.420 -0.0716 -0.1426  0.7547
 4192SOL    HW124209   1.430   4.062   5.436 -2.6563 -0.5330  1.1958
 4192SOL    HW224210   1.511   3.950   5.484  0.5574  1.8170  0.6415
 4193SOL     OW24211   4.292   2.803   9.173  0.1443 -0.0364  0.4016
 4193SOL    HW124212   4.361   2.782   9.236  0.9946  0.7331 -0.2764
 4193SOL    HW224213   4.256   2.869   9.232  0.9889  0.2204  0.6203
 4194SOL     OW24214   0.153   3.516  11.649 -0.7816  0.6141 -0.3158
 4194SOL    HW124215   0.087   3.460  11.689 -1.0311  1.8085  0.9567
 4194SOL    HW224216   0.156   3.467  11.567  0.2666  2.3567 -1.3189
 4195SOL     OW24217   3.155   4.273  12.880  0.2888 -0.0232 -0.1863
 4195SOL    HW124218   3.180   4.358  12.844 -1.6837  1.0651  0.9861
 4195SOL    HW224219   3.239   4.240  12.912  1.7850  2.6779 -1.2559
 4196SOL     OW24220   3.760   3.758   8.517  0.4642 -0.0134  0.0888
 4196SOL    HW124221   3.711   3.794   8.591  0.2163 -0.6437  0.2362
 4196SOL    HW224222   3.840   3.730   8.561  1.6831  1.5750 -1.1617
 4197SOL     OW24223   4.508   2.146   2.846 -0.3402 -0.0002  0.6322
 4197SOL    HW124224   4.527   2.239   2.857 -0.5224  0.2584 -1.1290
 4197SOL    HW224225   4.432   2.147   2.786  1.2035 -0.7627 -1.3357
 4198SOL     OW24226   4.601   4.470   5.740 -0.5334  0.5522 -0.6614
 4198SOL    HW124227   4.565   4.544   5.789  0.0027 -0.3853  1.1393
 4198SOL    HW224228   4.538   4.468   5.669  1.4827  0.7354 -2.4513
 4199SOL     OW24229   4.498   1.460  16.633  0.0775 -0.4010 -0.2126
 4199SOL    HW124230   4.421   1.406  16.650  0.4558 -1.1175 -0.8184
 4199SOL    HW224231   4.468   1.498  16.550 -4.5308 -1.3253  1.0137
 4200SOL     OW24232   2.578   3.988   7.995 -0.5981 -0.3932  0.1380
 4200SOL    HW124233   2.658   3.935   7.986  0.9542  2.2679 -1.8699
 4200SOL    HW224234   2.540   3.954   8.076  0.2407 -1.3225  0.1415
 4201SOL     OW24235   3.024   4.234   2.968  0.1833  0.3973 -0.0960
 4201SOL    HW124236   3.030   4.255   3.061  2.5290  0.9383 -0.3818
 4201SOL    HW224237   2.950   4.291   2.945  0.6219  0.1331 -2.1280
 4202SOL     OW24238   3.554   0.033  16.931 -0.3191  0.3018  0.4435
 4202SOL    HW124239   3.558   4.686  16.976 -0.4296  0.5635  0.9329
 4202SOL    HW224240   3.473   0.078  16.951  0.2154  2.0634 -1.3070
 4203SOL     OW24241   4.061   1.813  12.243  0.3699 -0.8374 -0.4443
 4203SOL    HW124242   4.095   1.753  12.309  0.6774  0.9692  1.0412
 4203SOL    HW224243   4.122   1.887  12.243  0.8437 -1.2333 -1.3321
 4204SOL     OW24244   0.407   0.020   6.032  0.3821 -0.2535  0.4531
 4204SOL    HW124245   0.363   4.700   6.095  2.3262 -0.7436  1.3790
 4204SOL    HW224246   0.441   0.087   6.091 -1.0347  0.1751  0.7776
 4205SOL     OW24247   3.764   0.217   3.268  0.1764 -0.6452  0.0203
 4205SOL    HW124248   3.747   0.310   3.280 -1.3310 -1.0810  1.2542
 4205SOL    HW224249   3.828   0.200   3.336 -1.4848 -0.9105  1.5074
 4206SOL     OW24250   3.635   3.755   1.450  0.1515 -0.4011 -0.2770
 4206SOL    HW124251   3.617   3.759   1.357 -3.0855 -1.9676  0.2890
 4206SOL    HW224252   3.730   3.764   1.456  0.3400 -2.2584 -0.4860
 4207SOL     OW24253   2.222   0.513  12.036  0.1184  0.3139 -0.3667
 4207SOL    HW124254   2.169   0.588  12.008 -1.2396  0.1409  1.7150
 4207SOL    HW224255   2.222   0.528  12.130  0.7902  1.9517 -0.6307
 4208SOL     OW24256   1.632   1.509   4.402  0.3407  0.2891  0.7415
 4208SOL    HW124257   1.559   1.447   4.414  0.2810 -0.4854 -3.6509
 4208SOL    HW224258   1.637   1.557   4.484 -0.7154  3.5576 -1.0937
 4209SOL     OW24259   2.108   3.113   5.873 -0.1546 -0.0293 -0.5646
 4209SOL    HW124260   2.182   3.170   5.889  0.8584 -1.5019  0.0092
 4209SOL    HW224261   2.066   3.121   5.959 -0.0872 -0.5632 -0.4838
 4210SOL     OW24262   2.344   4.124   3.107 -0.1770 -0.2200 -0.3615
 4210SOL    HW124263   2.352   4.180   3.184  5.2301 -0.7457 -0.5328
 4210SOL    HW224264   2.392   4.175   3.042  1.0675 -0.0243  0.7150
 4211SOL     OW24265   0.144   0.151   4.430  0.3154  0.0986 -0.0232
 4211SOL    HW124266   0.054   0.182   4.420  0.8837  1.5299 -0.7248
 4211SOL    HW224267   0.174   0.122   4.344 -0.0996 -0.0650 -0.1115
 4212SOL     OW24268   4.082   0.749   8.623 -0.1348  0.1734  0.2362
 4212SOL    HW124269   4.036   0.831   8.645 -0.1988  0.6292 -1.6292
 4212SOL    HW224270   4.106   0.723   8.712  0.5419 -0.0756 -0.0206
 4213SOL     OW24271   4.388   0.859   5.158 -0.4007 -0.6246 -0.3720
 4213SOL    HW124272   4.388   0.951   5.187  1.4689 -1.0112  0.8989
 4213SOL    HW224273   4.478   0.830   5.174 -0.4576 -1.0913 -0.9128
 4214SOL     OW24274   2.589   1.766  10.465 -0.2893  0.5383  0.3766
 4214SOL    HW124275   2.597   1.779  10.371  1.8779  1.7208  0.7375
 4214SOL    HW224276   2.499   1.733  10.474  0.2636 -1.5724 -1.8752
 4215SOL     OW24277   1.597   4.258   8.635  0.6576  0.4442 -0.5262
 4215SOL    HW124278   1.521   4.313   8.650  1.5413  1.2745  0.8653
 4215SOL    HW224279   1.650   4.288   8.709  0.5056 -0.5372 -0.0248
 4216SOL     OW24280   1.254   1.875   9.188  0.6241  0.8362 -0.1139
 4216SOL    HW124281   1.181   1.845   9.243 -1.1685  1.2697 -2.2741
 4216SOL    HW224282   1.244   1.970   9.201 -1.9034  0.9655 -3.0204
 4217SOL     OW24283   1.740   4.526  12.538  0.2616 -0.4779 -0.4920
 4217SOL    HW124284   1.784   4.533  12.453 -0.3180 -1.4640 -0.8828
 4217SOL    HW224285   1.664   4.578  12.511  0.0383 -0.6637 -0.2199
 4218SOL     OW24286   3.729   2.105   2.326 -0.2745  0.3101  0.2243
 4218SOL    HW124287   3.813   2.150   2.327  0.5123 -1.1762  0.5314
 4218SOL    HW224288   3.745   2.042   2.396  0.6878  0.2466 -0.0582
 4219SOL     OW24289   0.725   0.065   4.473  0.1131 -0.5254  0.1566
 4219SOL    HW124290   0.683   4.719   4.456 -0.9886  0.0456  0.0579
 4219SOL    HW224291   0.696   0.102   4.389 -0.3266 -2.7245 -0.6578
 4220SOL     OW24292   4.501   1.143   1.564  0.1371  0.5390  0.3546
 4220SOL    HW124293   4.535   1.084   1.497 -1.3142 -0.4518  0.4871
 4220SOL    HW224294   4.576   1.201   1.579  0.1872 -0.0157  2.1599
 4221SOL     OW24295   0.188   3.368   6.836  0.1332 -0.2654 -0.4215
 4221SOL    HW124296   0.156   3.426   6.905 -0.2833 -0.6356 -0.3025
 4221SOL    HW224297   0.283   3.373   6.841  0.0158  0.3244  1.3360
 4222SOL     OW24298   3.293   3.751   5.357  0.5576 -0.0725 -0.5433
 4222SOL    HW124299   3.334   3.758   5.270  0.0248 -1.6738 -0.9140
 4222SOL    HW224300   3.289   3.843   5.383  2.0379 -0.5485  1.3598
 4223SOL     OW24301   2.578   2.392   8.622 -0.0898  0.1192  0.2480
 4223SOL    HW124302   2.557   2.476   8.581 -1.3575  0.4876  1.6788
 4223SOL    HW224303   2.603   2.347   8.541 -0.4793 -0.3393  0.3819
 4224SOL     OW24304   0.377   3.279   4.235 -0.2553 -0.2066  0.2229
 4224SOL    HW124305   0.398   3.196   4.278 -1.2846 -0.7378 -0.2839
 4224SOL    HW224306   0.419   3.329   4.305 -0.2770 -0.8390  0.6848
 4225SOL     OW24307   3.582   2.462   6.009 -0.4107  0.2965 -0.3143
 4225SOL    HW124308   3.607   2.550   6.037  2.8070 -1.1174  1.3206
 4225SOL    HW224309   3.670   2.439   5.979  0.6517 -0.0287  3.0525
 4226SOL     OW24310   4.631   1.038  14.047  0.4451 -0.5760 -0.0767
 4226SOL    HW124311   4.725   1.023  14.040  0.4388 -1.1024  1.0673
 4226SOL    HW224312   4.598   0.960  14.002  1.2372 -1.1226  0.3053
 4227SOL     OW24313   0.202   2.741   6.001 -0.2576  0.5057  0.2090
 4227SOL    HW124314   0.286   2.719   6.042 -0.2892  0.8947  0.4850
 4227SOL    HW224315   0.187   2.823   6.047 -0.7033  0.5705 -0.0526
 4228SOL     OW24316   2.650   2.933   2.659  0.9102  0.4278 -0.6168
 4228SOL    HW124317   2.732   2.913   2.705  1.1213 -0.9384 -1.5853
 4228SOL    HW224318   2.623   2.993   2.728 -2.4404 -0.0293 -1.5198
 4229SOL     OW24319   0.014   2.459   5.585 -0.2529  0.0975 -0.1767
 4229SOL    HW124320   0.066   2.496   5.657  0.5416  0.3799 -0.8967
 4229SOL    HW224321   0.081   2.405   5.542 -0.7723 -1.3465  0.7939
 4230SOL     OW24322   3.392   2.059   7.919  0.2663  0.3347 -0.3248
 4230SOL    HW124323   3.332   2.042   7.846 -1.8124  0.7090  1.3123
 4230SOL    HW224324   3.360   1.991   7.978 -1.0584 -0.9208 -2.4862
 4231SOL     OW24325   3.538   3.531  15.677  0.4404  0.4214  0.4993
 4231SOL    HW124326   3.473   3.506  15.744 -2.9219 -1.4356 -3.4627
 4231SOL    HW224327   3.485   3.585  15.619  1.1815 -1.9083 -2.3569
 4232SOL     OW24328   4.665   0.486   4.279  0.1785  0.2851  0.2802
 4232SOL    HW124329   4.623   0.521   4.200  1.8288  0.1157 -0.6727
 4232SOL    HW224330   0.008   0.454   4.239  1.1292 -0.3445  2.7471
 4233SOL     OW24331   4.679   2.259  15.974  0.0105  0.7970 -0.7409
 4233SOL    HW124332   4.736   2.209  15.916  2.6045  2.1289  0.6939
 4233SOL    HW224333   4.737   2.268  16.049  1.0846  1.1206 -1.6204
 4234SOL     OW24334   4.281   4.403   8.667 -0.3462 -0.1270 -0.5552
 4234SOL    HW124335   4.202   4.354   8.645  0.6618 -1.5322 -1.0323
 4234SOL    HW224336   4.243   4.474   8.719 -0.5832 -0.6905  0.0479
 4235SOL     OW24337   2.767   3.253   5.272  0.2300 -0.4094 -0.1806
 4235SOL    HW124338   2.676   3.239   5.248 -0.1814 -0.0456  1.1947
 4235SOL    HW224339   2.808   3.182   5.222 -3.4532  0.1491 -3.9312
 4236SOL     OW24340   0.559   4.162  13.043 -0.2891  0.4820 -0.2308
 4236SOL    HW124341   0.615   4.177  12.967  0.4062 -0.7180  0.0485
 4236SOL    HW224342   0.542   4.069  13.028 -4.3502  1.0034  1.2927
 4237SOL     OW24343   1.446   2.469   2.724 -0.1027  0.0006  0.2229
 4237SOL    HW124344   1.522   2.421   2.758 -0.7774 -0.4211  1.1285
 4237SOL    HW224345   1.375   2.451   2.786  0.5862  0.2811  1.0975
 4238SOL     OW24346   1.744   2.302  13.217  0.1173 -0.2131  0.1405
 4238SOL    HW124347   1.807   2.321  13.148 -2.6030  0.8599 -2.0675
 4238SOL    HW224348   1.672   2.273  13.162 -0.5232 -3.5063  2.6959
 4239SOL     OW24349   3.818   0.596   1.761 -0.0982  0.1162  0.0691
 4239SOL    HW124350   3.858   0.535   1.823 -3.0706 -1.3361  0.5537
 4239SOL    HW224351   3.753   0.638   1.818  0.3249  2.7339 -1.3700
 4240SOL     OW24352   1.945   0.147   5.521  0.4995  0.2422  0.0806
 4240SOL    HW124353   1.878   0.113   5.581  1.9871 -2.2367  0.3404
 4240SOL    HW224354   2.021   0.091   5.533 -1.4222 -2.4734 -0.2939
 4241SOL     OW24355   3.132   3.900   5.626  0.5291  0.1882 -0.3299
 4241SOL    HW124356   3.139   3.919   5.532  0.4773 -1.1682 -0.6168
 4241SOL    HW224357   3.045   3.936   5.641  0.2459 -0.2115 -0.9951
 4242SOL     OW24358   3.903   0.322   8.191  0.3212 -0.2387 -0.1857
 4242SOL    HW124359   3.918   0.370   8.110  1.1316 -0.4988 -0.1904
 4242SOL    HW224360   3.815   0.287   8.177 -0.1702  1.0121 -0.1918
 4243SOL     OW24361   2.761   3.608   8.366  0.3379  0.2167 -0.0745
 4243SOL    HW124362   2.695   3.613   8.436 -0.5572  1.0212 -0.9607
 4243SOL    HW224363   2.777   3.700   8.345  2.4553 -0.0635  0.3044
 4244SOL     OW24364   1.826   3.040  10.970 -0.0779  0.0104 -0.0528
 4244SOL    HW124365   1.874   2.964  10.936  0.4171  0.3763 -0.1834
 4244SOL    HW224366   1.740   2.998  10.971 -1.2993  2.6370  3.0481
 4245SOL     OW24367   2.630   2.822   8.850  0.1569 -0.3786 -0.0819
 4245SOL    HW124368   2.655   2.747   8.905 -0.2793 -1.0951 -0.8572
 4245SOL    HW224369   2.550   2.789   8.808 -0.6745  1.0029  0.4245
 4246SOL     OW24370   2.687   0.503  14.526  0.6522  0.0303  0.8040
 4246SOL    HW124371   2.653   0.526  14.439  0.1490  1.9449  1.5067
 4246SOL    HW224372   2.656   0.412  14.529  0.7843 -0.0622 -1.0032
 4247SOL     OW24373   1.417   2.627   8.965 -0.8228 -0.5310  0.4726
 4247SOL    HW124374   1.472   2.572   8.910  2.2041  2.0235  0.9261
 4247SOL    HW224375   1.451   2.614   9.053  0.0081 -0.1412  0.2076
 4248SOL     OW24376   1.659   2.740   0.317  0.9079  0.0823 -0.3693
 4248SOL    HW124377   1.595   2.670   0.308  1.2072 -0.3307  0.7339
 4248SOL    HW224378   1.612   2.797   0.378  2.3557  1.8021 -0.8579
 4249SOL     OW24379   4.197   3.435   1.853 -0.5135 -0.8464  0.5323
 4249SOL    HW124380   4.146   3.506   1.813  0.3262 -0.3216  0.3978
 4249SOL    HW224381   4.159   3.436   1.941 -0.3840 -0.5283  0.5835
 4250SOL     OW24382   3.603   2.473   1.952 -0.0413 -0.3220 -0.0871
 4250SOL    HW124383   3.643   2.434   1.874 -1.1114 -3.5941  1.0067
 4250SOL    HW224384   3.527   2.501   1.902  0.4386  2.2832  0.6544
 4251SOL     OW24385   0.618   3.537   1.570 -0.4042 -0.2509 -0.6045
 4251SOL    HW124386   0.682   3.483   1.616 -0.8249  0.4345  0.7935
 4251SOL    HW224387   0.634   3.527   1.477 -1.2298  0.7944 -0.8725
 4252SOL     OW24388   1.551   3.044   4.538 -0.3430  0.0058  0.1234
 4252SOL    HW124389   1.591   3.056   4.452  0.8035 -0.9040  0.5239
 4252SOL    HW224390   1.606   3.094   4.599  0.6577 -0.1320 -0.6542
 4253SOL     OW24391   0.093   3.100  15.392 -0.4839 -0.5283  0.2385
 4253SOL    HW124392   0.161   3.119  15.457  0.4425 -0.1141 -0.8421
 4253SOL    HW224393   0.043   3.027  15.430  1.6437 -1.3874  1.4140
 4254SOL     OW24394   4.650   0.183  15.136  0.0083  0.5076  0.4168
 4254SOL    HW124395   4.576   0.212  15.082 -1.8584 -0.1496  2.6055
 4254SOL    HW224396   4.723   0.214  15.083 -0.9303  2.1421  0.0646
 4255SOL     OW24397   2.484   0.058   2.603 -0.1820 -0.0847  0.3911
 4255SOL    HW124398   2.394   0.088   2.586 -0.4316 -2.0485 -1.7159
 4255SOL    HW224399   2.505   0.074   2.695 -1.4100 -2.2793  1.0373
 4256SOL     OW24400   1.590   2.899   2.824  0.2101  0.5013 -0.2549
 4256SOL    HW124401   1.500   2.865   2.815 -0.7412  2.4624  1.7900
 4256SOL    HW224402   1.620   2.847   2.899  2.4487 -0.0987 -1.5966
 4257SOL     OW24403   4.261   2.648   8.048  0.2893 -0.2813 -0.0647
 4257SOL    HW124404   4.303   2.723   8.005 -1.4966 -0.0571 -1.4217
 4257SOL    HW224405   4.177   2.657   8.003  0.3046  3.3289  0.5940
 4258SOL     OW24406   0.143   2.331   2.285 -0.3404  0.2470  0.1191
 4258SOL    HW124407   0.075   2.369   2.341 -1.0612 -1.4018  0.3659
 4258SOL    HW224408   0.173   2.262   2.344 -0.2588  1.2476  1.2413
 4259SOL     OW24409   4.071   2.349   6.442  0.0807  0.3318 -0.0297
 4259SOL    HW124410   4.101   2.259   6.433 -1.6234 -0.2587  0.0644
 4259SOL    HW224411   4.079   2.388   6.355 -0.1555 -0.6551 -0.4923
 4260SOL     OW24412   4.636   1.568   0.733 -0.1330 -0.7158 -0.9078
 4260SOL    HW124413   4.706   1.519   0.776  1.2548  2.2996  0.2832
 4260SOL    HW224414   4.564   1.557   0.796  0.0588 -1.0453 -0.7437
 4261SOL     OW24415   3.473   1.349   6.112 -0.3081  0.3895  0.4685
 4261SOL    HW124416   3.510   1.341   6.200  0.4390  0.5144  0.1615
 4261SOL    HW224417   3.496   1.267   6.069 -0.9623  0.6849 -0.4276
 4262SOL     OW24418   3.492   1.635   1.724 -0.7842 -0.6755 -0.1716
 4262SOL    HW124419   3.419   1.635   1.662 -2.9472 -0.9102  2.3913
 4262SOL    HW224420   3.452   1.578   1.790  0.1167 -1.5575 -0.3758
 4263SOL     OW24421   3.048   3.108  16.135 -0.5790  0.1939 -0.0637
 4263SOL    HW124422   3.128   3.141  16.095 -1.3029  1.0432 -0.8454
 4263SOL    HW224423   2.990   3.136  16.064 -0.2136 -0.0285 -0.4431
 4264SOL     OW24424   2.844   2.208  11.985 -0.4994  0.2314 -0.2584
 4264SOL    HW124425   2.837   2.137  11.921  1.4839 -1.3507  1.2797
 4264SOL    HW224426   2.915   2.251  11.937  0.4112 -0.3463  0.5534
 4265SOL     OW24427   3.813   0.715   8.794 -0.0037  0.1310 -0.2555
 4265SOL    HW124428   3.814   0.641   8.855  0.6032  0.4873  0.1616
 4265SOL    HW224429   3.861   0.689   8.715 -0.0055 -2.5822  0.6540
 4266SOL     OW24430   3.171   4.034  14.931  0.1942 -1.0039 -0.2516
 4266SOL    HW124431   3.179   4.119  14.888  0.2854  0.4142  2.5171
 4266SOL    HW224432   3.145   3.979  14.857  0.5441 -0.5888 -0.6816
 4267SOL     OW24433   2.668   0.807   1.437  0.0749 -0.2099  0.4150
 4267SOL    HW124434   2.736   0.787   1.373 -0.9345  0.1400 -0.7680
 4267SOL    HW224435   2.702   0.843   1.519 -0.1633 -0.9121  0.8132
 4268SOL     OW24436   3.100   3.700   3.585  0.1380 -0.0092  0.9362
 4268SOL    HW124437   3.061   3.788   3.579  2.4617  1.0059  0.5041
 4268SOL    HW224438   3.091   3.683   3.678 -2.3262 -2.7298  0.1779
 4269SOL     OW24439   3.303   4.352   1.391 -0.0710 -0.1438 -0.1297
 4269SOL    HW124440   3.222   4.309   1.362 -0.4319  1.3768 -1.3811
 4269SOL    HW224441   3.357   4.273   1.396  1.3293  0.8250 -0.0163
 4270SOL     OW24442   3.559   3.832   5.218 -0.0193 -0.5244 -0.3721
 4270SOL    HW124443   3.482   3.825   5.162  0.7573  1.0049 -1.6453
 4270SOL    HW224444   3.620   3.767   5.184  0.1507  0.2376 -1.5363
 4271SOL     OW24445   3.713   0.122   3.033 -0.3357  0.3428  0.0629
 4271SOL    HW124446   3.736   0.212   3.011 -1.9347  0.4591 -1.1122
 4271SOL    HW224447   3.705   0.130   3.128  0.7296  1.4947  0.0516
 4272SOL     OW24448   1.618   2.310   5.928  0.3876  0.0551  0.5950
 4272SOL    HW124449   1.667   2.275   6.002  1.6976  0.1235 -0.2306
 4272SOL    HW224450   1.531   2.303   5.966 -0.7368 -0.8464 -2.1401
 4273SOL     OW24451   1.543   1.660  17.348 -0.4079 -0.2504 -0.6915
 4273SOL    HW124452   1.619   1.623  17.302  0.1507 -1.4238  1.1701
 4273SOL    HW224453   1.544   1.750  17.317 -0.6984  1.1587  3.4480
 4274SOL     OW24454   0.014   3.118   3.453 -0.7732 -0.7682 -0.4222
 4274SOL    HW124455   4.699   3.180   3.505  0.3873 -0.8646  0.8802
 4274SOL    HW224456   4.710   3.036   3.477 -2.4516  0.6262  1.5078
 4275SOL     OW24457   1.943   1.241   9.243 -0.0159 -0.1585 -0.1171
 4275SOL    HW124458   2.037   1.257   9.234 -0.0973  0.1233 -0.4537
 4275SOL    HW224459   1.946   1.165   9.302  4.4278 -0.3971 -0.6635
 4276SOL     OW24460   1.374   2.443  11.303  0.0951 -0.0691  0.2620
 4276SOL    HW124461   1.324   2.498  11.363  1.6853 -0.7018  2.1843
 4276SOL    HW224462   1.462   2.476  11.321 -1.4697  1.9987  4.0347
 4277SOL     OW24463   4.039   3.111  12.764  0.1971  0.4045 -0.1192
 4277SOL    HW124464   4.032   3.190  12.711  1.0360  0.6614  0.1542
 4277SOL    HW224465   4.054   3.049  12.692 -1.0984  0.2412 -0.2474
 4278SOL     OW24466   3.619   1.067  15.100 -0.0325 -0.1209  0.6237
 4278SOL    HW124467   3.557   1.053  15.172 -0.7590 -0.0055  0.0233
 4278SOL    HW224468   3.559   1.095  15.030 -0.5919  0.5614  1.3763
 4279SOL     OW24469   1.007   1.056   8.736  0.2014  0.3482  0.0404
 4279SOL    HW124470   1.046   1.093   8.815  0.3206  0.2743  0.0154
 4279SOL    HW224471   0.913   1.077   8.737 -0.0409 -0.8088  1.6165
 4280SOL     OW24472   0.652   4.179   6.048  0.3708 -0.3542 -0.3504
 4280SOL    HW124473   0.666   4.265   6.010  0.1227  0.0518  0.4679
 4280SOL    HW224474   0.690   4.198   6.134 -1.7595  1.3970  0.1998
 4281SOL     OW24475   3.715   1.257   0.467  0.2150  0.0912 -0.0687
 4281SOL    HW124476   3.803   1.239   0.434  0.1432  0.0097 -0.2140
 4281SOL    HW224477   3.731   1.346   0.499 -1.5125 -0.5843  2.7015
 4282SOL     OW24478   2.818   3.399   4.764 -0.3036 -0.0083  0.1072
 4282SOL    HW124479   2.759   3.323   4.773  1.2140 -1.2906 -0.8002
 4282SOL    HW224480   2.803   3.432   4.675  1.5487  1.8430  0.5084
 4283SOL     OW24481   1.887   0.845   0.745 -0.1419 -0.4056 -0.0662
 4283SOL    HW124482   1.858   0.780   0.808 -0.1829  1.2905  1.6786
 4283SOL    HW224483   1.836   0.924   0.764  1.5223  0.0913  2.3575
 4284SOL     OW24484   3.335   2.171   1.222 -0.5659 -0.1277 -0.6138
 4284SOL    HW124485   3.318   2.248   1.167 -0.3628 -0.4014 -1.0644
 4284SOL    HW224486   3.300   2.198   1.307  0.3353  0.9809 -0.5998
 4285SOL     OW24487   0.770   3.925   3.714  0.2552  0.5311  0.1263
 4285SOL    HW124488   0.725   3.855   3.667  1.2719 -0.0588  0.0476
 4285SOL    HW224489   0.708   3.939   3.786  1.4032 -0.7895  1.3790
 4286SOL     OW24490   3.450   1.660   8.820  0.3064 -0.1638  0.3314
 4286SOL    HW124491   3.389   1.691   8.886 -0.3287 -0.0985 -0.2843
 4286SOL    HW224492   3.395   1.659   8.741 -0.8885  0.0185  1.1633
 4287SOL     OW24493   1.823   1.780   5.874  0.1042 -0.0392  0.1045
 4287SOL    HW124494   1.772   1.700   5.862 -2.4292  1.4953  0.6084
 4287SOL    HW224495   1.806   1.813   5.963  1.5458 -0.5421  0.5650
 4288SOL     OW24496   4.732   4.112   8.126  0.3596  0.1081  0.1224
 4288SOL    HW124497   0.039   4.074   8.051  1.8853 -0.0500  1.1151
 4288SOL    HW224498   0.074   4.108   8.178  1.4866  0.3805 -1.5977
 4289SOL     OW24499   3.822   3.425   2.724 -0.0289  0.1535 -0.0057
 4289SOL    HW124500   3.785   3.480   2.656 -0.5191  0.1861  0.2916
 4289SOL    HW224501   3.817   3.339   2.681 -1.1422 -0.5136  1.4608
 4290SOL     OW24502   1.456   1.374   4.133 -0.6703  0.5087  0.1013
 4290SOL    HW124503   1.395   1.447   4.120 -0.9343 -0.4111 -3.9226
 4290SOL    HW224504   1.456   1.376   4.229 -4.4426 -1.4965  0.1552
 4291SOL     OW24505   0.028   0.356   5.126  0.0447  0.0465  0.4653
 4291SOL    HW124506   4.678   0.320   5.133 -1.1954  2.5520 -2.2164
 4291SOL    HW224507   0.017   0.423   5.193  2.8013  0.5672  0.4187
 4292SOL     OW24508   4.548   1.979   7.823 -0.2898 -0.0570 -0.4032
 4292SOL    HW124509   4.623   1.954   7.876 -1.1993  0.7908  1.2742
 4292SOL    HW224510   4.541   2.074   7.830 -0.1295 -0.1218  0.6166
 4293SOL     OW24511   1.349   1.130   4.052  0.4770 -0.1437  0.3707
 4293SOL    HW124512   1.393   1.211   4.076 -2.1425  0.5457  2.9253
 4293SOL    HW224513   1.337   1.086   4.137 -3.0493 -0.0989 -0.0803
 4294SOL     OW24514   3.098   4.030  15.366 -0.2775 -0.4999 -0.1853
 4294SOL    HW124515   3.079   4.016  15.273  0.9609  0.5576 -0.6076
 4294SOL    HW224516   3.092   4.126  15.364  0.5611 -0.4525 -0.1801
 4295SOL     OW24517   2.393   0.240   3.530 -0.2493 -0.1262 -0.2167
 4295SOL    HW124518   2.367   0.270   3.617  0.7828  1.1183 -0.3370
 4295SOL    HW224519   2.488   0.235   3.537 -0.3045 -2.3636 -0.9578
 4296SOL     OW24520   4.199   4.713   5.735 -0.1748 -0.1723 -0.4499
 4296SOL    HW124521   4.227   4.622   5.746  0.6778 -0.1787 -2.7144
 4296SOL    HW224522   4.266   0.020   5.787  0.1606 -1.9006  0.6017
 4297SOL     OW24523   0.207   0.679   7.378 -0.7931 -0.4908 -0.5886
 4297SOL    HW124524   0.201   0.637   7.292 -1.6562  1.3949 -1.4450
 4297SOL    HW224525   0.300   0.675   7.398 -1.2862 -0.7276  1.7358
 4298SOL     OW24526   1.543   2.191   4.845  0.1272 -0.4656  0.0383
 4298SOL    HW124527   1.508   2.143   4.920  1.6426  0.0515  1.0773
 4298SOL    HW224528   1.552   2.280   4.880 -1.8112 -0.2353 -0.0004
 4299SOL     OW24529   1.759   1.084  10.410  0.4101 -0.7845 -0.1959
 4299SOL    HW124530   1.709   1.108  10.331  2.5634  0.0603 -1.3111
 4299SOL    HW224531   1.846   1.055  10.381  2.1289  2.6303  1.4949
 4300SOL     OW24532   4.399   2.428   8.148 -1.0320 -0.2814 -0.0069
 4300SOL    HW124533   4.345   2.350   8.132  0.6614 -0.9572 -2.3239
 4300SOL    HW224534   4.339   2.499   8.127 -0.8663  0.4678  2.0716
 4301SOL     OW24535   1.543   2.351   7.126 -0.3907  0.3434  0.2026
 4301SOL    HW124536   1.491   2.356   7.046  0.9676  1.2597 -0.6069
 4301SOL    HW224537   1.629   2.340   7.086 -1.1864  1.7816 -1.8604
 4302SOL     OW24538   0.229   3.399   8.430  0.1305 -0.3714 -0.4454
 4302SOL    HW124539   0.170   3.472   8.448 -0.2429 -1.1816  1.6379
 4302SOL    HW224540   0.271   3.390   8.516 -1.4565  1.7993  0.5545
 4303SOL     OW24541   3.187   2.757   8.687 -0.2433 -0.1470 -0.1216
 4303SOL    HW124542   3.132   2.719   8.756 -1.5752  2.5327  0.2974
 4303SOL    HW224543   3.197   2.846   8.720  0.5599  0.2138 -1.3701
 4304SOL     OW24544   2.710   4.181   6.443  0.1437 -0.2227 -0.6626
 4304SOL    HW124545   2.744   4.091   6.441 -2.9521 -1.4176  0.9075
 4304SOL    HW224546   2.793   4.222   6.467  0.1765 -0.5656 -0.2015
 4305SOL     OW24547   0.694   1.484   8.893 -0.2279  0.3494 -0.1060
 4305SOL    HW124548   0.671   1.550   8.828  2.6494  0.8622 -0.6323
 4305SOL    HW224549   0.749   1.435   8.832 -0.8197 -0.2186 -0.1852
 4306SOL     OW24550   1.685   1.921   8.161 -0.5404 -0.3201  0.5274
 4306SOL    HW124551   1.739   1.843   8.150  0.5692  0.6015 -0.5616
 4306SOL    HW224552   1.635   1.923   8.080 -1.2372 -0.0324  0.9626
 4307SOL     OW24553   3.873   2.257  13.761 -0.3958 -0.0033 -0.0228
 4307SOL    HW124554   3.785   2.261  13.723 -0.8145  0.8752  1.0582
 4307SOL    HW224555   3.916   2.203  13.695 -0.5922  1.2143 -1.1560
 4308SOL     OW24556   2.510   0.790   7.114 -0.0448  0.7459  0.2158
 4308SOL    HW124557   2.480   0.711   7.068  1.2475 -0.5761  1.6621
 4308SOL    HW224558   2.600   0.801   7.085 -0.0299  2.8701  1.0823
 4309SOL     OW24559   4.112   4.682   7.733  0.0435 -0.0221 -0.0150
 4309SOL    HW124560   4.185   4.731   7.696 -0.6272 -0.4811 -1.9285
 4309SOL    HW224561   4.133   4.601   7.688  0.0654  1.4653 -2.6917
 4310SOL     OW24562   0.493   0.171   6.257 -0.2162 -0.3076  0.3841
 4310SOL    HW124563   0.577   0.125   6.255  0.6925  1.2658  1.8370
 4310SOL    HW224564   0.521   0.261   6.273  1.5903 -0.9138  0.6213
 4311SOL     OW24565   3.397   3.741  17.526 -0.3066  0.3011  0.3768
 4311SOL    HW124566   3.434   3.817  17.570  1.0014  0.3353 -0.7733
 4311SOL    HW224567   3.416   3.755  17.433  2.5399 -1.1876  0.7177
 4312SOL     OW24568   2.247   3.060   1.135  0.0665 -0.3736 -0.4107
 4312SOL    HW124569   2.258   3.010   1.216 -1.7822  0.6764  0.4826
 4312SOL    HW224570   2.238   2.986   1.076  2.9962 -0.2184 -1.0844
 4313SOL     OW24571   1.153   3.026   8.578 -0.4276 -0.1265 -0.1838
 4313SOL    HW124572   1.101   2.996   8.653 -0.2273  1.6983  0.6895
 4313SOL    HW224573   1.116   3.112   8.556 -0.8304  0.0915  1.3239
 4314SOL     OW24574   0.835   2.782   4.266 -0.1521  0.0742  0.3003
 4314SOL    HW124575   0.907   2.837   4.237 -0.6519 -0.8527 -2.7146
 4314SOL    HW224576   0.807   2.744   4.182  1.1617  0.1419 -0.1618
 4315SOL     OW24577   1.359   2.458   9.655 -0.0250  0.2203 -0.0883
 4315SOL    HW124578   1.348   2.546   9.619 -0.2854  0.2521  0.0688
 4315SOL    HW224579   1.279   2.430   9.611  2.1009 -2.7694 -2.0390
 4316SOL     OW24580   2.311   4.070   9.125 -0.2128 -0.0915  0.5449
 4316SOL    HW124581   2.386   4.121   9.097 -0.4497  1.2427  2.2818
 4316SOL    HW224582   2.351   3.984   9.135  1.8656  0.7553 -0.6768
 4317SOL     OW24583   1.084   1.988   7.331 -0.2675 -0.6029  0.1784
 4317SOL    HW124584   0.998   1.991   7.289  0.2514  4.3823 -0.5152
 4317SOL    HW224585   1.123   2.059   7.281 -3.1947 -0.0222 -1.2695
 4318SOL     OW24586   3.060   3.844  17.672 -0.3893  0.1557  0.1105
 4318SOL    HW124587   2.975   3.868  17.635  0.4276  0.8985 -1.2972
 4318SOL    HW224588   3.108   3.921  17.642 -0.0509  0.9974  2.8113
 4319SOL     OW24589   2.553   3.295  14.599 -0.1421  0.2312 -0.3661
 4319SOL    HW124590   2.640   3.292  14.559 -0.0270 -2.8349  0.0709
 4319SOL    HW224591   2.577   3.272  14.689  2.5947 -1.0008 -1.4061
 4320SOL     OW24592   3.029   2.016  10.844  0.3573  0.1512  0.3748
 4320SOL    HW124593   3.019   1.953  10.915  1.4400  0.2308  0.5992
 4320SOL    HW224594   3.029   1.948  10.776 -1.0809  2.2993 -1.7641
 4321SOL     OW24595   4.363   2.292   3.691  0.3916  0.6172 -0.0490
 4321SOL    HW124596   4.285   2.237   3.702  0.0499  0.7980 -1.5079
 4321SOL    HW224597   4.408   2.281   3.774 -0.7060  0.4073  0.5192
 4322SOL     OW24598   4.402   3.462   4.535  0.1685 -0.0762  0.7732
 4322SOL    HW124599   4.453   3.543   4.541 -1.0234  0.8990 -2.1465
 4322SOL    HW224600   4.312   3.492   4.545  0.7154  2.0135 -0.4449
 4323SOL     OW24601   3.427   3.997   7.773 -0.0863 -0.3071 -0.3395
 4323SOL    HW124602   3.435   3.997   7.678  2.4560  0.0803 -0.1280
 4323SOL    HW224603   3.406   4.087   7.798 -0.5939 -0.3794 -0.5162
 4324SOL     OW24604   2.648   0.564  13.018 -0.4969 -0.0098 -0.3531
 4324SOL    HW124605   2.664   0.634  13.081  0.9197  1.2379 -2.0999
 4324SOL    HW224606   2.578   0.519  13.065 -1.8244  1.5480 -0.8775
 4325SOL     OW24607   1.988   0.808   1.394  0.4774 -0.3776 -0.2294
 4325SOL    HW124608   1.970   0.717   1.373  0.5799 -0.2876 -0.6924
 4325SOL    HW224609   2.040   0.803   1.474  0.4621 -0.1419 -0.2043
 4326SOL     OW24610   2.767   0.397   5.524 -0.3165 -0.1266  0.3714
 4326SOL    HW124611   2.786   0.490   5.519 -0.5972  0.0068  2.0068
 4326SOL    HW224612   2.671   0.400   5.522 -0.3754 -2.0045  0.1122
 4327SOL     OW24613   4.180   0.899   9.055  0.3958  0.2717 -0.2308
 4327SOL    HW124614   4.097   0.888   9.102 -0.8202 -0.2246 -2.5187
 4327SOL    HW224615   4.162   0.981   9.008 -0.4296 -0.2351 -0.7910
 4328SOL     OW24616   4.630   2.320   1.587 -0.1529  0.1636  1.0090
 4328SOL    HW124617   4.577   2.296   1.512  0.8392  1.6658 -0.1702
 4328SOL    HW224618   4.573   2.386   1.624  0.6738  0.3289  2.0066
 4329SOL     OW24619   1.795   3.690   2.851  0.2746  0.0762  0.2529
 4329SOL    HW124620   1.715   3.726   2.812  0.8081  0.0984 -0.8197
 4329SOL    HW224621   1.839   3.768   2.884  2.5405 -0.8309 -0.6292
 4330SOL     OW24622   4.174   2.260   6.987  0.2211  0.0739 -0.0839
 4330SOL    HW124623   4.108   2.196   7.013 -1.0991  0.7683 -1.8258
 4330SOL    HW224624   4.201   2.304   7.068  1.7017 -1.6034  0.3401
 4331SOL     OW24625   1.159   2.288   4.506  0.0943 -0.6362 -0.0748
 4331SOL    HW124626   1.183   2.252   4.591 -0.3178 -1.1543 -0.1754
 4331SOL    HW224627   1.109   2.216   4.468 -1.0451 -0.0611  0.3465
 4332SOL     OW24628   3.120   1.235   1.582  0.0769 -0.1486 -0.1191
 4332SOL    HW124629   3.182   1.195   1.642  1.4465 -0.2791 -1.6218
 4332SOL    HW224630   3.168   1.314   1.558  1.7632 -0.7955  1.1975
 4333SOL     OW24631   1.572   4.325   6.491  0.9519  0.2419  0.2918
 4333SOL    HW124632   1.492   4.376   6.504  0.2805 -0.9648  0.8139
 4333SOL    HW224633   1.569   4.255   6.556  0.7551 -1.5974 -1.7070
 4334SOL     OW24634   1.212   0.944   7.415 -0.2696 -0.2377  0.2612
 4334SOL    HW124635   1.289   0.890   7.430  0.0117  0.5111  1.4578
 4334SOL    HW224636   1.223   1.006   7.486  1.5912  0.3546 -0.5517
 4335SOL     OW24637   0.723   4.011  16.854 -0.0425  0.5340 -0.1334
 4335SOL    HW124638   0.648   4.042  16.802 -0.3450 -2.8305 -1.7368
 4335SOL    HW224639   0.718   3.916  16.860  2.2583  0.4263  0.1446
 4336SOL     OW24640   3.992   2.207   4.199  0.3268 -0.7252 -0.1857
 4336SOL    HW124641   3.962   2.167   4.117 -0.7951 -1.3273  0.5093
 4336SOL    HW224642   3.914   2.244   4.241 -0.2524 -1.0318 -0.9939
 4337SOL     OW24643   1.325   4.647  12.302 -0.1213  0.4085  0.3079
 4337SOL    HW124644   1.231   4.661  12.291  0.1857  1.2282 -1.3092
 4337SOL    HW224645   1.361   4.632  12.214 -0.2238 -0.0280  0.3383
 4338SOL     OW24646   1.034   3.648   6.321  0.4987 -0.2454  0.2360
 4338SOL    HW124647   1.112   3.657   6.266 -0.6643  0.9068 -1.2254
 4338SOL    HW224648   1.058   3.579   6.384  0.4028  0.3561  0.9220
 4339SOL     OW24649   3.081   1.370   1.886  0.1323  0.7266 -0.8762
 4339SOL    HW124650   3.031   1.404   1.961 -0.0436 -0.0188 -0.6599
 4339SOL    HW224651   3.117   1.295   1.933 -1.9337 -0.9860 -2.0379
 4340SOL     OW24652   2.626   1.109  14.072 -0.1982  0.1649 -0.3188
 4340SOL    HW124653   2.650   1.168  14.145  1.4304 -1.4189  0.4120
 4340SOL    HW224654   2.684   1.135  14.000  0.2081  0.0466 -0.0351
 4341SOL     OW24655   0.374   2.283   4.495  0.6853  0.2474 -0.2919
 4341SOL    HW124656   0.462   2.251   4.511  0.1431  0.2695  2.8213
 4341SOL    HW224657   0.375   2.342   4.419 -0.8174  2.2119  1.1897
 4342SOL     OW24658   3.252   0.918   4.114 -0.1504 -0.4811 -0.0877
 4342SOL    HW124659   3.169   0.872   4.126  0.5310 -1.8759 -0.6944
 4342SOL    HW224660   3.252   0.930   4.019  1.2800  5.0481  0.6083
 4343SOL     OW24661   1.708   0.306   4.038 -0.4184  0.0029 -0.3593
 4343SOL    HW124662   1.620   0.290   4.073  0.8765 -2.1501  1.9170
 4343SOL    HW224663   1.762   0.290   4.116  0.9326  1.1529 -1.0571
 4344SOL     OW24664   1.393   3.358   5.290 -0.2530  0.4498 -0.3675
 4344SOL    HW124665   1.480   3.394   5.309  0.4927 -0.9167 -1.1191
 4344SOL    HW224666   1.389   3.327   5.199  1.8023  0.7773 -0.5733
 4345SOL     OW24667   1.506   0.183   7.812 -0.1365 -0.3873  0.2954
 4345SOL    HW124668   1.511   0.093   7.844 -1.5902 -0.3541  0.6125
 4345SOL    HW224669   1.468   0.214   7.894 -0.7250 -2.6830  0.8856
 4346SOL     OW24670   4.147   2.336  17.259  0.0488  0.2326  0.1532
 4346SOL    HW124671   4.147   2.285  17.178 -1.2712 -0.3020  0.4784
 4346SOL    HW224672   4.057   2.324  17.290 -1.0843  0.2552 -3.1481
 4347SOL     OW24673   3.317   2.098   4.679 -0.6067 -0.4474 -0.1166
 4347SOL    HW124674   3.345   2.139   4.760 -2.0233  1.1391 -0.4417
 4347SOL    HW224675   3.237   2.144   4.656 -1.0912 -0.0146  2.4308
 4348SOL     OW24676   0.660   3.475   7.657  0.2820 -0.0571  0.3229
 4348SOL    HW124677   0.620   3.508   7.738  0.6486 -0.1778  0.5551
 4348SOL    HW224678   0.734   3.537   7.655 -0.9658  1.3950 -0.7456
 4349SOL     OW24679   3.603   4.595   9.864  0.1522  0.2809 -0.1641
 4349SOL    HW124680   3.691   4.631   9.858 -0.3020  1.0676 -2.1305
 4349SOL    HW224681   3.587   4.608   9.771 -2.2677 -0.7080  0.1141
 4350SOL     OW24682   2.368   1.115   5.862  0.2922  0.5113  0.4551
 4350SOL    HW124683   2.305   1.111   5.933 -3.6526  1.1803 -2.9795
 4350SOL    HW224684   2.455   1.127   5.900 -0.2266  3.1958  0.8446
 4351SOL     OW24685   0.222   3.205   2.111  0.9144 -0.1620 -0.0490
 4351SOL    HW124686   0.306   3.225   2.069  0.4466 -0.9234 -1.3581
 4351SOL    HW224687   0.164   3.241   2.043  0.6291  1.9101  1.2979
 4352SOL     OW24688   1.811   3.603   7.052  0.0938  0.0906 -0.4511
 4352SOL    HW124689   1.779   3.635   6.968 -0.3253  2.0538  0.4662
 4352SOL    HW224690   1.735   3.553   7.083  1.6666 -2.9901 -1.6252
 4353SOL     OW24691   2.052   1.688   1.258  0.3514  0.0446  0.1744
 4353SOL    HW124692   2.108   1.678   1.181  0.2545 -0.8930  0.2266
 4353SOL    HW224693   2.047   1.598   1.290  1.6121 -0.3676 -0.8126
 4354SOL     OW24694   1.774   0.433   8.521 -0.2846  0.2918  0.3180
 4354SOL    HW124695   1.692   0.475   8.497 -0.1286  0.1482 -0.4752
 4354SOL    HW224696   1.819   0.510   8.554 -0.5864 -0.3322  2.2019
 4355SOL     OW24697   3.808   1.728   2.281 -0.4195  0.4071 -0.3884
 4355SOL    HW124698   3.748   1.803   2.282 -0.7460  0.1027  3.1419
 4355SOL    HW224699   3.766   1.668   2.342 -2.7540 -0.3070 -2.7428
 4356SOL     OW24700   2.461   2.606   1.078 -0.4282  0.2106 -0.1757
 4356SOL    HW124701   2.538   2.582   1.026  0.2150 -0.9897  1.3391
 4356SOL    HW224702   2.445   2.525   1.126  1.9165  0.5351  1.1395
 4357SOL     OW24703   0.028   0.728   0.893 -0.3150  0.1894 -0.1856
 4357SOL    HW124704   0.069   0.767   0.816  1.8489 -1.7468 -0.0265
 4357SOL    HW224705   0.082   0.649   0.902 -1.0611 -0.5394 -2.1525
 4358SOL     OW24706   2.186   2.507  14.985 -0.1630  0.4744  0.0823
 4358SOL    HW124707   2.100   2.467  14.993  0.0483 -0.1529 -0.7715
 4358SOL    HW224708   2.196   2.542  14.897 -1.3126 -0.2498 -0.3397
 4359SOL     OW24709   1.236   3.378   4.815 -0.0016 -0.2907 -0.5271
 4359SOL    HW124710   1.264   3.320   4.744  2.3536  0.2435 -0.0451
 4359SOL    HW224711   1.269   3.460   4.778  0.5166  0.6180  1.9663
 4360SOL     OW24712   3.160   3.390   3.768 -0.2748  0.5433  0.0327
 4360SOL    HW124713   3.202   3.474   3.785  1.1995 -0.3405  0.8003
 4360SOL    HW224714   3.221   3.345   3.709  0.8588 -0.1417  1.7036
 4361SOL     OW24715   3.196   4.059  17.605 -0.5285  0.0006  1.1203
 4361SOL    HW124716   3.290   4.045  17.613 -0.2112 -0.0015 -2.3506
 4361SOL    HW224717   3.200   4.151  17.628 -0.8709  0.0011  1.1730
 4362SOL     OW24718   2.641   0.548  13.366 -0.2278  0.3706  0.1858
 4362SOL    HW124719   2.687   0.466  13.384 -1.3517 -0.6529 -1.5209
 4362SOL    HW224720   2.547   0.535  13.361 -0.6524  3.2840  1.1500
 4363SOL     OW24721   2.171   2.222  17.647 -0.4215  0.1403 -0.4055
 4363SOL    HW124722   2.147   2.276  17.572 -0.0892  1.6041  0.5462
 4363SOL    HW224723   2.102   2.256  17.704  0.8114 -1.4202  2.0179
 4364SOL     OW24724   1.360   2.448   6.648 -0.2733  0.2982 -0.0420
 4364SOL    HW124725   1.325   2.507   6.715  0.0152 -0.4100  0.7233
 4364SOL    HW224726   1.293   2.381   6.636  0.0438 -0.4524  2.4010
 4365SOL     OW24727   4.258   3.717   4.635 -0.4714  0.2812 -0.1874
 4365SOL    HW124728   4.234   3.790   4.691 -0.5836  0.7617 -0.8577
 4365SOL    HW224729   4.326   3.680   4.691  1.3722  0.8507 -2.0334
 4366SOL     OW24730   2.810   3.056   4.244  0.3336 -0.1880 -0.4323
 4366SOL    HW124731   2.781   2.970   4.215  1.1357 -0.3499 -0.7441
 4366SOL    HW224732   2.879   3.083   4.184  0.4495 -1.4942 -0.8853
 4367SOL     OW24733   1.615   2.772   5.433 -0.7565 -0.3909  0.1026
 4367SOL    HW124734   1.626   2.698   5.493  1.3865  0.6193  0.9341
 4367SOL    HW224735   1.532   2.802   5.468 -0.2775 -0.3070  1.1751
 4368SOL     OW24736   4.188   1.749   4.788  0.3254 -0.7763  0.0707
 4368SOL    HW124737   4.158   1.840   4.780  0.3477 -0.9359 -1.9206
 4368SOL    HW224738   4.116   1.718   4.843  0.4551  0.9343  1.2167
 4369SOL     OW24739   2.327   0.483  14.957 -0.1886  0.5235 -0.0525
 4369SOL    HW124740   2.377   0.457  14.880 -0.2032 -0.3921  0.2526
 4369SOL    HW224741   2.312   0.576  14.936  0.5493  0.4432 -0.9350
 4370SOL     OW24742   1.069   2.495   3.225  0.9669  0.6215  0.4616
 4370SOL    HW124743   1.141   2.432   3.225  0.9153  0.5351 -5.3989
 4370SOL    HW224744   1.081   2.539   3.141 -0.7636  2.2400  1.0804
 4371SOL     OW24745   3.337   3.231   6.297  0.2331  0.2855  0.0408
 4371SOL    HW124746   3.367   3.254   6.385  1.0172  1.2973 -0.4938
 4371SOL    HW224747   3.294   3.314   6.275  0.5665 -0.4173 -3.2116
 4372SOL     OW24748   2.416   2.586   4.912  0.0656  0.5028 -0.1228
 4372SOL    HW124749   2.356   2.600   4.985 -1.3754  1.6935 -1.5435
 4372SOL    HW224750   2.390   2.648   4.844 -3.6208 -2.7024 -1.6655
 4373SOL     OW24751   0.684   0.746  16.677  0.1731  0.1669 -0.2748
 4373SOL    HW124752   0.734   0.666  16.666  2.7128  1.7963 -0.6248
 4373SOL    HW224753   0.735   0.791  16.610  0.6054 -0.7707 -0.5690
 4374SOL     OW24754   2.926   1.629   5.231  0.1867 -0.1292  0.1274
 4374SOL    HW124755   2.983   1.704   5.219  0.8448 -0.9766 -2.0009
 4374SOL    HW224756   2.970   1.604   5.312 -0.3851 -1.2416  0.0987
 4375SOL     OW24757   1.825   0.008   4.959 -0.3533  0.4934 -0.6114
 4375SOL    HW124758   1.753   0.023   5.019 -1.2099  2.2734 -2.0889
 4375SOL    HW224759   1.861   0.096   4.950  3.1017 -0.9734 -1.0705
 4376SOL     OW24760   1.905   2.525   8.250  0.3134  0.1018  0.1477
 4376SOL    HW124761   1.927   2.438   8.283 -3.7428 -1.6257 -1.7891
 4376SOL    HW224762   1.841   2.554   8.314  0.0818  0.2463 -0.1536
 4377SOL     OW24763   0.043   0.280  12.189  0.3558  0.3841 -0.1057
 4377SOL    HW124764   4.719   0.313  12.124  0.1518 -1.3585 -0.7972
 4377SOL    HW224765   0.032   0.350  12.253 -1.7288  0.1005 -0.1401
 4378SOL     OW24766   4.358   0.045   8.066 -0.3666 -0.5590  1.0788
 4378SOL    HW124767   4.284   4.723   8.056  1.3111 -2.6426  1.0628
 4378SOL    HW224768   4.436   4.727   8.064  0.4479  0.6007  0.6187
 4379SOL     OW24769   0.885   1.449   2.329 -0.0509 -0.1386 -0.2588
 4379SOL    HW124770   0.799   1.485   2.305  0.1003  1.1186  1.0590
 4379SOL    HW224771   0.914   1.424   2.241 -3.6396 -1.4778 -1.0825
 4380SOL     OW24772   1.959   2.566  15.247 -0.8001 -0.4373 -0.4155
 4380SOL    HW124773   1.869   2.534  15.258 -0.3101 -1.4961  0.5590
 4380SOL    HW224774   1.996   2.503  15.186 -0.3007 -0.7994  0.2590
 4381SOL     OW24775   2.044   1.755   8.531  0.2151  0.1310 -0.2203
 4381SOL    HW124776   1.955   1.738   8.564  0.3575  1.6518  0.9017
 4381SOL    HW224777   2.057   1.703   8.451 -2.9331 -0.8195 -0.1218
 4382SOL     OW24778   0.265   2.998   3.962 -0.6789  0.1885 -0.5673
 4382SOL    HW124779   0.228   2.978   4.048  0.7356  0.5865  0.1406
 4382SOL    HW224780   0.291   3.090   3.958 -2.1490  0.6559  0.8165
 4383SOL     OW24781   4.098   3.708   8.470  0.1210 -0.2789  1.0362
 4383SOL    HW124782   4.128   3.652   8.541 -2.5168 -0.9811  1.6073
 4383SOL    HW224783   4.175   3.723   8.416 -0.4131 -0.4784  0.2152
 4384SOL     OW24784   2.822   4.710   5.810 -0.2080 -0.2466  0.0825
 4384SOL    HW124785   2.782   4.701   5.897 -0.6694  1.0301  0.0012
 4384SOL    HW224786   2.788   0.059   5.785 -1.9785  0.0484  3.3938
 4385SOL     OW24787   2.471   1.046   8.030 -0.7435 -0.3037  0.2700
 4385SOL    HW124788   2.495   0.996   7.952  0.6362  0.9524 -0.1133
 4385SOL    HW224789   2.433   1.120   7.982 -2.6716 -1.1990  0.4056
 4386SOL     OW24790   4.330   3.773   8.339  0.1750 -0.2884  0.1116
 4386SOL    HW124791   4.360   3.684   8.358 -3.1643 -1.3549  0.4231
 4386SOL    HW224792   4.414   3.817   8.327  0.1109  0.0671  0.9403
 4387SOL     OW24793   4.203   3.968   3.042 -0.1687  0.0060 -0.1925
 4387SOL    HW124794   4.181   3.997   2.953  0.1473  0.5424 -0.1000
 4387SOL    HW224795   4.215   4.056   3.080 -0.7708 -0.2559  0.6097
 4388SOL     OW24796   0.822   3.982  17.124  0.1494  0.0478  0.3763
 4388SOL    HW124797   0.911   4.017  17.116  0.1526  0.0625  0.4709
 4388SOL    HW224798   0.795   4.004  17.035  1.4132 -0.6154 -0.1690
 4389SOL     OW24799   4.712   1.269   0.415 -0.2822  0.0008 -0.3417
 4389SOL    HW124800   0.017   1.347   0.379  0.5263  0.4814  1.6639
 4389SOL    HW224801   4.625   1.308   0.426 -0.9216 -0.9953 -1.7400
 4390SOL     OW24802   4.712   0.428  11.269 -0.1412 -0.0685 -0.2074
 4390SOL    HW124803   4.701   0.485  11.193 -1.2548 -1.1810 -0.8961
 4390SOL    HW224804   0.060   0.390  11.256  0.7719  1.2445  2.0691
 4391SOL     OW24805   0.474   0.344   2.388 -0.0574 -0.0259  0.1976
 4391SOL    HW124806   0.420   0.422   2.372 -1.4690 -0.8475  0.8662
 4391SOL    HW224807   0.437   0.281   2.326 -2.3490 -1.6645  3.1673
 4392SOL     OW24808   3.505   0.544   8.527  0.0638 -0.3263 -0.7148
 4392SOL    HW124809   3.433   0.505   8.478  0.4552 -0.6354 -1.0402
 4392SOL    HW224810   3.579   0.486   8.514  2.0008  1.8377  0.5626
 4393SOL     OW24811   4.384   0.188  11.186 -0.0404  0.2362  0.4093
 4393SOL    HW124812   4.472   0.161  11.159 -0.8331 -0.0671 -1.8782
 4393SOL    HW224813   4.384   0.155  11.276 -0.6472  1.0321  0.6961
 4394SOL     OW24814   1.053   1.221   3.617 -0.4499 -0.2492 -0.0494
 4394SOL    HW124815   1.058   1.313   3.643 -0.9112 -0.7428  1.8157
 4394SOL    HW224816   1.103   1.175   3.684 -0.3874 -2.1048 -1.3715
 4395SOL     OW24817   1.154   0.630   4.448  0.2146 -0.6383 -0.0115
 4395SOL    HW124818   1.216   0.596   4.514 -1.4067 -0.0978  1.7888
 4395SOL    HW224819   1.120   0.702   4.501 -2.0089  0.1790 -2.5358
 4396SOL     OW24820   3.707   2.312   1.214  0.1407  0.1575  0.0418
 4396SOL    HW124821   3.688   2.377   1.147 -3.9208  0.2172  1.2172
 4396SOL    HW224822   3.668   2.235   1.172  0.5358 -0.2250  0.3710
 4397SOL     OW24823   0.412   0.156   3.935 -0.1406 -0.6654 -1.1341
 4397SOL    HW124824   0.495   0.202   3.921 -0.0222 -1.6500 -3.5451
 4397SOL    HW224825   0.435   0.064   3.926 -2.0955 -1.2685  0.0636
 4398SOL     OW24826   3.819   0.913   4.554  0.4693 -0.8052  0.2828
 4398SOL    HW124827   3.827   0.997   4.509  1.2110 -0.4859  1.0048
 4398SOL    HW224828   3.732   0.877   4.533  0.0178  2.5584 -3.4842
 4399SOL     OW24829   2.866   4.356   2.546 -0.5023 -0.0596  0.5096
 4399SOL    HW124830   2.906   4.312   2.471  3.5963 -0.2447  2.8224
 4399SOL    HW224831   2.941   4.395   2.590 -1.3290  0.1294  1.7618
 4400SOL     OW24832   3.747   0.206   8.862 -0.2943  0.2804  0.6007
 4400SOL    HW124833   3.779   0.155   8.787  0.6886  1.8099 -0.0244
 4400SOL    HW224834   3.744   0.134   8.924  0.0394 -0.8055 -0.6406
 4401SOL     OW24835   2.847   2.825   5.036 -0.0710 -0.1254 -0.3314
 4401SOL    HW124836   2.831   2.839   5.130 -1.2671 -3.0249 -0.0783
 4401SOL    HW224837   2.784   2.757   5.013  1.2937 -1.1968 -0.8944
 4402SOL     OW24838   3.885   1.725   3.860 -0.5088  0.3624  0.0167
 4402SOL    HW124839   3.890   1.630   3.845  1.9432  0.3436  1.0562
 4402SOL    HW224840   3.876   1.762   3.772  3.0198  0.0541 -0.4775
 4403SOL     OW24841   2.767   4.731  13.171  0.0108  0.5193 -0.1038
 4403SOL    HW124842   2.730   4.708  13.086  2.3170 -2.4548 -0.2975
 4403SOL    HW224843   2.712   0.070  13.184  1.2600  1.0618  1.9702
 4404SOL     OW24844   0.251   3.975  11.980  0.0637  1.0004 -1.0426
 4404SOL    HW124845   0.231   4.010  11.894 -1.4147  1.4229 -0.5296
 4404SOL    HW224846   0.270   3.886  11.950  0.6928  0.2704  1.4455
 4405SOL     OW24847   0.225   4.626   7.529 -0.0259 -0.6474 -1.1809
 4405SOL    HW124848   0.313   4.662   7.537 -0.3412  0.1067 -1.0838
 4405SOL    HW224849   0.175   4.707   7.543  1.0423  0.1482 -2.0014
 4406SOL     OW24850   4.222   4.099   0.696 -0.4098  0.2004  0.0525
 4406SOL    HW124851   4.238   4.190   0.720  0.2772  0.0183  0.2692
 4406SOL    HW224852   4.147   4.117   0.639  0.0039 -0.8087 -0.8105
 4407SOL     OW24853   3.996   2.076  15.599 -0.3560 -0.1781 -0.4936
 4407SOL    HW124854   3.988   2.022  15.520 -1.9634 -0.5827 -0.0451
 4407SOL    HW224855   3.914   2.061  15.645  0.7559  0.0396  1.5610
 4408SOL     OW24856   3.752   0.113  11.382  0.4447 -0.3524 -0.7552
 4408SOL    HW124857   3.697   0.040  11.354 -2.8067  1.9789 -0.3885
 4408SOL    HW224858   3.713   0.134  11.466 -0.7771 -0.2622 -1.3352
 4409SOL     OW24859   3.281   3.617   2.051  0.4576  0.0814 -0.1475
 4409SOL    HW124860   3.195   3.635   2.012 -0.2617 -0.3696  1.2354
 4409SOL    HW224861   3.272   3.673   2.127  1.1368 -0.8321  0.5988
 4410SOL     OW24862   0.889   0.397   2.709  0.0083 -0.4585 -0.0866
 4410SOL    HW124863   0.815   0.453   2.682 -0.3088 -0.1660  1.3918
 4410SOL    HW224864   0.846   0.314   2.730 -1.7406  0.8566  1.4972
 4411SOL     OW24865   3.818   3.670  16.778  0.8523  0.0148  0.1846
 4411SOL    HW124866   3.811   3.753  16.731 -2.4336  0.7919  2.0195
 4411SOL    HW224867   3.789   3.615  16.706 -0.6889 -0.2701  1.0148
 4412SOL     OW24868   1.179   1.031  12.425 -0.0542  0.2031 -0.2083
 4412SOL    HW124869   1.136   1.012  12.508 -0.1794 -0.7060 -0.4859
 4412SOL    HW224870   1.155   1.123  12.413 -1.1885  0.0589  0.9710
 4413SOL     OW24871   1.779   2.857   8.767  0.2391 -0.0061  0.6403
 4413SOL    HW124872   1.790   2.945   8.730  0.9130 -0.1811  0.4315
 4413SOL    HW224873   1.822   2.870   8.851  0.0342  0.6101  0.6522
 4414SOL     OW24874   2.150   4.111   1.412  0.2493 -0.1873 -0.0396
 4414SOL    HW124875   2.238   4.112   1.449 -0.0304 -0.7496  0.6385
 4414SOL    HW224876   2.091   4.118   1.487  0.5960 -0.9032  0.3006
 4415SOL     OW24877   2.743   3.975   9.196 -0.0538  0.1862 -0.0480
 4415SOL    HW124878   2.741   3.886   9.161 -0.3535  0.6151 -1.1147
 4415SOL    HW224879   2.692   3.970   9.277 -0.2873 -0.0367 -0.2064
 4416SOL     OW24880   3.116   0.175   8.781  1.1695 -0.1894 -0.1162
 4416SOL    HW124881   3.088   0.208   8.696  2.2430  0.3950 -0.2411
 4416SOL    HW224882   3.159   0.254   8.815 -1.7994  0.4233  2.2123
 4417SOL     OW24883   2.561   0.528   6.453  0.1953 -0.2715 -0.4127
 4417SOL    HW124884   2.502   0.485   6.515 -0.4747  0.2410 -0.6904
 4417SOL    HW224885   2.600   0.456   6.402  2.6593  0.9088 -0.1846
 4418SOL     OW24886   0.465   1.264   3.210  0.2160  0.2992 -0.4166
 4418SOL    HW124887   0.402   1.262   3.137  0.9640 -2.8575 -0.9641
 4418SOL    HW224888   0.531   1.212   3.165 -2.4245 -2.7979 -0.7169
 4419SOL     OW24889   4.408   0.294  15.043  0.1541 -0.5868 -0.1099
 4419SOL    HW124890   4.328   0.325  15.000 -0.7080  1.6645  3.1671
 4419SOL    HW224891   4.379   0.211  15.080 -3.8268  1.8412  2.2492
 4420SOL     OW24892   1.314   3.363   6.931 -0.4003 -0.4547 -0.2117
 4420SOL    HW124893   1.400   3.322   6.937 -1.6024 -2.6729  1.8318
 4420SOL    HW224894   1.289   3.295   6.867 -1.1037 -1.3083  0.9777
 4421SOL     OW24895   3.956   1.058  17.717  0.2332 -0.3152  0.1558
 4421SOL    HW124896   3.960   1.054  17.621 -0.4013  1.1011  0.0620
 4421SOL    HW224897   4.025   1.122  17.736 -1.8658  2.3505 -1.1847
 4422SOL     OW24898   3.224   0.096   3.897 -0.1919  0.0768 -0.8226
 4422SOL    HW124899   3.153   0.130   3.843  0.0491  1.1061 -0.4991
 4422SOL    HW224900   3.269   0.039   3.834 -1.8619 -0.4763 -1.5000
 4423SOL     OW24901   0.355   0.250   9.029  0.0497  0.1523  0.2510
 4423SOL    HW124902   0.364   0.212   9.116 -0.3145  2.2713  1.2313
 4423SOL    HW224903   0.344   0.344   9.046 -0.8216 -0.3792  2.5655
 4424SOL     OW24904   4.162   3.701   3.086  0.3594  0.4452  0.2795
 4424SOL    HW124905   4.113   3.686   3.006  1.0061 -0.0690 -0.0286
 4424SOL    HW224906   4.183   3.794   3.082 -1.6812  0.9077  0.4964
 4425SOL     OW24907   2.298   2.594  11.861  0.7078  0.2819  0.1499
 4425SOL    HW124908   2.303   2.568  11.953  0.4900  0.8141  0.3079
 4425SOL    HW224909   2.361   2.534  11.822  2.6894  1.3975  1.5973
 4426SOL     OW24910   2.773   4.672   3.185 -0.6476  0.2377  0.0733
 4426SOL    HW124911   2.719   0.013   3.197 -2.4018 -1.0317  0.4239
 4426SOL    HW224912   2.710   4.603   3.163 -1.4716  1.8202 -2.5670
 4427SOL     OW24913   4.202   3.538   8.702  0.9122 -0.6845  0.3759
 4427SOL    HW124914   4.138   3.572   8.765  0.5349  0.0636 -0.4245
 4427SOL    HW224915   4.196   3.444   8.721  1.0703 -0.8169 -0.2264
 4428SOL     OW24916   3.688   1.889   1.742  0.1898 -0.1296  0.1688
 4428SOL    HW124917   3.628   1.837   1.688 -1.9130  0.3163  2.0625
 4428SOL    HW224918   3.676   1.981   1.719  2.0874 -0.4414 -2.0611
 4429SOL     OW24919   0.724   2.591   1.355 -0.5202 -0.2052  0.0671
 4429SOL    HW124920   0.804   2.538   1.347  0.8263  1.6849  1.0330
 4429SOL    HW224921   0.753   2.677   1.383 -1.6891  0.5442 -1.0125
 4430SOL     OW24922   1.480   3.069  10.780  0.4107  0.3916 -0.2026
 4430SOL    HW124923   1.465   3.111  10.865  0.0374  0.8201 -0.4794
 4430SOL    HW224924   1.530   2.995  10.813 -0.1402 -0.5792 -1.5443
 4431SOL     OW24925   1.625   3.458   2.239 -0.0655  0.4853 -0.3566
 4431SOL    HW124926   1.674   3.442   2.158 -0.2611  0.0396 -0.3892
 4431SOL    HW224927   1.635   3.551   2.257  1.9721  0.3853 -0.9558
 4432SOL     OW24928   1.898   4.530   2.465  0.0525 -0.4319 -0.1565
 4432SOL    HW124929   1.879   4.524   2.372 -0.4309  1.6322 -0.2007
 4432SOL    HW224930   1.910   4.440   2.496  0.1887 -0.3909 -0.0905
 4433SOL     OW24931   0.812   4.189   7.197 -0.1807  0.0234 -0.3090
 4433SOL    HW124932   0.838   4.097   7.197 -1.9981 -0.4861 -0.9851
 4433SOL    HW224933   0.717   4.186   7.204 -0.0314  0.2242  2.0345
 4434SOL     OW24934   4.669   3.514   5.424  0.3290  0.5627  0.1969
 4434SOL    HW124935   4.620   3.433   5.414 -0.9300  1.0566  2.5957
 4434SOL    HW224936   4.629   3.573   5.360  1.2335  1.7947  0.7643
 4435SOL     OW24937   3.682   2.165  11.781 -0.0738  0.1758  0.0677
 4435SOL    HW124938   3.746   2.094  11.775 -1.4056 -0.8859 -1.4112
 4435SOL    HW224939   3.702   2.217  11.703 -2.7366  0.2240 -0.5992
 4436SOL     OW24940   3.903   1.708   9.498  0.2339 -0.5165 -0.1807
 4436SOL    HW124941   3.914   1.751   9.583  1.7121 -0.9846 -0.1352
 4436SOL    HW224942   3.875   1.779   9.440 -0.1660  0.0839  0.7537
 4437SOL     OW24943   1.085   3.220   5.108  0.5379 -0.4751  0.2595
 4437SOL    HW124944   1.024   3.161   5.152 -0.0029 -2.0001 -2.5387
 4437SOL    HW224945   1.053   3.219   5.018 -0.7656  0.9918  0.6963
 4438SOL     OW24946   0.198   4.476   2.975  0.0890 -0.3341 -0.0231
 4438SOL    HW124947   0.170   4.386   2.988  2.2470 -0.8913  0.6425
 4438SOL    HW224948   0.160   4.499   2.890 -1.2863  2.1633  1.2750
 4439SOL     OW24949   2.325   2.980   5.383 -0.3187 -0.5499 -0.0413
 4439SOL    HW124950   2.353   2.890   5.401 -2.1944 -0.8147  1.5797
 4439SOL    HW224951   2.381   3.040   5.433 -2.5012 -0.7334  2.6481
 4440SOL     OW24952   2.615   1.881   5.205 -0.3422 -0.1197  0.6277
 4440SOL    HW124953   2.665   1.943   5.258 -0.9254  0.6068  0.3265
 4440SOL    HW224954   2.574   1.948   5.150 -1.8697 -2.7015 -1.3466
 4441SOL     OW24955   2.772   1.583   0.158 -0.7162 -0.3228  0.2200
 4441SOL    HW124956   2.790   1.658   0.102  0.6924 -0.2863  0.7177
 4441SOL    HW224957   2.693   1.547   0.118 -1.3669  0.6759  0.6097
 4442SOL     OW24958   4.090   1.040   9.991  0.5077  0.3842  0.1908
 4442SOL    HW124959   4.150   1.099  10.037  1.0300  1.6420 -2.1147
 4442SOL    HW224960   4.019   1.025  10.054  1.7146  0.3718  1.5330
 4443SOL     OW24961   1.690   0.288   8.215 -0.7326 -0.5086 -0.2146
 4443SOL    HW124962   1.715   0.199   8.189  2.0369  0.1503  0.1554
 4443SOL    HW224963   1.643   0.267   8.295 -0.0177  1.2965  0.6908
 4444SOL     OW24964   1.245   3.156   2.596 -0.1668  0.1402  0.6186
 4444SOL    HW124965   1.329   3.118   2.621  0.2075  1.1870  0.9280
 4444SOL    HW224966   1.272   3.244   2.570 -1.3006 -0.1677 -1.5699
 4445SOL     OW24967   3.116   0.111   6.051 -0.4376 -0.7213 -0.4243
 4445SOL    HW124968   3.088   0.104   5.960  0.6240  1.7708 -0.9283
 4445SOL    HW224969   3.142   0.021   6.069 -0.9257 -1.2463 -2.3950
 4446SOL     OW24970   3.319   1.317   7.275  0.0080  0.0068 -0.1734
 4446SOL    HW124971   3.384   1.387   7.281 -0.4920  0.6970 -2.4503
 4446SOL    HW224972   3.356   1.273   7.198 -0.6277 -1.4034  0.3329
 4447SOL     OW24973   4.445   4.293   8.467 -0.3089 -0.1016  0.3805
 4447SOL    HW124974   4.432   4.211   8.419  1.8476 -0.6730  0.7718
 4447SOL    HW224975   4.364   4.298   8.518 -0.9422  1.3487 -0.7633
 4448SOL     OW24976   2.386   2.127  11.300  0.4126 -0.2414  0.6086
 4448SOL    HW124977   2.452   2.123  11.369  0.3112 -1.8227  0.6052
 4448SOL    HW224978   2.437   2.142  11.220 -0.1940  0.9199  0.4517
 4449SOL     OW24979   0.974   3.850   1.954  0.2447  0.1229 -0.2111
 4449SOL    HW124980   0.974   3.939   1.987  2.9854 -0.0059  0.1679
 4449SOL    HW224981   0.918   3.858   1.877 -0.9169 -0.5539  0.5765
 4450SOL     OW24982   2.197   3.114  12.702  0.3094  0.2374 -0.1841
 4450SOL    HW124983   2.225   3.029  12.736 -0.3719  0.6229  1.3427
 4450SOL    HW224984   2.240   3.123  12.617  1.7366 -0.7137  0.4297
 4451SOL     OW24985   2.440   2.448  14.938  0.0703  0.4859  0.0306
 4451SOL    HW124986   2.348   2.474  14.949  0.5458  1.2624  2.2895
 4451SOL    HW224987   2.433   2.357  14.967 -2.6010  1.2438  1.8440
 4452SOL     OW24988   4.397   4.549   7.438 -0.0485 -0.4018  0.3071
 4452SOL    HW124989   4.407   4.620   7.374 -1.1204 -0.2194  0.3370
 4452SOL    HW224990   4.477   4.561   7.488 -0.2903 -1.9493  1.0569
 4453SOL     OW24991   1.952   2.615   3.587 -0.3811  0.0165 -0.2469
 4453SOL    HW124992   1.957   2.556   3.662 -1.3485 -0.3069 -0.4302
 4453SOL    HW224993   1.950   2.554   3.513  2.9954  0.1509 -0.4335
 4454SOL     OW24994   3.908   3.276   5.450  0.2895 -0.2747 -0.6627
 4454SOL    HW124995   3.856   3.349   5.417 -0.3526 -1.2024 -1.6878
 4454SOL    HW224996   3.970   3.325   5.506 -0.0909  2.2478 -2.4694
 4455SOL     OW24997   4.083   0.418   5.357  0.5745  0.9195 -0.3038
 4455SOL    HW124998   4.014   0.436   5.293  0.3500 -2.9510 -1.1578
 4455SOL    HW224999   4.036   0.380   5.432 -1.8761 -0.7786 -2.6844
 4456SOL     OW25000   2.437   2.744   2.539  0.2115  0.1863 -0.6892
 4456SOL    HW125001   2.477   2.728   2.453 -1.3685  2.2306 -1.8022
 4456SOL    HW225002   2.509   2.766   2.597  1.7868 -2.9550 -1.4279
 4457SOL     OW25003   4.251   4.698   5.425  0.7695  0.3282 -0.0485
 4457SOL    HW125004   4.174   4.674   5.374  1.7878 -1.5575 -0.6913
 4457SOL    HW225005   4.210   0.013   5.494  1.0290  0.5717 -0.0841
 4458SOL     OW25006   2.863   0.379   5.015  0.6669  0.2543  0.3001
 4458SOL    HW125007   2.776   0.408   5.042  1.3387  1.3870  1.3179
 4458SOL    HW225008   2.887   0.347   5.102  1.1032 -0.7435 -0.1978
 4459SOL     OW25009   3.273   3.986   3.597  0.0475  0.3162 -0.4242
 4459SOL    HW125010   3.270   4.058   3.535  1.2443  0.5185 -0.2550
 4459SOL    HW225011   3.228   4.022   3.674 -1.4910 -0.5782 -0.9086
 4460SOL     OW25012   3.186   0.067  15.801 -0.0309  0.3739 -0.0230
 4460SOL    HW125013   3.198   0.046  15.709  2.9454  0.0411  0.4145
 4460SOL    HW225014   3.102   0.112  15.802 -0.6740 -0.8014 -0.9636
 4461SOL     OW25015   1.941   0.809  17.247 -0.1475  0.2118 -0.0830
 4461SOL    HW125016   1.870   0.754  17.281  1.0750 -0.7870  0.8624
 4461SOL    HW225017   1.912   0.880  17.304 -2.4623 -0.7773 -0.0169
 4462SOL     OW25018   0.146   3.991   7.681  0.6088  0.1424 -0.2058
 4462SOL    HW125019   0.225   3.942   7.704  0.0749  0.0691  1.5220
 4462SOL    HW225020   0.114   3.983   7.771  2.2531 -2.0304  0.1901
 4463SOL     OW25021   3.163   2.972   3.112  0.2014  0.1195 -0.0717
 4463SOL    HW125022   3.184   2.971   3.019 -3.5649 -4.0974 -0.8410
 4463SOL    HW225023   3.101   2.901   3.130 -0.4568  0.8134  0.4050
 4464SOL     OW25024   3.591   4.154   7.995 -0.2966 -0.2138 -0.2314
 4464SOL    HW125025   3.642   4.074   7.985 -2.2557 -1.6062  0.9680
 4464SOL    HW225026   3.639   4.196   8.066 -0.1986  0.5630 -0.7606
 4465SOL     OW25027   1.784   0.212   4.655 -0.0627  0.2836 -0.5915
 4465SOL    HW125028   1.773   0.123   4.622  3.1329 -0.4359  0.3029
 4465SOL    HW225029   1.738   0.257   4.584  1.0708  0.6934 -1.0582
 4466SOL     OW25030   4.707   2.053  16.781  0.0296 -0.5647 -0.0126
 4466SOL    HW125031   4.687   2.000  16.704 -0.6052  0.3748 -0.5000
 4466SOL    HW225032   4.669   2.002  16.852 -0.4668 -1.4638 -0.9355
 4467SOL     OW25033   1.185   1.447  14.219  0.0712  0.1071 -0.0251
 4467SOL    HW125034   1.130   1.375  14.186 -1.6843  0.4922  2.0354
 4467SOL    HW225035   1.197   1.426  14.312  2.3581 -1.5256 -0.6874
 4468SOL     OW25036   2.731   2.639   2.697 -0.2565 -0.0236  0.5080
 4468SOL    HW125037   2.661   2.577   2.674 -0.9705  0.4979  1.2954
 4468SOL    HW225038   2.811   2.586   2.686 -0.9201 -0.5806 -1.8287
 4469SOL     OW25039   2.341   1.876   7.746 -0.2502  0.2227 -0.1603
 4469SOL    HW125040   2.294   1.929   7.810 -0.1962 -2.9776  2.5331
 4469SOL    HW225041   2.271   1.860   7.682  0.1709 -1.9688 -0.1023
 4470SOL     OW25042   2.019   0.903   4.485  0.2253 -0.2162  0.0344
 4470SOL    HW125043   1.928   0.922   4.511  0.4244  1.8402 -0.7820
 4470SOL    HW225044   2.036   0.832   4.547 -0.9881 -1.4302 -1.0292
 4471SOL     OW25045   3.946   3.386   6.031  0.2576 -0.6252  0.2649
 4471SOL    HW125046   4.025   3.418   6.074  1.1057  0.4420 -2.0888
 4471SOL    HW225047   3.949   3.292   6.049  2.0961 -1.2299 -3.0906
 4472SOL     OW25048   1.086   1.074   6.814 -0.0242  0.1622  0.1540
 4472SOL    HW125049   1.104   1.047   6.904 -2.3178  0.1847  0.6080
 4472SOL    HW225050   1.175   1.062   6.780 -0.7002 -4.7606  0.1833
 4473SOL     OW25051   1.728   3.347  16.972  0.5088  0.0479  0.2692
 4473SOL    HW125052   1.824   3.341  16.975  0.4884 -0.5268 -0.1951
 4473SOL    HW225053   1.723   3.297  16.890  0.2148  0.2106  0.1876
 4474SOL     OW25054   0.769   0.676   3.268  0.1935  0.0262 -0.1403
 4474SOL    HW125055   0.748   0.720   3.350 -2.3175 -0.0405 -0.7473
 4474SOL    HW225056   0.800   0.594   3.305 -0.8376 -0.6032 -0.6760
 4475SOL     OW25057   1.780   2.412   4.787 -0.4712  0.3185  0.0285
 4475SOL    HW125058   1.843   2.478   4.758  0.7653 -0.9786 -0.2324
 4475SOL    HW225059   1.753   2.374   4.704  2.6733 -3.0204  0.5439
 4476SOL     OW25060   0.923   3.340   8.639 -0.0511  0.3080  0.2818
 4476SOL    HW125061   0.899   3.423   8.681 -1.7164 -0.2536  0.4354
 4476SOL    HW225062   0.884   3.282   8.705  1.1871 -0.8544 -0.0113
 4477SOL     OW25063   0.374   4.479   8.916  0.0156  0.3354  0.6672
 4477SOL    HW125064   0.280   4.483   8.898  0.4442 -0.8164 -1.7639
 4477SOL    HW225065   0.390   4.570   8.889  2.9594 -0.1997  0.6313
 4478SOL     OW25066   1.005   2.161   9.507  0.0589 -0.6703 -0.7920
 4478SOL    HW125067   0.958   2.127   9.430  0.9315 -2.0255 -0.7349
 4478SOL    HW225068   1.045   2.090   9.557 -2.2437 -1.5480 -0.2052
 4479SOL     OW25069   1.714   1.069   6.706 -0.2997 -0.0773  0.1373
 4479SOL    HW125070   1.740   1.139   6.765  1.9807 -0.9614  0.1509
 4479SOL    HW225071   1.793   1.046   6.657 -1.4413 -1.4461 -1.0635
 4480SOL     OW25072   4.068   2.362   3.496 -0.8961 -0.0433 -0.1627
 4480SOL    HW125073   4.096   2.427   3.559 -0.9892  0.5195 -0.6995
 4480SOL    HW225074   4.034   2.295   3.555 -0.5287 -0.4919 -0.4514
 4481SOL     OW25075   2.929   2.980   4.843  0.0913 -0.1037  0.6652
 4481SOL    HW125076   2.895   2.908   4.895  1.0105  0.9895  2.7690
 4481SOL    HW225077   3.020   2.967   4.871 -0.0104 -0.8474  0.6613
 4482SOL     OW25078   3.276   2.651   3.300  0.2719 -0.3488 -0.6464
 4482SOL    HW125079   3.283   2.588   3.371  1.5622 -0.3326 -0.7590
 4482SOL    HW225080   3.181   2.649   3.288  0.2219 -0.3372 -0.2540
 4483SOL     OW25081   1.347   2.683   9.490  0.7709 -0.0012  0.2633
 4483SOL    HW125082   1.442   2.669   9.494  0.7811  0.7736  2.8342
 4483SOL    HW225083   1.337   2.698   9.396  2.1979 -0.1940  0.0727
 4484SOL     OW25084   2.734   1.979   1.898 -0.1924  0.1164 -0.0014
 4484SOL    HW125085   2.644   2.010   1.887 -0.3462 -0.0698  0.6759
 4484SOL    HW225086   2.779   2.063   1.902  1.1365 -0.5278 -1.7309
 4485SOL     OW25087   2.172   1.351   7.699 -0.8200 -0.2079 -0.0935
 4485SOL    HW125088   2.245   1.374   7.642  1.5841 -1.5351  2.4680
 4485SOL    HW225089   2.126   1.278   7.657 -1.7559  1.9747 -2.9444
 4486SOL     OW25090   3.843   0.987   8.297  0.2471  0.4807  0.5328
 4486SOL    HW125091   3.908   0.918   8.308  0.1204 -0.1135 -2.4003
 4486SOL    HW225092   3.768   0.928   8.306  0.7696 -0.3833 -0.7485
 4487SOL     OW25093   0.457   0.741   7.730  0.7017 -0.0315  0.5390
 4487SOL    HW125094   0.389   0.675   7.713 -1.5326  2.0117  1.5586
 4487SOL    HW225095   0.438   0.795   7.654  2.2774 -1.4408 -0.8492
 4488SOL     OW25096   0.337   1.241   1.806  0.5290 -0.5639  0.3767
 4488SOL    HW125097   0.383   1.194   1.876 -0.0558  0.0242  1.1670
 4488SOL    HW225098   0.411   1.271   1.753  0.1462 -2.1202 -1.0180
 4489SOL     OW25099   3.833   1.408   3.592 -1.0167  0.0963 -0.1222
 4489SOL    HW125100   3.861   1.489   3.634 -1.5429 -0.4760  1.3165
 4489SOL    HW225101   3.771   1.378   3.659 -1.8906 -2.1698 -1.9560
 4490SOL     OW25102   1.290   0.006   3.629 -0.2494  0.4566 -0.2550
 4490SOL    HW125103   1.331   4.708   3.550 -1.5169 -0.3714 -0.5223
 4490SOL    HW225104   1.342   0.086   3.641  1.2743 -0.1245 -3.0608
 4491SOL     OW25105   3.738   0.478   3.362  0.2932 -0.2117 -0.0143
 4491SOL    HW125106   3.757   0.570   3.384  0.9938 -0.7068  1.4431
 4491SOL    HW225107   3.799   0.430   3.417 -0.3531  0.7919  1.5935
 4492SOL     OW25108   4.364   2.980  12.897  0.1509  0.1177  0.7334
 4492SOL    HW125109   4.409   2.936  12.824 -0.7553 -2.6065  1.8089
 4492SOL    HW225110   4.371   3.069  12.862  1.3456  0.0371  0.7905
 4493SOL     OW25111   2.808   2.299   2.164 -0.1881  0.3379 -0.9824
 4493SOL    HW125112   2.809   2.249   2.082 -1.1777  1.6022 -1.7541
 4493SOL    HW225113   2.716   2.284   2.185 -0.2683 -0.0981 -1.6355
 4494SOL     OW25114   0.784   3.505  12.969  0.1945 -0.1098 -0.6449
 4494SOL    HW125115   0.838   3.548  12.901 -1.2551  1.8645 -0.5565
 4494SOL    HW225116   0.809   3.413  12.963  0.6499  0.1581 -2.8202
 4495SOL     OW25117   1.449   3.268   2.320  0.0698  0.3663  0.1024
 4495SOL    HW125118   1.406   3.283   2.404 -1.0236 -3.1386  0.1689
 4495SOL    HW225119   1.505   3.345   2.308  0.9459 -0.0740  1.4256
 4496SOL     OW25120   2.801   0.073   0.969 -0.1254  0.1899 -0.2167
 4496SOL    HW125121   2.865   0.144   0.974  0.6556 -0.5220 -0.0801
 4496SOL    HW225122   2.771   0.077   0.879  0.8641 -1.2695 -0.6196
 4497SOL     OW25123   3.405   3.030  11.281 -0.1511  0.3374  0.0051
 4497SOL    HW125124   3.410   3.125  11.290  0.8739  0.4064 -1.2818
 4497SOL    HW225125   3.495   3.011  11.258 -0.2756 -1.0098  0.6176
 4498SOL     OW25126   4.217   0.851   7.664 -0.0562  0.0905  0.0713
 4498SOL    HW125127   4.170   0.770   7.644 -0.4946  0.3314  0.1256
 4498SOL    HW225128   4.251   0.839   7.753  1.0919  0.0103 -0.3880
 4499SOL     OW25129   3.094   1.781  12.641 -0.5364 -0.1831  0.1629
 4499SOL    HW125130   3.057   1.711  12.695  0.1955  0.1672  1.0934
 4499SOL    HW225131   3.019   1.835  12.616  1.1454  1.3294 -1.6787
 4500SOL     OW25132   4.001   4.033   5.216 -0.6663  0.0332  0.1208
 4500SOL    HW125133   4.092   4.007   5.226  0.1798  1.9435 -2.6962
 4500SOL    HW225134   3.962   3.962   5.268 -1.4354 -0.1853 -0.7620
 4501SOL     OW25135   4.554   0.502  12.493 -0.4771  0.2507 -0.3803
 4501SOL    HW125136   4.642   0.505  12.455  0.6536 -0.1783  2.2419
 4501SOL    HW225137   4.509   0.446  12.430  0.3114  2.5492 -3.0206
 4502SOL     OW25138   0.369   1.894  13.726 -0.5538 -0.3765  0.0273
 4502SOL    HW125139   0.375   1.857  13.638 -0.9677  0.7938 -0.4917
 4502SOL    HW225140   0.457   1.930  13.738 -1.3518  2.1183 -1.8757
 4503SOL     OW25141   0.602   3.725  10.667 -0.3020  0.0213  0.4026
 4503SOL    HW125142   0.541   3.729  10.741  2.4668 -2.0064  2.8004
 4503SOL    HW225143   0.607   3.629  10.663 -1.3661 -0.0490  0.8631
 4504SOL     OW25144   1.246   3.226  15.307  0.2747 -0.2020  0.8420
 4504SOL    HW125145   1.294   3.274  15.240 -1.2311 -1.5937 -1.2160
 4504SOL    HW225146   1.222   3.296  15.368 -0.9604 -0.7135  0.9283
 4505SOL     OW25147   3.881   2.266   6.622  0.1474 -0.2192 -0.0053
 4505SOL    HW125148   3.948   2.329   6.596  0.7590 -1.2108 -0.8406
 4505SOL    HW225149   3.869   2.220   6.539 -1.6779 -1.1507  0.7530
 4506SOL     OW25150   0.942   0.675   1.894  0.5515  0.5984  0.0479
 4506SOL    HW125151   1.024   0.723   1.907  0.6923  0.2433  0.4901
 4506SOL    HW225152   0.940   0.608   1.962  0.5638  0.3476 -0.1991
 4507SOL     OW25153   3.344   1.403   7.585  0.0829 -0.0181  0.3957
 4507SOL    HW125154   3.346   1.459   7.507  2.6642  0.6647  0.9375
 4507SOL    HW225155   3.269   1.347   7.568  0.5831 -0.7145  0.4976
 4508SOL     OW25156   0.620   2.690   4.624 -0.8045 -0.5425  0.2628
 4508SOL    HW125157   0.628   2.683   4.529 -0.3663 -0.3189  0.2849
 4508SOL    HW225158   0.529   2.672   4.648 -1.1335  1.3260  0.3720
 4509SOL     OW25159   3.407   2.578   1.425 -0.2976  0.2634  0.1591
 4509SOL    HW125160   3.322   2.620   1.437 -0.2345  1.2647 -2.9174
 4509SOL    HW225161   3.411   2.587   1.330  0.6337  0.6495  0.2304
 4510SOL     OW25162   4.582   2.048  11.805 -0.0418 -0.3056 -0.0701
 4510SOL    HW125163   4.564   2.006  11.889 -0.8298 -2.0062 -1.1054
 4510SOL    HW225164   4.675   2.034  11.787 -0.1013 -2.4133  1.3212
 4511SOL     OW25165   0.804   0.241   7.543  0.0423 -0.6105  0.3027
 4511SOL    HW125166   0.801   0.193   7.626  1.4204 -0.6027  0.3537
 4511SOL    HW225167   0.819   0.175   7.475  1.4652  0.4258 -0.3883
 4512SOL     OW25168   4.012   1.204   8.223  0.2903 -0.5531 -0.3511
 4512SOL    HW125169   3.981   1.118   8.250 -0.0955  0.1255  1.3636
 4512SOL    HW225170   4.068   1.175   8.151 -0.0540  1.1831 -1.3052
 4513SOL     OW25171   2.770   1.313   2.853 -0.1963  0.3014  0.0292
 4513SOL    HW125172   2.794   1.376   2.786  0.4402 -0.1229 -0.1462
 4513SOL    HW225173   2.676   1.317   2.835  0.1764  1.0752 -1.7206
 4514SOL     OW25174   4.678   1.674  16.014 -0.6353  0.0751 -0.5901
 4514SOL    HW125175   4.623   1.740  15.973  0.5433  1.6903  0.4514
 4514SOL    HW225176   4.687   1.623  15.934 -0.3550  0.5001 -0.8279
 4515SOL     OW25177   2.677   4.490   8.142  0.5840 -0.0110 -0.8073
 4515SOL    HW125178   2.745   4.529   8.197 -0.5960  3.7385 -1.9589
 4515SOL    HW225179   2.608   4.495   8.208  0.1936 -0.1862 -1.2039
 4516SOL     OW25180   3.788   1.136  10.489 -0.4203 -0.3579 -0.0061
 4516SOL    HW125181   3.832   1.056  10.460  1.0728 -0.0074  1.2686
 4516SOL    HW225182   3.698   1.105  10.500  0.7527 -2.0836  4.8669
 4517SOL     OW25183   1.924   1.510   7.205 -0.6682 -0.0955  0.2634
 4517SOL    HW125184   2.014   1.539   7.213 -1.5492  3.3208 -2.1273
 4517SOL    HW225185   1.899   1.540   7.117 -1.2555 -1.6316 -0.0907
 4518SOL     OW25186   1.458   4.656   3.392 -0.7688 -0.0122 -0.5385
 4518SOL    HW125187   1.410   4.733   3.362 -1.8549 -0.7493 -0.7021
 4518SOL    HW225188   1.535   4.695   3.432  0.0790 -2.9011  0.6190
 4519SOL     OW25189   0.499   2.559   9.359 -0.2975  0.5424  0.2440
 4519SOL    HW125190   0.432   2.579   9.425 -2.1520 -2.2054 -0.7955
 4519SOL    HW225191   0.490   2.641   9.310 -2.8088 -1.5597 -2.8061
 4520SOL     OW25192   2.219   3.198   7.437  0.1351  0.5835  0.0681
 4520SOL    HW125193   2.246   3.133   7.502 -2.5413 -1.1399 -0.5322
 4520SOL    HW225194   2.212   3.279   7.488  0.2031  0.2466  0.6095
 4521SOL     OW25195   3.061   0.779  16.513  0.2352  0.6980 -0.3954
 4521SOL    HW125196   3.131   0.749  16.455 -0.3273  0.0919 -0.7671
 4521SOL    HW225197   3.090   0.869  16.522  3.1596 -0.3585  0.7124
 4522SOL     OW25198   1.349   0.085   9.132 -0.5685 -0.1378 -0.2487
 4522SOL    HW125199   1.283   0.058   9.069 -0.8620  1.8981 -0.8131
 4522SOL    HW225200   1.336   0.180   9.135  2.6787  0.2874  0.9216
 4523SOL     OW25201   3.114   1.444  14.893 -0.1553 -0.5524  0.5527
 4523SOL    HW125202   3.153   1.381  14.832  2.4791  1.5965  0.0075
 4523SOL    HW225203   3.031   1.447  14.846  0.3816  2.7330 -0.1389
 4524SOL     OW25204   2.980   0.898   4.990  0.1645  0.5955 -0.0419
 4524SOL    HW125205   3.017   0.982   5.019  1.8056 -0.3974  0.7505
 4524SOL    HW225206   3.008   0.880   4.900  1.5319 -0.9242  0.7008
 4525SOL     OW25207   0.311   4.490   5.689  0.0619 -0.1143  0.0511
 4525SOL    HW125208   0.352   4.446   5.614 -0.2378 -1.7842  0.8570
 4525SOL    HW225209   0.224   4.493   5.649 -0.0887  1.7300  0.5557
 4526SOL     OW25210   4.441   3.791   0.956 -0.9708  0.0121  0.1016
 4526SOL    HW125211   4.387   3.715   0.932  0.2493 -0.5579 -0.8570
 4526SOL    HW225212   4.431   3.828   0.868  1.8072  0.0864 -0.1677
 4527SOL     OW25213   0.824   0.637   5.502 -0.1369 -0.1293 -0.0059
 4527SOL    HW125214   0.810   0.546   5.531 -1.1507  0.1977  0.5442
 4527SOL    HW225215   0.880   0.613   5.429 -1.3394 -0.0218 -0.9692
 4528SOL     OW25216   3.775   2.063  11.083 -0.1367 -0.9803 -0.1258
 4528SOL    HW125217   3.777   2.147  11.129  2.1386 -1.0872 -0.0474
 4528SOL    HW225218   3.857   2.027  11.116 -0.5017 -0.3902  1.4468
 4529SOL     OW25219   2.321   4.117   6.960  0.2177  0.1584 -0.0729
 4529SOL    HW125220   2.412   4.086   6.959  0.3935  0.6737 -0.2275
 4529SOL    HW225221   2.323   4.197   7.013  0.1696  0.6859 -0.8609
 4530SOL     OW25222   2.026   3.231  10.972  0.0377 -0.0458  0.3175
 4530SOL    HW125223   2.096   3.192  11.024  0.2291  1.8462  1.4848
 4530SOL    HW225224   1.959   3.163  10.970  2.4317 -2.4419  1.5485
 4531SOL     OW25225   1.007   0.760   1.577  0.3041 -0.1601 -0.1121
 4531SOL    HW125226   1.040   0.779   1.489  0.6536  1.3605  0.3575
 4531SOL    HW225227   0.994   0.846   1.616  0.9236  0.0917 -0.4644
 4532SOL     OW25228   1.254   1.425   0.413  0.9521  0.2848  0.1091
 4532SOL    HW125229   1.205   1.491   0.463  0.3726  0.2426 -0.4101
 4532SOL    HW225230   1.341   1.455   0.439  0.9869  0.3294 -0.0629
 4533SOL     OW25231   3.320   0.996  11.605 -0.1101  0.0671 -0.6123
 4533SOL    HW125232   3.281   1.056  11.542  0.8110  1.8088  0.4781
 4533SOL    HW225233   3.317   1.050  11.685 -0.5138 -1.6773  0.5522
 4534SOL     OW25234   1.307   1.933   0.044  0.0640  0.1260  0.2548
 4534SOL    HW125235   1.300   1.846   0.084 -0.1955 -0.3037 -0.7015
 4534SOL    HW225236   1.388   1.921  17.744  0.0535  1.6920 -0.1420
 4535SOL     OW25237   2.133   1.686   7.245 -0.4612  0.3360  0.1527
 4535SOL    HW125238   2.192   1.666   7.173  0.4556 -0.5588  1.1435
 4535SOL    HW225239   2.072   1.750   7.209  0.0021  1.1953  0.9024
 4536SOL     OW25240   1.807   2.124   3.298 -0.0972  0.3965 -0.2548
 4536SOL    HW125241   1.899   2.141   3.277  0.1058  0.2826  0.5369
 4536SOL    HW225242   1.769   2.120   3.211 -0.5479  0.0706 -0.0425
 4537SOL     OW25243   0.615   0.305   9.283 -0.0991 -0.1356  0.0841
 4537SOL    HW125244   0.671   0.312   9.361 -1.1593  0.0749  0.8226
 4537SOL    HW225245   0.607   0.396   9.256  0.2046  0.1482  0.9331
 4538SOL     OW25246   2.104   2.133   6.296 -0.2142  0.0178  0.5755
 4538SOL    HW125247   2.175   2.196   6.287 -0.1330 -0.2007 -0.3154
 4538SOL    HW225248   2.141   2.045   6.296 -0.7181 -0.1985  0.4114
 4539SOL     OW25249   1.579   0.193   4.824 -0.3867 -0.5171 -0.4320
 4539SOL    HW125250   1.643   0.218   4.758 -0.4509  0.2088 -0.2283
 4539SOL    HW225251   1.537   0.111   4.797  0.3421 -0.1812 -2.5787
 4540SOL     OW25252   0.885   2.771   2.115  0.0766  0.4484 -0.5805
 4540SOL    HW125253   0.877   2.774   2.020 -0.6861  1.2662 -0.4885
 4540SOL    HW225254   0.852   2.858   2.138  0.8429  0.5500  0.1418
 4541SOL     OW25255   2.950   1.209   6.128 -0.2368  0.4756  0.0190
 4541SOL    HW125256   2.974   1.243   6.042  0.5526 -1.0356 -0.3619
 4541SOL    HW225257   2.877   1.264   6.156  0.0256  2.1239 -2.5639
 4542SOL     OW25258   1.754   3.840   0.648  0.5546 -0.2068  0.3491
 4542SOL    HW125259   1.715   3.755   0.665  1.2051 -1.1655 -3.0038
 4542SOL    HW225260   1.685   3.898   0.616  0.4805 -0.2774  0.3804
 4543SOL     OW25261   0.504   0.671   0.917 -0.0770 -0.3125  0.1231
 4543SOL    HW125262   0.556   0.639   0.991 -2.5318 -1.3830  1.3858
 4543SOL    HW225263   0.491   0.762   0.943 -0.6188 -0.3701  0.0514
 4544SOL     OW25264   1.241   2.475   8.703  0.4710  0.2602 -0.0254
 4544SOL    HW125265   1.333   2.451   8.718  1.3758  3.1853 -0.8517
 4544SOL    HW225266   1.210   2.437   8.621  0.3966 -1.3266  0.7447
 4545SOL     OW25267   1.041   2.282   8.053 -0.0307 -0.0897  0.1211
 4545SOL    HW125268   1.071   2.242   8.135 -0.6600  0.1373  0.4676
 4545SOL    HW225269   1.121   2.321   8.017 -0.8472 -0.4393 -2.0373
 4546SOL     OW25270   1.256   4.200  13.677  0.0913  0.0365  0.2878
 4546SOL    HW125271   1.205   4.120  13.687  0.5290 -0.1033  1.3854
 4546SOL    HW225272   1.262   4.208  13.581 -0.6166  0.2731  0.2637
 4547SOL     OW25273   0.029   1.694   4.067  0.0759  0.0674 -0.4545
 4547SOL    HW125274   0.049   1.731   3.982 -0.1994 -2.8610 -1.8066
 4547SOL    HW225275   0.085   1.740   4.130  2.0513 -1.3396 -1.1900
 4548SOL     OW25276   1.841   4.541   5.689 -0.3680 -0.0205 -0.2829
 4548SOL    HW125277   1.921   4.514   5.644 -0.8403  1.1133 -1.8161
 4548SOL    HW225278   1.880   4.616   5.734 -2.1309  0.3921  0.5644
 4549SOL     OW25279   0.669   2.053   4.896  0.0876  0.0126 -0.1138
 4549SOL    HW125280   0.592   2.003   4.872 -2.2122  2.5277  2.0447
 4549SOL    HW225281   0.621   2.131   4.923 -0.5696 -0.7558  0.9244
 4550SOL     OW25282   3.887   3.888   1.443 -0.0511 -0.0051  0.0087
 4550SOL    HW125283   3.976   3.863   1.468 -0.1722 -2.5302 -2.0352
 4550SOL    HW225284   3.904   3.978   1.416  2.3837 -0.1143  1.2616
 4551SOL     OW25285   0.760   4.213   8.855  0.1419 -0.3671  0.2780
 4551SOL    HW125286   0.726   4.180   8.772  0.0274  0.9460 -0.2029
 4551SOL    HW225287   0.855   4.204   8.845  0.0675 -0.9535  0.1203
 4552SOL     OW25288   1.050   1.773   9.629  0.0214 -0.0882  0.2071
 4552SOL    HW125289   1.022   1.692   9.674 -1.9704  1.0226  1.0031
 4552SOL    HW225290   1.105   1.817   9.694 -1.2497 -0.7499  1.7546
 4553SOL     OW25291   2.068   2.673   8.784 -0.1347 -0.0264  0.2152
 4553SOL    HW125292   2.140   2.723   8.822  0.6496 -0.3794 -0.8281
 4553SOL    HW225293   2.095   2.586   8.812  3.0143  1.2981  1.2448
 4554SOL     OW25294   1.859   2.391   5.818  0.0564 -0.1840  0.0013
 4554SOL    HW125295   1.898   2.318   5.866  1.3176  0.8423  0.5357
 4554SOL    HW225296   1.769   2.381   5.848  0.4878  0.1484  1.4207
 4555SOL     OW25297   4.316   1.575  16.913 -0.5364 -0.0228  0.2417
 4555SOL    HW125298   4.324   1.499  16.971  2.3292 -2.3133 -3.1670
 4555SOL    HW225299   4.411   1.588  16.913 -0.6064  0.4913  0.6206
 4556SOL     OW25300   4.251   1.371  17.313 -0.3739 -0.7375  0.6012
 4556SOL    HW125301   4.288   1.421  17.386 -1.4286  1.0532 -0.0750
 4556SOL    HW225302   4.165   1.375  17.354 -0.6129  0.1475  0.0202
 4557SOL     OW25303   3.357   0.160   4.169 -0.4886 -0.3048  0.4286
 4557SOL    HW125304   3.378   0.066   4.171  1.3562  0.1797  3.3043
 4557SOL    HW225305   3.313   0.182   4.087  0.1492 -2.4131 -0.5024
 4558SOL     OW25306   0.817   2.884   2.542 -0.2152  0.2992 -0.3622
 4558SOL    HW125307   0.909   2.879   2.571 -0.5423 -0.5323  0.5379
 4558SOL    HW225308   0.798   2.977   2.549  1.6444  0.6535  0.0666
 4559SOL     OW25309   4.269   4.400  13.909  0.2844  0.4638 -0.3213
 4559SOL    HW125310   4.275   4.307  13.931 -2.4074 -0.0974 -1.9349
 4559SOL    HW225311   4.335   4.418  13.842 -0.2090 -0.8493 -1.1470
 4560SOL     OW25312   1.316   1.036  17.187 -0.4437  0.3410  0.1419
 4560SOL    HW125313   1.290   1.128  17.198 -2.6148 -0.5837  2.8014
 4560SOL    HW225314   1.233   0.996  17.213 -0.7364  0.2826 -0.8633
 4561SOL     OW25315   3.387   1.283  15.289  0.3484 -0.1431  0.2176
 4561SOL    HW125316   3.309   1.315  15.335  0.3606 -0.1365  0.2334
 4561SOL    HW225317   3.361   1.193  15.271  1.7516 -1.0596  2.7944
 4562SOL     OW25318   2.958   1.984   3.283  0.5362 -0.1712  0.5825
 4562SOL    HW125319   2.887   2.031   3.238  1.5109  1.0876  0.3512
 4562SOL    HW225320   3.017   1.961   3.211 -1.4013 -0.3331 -0.9523
 4563SOL     OW25321   0.066   0.014   6.087  0.0940  0.1586  0.2178
 4563SOL    HW125322   0.089   4.669   6.129 -0.9399 -0.1308  0.2130
 4563SOL    HW225323   0.092   0.077   6.155  2.1051 -2.3036  1.7214
 4564SOL     OW25324   2.296   3.035   1.909  0.1593 -0.3191 -0.5379
 4564SOL    HW125325   2.279   2.981   1.986  0.0837 -1.3337 -1.2549
 4564SOL    HW225326   2.272   2.975   1.838  1.0348 -0.2756 -0.8705
 4565SOL     OW25327   3.870   1.964   6.854  0.4395  0.3416  0.1490
 4565SOL    HW125328   3.866   2.059   6.843 -1.7555  0.2668  0.4466
 4565SOL    HW225329   3.962   1.953   6.829  0.5684  0.8471  0.4028
 4566SOL     OW25330   4.525   2.661  13.019  0.4166 -0.4694 -0.5787
 4566SOL    HW125331   4.452   2.721  13.034 -0.7878 -2.2234  0.5248
 4566SOL    HW225332   4.513   2.643  12.926  2.6174 -2.2388 -0.5327
 4567SOL     OW25333   2.722   2.712  16.709 -0.6371  0.0282 -0.2916
 4567SOL    HW125334   2.779   2.676  16.776 -2.7679  1.4126  2.2836
 4567SOL    HW225335   2.786   2.749  16.648 -1.6942  0.3962 -1.1915
 4568SOL     OW25336   3.644   2.818   1.220  0.3169 -0.4525 -0.1264
 4568SOL    HW125337   3.667   2.889   1.279 -0.0967  0.5489 -1.1685
 4568SOL    HW225338   3.566   2.861   1.184  2.7373  2.7023 -1.5031
 4569SOL     OW25339   3.496   1.530   0.409  0.3896  0.3595  0.0388
 4569SOL    HW125340   3.406   1.561   0.409  0.8266  1.5437 -2.6491
 4569SOL    HW225341   3.510   1.496   0.498  2.8626  2.8586  0.5959
 4570SOL     OW25342   0.225   2.119   5.646 -0.9199 -0.8081  0.3828
 4570SOL    HW125343   0.297   2.150   5.591 -2.2800  1.5640 -0.0256
 4570SOL    HW225344   0.272   2.118   5.730 -1.7775  1.6268  0.8862
 4571SOL     OW25345   2.912   3.868  13.612 -0.3458 -0.3433  0.0119
 4571SOL    HW125346   2.959   3.927  13.553 -0.4178  0.9728  1.2735
 4571SOL    HW225347   2.879   3.916  13.688  2.8638 -1.4620  2.1239
 4572SOL     OW25348   0.587   1.126   3.934 -0.7596 -0.1763 -0.6751
 4572SOL    HW125349   0.560   1.126   4.026  2.2221  0.9918  0.2205
 4572SOL    HW225350   0.682   1.139   3.933 -1.0964  2.4253  1.2526
 4573SOL     OW25351   2.302   4.602   2.307  0.1264 -0.0520  0.1853
 4573SOL    HW125352   2.258   4.551   2.239  1.1816  2.2401 -2.2145
 4573SOL    HW225353   2.260   4.686   2.288  0.1439 -0.4198 -1.5156
 4574SOL     OW25354   4.563   1.399  15.927  0.2300  0.3905 -0.2410
 4574SOL    HW125355   4.485   1.400  15.982  0.0821  3.0789 -0.5192
 4574SOL    HW225356   4.577   1.306  15.910 -1.4449  0.5355 -2.4293
 4575SOL     OW25357   0.798   2.706  15.737 -0.3719  0.5632 -0.4833
 4575SOL    HW125358   0.800   2.686  15.831 -0.3134  1.2948 -0.3265
 4575SOL    HW225359   0.886   2.740  15.720 -0.3586  1.0851  0.6109
 4576SOL     OW25360   4.420   0.413  16.951  0.2003 -1.0301 -0.2348
 4576SOL    HW125361   4.337   0.429  16.996  0.5755 -0.1298  0.1299
 4576SOL    HW225362   4.382   0.380  16.870 -0.9660  0.7250 -0.3791
 4577SOL     OW25363   1.660   4.583   7.070  0.3006 -0.0917 -0.0929
 4577SOL    HW125364   1.653   4.512   7.006 -2.9417 -0.0529  0.2041
 4577SOL    HW225365   1.575   4.579   7.114 -0.0903 -0.3787 -0.8716
 4578SOL     OW25366   4.321   2.308   1.160 -0.8308  0.1346 -0.0800
 4578SOL    HW125367   4.245   2.258   1.191 -1.9351  2.3801  0.7954
 4578SOL    HW225368   4.269   2.388   1.152  0.6375  1.1760  0.9497
 4579SOL     OW25369   4.703   2.330   0.354 -0.1380  0.2341  0.2327
 4579SOL    HW125370   0.015   2.342   0.434 -0.0193 -2.4582  0.5506
 4579SOL    HW225371   4.622   2.334   0.404 -0.4694 -0.0921 -0.2776
 4580SOL     OW25372   3.574   2.293  15.149  0.8653 -0.5346  0.1836
 4580SOL    HW125373   3.564   2.201  15.175  1.4184 -0.0115  2.2411
 4580SOL    HW225374   3.488   2.332  15.165  1.6293  0.7710  1.1187
 4581SOL     OW25375   0.813   1.111   3.740  0.5421  0.3790  0.1243
 4581SOL    HW125376   0.899   1.108   3.697  0.7556 -1.1418  0.6471
 4581SOL    HW225377   0.817   1.043   3.808 -1.0348  1.4330  1.2679
 4582SOL     OW25378   2.598   2.221   3.636  0.2483 -0.0898 -0.1547
 4582SOL    HW125379   2.606   2.165   3.559  1.6878  1.0755 -0.8586
 4582SOL    HW225380   2.524   2.185   3.685  1.4797  1.5229  2.9049
 4583SOL     OW25381   3.223   0.030   0.539  0.5623  0.3289  0.2985
 4583SOL    HW125382   3.277   4.698   0.500 -0.6127  0.2155 -1.1433
 4583SOL    HW225383   3.226   0.109   0.485  0.3122 -1.6290 -2.6213
 4584SOL     OW25384   2.415   1.987   6.793 -0.6309 -0.5340 -0.2805
 4584SOL    HW125385   2.425   2.026   6.880 -1.8341  0.2831 -0.5161
 4584SOL    HW225386   2.325   2.001   6.766 -0.9819  0.3360  1.3482
 4585SOL     OW25387   1.330   4.570   7.699 -0.5417  0.9622  0.2563
 4585SOL    HW125388   1.359   4.568   7.608 -0.5882  0.0150  0.2618
 4585SOL    HW225389   1.390   4.515   7.749  1.4110  0.3263 -2.8543
 4586SOL     OW25390   3.524   4.633   3.158  0.1749  0.1515  0.3573
 4586SOL    HW125391   3.511   4.641   3.253  1.0535  1.9362  0.3263
 4586SOL    HW225392   3.476   4.712   3.132  0.5949 -0.0508 -1.0086
 4587SOL     OW25393   1.665   2.231   6.201  0.4139  0.0841  0.2351
 4587SOL    HW125394   1.761   2.222   6.206  0.1880 -2.1821  0.6034
 4587SOL    HW225395   1.649   2.278   6.283 -1.8836  1.6176 -1.0936
 4588SOL     OW25396   1.562   0.380   6.995 -0.5895 -0.1548  0.3825
 4588SOL    HW125397   1.530   0.293   6.969 -0.7676 -0.4233  1.5004
 4588SOL    HW225398   1.655   0.372   6.977 -0.7349  0.0464 -0.4581
 4589SOL     OW25399   2.798   0.467   8.791  0.4451  0.1233 -0.0309
 4589SOL    HW125400   2.891   0.457   8.812  0.8246 -0.4875 -1.9231
 4589SOL    HW225401   2.754   0.396   8.838 -0.1219  0.8537  0.5285
 4590SOL     OW25402   1.222   0.181  15.489 -0.4000 -0.1463  0.1546
 4590SOL    HW125403   1.245   0.089  15.500 -1.4964 -0.1133  2.8594
 4590SOL    HW225404   1.263   0.211  15.408  0.0491  1.0033  0.7916
 4591SOL     OW25405   3.246   4.237  15.569 -0.0536  0.3148 -0.0787
 4591SOL    HW125406   3.167   4.257  15.518  0.9772 -0.3031 -1.9371
 4591SOL    HW225407   3.255   4.144  15.552  1.8499  0.3361  0.8470
 4592SOL     OW25408   3.584   4.086   4.679 -0.6110 -0.5022 -0.1734
 4592SOL    HW125409   3.630   4.073   4.596 -1.4886  1.2418 -0.9278
 4592SOL    HW225410   3.621   4.022   4.740  1.3801  0.1372 -0.7038
 4593SOL     OW25411   3.134   2.711   6.459 -0.3294  0.3353 -0.2231
 4593SOL    HW125412   3.070   2.777   6.486 -0.0022  0.9657 -0.9952
 4593SOL    HW225413   3.196   2.719   6.531  0.0697  0.4528 -0.5752
 4594SOL     OW25414   3.591   1.329   6.918 -0.0315 -0.5572 -0.5127
 4594SOL    HW125415   3.638   1.331   7.002  4.4055  0.8905 -3.0561
 4594SOL    HW225416   3.664   1.350   6.859 -0.5247  0.7940 -0.6469
 4595SOL     OW25417   3.372   0.190  17.071  0.0491  0.2287 -0.0075
 4595SOL    HW125418   3.428   0.268  17.064 -1.8181  1.5271 -0.4888
 4595SOL    HW225419   3.311   0.203  16.998  0.5799 -1.7161 -0.8031
 4596SOL     OW25420   3.534   2.674   0.865  0.2543  0.6351 -0.3246
 4596SOL    HW125421   3.591   2.647   0.937  0.5730  3.4752  0.4832
 4596SOL    HW225422   3.595   2.706   0.799  2.2885 -1.2641  0.6276
 4597SOL     OW25423   4.491   0.735   2.986  0.2228  0.6488  0.2666
 4597SOL    HW125424   4.402   0.703   2.995  0.7392 -1.0529 -0.6544
 4597SOL    HW225425   4.543   0.659   3.011  0.5315  0.1572 -1.9108
 4598SOL     OW25426   4.440   0.052   6.175  0.0051  0.2875  0.4601
 4598SOL    HW125427   4.350   0.081   6.158  0.0082  0.5288  0.8634
 4598SOL    HW225428   4.472   0.065   6.085  1.6994  0.7492  1.1382
 4599SOL     OW25429   1.838   4.051  11.016 -0.2607  0.3948  0.4952
 4599SOL    HW125430   1.843   4.075  11.108  3.2018  2.0783 -0.1356
 4599SOL    HW225431   1.903   3.982  11.001  1.4660  1.9669  0.6958
 4600SOL     OW25432   3.696   3.293  16.517 -0.0449 -0.3131 -0.2023
 4600SOL    HW125433   3.702   3.387  16.534 -0.4044 -0.5429  1.2427
 4600SOL    HW225434   3.789   3.272  16.517  0.1119  0.3821  0.5897
 4601SOL     OW25435   3.093   2.853   4.002 -0.1869  0.1942 -0.1445
 4601SOL    HW125436   3.056   2.879   3.917 -0.4090  1.9376  0.4896
 4601SOL    HW225437   3.105   2.758   3.991 -0.3297 -0.0106  1.5475
 4602SOL     OW25438   4.509   0.813   3.627 -0.2346  0.2211 -0.1787
 4602SOL    HW125439   4.568   0.853   3.691 -0.3430  0.7239 -0.3994
 4602SOL    HW225440   4.567   0.813   3.551  0.6392 -1.3569  0.4888
 4603SOL     OW25441   1.435   1.629   7.115 -0.1160  0.8444 -0.2090
 4603SOL    HW125442   1.418   1.620   7.209 -0.0099 -0.1248 -0.2871
 4603SOL    HW225443   1.343   1.646   7.096 -0.1127 -1.6350 -2.3623
 4604SOL     OW25444   1.429   3.639  11.943 -0.2718  0.2738 -0.1884
 4604SOL    HW125445   1.406   3.729  11.922 -1.0671 -0.2289 -1.4229
 4604SOL    HW225446   1.356   3.591  11.904 -0.7586  0.6758  0.2296
 4605SOL     OW25447   0.360   4.563   9.274  0.1365 -0.6002  0.6303
 4605SOL    HW125448   0.419   4.636   9.256  0.3962 -1.0309 -0.2784
 4605SOL    HW225449   0.276   4.602   9.247  0.1699 -1.5404 -0.8359
 4606SOL     OW25450   2.467   2.391   6.642 -0.2418  0.2883  0.2612
 4606SOL    HW125451   2.400   2.408   6.575 -0.9356  2.2715  1.4267
 4606SOL    HW225452   2.541   2.426   6.593 -1.1827  0.1482 -1.2710
 4607SOL     OW25453   3.102   0.566   5.102 -0.0154 -0.2269 -0.4422
 4607SOL    HW125454   3.155   0.618   5.041 -2.6366 -0.5677 -2.9583
 4607SOL    HW225455   3.018   0.559   5.057  1.2265 -0.5358 -2.7034
 4608SOL     OW25456   1.426   3.873  12.188  0.2887  0.1328  0.2409
 4608SOL    HW125457   1.518   3.900  12.189  0.2390  0.3177 -0.8080
 4608SOL    HW225458   1.400   3.875  12.096  0.6830  0.0372  0.1274
 4609SOL     OW25459   0.136   0.281  12.658 -0.3187  0.0022 -0.4454
 4609SOL    HW125460   0.043   0.264  12.640 -0.3518 -1.8265  1.5218
 4609SOL    HW225461   0.179   0.219  12.600 -0.6820  0.1334 -0.8532
 4610SOL     OW25462   4.666   3.251   9.898 -0.5257 -0.0796 -0.0906
 4610SOL    HW125463   4.585   3.217   9.934  0.7992 -1.8702  1.1938
 4610SOL    HW225464   4.710   3.295   9.971 -0.5961 -1.2176  0.6273
 4611SOL     OW25465   0.317   1.956  12.046 -0.0523  0.2151  0.4314
 4611SOL    HW125466   0.382   1.887  12.055  2.6057  2.4833 -1.2868
 4611SOL    HW225467   0.355   2.038  12.077 -3.2413  1.5246  0.8249
 4612SOL     OW25468   3.447   3.583  16.580  0.2514 -0.3770  0.8039
 4612SOL    HW125469   3.407   3.504  16.544 -3.5794  1.7950  0.2264
 4612SOL    HW225470   3.414   3.594  16.669  0.5101 -1.1483  0.9952
 4613SOL     OW25471   3.234   1.518   3.501  0.2948  0.5175  0.5983
 4613SOL    HW125472   3.217   1.612   3.506  0.4874  0.5756  0.1323
 4613SOL    HW225473   3.143   1.493   3.485  0.5639 -1.5943  2.2508
 4614SOL     OW25474   0.549   3.145   9.112  0.1144  0.2259 -0.0866
 4614SOL    HW125475   0.613   3.159   9.183  0.6002 -3.2931  0.1634
 4614SOL    HW225476   0.468   3.147   9.162 -0.9497 -1.7849 -1.7657
 4615SOL     OW25477   1.140   2.992  15.231  0.0666 -0.1890  0.1983
 4615SOL    HW125478   1.181   3.075  15.257 -1.2559  0.4359  0.3175
 4615SOL    HW225479   1.214   2.960  15.180 -1.3559 -1.3953 -1.1268
 4616SOL     OW25480   2.122   4.154   2.792 -0.5321 -0.2327  0.2894
 4616SOL    HW125481   2.187   4.083   2.799  1.2590  1.3578 -0.2871
 4616SOL    HW225482   2.182   4.225   2.771  0.1127 -1.0291 -0.5954
 4617SOL     OW25483   4.578   1.976   3.054 -0.3022  0.1923  0.3166
 4617SOL    HW125484   4.535   1.909   3.001 -0.2336 -0.2163  0.7852
 4617SOL    HW225485   4.563   2.047   2.991 -1.3654  1.3631  1.9030
 4618SOL     OW25486   0.022   2.344   3.330 -0.1330  0.6052 -0.6897
 4618SOL    HW125487   0.022   2.391   3.247 -1.1338  1.2914 -0.2914
 4618SOL    HW225488   4.689   2.280   3.324 -1.9371  2.5050  0.5499
 4619SOL     OW25489   1.598   0.931   5.028 -0.2296 -0.5735 -0.6820
 4619SOL    HW125490   1.672   0.891   4.981 -0.6749 -1.2600 -0.7980
 4619SOL    HW225491   1.624   1.023   5.038  2.5405 -1.6532  2.2283
 4620SOL     OW25492   1.806   0.335   7.722 -0.1174  0.1512  0.2529
 4620SOL    HW125493   1.720   0.322   7.762  0.1183  0.7337  0.9371
 4620SOL    HW225494   1.775   0.400   7.658 -0.3295  0.9784  1.1984
 4621SOL     OW25495   3.014   2.885   0.311 -0.4339  0.1350 -0.6248
 4621SOL    HW125496   2.968   2.963   0.340  0.6829  0.7074 -0.4079
 4621SOL    HW225497   2.976   2.823   0.373 -1.9449  2.0415  0.3364
 4622SOL     OW25498   1.397   3.536   9.176 -0.3533  0.4232  0.2637
 4622SOL    HW125499   1.440   3.575   9.253  0.6064 -1.3349  0.6299
 4622SOL    HW225500   1.446   3.582   9.108 -1.0380  1.2760  0.3407
 4623SOL     OW25501   1.503   1.720   3.999  0.0896 -0.3029 -0.2120
 4623SOL    HW125502   1.431   1.662   4.027 -0.4669  0.4711 -0.0405
 4623SOL    HW225503   1.532   1.662   3.928  0.1571 -1.0895  0.4514
 4624SOL     OW25504   2.898   3.718  14.277 -0.3314  0.0286  0.0639
 4624SOL    HW125505   2.903   3.652  14.346 -1.0626  1.2801  1.3297
 4624SOL    HW225506   2.804   3.739  14.270 -0.6672 -0.8314  2.0361
 4625SOL     OW25507   4.686   4.571  15.899  0.1780 -0.8530  0.2516
 4625SOL    HW125508   4.682   4.633  15.972  1.9705  1.0439 -1.2609
 4625SOL    HW225509   4.601   4.595  15.860  0.1922  0.8294  1.2166
 4626SOL     OW25510   3.684   1.223   3.406 -0.2654 -0.4858 -0.6044
 4626SOL    HW125511   3.737   1.279   3.463  0.6357 -3.2530  1.2649
 4626SOL    HW225512   3.618   1.286   3.375  1.0605  0.5566 -1.3241
 4627SOL     OW25513   3.580   0.203   8.248  0.0689 -0.3771  0.4862
 4627SOL    HW125514   3.658   0.152   8.272 -0.7959 -2.9355 -2.1409
 4627SOL    HW225515   3.543   0.218   8.335 -1.5537 -0.9519 -0.1065
 4628SOL     OW25516   2.957   3.988   2.711  0.0412  0.2819 -0.0928
 4628SOL    HW125517   3.002   3.907   2.688  1.1614  0.7265  0.5230
 4628SOL    HW225518   3.033   4.039   2.739  0.9690 -1.2271  0.1746
 4629SOL     OW25519   2.165   1.505  17.043  0.4431  0.4410  0.3455
 4629SOL    HW125520   2.201   1.420  17.018  0.7145  1.1327 -1.6293
 4629SOL    HW225521   2.093   1.470  17.095 -0.2485 -0.7441 -1.4260
 4630SOL     OW25522   2.083   2.446   2.140  0.2048 -0.1555  0.3994
 4630SOL    HW125523   2.029   2.377   2.103 -0.8292  1.2969 -0.8064
 4630SOL    HW225524   2.024   2.459   2.215  0.5208 -0.4184  0.6934
 4631SOL     OW25525   4.235   3.750   0.492  0.1477 -0.7743 -0.1676
 4631SOL    HW125526   4.273   3.810   0.556  0.3256  0.0492 -1.0384
 4631SOL    HW225527   4.140   3.760   0.505  0.0071 -2.1374 -0.1602
 4632SOL     OW25528   2.635   2.045   9.424 -0.2209 -0.3761 -0.7680
 4632SOL    HW125529   2.577   2.086   9.359 -3.8350 -1.7917  1.5507
 4632SOL    HW225530   2.709   2.103   9.407  0.4835 -1.0748 -0.0620
 4633SOL     OW25531   0.970   0.174   5.377  0.0157 -0.1293 -0.0899
 4633SOL    HW125532   0.898   0.117   5.351  0.3227 -0.4129 -0.3264
 4633SOL    HW225533   1.044   0.114   5.379  0.1630  0.1262  2.2879
 4634SOL     OW25534   0.088   3.045   7.138  0.5308 -0.2135 -0.3639
 4634SOL    HW125535   0.021   3.007   7.194 -0.9414  0.0280 -1.9828
 4634SOL    HW225536   0.093   3.136   7.166 -1.0008 -0.3243  0.2156
 4635SOL     OW25537   2.310   0.341  11.863 -0.3538  0.2516 -0.5787
 4635SOL    HW125538   2.404   0.359  11.859 -0.0476 -1.8190 -2.2060
 4635SOL    HW225539   2.284   0.401  11.933 -0.1329 -1.9794  1.4152
 4636SOL     OW25540   0.738   0.426  17.580 -0.3500 -0.6194 -0.0720
 4636SOL    HW125541   0.712   0.351  17.634 -3.4095 -0.5490 -1.4347
 4636SOL    HW225542   0.755   0.383  17.496  0.3014  0.1740 -0.3417
 4637SOL     OW25543   1.235   3.505   1.803  0.1172  0.0775 -0.1431
 4637SOL    HW125544   1.241   3.589   1.757 -0.9932  0.6188  0.6909
 4637SOL    HW225545   1.304   3.514   1.869  1.1025  0.6436 -1.2754
 4638SOL     OW25546   2.410   2.172  13.516 -0.7862 -0.1335 -0.2381
 4638SOL    HW125547   2.409   2.245  13.577  1.5822  0.6525 -1.1578
 4638SOL    HW225548   2.316   2.162  13.498 -0.2313 -1.3212 -2.4373
 4639SOL     OW25549   4.721   4.452   6.244 -0.0201  0.6152 -1.0707
 4639SOL    HW125550   4.706   4.417   6.156 -1.2697  0.5087 -0.8198
 4639SOL    HW225551   4.655   4.406   6.296  1.2664  0.9862  0.8835
 4640SOL     OW25552   1.659   3.026   4.277 -0.1369 -0.3258 -0.1522
 4640SOL    HW125553   1.728   3.086   4.250  0.0360  0.0885  1.2185
 4640SOL    HW225554   1.662   2.952   4.217 -1.7788 -0.0884 -0.5329
 4641SOL     OW25555   1.716   3.132   2.907  0.6543  0.1199  0.3750
 4641SOL    HW125556   1.661   3.057   2.882  0.1842 -0.5865  3.4955
 4641SOL    HW225557   1.710   3.193   2.834  0.6626 -0.3940 -0.0604
 4642SOL     OW25558   0.886   1.001   2.417  0.0939  0.5663 -0.4830
 4642SOL    HW125559   0.834   1.048   2.482  0.6386 -0.4862  0.7278
 4642SOL    HW225560   0.903   0.916   2.459  0.5466  1.0686  0.3627
 4643SOL     OW25561   1.679   2.142   5.293 -0.1807  0.2948 -0.3576
 4643SOL    HW125562   1.618   2.093   5.349  1.3812 -0.5265  0.6219
 4643SOL    HW225563   1.629   2.143   5.211 -0.5141  0.3849 -0.1545
 4644SOL     OW25564   3.140   3.681   8.218  1.0985  0.3372 -0.0856
 4644SOL    HW125565   3.217   3.738   8.210 -0.0203  1.9776  0.7117
 4644SOL    HW225566   3.125   3.650   8.129  2.0607  0.1301 -0.1761
 4645SOL     OW25567   0.762   2.426   4.190  0.1232  0.0118  0.4575
 4645SOL    HW125568   0.840   2.399   4.141 -1.0888 -1.9435 -0.3690
 4645SOL    HW225569   0.808   2.437   4.273 -0.6042  0.2258  0.8256
 4646SOL     OW25570   0.559   2.734   0.610  0.5356  0.7812 -0.2860
 4646SOL    HW125571   0.577   2.756   0.701  1.1093 -0.3968 -0.1188
 4646SOL    HW225572   0.641   2.763   0.571  0.7380 -0.7452 -0.9905
 4647SOL     OW25573   3.195   1.287   9.573 -0.4671 -0.1984  0.5344
 4647SOL    HW125574   3.226   1.209   9.527 -2.3077 -1.4662  1.4384
 4647SOL    HW225575   3.266   1.317   9.630 -0.6920  1.6121 -0.1363
 4648SOL     OW25576   2.238   2.363   4.541 -0.1237 -0.2059  0.0928
 4648SOL    HW125577   2.318   2.310   4.537 -1.4252 -2.3010  1.9016
 4648SOL    HW225578   2.206   2.327   4.623 -0.3701  1.0919  0.5700
 4649SOL     OW25579   2.058   2.435  11.084 -0.1626  0.6791 -0.0742
 4649SOL    HW125580   2.114   2.421  11.160 -1.2793  0.9147  0.7899
 4649SOL    HW225581   2.120   2.472  11.022 -2.1676  1.7056 -1.4661
 4650SOL     OW25582   4.450   2.491   8.685 -0.0658  0.1273 -0.0624
 4650SOL    HW125583   4.525   2.503   8.626  0.4762  3.5898  1.3240
 4650SOL    HW225584   4.419   2.582   8.681 -2.9557 -0.8936 -0.9255
 4651SOL     OW25585   4.396   4.326   6.123  0.4781  0.1391 -0.2292
 4651SOL    HW125586   4.472   4.331   6.181  0.1271  2.2898  0.0349
 4651SOL    HW225587   4.414   4.239   6.089 -0.7196 -1.0548  2.1995
 4652SOL     OW25588   1.229   1.019   1.174  0.2375  0.2213 -0.0501
 4652SOL    HW125589   1.293   1.090   1.173  1.0664 -0.5429 -0.6664
 4652SOL    HW225590   1.165   1.054   1.112  1.5062  0.6138 -1.1384
 4653SOL     OW25591   4.476   2.520   6.552  0.4732  0.4081  0.2545
 4653SOL    HW125592   4.570   2.533   6.542  1.1769 -3.8743  1.3427
 4653SOL    HW225593   4.439   2.598   6.512 -0.4923 -0.2098 -0.0661
 4654SOL     OW25594   1.174   1.145   8.514 -0.6711 -0.2192 -1.0399
 4654SOL    HW125595   1.106   1.101   8.565 -1.4745  1.2065 -0.8789
 4654SOL    HW225596   1.130   1.225   8.486 -2.1193 -1.1495 -1.4208
 4655SOL     OW25597   0.232   1.379   4.796  0.0699  0.1644 -0.2257
 4655SOL    HW125598   0.249   1.308   4.858  0.7709  0.0071 -0.5967
 4655SOL    HW225599   0.141   1.400   4.818 -0.5107 -2.7980  0.1528
 4656SOL     OW25600   0.351   3.885   5.637  0.2630  0.1316  0.1860
 4656SOL    HW125601   0.414   3.836   5.585 -0.6292  1.1517 -1.8385
 4656SOL    HW225602   0.282   3.888   5.571 -1.0323 -3.3837  1.4053
 4657SOL     OW25603   0.879   1.133   2.717 -0.3349 -0.2318 -0.0366
 4657SOL    HW125604   0.901   1.216   2.676  0.8353 -1.0015 -0.9909
 4657SOL    HW225605   0.789   1.143   2.746  0.0611 -2.3058  1.9387
 4658SOL     OW25606   2.855   3.830   8.219 -0.4949  0.2696 -0.2908
 4658SOL    HW125607   2.841   3.811   8.126  0.1738  0.1474 -0.3695
 4658SOL    HW225608   2.939   3.876   8.210  0.7606 -2.0336 -0.3116
 4659SOL     OW25609   1.322   0.638   9.901 -0.4672  0.4350  0.4246
 4659SOL    HW125610   1.405   0.622   9.945  0.2237 -0.2117 -1.0943
 4659SOL    HW225611   1.268   0.607   9.974 -1.2234 -2.9936 -1.6052
 4660SOL     OW25612   2.536   1.216  13.499  0.1956 -0.6661  0.2784
 4660SOL    HW125613   2.508   1.291  13.447 -0.4312 -1.8499 -1.0910
 4660SOL    HW225614   2.547   1.148  13.432 -1.9060 -2.4176  1.7051
 4661SOL     OW25615   0.103   0.054   8.207 -0.2736  0.4806 -0.0027
 4661SOL    HW125616   0.097   4.697   8.218  0.3686  0.4379 -0.0388
 4661SOL    HW225617   0.012   0.081   8.218 -0.3746 -1.5827  4.3308
 4662SOL     OW25618   2.743   3.665   1.904 -0.7297 -0.5578 -0.1901
 4662SOL    HW125619   2.752   3.571   1.920 -0.8995 -0.5901 -0.2792
 4662SOL    HW225620   2.720   3.662   1.811 -1.3616 -0.9846 -0.0223
 4663SOL     OW25621   4.165   2.353   2.495  0.2151 -0.1498  0.8484
 4663SOL    HW125622   4.154   2.448   2.498  1.0950 -0.0300  0.0114
 4663SOL    HW225623   4.102   2.323   2.429 -1.4124  0.1447  2.2388
 4664SOL     OW25624   2.230   0.139   2.242  0.3701  0.0616 -0.1402
 4664SOL    HW125625   2.164   0.146   2.173  0.1967 -2.4866 -0.2250
 4664SOL    HW225626   2.315   0.169   2.212 -0.0345  0.7740 -0.5735
 4665SOL     OW25627   2.415   3.377   3.995 -0.6904  0.1128  0.3146
 4665SOL    HW125628   2.482   3.321   4.034 -0.4156 -0.8487 -1.5216
 4665SOL    HW225629   2.354   3.311   3.961 -0.7689  0.8566 -0.9742
 4666SOL     OW25630   2.635   1.394   9.123  0.3688 -0.2810  0.2378
 4666SOL    HW125631   2.543   1.391   9.095  0.6865 -1.4217 -0.6736
 4666SOL    HW225632   2.682   1.373   9.043  0.3950  2.6723 -0.5174
 4667SOL     OW25633   2.321   4.248   6.540  0.0186  0.3386  0.0225
 4667SOL    HW125634   2.279   4.308   6.479  2.0335 -0.4829 -2.1894
 4667SOL    HW225635   2.250   4.230   6.601 -0.8818  1.7704 -0.6159
 4668SOL     OW25636   4.561   0.054  14.846  0.1551 -0.3719 -0.3269
 4668SOL    HW125637   4.534   0.007  14.767 -1.2397 -1.6874  0.9253
 4668SOL    HW225638   4.607   0.131  14.813 -0.9104  0.5743  0.4207
 4669SOL     OW25639   4.710   2.624   6.158 -0.1072  0.1557  0.1418
 4669SOL    HW125640   0.048   2.667   6.116 -2.1921  2.5062 -1.2669
 4669SOL    HW225641   4.660   2.612   6.077 -2.0432  0.5538  1.2882
 4670SOL     OW25642   4.059   0.887  12.702 -0.5282 -0.0535  0.8537
 4670SOL    HW125643   4.111   0.852  12.629 -2.9226 -0.0035 -0.8538
 4670SOL    HW225644   4.123   0.919  12.766 -0.0264  2.6923 -1.0335
 4671SOL     OW25645   4.557   0.513   7.197 -0.1733  0.1862  0.2754
 4671SOL    HW125646   4.531   0.421   7.204 -1.8248  0.5390 -1.0976
 4671SOL    HW225647   4.651   0.511   7.182 -0.3231 -0.5125 -0.5601
 4672SOL     OW25648   2.112   0.851   9.497  0.4473 -0.1413  0.0148
 4672SOL    HW125649   2.039   0.806   9.456  0.1974 -0.3133  0.6392
 4672SOL    HW225650   2.098   0.934   9.451 -0.8574 -0.1742  0.3418
 4673SOL     OW25651   2.829   1.430   9.406  0.1728  0.2167 -0.4692
 4673SOL    HW125652   2.893   1.495   9.376  0.5758  0.3975  0.7832
 4673SOL    HW225653   2.791   1.466   9.486  0.5130  0.5717 -0.4627
 4674SOL     OW25654   0.227   2.847   2.150  0.1245 -0.5859 -0.4640
 4674SOL    HW125655   0.240   2.917   2.214  3.4001 -0.1103 -1.6171
 4674SOL    HW225656   0.296   2.852   2.083  3.1585  1.4646  2.8177
 4675SOL     OW25657   4.115   2.790  17.409  0.3880 -0.6180  0.0924
 4675SOL    HW125658   4.164   2.802  17.491  0.3379 -2.5282  0.4068
 4675SOL    HW225659   4.080   2.702  17.424 -2.9719  0.4734 -1.4685
 4676SOL     OW25660   1.194   4.269   3.586 -0.0330 -0.8320 -0.1715
 4676SOL    HW125661   1.138   4.218   3.645 -1.8235  0.1071 -1.0667
 4676SOL    HW225662   1.250   4.324   3.639 -0.1439  0.0038 -0.9203
 4677SOL     OW25663   3.017   1.824   9.676 -0.4956  0.2014  0.2208
 4677SOL    HW125664   3.063   1.757   9.626 -1.4401  1.4130 -2.2657
 4677SOL    HW225665   2.936   1.819   9.625 -0.1891  1.1895 -0.3607
 4678SOL     OW25666   4.066   3.836  16.287 -0.2782  0.5877  0.2787
 4678SOL    HW125667   4.080   3.879  16.203  2.1780 -1.1478 -0.2026
 4678SOL    HW225668   4.152   3.800  16.309 -1.1547 -0.8021  1.3751
 4679SOL     OW25669   4.670   3.178   4.053  0.3127  0.4852  0.1131
 4679SOL    HW125670   4.616   3.256   4.050 -1.2014 -0.5561  0.2739
 4679SOL    HW225671   4.732   3.198   4.123 -0.9482  2.5451  0.6454
 4680SOL     OW25672   3.414   2.543   1.756  0.4047  0.1780 -0.5419
 4680SOL    HW125673   3.338   2.602   1.762 -2.0305 -3.1240  1.1311
 4680SOL    HW225674   3.443   2.569   1.669 -1.1546  1.7757 -0.5859
 4681SOL     OW25675   1.424   2.737   6.965 -0.0331 -0.1747  0.6910
 4681SOL    HW125676   1.501   2.699   7.008 -0.7761  0.1232  2.2836
 4681SOL    HW225677   1.399   2.801   7.031  1.0627 -0.1429  1.0719
 4682SOL     OW25678   2.977   0.522  16.493  0.1125 -0.1488  0.1175
 4682SOL    HW125679   2.998   0.615  16.490 -1.3848  0.2215  0.9911
 4682SOL    HW225680   3.064   0.483  16.506 -0.3850 -1.2562  0.1789
 4683SOL     OW25681   0.604   3.706   7.866 -0.0141  0.1033 -0.2082
 4683SOL    HW125682   0.630   3.704   7.958  0.2803  1.3255 -0.2576
 4683SOL    HW225683   0.686   3.735   7.826  0.9691 -2.0373  0.2477
 4684SOL     OW25684   0.600   3.632  17.566 -0.0935 -0.1237  0.3287
 4684SOL    HW125685   0.619   3.645  17.659  2.3779  1.6659 -0.4139
 4684SOL    HW225686   0.603   3.721  17.529  2.5626 -0.4431 -0.1855
 4685SOL     OW25687   1.083   0.073  11.752  0.0344  0.0575 -0.4323
 4685SOL    HW125688   1.160   0.072  11.808 -0.9692  0.3107  0.9702
 4685SOL    HW225689   1.058   0.166  11.753 -0.1218  0.0181 -0.7916
 4686SOL     OW25690   3.713   0.632   6.210 -0.2743 -0.6373 -0.0338
 4686SOL    HW125691   3.743   0.559   6.265  0.7811  1.7432  2.5616
 4686SOL    HW225692   3.621   0.610   6.226 -0.2991 -0.4645  0.0557
 4687SOL     OW25693   1.805   4.035   3.893 -0.3116  0.7262  0.1569
 4687SOL    HW125694   1.755   3.969   3.942  1.2469  0.0637  0.8604
 4687SOL    HW225695   1.780   4.003   3.806  1.6064  2.6887 -1.0975
 4688SOL     OW25696   4.664   0.527   5.352  0.0996  0.2395 -0.2560
 4688SOL    HW125697   4.624   0.444   5.326 -1.1420  0.7820 -0.0799
 4688SOL    HW225698   4.697   0.522   5.442  0.2152 -1.6045 -0.3989
 4689SOL     OW25699   2.544   3.614   3.896  0.2898 -0.0639  0.3979
 4689SOL    HW125700   2.520   3.651   3.811 -1.6660  0.9366  1.3844
 4689SOL    HW225701   2.465   3.572   3.932 -0.5066  0.5216 -0.6513
 4690SOL     OW25702   3.936   2.819   3.787 -0.0135 -0.2591 -0.2402
 4690SOL    HW125703   3.874   2.816   3.860 -0.8053  2.8633 -0.7826
 4690SOL    HW225704   4.023   2.831   3.825 -0.1639  1.2416 -0.3996
 4691SOL     OW25705   1.648   4.394   1.911 -0.2357  0.3394  0.9539
 4691SOL    HW125706   1.702   4.473   1.910  2.0233 -1.2296  0.6960
 4691SOL    HW225707   1.558   4.426   1.902 -0.8982 -1.2171  2.1102
 4692SOL     OW25708   2.184   2.761  11.683  0.0675 -0.4523  0.2499
 4692SOL    HW125709   2.257   2.722  11.732 -1.7400 -1.9690  1.6984
 4692SOL    HW225710   2.116   2.724  11.738  0.6915  0.5635  1.7191
 4693SOL     OW25711   0.662   0.754   9.466 -0.1425 -0.9352 -0.3932
 4693SOL    HW125712   0.743   0.712   9.495  0.6854  2.2408  1.9150
 4693SOL    HW225713   0.599   0.721   9.530 -0.1946 -1.6056 -0.7981
 4694SOL     OW25714   0.343   2.103   0.565 -0.5106  0.5451 -0.3084
 4694SOL    HW125715   0.351   2.104   0.660 -0.5402 -0.4788 -0.2991
 4694SOL    HW225716   0.435   2.107   0.538 -0.9840  2.0086 -1.7709
 4695SOL     OW25717   2.637   4.244   5.918  0.3636 -0.4989 -0.2339
 4695SOL    HW125718   2.704   4.258   5.852 -0.0194 -0.9629 -0.7245
 4695SOL    HW225719   2.598   4.161   5.890 -1.6172  0.2564  0.3362
 4696SOL     OW25720   0.154   2.028  13.443  0.0275  0.2336  0.3359
 4696SOL    HW125721   0.152   2.038  13.538 -0.5560 -0.1764  0.3660
 4696SOL    HW225722   0.158   2.120  13.418 -2.4306  0.3993  0.5175
 4697SOL     OW25723   3.813   0.934   6.461 -0.7955 -0.6075 -0.1165
 4697SOL    HW125724   3.746   0.884   6.508 -0.0267 -2.5810 -1.1077
 4697SOL    HW225725   3.798   1.020   6.498  2.7301  0.6718 -1.6525
 4698SOL     OW25726   0.143   0.845   7.009 -0.1780  0.2399  0.2098
 4698SOL    HW125727   0.099   0.925   7.036  0.3531  0.5829  0.0656
 4698SOL    HW225728   0.071   0.805   6.960 -1.1007  0.6861  1.2114
 4699SOL     OW25729   1.026   1.435   3.787 -0.2375 -0.0549 -0.1911
 4699SOL    HW125730   1.044   1.379   3.863  2.0023 -1.2216 -1.5643
 4699SOL    HW225731   1.072   1.515   3.810 -2.1094  0.3308  2.2991
 4700SOL     OW25732   0.556   1.269   5.665  0.6807  0.0890  0.3422
 4700SOL    HW125733   0.602   1.353   5.667 -1.4700  1.3584 -2.4968
 4700SOL    HW225734   0.622   1.229   5.608  1.3434  2.4259 -0.5496
 4701SOL     OW25735   3.221   2.222   6.783  0.2073 -0.2384  0.1849
 4701SOL    HW125736   3.307   2.197   6.750 -0.4112  0.0615 -1.6662
 4701SOL    HW225737   3.216   2.185   6.871 -2.5493 -0.8426 -0.2258
 4702SOL     OW25738   3.570   2.149   6.490  0.1037  0.2964  0.1758
 4702SOL    HW125739   3.624   2.081   6.530 -1.9136 -0.8345  1.0125
 4702SOL    HW225740   3.563   2.212   6.562  1.3180  0.9640 -0.2889
 4703SOL     OW25741   0.391   1.861   1.289 -0.1570  0.3605  0.4259
 4703SOL    HW125742   0.443   1.940   1.277 -0.4743  0.6950  1.2933
 4703SOL    HW225743   0.423   1.828   1.373 -0.8452  2.7275  1.6265
 4704SOL     OW25744   4.612   3.575  11.335 -0.8382  0.4136 -0.0143
 4704SOL    HW125745   4.652   3.584  11.422 -1.5830 -0.9930  0.4741
 4704SOL    HW225746   4.536   3.522  11.359 -1.5059  1.6030  0.4899
 4705SOL     OW25747   1.834   4.436   4.529  0.1783 -0.3427 -0.0706
 4705SOL    HW125748   1.841   4.353   4.576 -1.1988  0.3862  1.3832
 4705SOL    HW225749   1.878   4.413   4.447  1.3904 -1.1371  0.7935
 4706SOL     OW25750   1.063   1.999   0.395  0.6072  0.4757  0.0687
 4706SOL    HW125751   1.148   1.961   0.372  0.8246  2.1741 -1.9227
 4706SOL    HW225752   1.000   1.944   0.348  0.3886 -0.7459  1.7477
 4707SOL     OW25753   2.391   2.263   7.777  0.1970  0.5977  0.1585
 4707SOL    HW125754   2.331   2.262   7.702 -2.2328  1.6905  2.1042
 4707SOL    HW225755   2.474   2.260   7.729 -0.5349  0.3739 -1.1259
 4708SOL     OW25756   2.696   3.397  10.460  0.8930 -0.4820 -0.0182
 4708SOL    HW125757   2.622   3.412  10.401 -0.2823  1.0039  1.8458
 4708SOL    HW225758   2.726   3.488  10.468  1.0626 -0.5941  0.6557
 4709SOL     OW25759   4.617   1.599  16.823 -0.2989  0.1023  0.0337
 4709SOL    HW125760   4.677   1.645  16.764  0.2145  0.4162  0.8029
 4709SOL    HW225761   4.577   1.534  16.765  0.6392  0.3172 -0.8625
 4710SOL     OW25762   2.180   1.469  10.696  0.7126  0.1596 -0.8670
 4710SOL    HW125763   2.272   1.447  10.680  0.8770  0.2810 -0.0837
 4710SOL    HW225764   2.192   1.563  10.705  1.3450  0.1047 -1.1367
 4711SOL     OW25765   4.214   3.187  13.609 -0.5338 -0.5313  0.1998
 4711SOL    HW125766   4.155   3.114  13.627 -0.4600 -1.0380 -1.5885
 4711SOL    HW225767   4.294   3.148  13.645 -0.7348  0.9009  2.2238
 4712SOL     OW25768   2.855   2.576   9.311 -0.3074  0.0677 -0.7641
 4712SOL    HW125769   2.826   2.653   9.262 -0.1583  0.1405 -0.7371
 4712SOL    HW225770   2.772   2.532   9.329 -0.5299  0.4395 -0.8833
 4713SOL     OW25771   0.376   4.013  10.791 -0.3082 -0.1548  0.3129
 4713SOL    HW125772   0.469   3.994  10.802  0.1514  1.4290 -0.7398
 4713SOL    HW225773   0.383   4.108  10.781 -0.7060 -0.4624 -2.8899
 4714SOL     OW25774   0.759   4.706  16.388 -0.0581 -0.1142 -0.2328
 4714SOL    HW125775   0.696   0.038  16.370  0.7052  0.7643  0.5244
 4714SOL    HW225776   0.744   4.691  16.481  0.1428 -0.9446 -0.3322
 4715SOL     OW25777   3.240   4.553   4.947 -0.6666 -0.3023 -0.6741
 4715SOL    HW125778   3.319   4.534   4.896 -0.0942 -1.1003  0.4928
 4715SOL    HW225779   3.254   4.640   4.985  1.1001 -0.1017 -1.7936
 4716SOL     OW25780   4.728   3.649  17.441 -0.5126 -0.6451  0.6027
 4716SOL    HW125781   4.684   3.618  17.362 -0.5817 -1.6438  1.0341
 4716SOL    HW225782   0.025   3.733  17.409  1.6343 -2.1967 -1.1540
 4717SOL     OW25783   0.214   0.182   6.279 -0.1871  0.1055  0.7004
 4717SOL    HW125784   0.308   0.197   6.273  0.0903 -2.1216 -0.4400
 4717SOL    HW225785   0.180   0.270   6.295  1.0570  0.0533  3.6392
 4718SOL     OW25786   1.368   1.832   0.374  0.0303  0.2077 -0.5859
 4718SOL    HW125787   1.364   1.750   0.423  0.2254  1.2874  1.2491
 4718SOL    HW225788   1.357   1.792   0.287 -1.1557  1.9899 -1.2471
 4719SOL     OW25789   3.219   4.368   9.638 -0.4000  0.0602  0.2896
 4719SOL    HW125790   3.299   4.416   9.617  2.0514 -3.5686  1.3690
 4719SOL    HW225791   3.182   4.382   9.551  2.6602 -0.1669 -1.0495
 4720SOL     OW25792   3.215   2.555   2.525  0.0657  0.5513  0.3506
 4720SOL    HW125793   3.158   2.502   2.469 -0.2387  1.6527 -0.3867
 4720SOL    HW225794   3.295   2.503   2.519  0.5066  1.2115  0.5241
 4721SOL     OW25795   0.043   3.525   3.274  0.3695  0.2455  0.0084
 4721SOL    HW125796   0.019   3.603   3.325  0.8781  0.0196  0.5928
 4721SOL    HW225797   0.137   3.536   3.268  0.4797  0.3751  2.0582
 4722SOL     OW25798   3.819   0.382   2.966  0.4132  0.2376 -0.4885
 4722SOL    HW125799   3.741   0.434   2.948 -0.6877 -0.3285  2.5973
 4722SOL    HW225800   3.867   0.428   2.897 -0.5042  0.6269 -0.8630
 4723SOL     OW25801   1.212   2.951   2.939  0.1631 -0.1254  0.2878
 4723SOL    HW125802   1.294   2.968   2.985 -0.1539  0.3397  0.6850
 4723SOL    HW225803   1.239   2.894   2.867 -0.1511  1.6345 -1.1927
 4724SOL     OW25804   1.209   3.522  16.324 -0.0746 -0.0449 -0.0298
 4724SOL    HW125805   1.168   3.604  16.352 -1.2757 -0.5480 -0.3134
 4724SOL    HW225806   1.209   3.466  16.402 -1.5823  0.1450  0.1139
 4725SOL     OW25807   2.147   1.410  17.397  0.5543 -0.1216  0.0902
 4725SOL    HW125808   2.230   1.387  17.355  0.9575 -0.7624  1.2314
 4725SOL    HW225809   2.149   1.505  17.398  1.5744 -0.1387 -0.3511
 4726SOL     OW25810   4.135   0.944   6.559  0.2531  0.5708  0.1865
 4726SOL    HW125811   4.118   0.889   6.483  0.7474 -2.4765  2.2589
 4726SOL    HW225812   4.218   0.984   6.531  0.2972  0.2788 -0.0987
 4727SOL     OW25813   0.903   1.398   7.261 -0.4740  0.0200  0.0136
 4727SOL    HW125814   0.842   1.427   7.329 -1.3256  1.0556 -1.2101
 4727SOL    HW225815   0.960   1.327   7.292 -0.0323 -0.1734 -1.2504
 4728SOL     OW25816   1.380   0.548   7.390  0.1423 -0.5515  0.2834
 4728SOL    HW125817   1.405   0.459   7.415 -1.4671 -1.4022 -1.1954
 4728SOL    HW225818   1.289   0.536   7.417 -0.1408 -2.1296 -1.3732
 4729SOL     OW25819   3.760   1.221   8.621  0.1346 -0.1383  0.3399
 4729SOL    HW125820   3.709   1.142   8.606  1.0148 -0.6447  0.0423
 4729SOL    HW225821   3.686   1.281   8.630  0.4021  0.2764 -0.1884
 4730SOL     OW25822   2.555   2.310   7.325  0.1260 -0.0504 -0.3219
 4730SOL    HW125823   2.547   2.376   7.394 -2.1430  0.9190 -1.5154
 4730SOL    HW225824   2.632   2.347   7.282 -0.1501  0.6572 -0.2201
 4731SOL     OW25825   3.321   2.048   7.412 -0.0846 -0.0639 -0.5294
 4731SOL    HW125826   3.337   1.954   7.424 -2.0399 -0.5082 -1.2591
 4731SOL    HW225827   3.336   2.046   7.317 -1.3975  2.2086 -0.7771
 4732SOL     OW25828   3.202   4.305   7.666  0.1295  0.5351 -0.3939
 4732SOL    HW125829   3.206   4.401   7.676  0.7448  0.4411  0.3044
 4732SOL    HW225830   3.261   4.269   7.733 -1.9845 -3.5920 -0.7468
 4733SOL     OW25831   1.900   0.656   2.397  0.3320  0.1809 -0.1879
 4733SOL    HW125832   1.820   0.707   2.400  1.4349  1.8750  0.0272
 4733SOL    HW225833   1.954   0.686   2.471  0.3818 -1.7896  0.5824
 4734SOL     OW25834   0.471   3.960  14.853  0.0367 -0.0369 -0.1414
 4734SOL    HW125835   0.499   3.876  14.815  1.0761 -0.5205  1.7156
 4734SOL    HW225836   0.518   4.025  14.801  0.9544 -0.1271  0.5676
 4735SOL     OW25837   0.191   0.180   0.581  0.0539 -0.6325 -0.1587
 4735SOL    HW125838   0.179   0.258   0.527  1.4105 -0.3225 -0.0275
 4735SOL    HW225839   0.148   0.206   0.662  1.5606  1.4625 -0.0297
 4736SOL     OW25840   2.913   3.299   8.339 -0.2077 -0.0076  0.1618
 4736SOL    HW125841   2.954   3.309   8.253  1.4842 -0.1175  0.9565
 4736SOL    HW225842   2.922   3.391   8.366 -0.5399 -0.2858  1.2258
 4737SOL     OW25843   0.944   3.604  12.782 -0.4116 -0.6631  0.2014
 4737SOL    HW125844   0.911   3.681  12.735 -0.6420  0.2501  1.8532
 4737SOL    HW225845   0.962   3.540  12.713 -1.0084  0.2495 -0.8140
 4738SOL     OW25846   0.967   1.872   2.289  0.3956 -0.0858  0.3190
 4738SOL    HW125847   0.967   1.953   2.340 -1.4434  0.9421 -1.2970
 4738SOL    HW225848   0.890   1.839   2.335  0.1150  1.4592  0.9475
 4739SOL     OW25849   3.887   0.468   7.935 -0.6531  0.2555  0.0528
 4739SOL    HW125850   3.824   0.540   7.924 -1.5176 -0.4826  0.1359
 4739SOL    HW225851   3.968   0.511   7.909 -1.6286  0.3482 -2.8153
 4740SOL     OW25852   3.674   0.595  12.686 -0.1168 -0.3812  0.2307
 4740SOL    HW125853   3.731   0.638  12.623  1.4450 -2.0910  0.4578
 4740SOL    HW225854   3.705   0.645  12.761  2.2215 -1.0770 -0.2905
 4741SOL     OW25855   1.054   2.871   6.867  0.3524 -0.9507  0.0786
 4741SOL    HW125856   1.128   2.917   6.825  0.4985 -0.6984  0.6140
 4741SOL    HW225857   1.067   2.903   6.956  1.4846  1.3798 -0.9157
 4742SOL     OW25858   4.516   0.447  15.238  0.0041 -0.4508 -0.1838
 4742SOL    HW125859   4.478   0.408  15.160  2.2885 -1.2711 -0.8919
 4742SOL    HW225860   4.608   0.423  15.223  0.0683  1.3884 -2.6121
 4743SOL     OW25861   3.717   2.737   1.517  0.5068  0.3173 -0.1047
 4743SOL    HW125862   3.630   2.769   1.542  0.6365  2.0457 -1.8567
 4743SOL    HW225863   3.719   2.760   1.424 -0.9242 -0.1128 -0.2402
 4744SOL     OW25864   3.439   0.432   5.416 -0.1431  0.7154  0.1613
 4744SOL    HW125865   3.522   0.464   5.381  0.9463 -0.3768  1.7296
 4744SOL    HW225866   3.381   0.506   5.396 -0.7268  0.8533  2.3341
 4745SOL     OW25867   4.158   2.983   6.277 -0.3952 -0.3329 -0.3662
 4745SOL    HW125868   4.203   2.989   6.361  0.9782 -2.5365 -0.9387
 4745SOL    HW225869   4.225   3.001   6.212 -0.1737  2.8564  0.7603
 4746SOL     OW25870   1.410   0.395  11.999 -0.6752  0.3567  0.1895
 4746SOL    HW125871   1.463   0.471  11.973 -0.4582  0.0684 -0.2131
 4746SOL    HW225872   1.480   0.332  12.019 -0.5043  0.7324  0.7616
 4747SOL     OW25873   1.293   3.431  12.174  0.2820 -0.6163 -0.0499
 4747SOL    HW125874   1.224   3.480  12.128  1.8125  2.3900  0.8842
 4747SOL    HW225875   1.327   3.369  12.110  0.4862 -0.0081 -0.5283
 4748SOL     OW25876   4.519   0.593   8.523 -0.6003 -0.1310  0.2476
 4748SOL    HW125877   4.608   0.597   8.560 -0.9542  1.1365  0.9362
 4748SOL    HW225878   4.524   0.666   8.461 -0.6122 -2.2882 -2.3042
 4749SOL     OW25879   0.208   4.057   9.372  0.0176 -0.3442  0.5134
 4749SOL    HW125880   0.207   3.974   9.419 -1.5295 -1.4780 -1.5285
 4749SOL    HW225881   0.250   4.026   9.291  0.5072  0.0170  0.6210
 4750SOL     OW25882   4.700   1.232   5.968  0.5285  0.0387  1.1992
 4750SOL    HW125883   4.620   1.281   5.987  1.0775  0.8515  1.4020
 4750SOL    HW225884   0.018   1.309   5.958 -1.7390  1.5304  0.2803
 4751SOL     OW25885   3.922   1.902   9.265 -0.4092  0.4117 -0.5206
 4751SOL    HW125886   3.827   1.897   9.275 -0.6035  0.5649 -2.3488
 4751SOL    HW225887   3.929   1.989   9.305  3.0965  0.2048 -0.7468
 4752SOL     OW25888   3.048   3.888  11.769  0.0707  0.0888 -0.2749
 4752SOL    HW125889   2.964   3.928  11.792 -0.6658  0.0255 -2.8741
 4752SOL    HW225890   3.108   3.962  11.777 -0.9356  1.0718 -1.8738
 4753SOL     OW25891   4.235   4.382   6.580 -0.4805  0.1600  0.9921
 4753SOL    HW125892   4.231   4.289   6.604 -1.3170  0.0906  0.5643
 4753SOL    HW225893   4.191   4.424   6.654 -2.3854 -0.8403  0.4103
 4754SOL     OW25894   2.624   2.298   8.360  0.4870 -0.5298  0.0778
 4754SOL    HW125895   2.700   2.241   8.372  0.4379 -0.4849  0.5971
 4754SOL    HW225896   2.651   2.355   8.287  0.5662 -1.9264 -0.9780
 4755SOL     OW25897   0.367   4.569  13.092 -0.1557  0.1860 -0.1779
 4755SOL    HW125898   0.407   4.543  13.009 -1.0513 -0.2482 -0.4709
 4755SOL    HW225899   0.295   4.626  13.067 -0.8584 -0.6374 -0.0507
 4756SOL     OW25900   4.070   0.403   0.838  0.5096  0.1115  0.1016
 4756SOL    HW125901   3.983   0.426   0.803  0.1409  1.9884  2.2757
 4756SOL    HW225902   4.057   0.392   0.932  1.7864  1.3932  0.4203
 4757SOL     OW25903   1.823   4.550   0.094  0.0124 -0.3224 -0.0566
 4757SOL    HW125904   1.841   4.644   0.098 -1.8926  0.0531 -0.2740
 4757SOL    HW225905   1.839   4.537   0.000  1.6060  0.7537  0.0660
 4758SOL     OW25906   3.609   0.007   2.311  0.1053  0.3213 -0.6449
 4758SOL    HW125907   3.668   0.083   2.316 -0.9992  0.9980  2.1917
 4758SOL    HW225908   3.526   0.043   2.343 -0.4195 -1.1025 -0.4210
 4759SOL     OW25909   2.009   0.456   2.755 -0.3205 -0.2441  0.6912
 4759SOL    HW125910   2.076   0.389   2.753  0.3466  0.4105  0.9352
 4759SOL    HW225911   1.943   0.395   2.722 -0.9662  0.9102 -0.1562
 4760SOL     OW25912   2.754   2.441  14.911 -0.4667 -0.9729 -0.8934
 4760SOL    HW125913   2.671   2.393  14.915 -1.8484  1.4670 -0.1692
 4760SOL    HW225914   2.722   2.518  14.959  0.1113 -0.6066 -1.0906
 4761SOL     OW25915   0.650   2.374   6.734  0.2598 -0.0262  0.1455
 4761SOL    HW125916   0.703   2.297   6.716  0.1077 -0.1973  0.4155
 4761SOL    HW225917   0.599   2.389   6.654 -0.9164  0.2272  0.9331
 4762SOL     OW25918   2.221   4.293   8.853  0.5966 -0.0116  0.1130
 4762SOL    HW125919   2.184   4.317   8.938  0.5977  3.0361 -0.7339
 4762SOL    HW225920   2.175   4.348   8.789  3.0708  0.0854 -1.6256
 4763SOL     OW25921   1.766   1.378   9.092  0.1292 -0.1527  0.2995
 4763SOL    HW125922   1.811   1.306   9.138 -2.1013 -1.1213  0.9988
 4763SOL    HW225923   1.791   1.460   9.134 -0.5466 -0.0697  0.5416
 4764SOL     OW25924   4.299   3.885   3.377  0.5294 -0.8168  0.2117
 4764SOL    HW125925   4.346   3.959   3.339 -1.2600 -0.5494 -1.5214
 4764SOL    HW225926   4.211   3.899   3.341  0.5845  1.1159  0.8408
 4765SOL     OW25927   2.234   1.060  14.047  0.3447 -0.2717  0.0608
 4765SOL    HW125928   2.296   1.133  14.041 -0.8938  0.6764 -1.1359
 4765SOL    HW225929   2.218   1.062  14.141  0.0353  1.0111 -0.0147
 4766SOL     OW25930   2.710   2.493  15.220 -0.5839  0.4113  0.6118
 4766SOL    HW125931   2.739   2.496  15.311 -0.7886  0.8108  0.6622
 4766SOL    HW225932   2.646   2.422  15.219  0.4329 -0.5042 -2.0512
 4767SOL     OW25933   4.599   2.710   3.167  0.5668 -0.0763 -0.0337
 4767SOL    HW125934   4.533   2.753   3.114  0.6297  1.4484  1.1359
 4767SOL    HW225935   4.680   2.747   3.131  0.3962 -2.1300 -2.4947
 4768SOL     OW25936   3.247   4.599  15.956 -0.1482  0.1022 -0.1184
 4768SOL    HW125937   3.219   4.681  15.915 -1.7627 -0.1010  0.5567
 4768SOL    HW225938   3.232   4.540  15.882 -1.4928 -1.0040  1.0180
 4769SOL     OW25939   2.686   3.680   9.207  0.1736  0.1047  0.3416
 4769SOL    HW125940   2.630   3.610   9.174  1.6611 -1.0124  0.1712
 4769SOL    HW225941   2.665   3.679   9.300 -1.5905 -0.6587 -0.0628
 4770SOL     OW25942   2.546   0.962   1.828  0.7158 -0.4125 -0.0756
 4770SOL    HW125943   2.556   0.871   1.801 -1.1885 -1.1516  1.6709
 4770SOL    HW225944   2.594   0.999   1.754  2.6692  1.8378  2.2902
 4771SOL     OW25945   3.793   3.907   9.398 -0.2976 -0.4606 -0.4384
 4771SOL    HW125946   3.866   3.873   9.450 -0.6389  1.1622  1.0951
 4771SOL    HW225947   3.737   3.932   9.472 -0.1592  1.3051 -0.9415
 4772SOL     OW25948   2.095   4.200  10.040  0.1542  0.2335 -0.6408
 4772SOL    HW125949   2.175   4.232   9.998 -0.1915  0.4690 -1.1296
 4772SOL    HW225950   2.082   4.271  10.103  2.0063  0.9261 -1.0502
 4773SOL     OW25951   3.933   1.128   2.368  0.3651 -0.3924  0.4490
 4773SOL    HW125952   3.937   1.156   2.276  1.9741 -0.4972  0.4795
 4773SOL    HW225953   3.881   1.192   2.417 -1.2355 -0.1344 -1.5462
 4774SOL     OW25954   3.395   2.320   9.209  0.8467 -0.4414 -0.0898
 4774SOL    HW125955   3.418   2.343   9.119 -1.6488  2.1396 -0.0722
 4774SOL    HW225956   3.363   2.402   9.245 -0.8510 -0.5102 -1.4683
 4775SOL     OW25957   1.972   2.943  15.855  0.3941  0.3212  0.6925
 4775SOL    HW125958   1.889   2.975  15.890  0.7946  1.2145  0.8439
 4775SOL    HW225959   1.969   2.969  15.763  0.8381  0.0192  0.5899
 4776SOL     OW25960   2.748   1.125   7.360 -0.0042 -0.0216 -0.1955
 4776SOL    HW125961   2.780   1.147   7.273 -0.2248 -0.0743 -0.2903
 4776SOL    HW225962   2.813   1.068   7.403  0.7919  2.1511  1.5355
 4777SOL     OW25963   4.580   3.060   4.721  0.3363  0.5750  0.0558
 4777SOL    HW125964   4.545   3.112   4.648 -2.0548 -0.5020  0.4366
 4777SOL    HW225965   4.634   2.994   4.676 -0.8448  0.0829 -0.6537
 4778SOL     OW25966   2.862   2.660   7.029 -0.1792 -0.4568 -0.0492
 4778SOL    HW125967   2.885   2.735   6.974  0.5153  0.2155  1.1807
 4778SOL    HW225968   2.818   2.703   7.102 -0.1541  1.4724 -1.1564
 4779SOL     OW25969   1.964   2.207   1.949  0.1271 -0.5168  0.6926
 4779SOL    HW125970   1.927   2.210   1.860 -1.9176 -0.9586  1.5311
 4779SOL    HW225971   1.989   2.115   1.939  1.3150 -0.0170 -1.0987
 4780SOL     OW25972   2.313   0.203   3.252  0.2098  0.4620  0.0793
 4780SOL    HW125973   2.219   0.196   3.233  0.1527 -0.1499  0.5765
 4780SOL    HW225974   2.316   0.206   3.348  0.6556 -0.1725  0.0850
 4781SOL     OW25975   0.520   1.073   1.971  0.4671  0.3655 -0.5363
 4781SOL    HW125976   0.530   1.129   2.049 -2.7694  0.0768  0.1077
 4781SOL    HW225977   0.599   1.101   1.925 -1.0407  1.3117 -2.4969
 4782SOL     OW25978   3.193   2.059   7.743 -0.1447 -0.2016  0.1646
 4782SOL    HW125979   3.148   2.040   7.661 -1.2637  0.5151  0.6043
 4782SOL    HW225980   3.147   2.136   7.779 -1.9333 -0.7417 -1.0132
 4783SOL     OW25981   1.775   4.135   5.326 -0.0434 -0.4743  0.2008
 4783SOL    HW125982   1.749   4.226   5.342  0.2318 -0.4233  0.3546
 4783SOL    HW225983   1.868   4.150   5.312  0.1471 -1.3735  0.5489
 4784SOL     OW25984   2.670   4.115  15.267 -0.6039 -0.0401 -0.9631
 4784SOL    HW125985   2.742   4.056  15.241  2.2225  2.8913  0.2311
 4784SOL    HW225986   2.591   4.063  15.255 -0.4728 -0.6168  0.6275
 4785SOL     OW25987   2.841   1.948   3.579  0.1002  0.1064 -0.1450
 4785SOL    HW125988   2.789   1.870   3.598 -1.8858  1.5040  0.1574
 4785SOL    HW225989   2.772   1.996   3.532 -1.4621 -0.5895  1.4341
 4786SOL     OW25990   1.092   0.194   7.186  0.6564 -0.4423 -0.0584
 4786SOL    HW125991   1.084   0.174   7.279 -0.3904  1.4174  0.2569
 4786SOL    HW225992   1.160   0.261   7.178  1.3144 -1.1193 -0.1413
 4787SOL     OW25993   4.324   2.108   6.780 -0.0517  0.1505 -0.6279
 4787SOL    HW125994   4.296   2.174   6.844  0.9614  0.3715 -0.4204
 4787SOL    HW225995   4.336   2.161   6.702  2.4937  1.6357  0.7865
 4788SOL     OW25996   1.801   0.436   5.295  0.3848  0.2531 -0.0432
 4788SOL    HW125997   1.861   0.509   5.313 -0.2687  0.6920  0.3335
 4788SOL    HW225998   1.858   0.370   5.335 -0.9955 -0.7714  0.2144
 4789SOL     OW25999   4.430   2.435  15.628 -0.2659  0.3023 -0.0509
 4789SOL    HW126000   4.356   2.403  15.680  0.1932  0.6070  0.7916
 4789SOL    HW226001   4.384   2.487  15.562 -0.4415  0.8977  0.5375
 4790SOL     OW26002   1.383   2.761   5.080  0.3633 -0.3286  0.0055
 4790SOL    HW126003   1.365   2.834   5.139  0.4636  0.2171 -0.6334
 4790SOL    HW226004   1.417   2.801   5.000 -3.0315 -0.8475 -1.7137
 4791SOL     OW26005   4.529   2.890   0.038  0.1144 -0.2480 -0.0224
 4791SOL    HW126006   4.603   2.872  17.729 -1.9856 -0.6159 -2.5646
 4791SOL    HW226007   4.540   2.824   0.106 -1.9951  0.1615  0.7035
 4792SOL     OW26008   3.222   0.314   1.727  0.7417  0.2424  0.0347
 4792SOL    HW126009   3.287   0.246   1.708  2.2654  1.1005  2.0523
 4792SOL    HW226010   3.247   0.387   1.670  2.1497 -0.7341 -0.5980
 4793SOL     OW26011   2.581   4.029   7.717 -0.0094  0.5937 -0.2582
 4793SOL    HW126012   2.583   4.017   7.811  1.4933  0.4117 -0.3170
 4793SOL    HW226013   2.488   4.043   7.696 -0.2619  1.1860  1.2926
 4794SOL     OW26014   4.434   3.174   2.548  0.2555 -0.2578 -0.1091
 4794SOL    HW126015   4.403   3.244   2.605 -0.2065 -0.1512 -0.4957
 4794SOL    HW226016   4.468   3.225   2.474  1.4590 -1.5125 -0.4244
 4795SOL     OW26017   1.696   4.083   9.455  0.0835  0.1684 -0.6241
 4795SOL    HW126018   1.728   4.109   9.368 -0.3450 -2.6768 -1.6447
 4795SOL    HW226019   1.775   4.075   9.508  0.6625 -0.6861 -1.6083
 4796SOL     OW26020   3.313   4.042   1.401 -0.1137 -0.4806 -0.3182
 4796SOL    HW126021   3.223   4.069   1.383  0.0442 -0.7240 -1.4663
 4796SOL    HW226022   3.336   4.004   1.316 -0.0148 -2.0380  0.4179
 4797SOL     OW26023   2.871   4.008   5.605 -0.6818  0.2830 -0.7614
 4797SOL    HW126024   2.778   3.991   5.588 -0.4362  0.6072 -2.4687
 4797SOL    HW226025   2.878   4.058   5.686 -0.4263 -0.3261 -0.4116
 4798SOL     OW26026   2.498   0.900  11.087  0.1914 -0.5585 -0.0490
 4798SOL    HW126027   2.419   0.943  11.119 -0.2608 -1.1014 -0.4264
 4798SOL    HW226028   2.521   0.847  11.163  0.2828 -0.4683 -0.0138
 4799SOL     OW26029   0.073   0.418   2.360  0.6538 -0.1370  0.3931
 4799SOL    HW126030   4.737   0.420   2.420 -0.8557 -3.0817 -1.3611
 4799SOL    HW226031   0.134   0.465   2.416  3.1286 -1.0652 -1.5035
 4800SOL     OW26032   0.060   0.271   0.805  0.0200  0.2403  0.3524
 4800SOL    HW126033   0.073   0.204   0.872  1.7909 -0.0421 -0.2866
 4800SOL    HW226034   4.708   0.249   0.780  0.2019 -0.8812  0.6871
 4801SOL     OW26035   3.339   0.527  10.236  0.3033 -0.7508  0.2406
 4801SOL    HW126036   3.300   0.528  10.148 -0.2838 -0.9288  0.4960
 4801SOL    HW226037   3.275   0.470  10.279 -0.7058 -0.0379 -0.3314
 4802SOL     OW26038   3.687   2.147   8.494 -0.3939  0.2821  0.0479
 4802SOL    HW126039   3.608   2.179   8.450 -0.8842 -0.3869  0.4279
 4802SOL    HW226040   3.676   2.178   8.584  0.2432 -0.3755  0.3508
 4803SOL     OW26041   2.706   1.521  16.841 -0.3077 -0.0766 -0.0379
 4803SOL    HW126042   2.663   1.606  16.849  0.7437  0.5069 -0.5766
 4803SOL    HW226043   2.763   1.522  16.764  0.4319  2.3143  0.5180
 4804SOL     OW26044   4.277   2.210  16.724 -0.1787 -0.0445 -0.7372
 4804SOL    HW126045   4.194   2.162  16.722  0.1347 -0.5906 -0.6349
 4804SOL    HW226046   4.335   2.139  16.751  0.3195  1.7129  2.8425
 4805SOL     OW26047   0.198   3.447   0.130 -0.3200 -0.1242  0.0917
 4805SOL    HW126048   0.265   3.416   0.069 -0.0782 -0.2471  0.4161
 4805SOL    HW226049   0.153   3.505   0.069 -1.6375  0.8157  1.9391
 4806SOL     OW26050   0.638   2.005   2.616 -0.2143  0.6672 -0.2398
 4806SOL    HW126051   0.610   2.096   2.609  0.6524  1.1223  2.1093
 4806SOL    HW226052   0.562   1.956   2.649  0.0967 -0.8229 -1.7366
 4807SOL     OW26053   3.747   1.745  17.252 -0.2962 -0.5544  0.3523
 4807SOL    HW126054   3.776   1.800  17.325  2.1311 -0.7108 -0.4856
 4807SOL    HW226055   3.660   1.718  17.281 -1.7841  3.0130 -0.9174
 4808SOL     OW26056   0.982   3.852   8.843  0.1483  0.3928  0.2945
 4808SOL    HW126057   1.031   3.773   8.867 -3.5664 -1.2889  2.4001
 4808SOL    HW226058   0.897   3.827   8.880  1.6513 -3.4559  1.1524
 4809SOL     OW26059   2.569   3.231   3.702  1.2808 -0.1665  0.0674
 4809SOL    HW126060   2.523   3.161   3.656  0.0924 -1.7357  3.6226
 4809SOL    HW226061   2.497   3.291   3.719 -0.7172 -1.9867 -2.0786
 4810SOL     OW26062   0.692   0.916   6.599 -0.3812 -0.3682  0.1045
 4810SOL    HW126063   0.727   0.852   6.537  1.5988  1.4987 -0.6994
 4810SOL    HW226064   0.650   0.982   6.545  1.6136 -0.1788 -1.2127
 4811SOL     OW26065   2.906   4.417   6.482 -0.1154 -0.4445 -0.0187
 4811SOL    HW126066   2.947   4.485   6.428 -0.9057  0.6172  0.6938
 4811SOL    HW226067   2.820   4.450   6.510  0.0104  0.2652 -0.4679
 4812SOL     OW26068   0.733   3.770  14.329 -0.1096 -0.1355  0.1297
 4812SOL    HW126069   0.756   3.705  14.396  0.8741  0.8285  0.7387
 4812SOL    HW226070   0.672   3.826  14.377  1.9988  1.3855  1.0639
 4813SOL     OW26071   0.954   3.582   2.673  0.4100  0.2191 -0.3962
 4813SOL    HW126072   1.000   3.666   2.675  1.9229 -0.6021 -0.7240
 4813SOL    HW226073   0.881   3.608   2.729 -0.1862 -1.3334 -0.4495
 4814SOL     OW26074   0.315   0.759   5.102  0.1367  0.1513  0.1376
 4814SOL    HW126075   0.395   0.709   5.120  1.3448  2.2552  0.6272
 4814SOL    HW226076   0.347   0.806   5.025 -0.1682  0.3969  0.1608
 4815SOL     OW26077   3.504   0.308   3.762  0.0368  0.2349  0.0687
 4815SOL    HW126078   3.481   0.397   3.736  1.6617  0.8603  0.7596
 4815SOL    HW226079   3.509   0.271   3.674  2.1598  0.9945 -0.1418
 4816SOL     OW26080   4.485   2.216   0.973  0.1909  0.0536  0.1773
 4816SOL    HW126081   4.418   2.224   1.041 -0.2487  1.0432 -0.3697
 4816SOL    HW226082   4.478   2.299   0.925 -1.8495  0.7572  1.6560
 4817SOL     OW26083   4.093   1.364  14.821  0.0201  0.2808  0.4761
 4817SOL    HW126084   4.092   1.380  14.727  1.3176 -0.8566  0.2861
 4817SOL    HW226085   4.112   1.453  14.853 -1.6912  1.7099 -2.4659
 4818SOL     OW26086   3.945   3.790   6.198  0.3485 -0.1540  0.5656
 4818SOL    HW126087   3.999   3.782   6.119  2.1998 -1.1921  1.9435
 4818SOL    HW226088   3.863   3.746   6.175  0.1643  1.1804 -1.3149
 4819SOL     OW26089   2.235   0.468  15.609 -0.0734  0.5961 -0.1475
 4819SOL    HW126090   2.166   0.522  15.646 -0.7502  1.8636 -3.2861
 4819SOL    HW226091   2.248   0.413  15.686 -0.4163 -0.3288 -0.7425
 4820SOL     OW26092   1.971   0.199   2.382  0.2211 -0.3884  0.1369
 4820SOL    HW126093   2.064   0.176   2.372  0.3799  0.9282 -1.4535
 4820SOL    HW226094   1.980   0.294   2.380  5.8099 -0.8770  0.1283
 4821SOL     OW26095   4.474   0.237   2.408  0.3284 -0.4157  0.1708
 4821SOL    HW126096   4.402   0.230   2.471  0.1880 -0.0877  0.0480
 4821SOL    HW226097   4.534   0.294   2.456  0.1271  1.0950 -1.3642
 4822SOL     OW26098   0.573   0.368   8.924  0.4074 -0.4828 -0.4467
 4822SOL    HW126099   0.542   0.396   8.838 -1.9916  1.3438  0.9866
 4822SOL    HW226100   0.496   0.318   8.951 -0.3736  0.2170 -1.3662
 4823SOL     OW26101   2.753   1.821  13.845 -0.4284 -0.4964  0.0070
 4823SOL    HW126102   2.844   1.796  13.830  1.0880  4.7904  0.3683
 4823SOL    HW226103   2.762   1.912  13.876 -1.1782  0.1878 -1.8065
 4824SOL     OW26104   4.231   2.752  12.753  0.3721 -0.0333 -0.0132
 4824SOL    HW126105   4.210   2.792  12.668  2.3218 -0.8790 -0.8964
 4824SOL    HW226106   4.315   2.710  12.734 -1.3160 -3.0150 -0.8393
 4825SOL     OW26107   0.389   1.993   4.280  0.4143  0.1511  0.1526
 4825SOL    HW126108   0.445   2.069   4.296  0.5819 -0.1493  0.9698
 4825SOL    HW226109   0.351   2.018   4.196  0.2753 -0.7365 -0.0465
 4826SOL     OW26110   3.788   4.190   9.609 -0.0108  0.0233 -0.2232
 4826SOL    HW126111   3.724   4.120   9.603  1.3028 -1.1239 -0.7271
 4826SOL    HW226112   3.745   4.211   9.692  1.0243  0.3557  0.2280
 4827SOL     OW26113   0.206   1.041   9.289 -0.4183 -0.2473 -0.0349
 4827SOL    HW126114   0.198   1.015   9.381 -0.8432  0.7894  0.2184
 4827SOL    HW226115   0.191   1.135   9.283 -0.6806 -0.3265 -0.5868
 4828SOL     OW26116   0.332   1.582   2.946 -0.0545 -0.3100  0.6419
 4828SOL    HW126117   0.346   1.653   3.009 -0.1926  0.2715  0.0122
 4828SOL    HW226118   0.418   1.541   2.954  0.1387  0.3707  2.0210
 4829SOL     OW26119   0.812   3.107   7.180 -0.4473  0.0687 -0.4074
 4829SOL    HW126120   0.803   3.088   7.273  0.2561 -0.1085 -0.3775
 4829SOL    HW226121   0.794   3.021   7.142 -1.5315  0.2017 -0.2105
 4830SOL     OW26122   4.100   0.823  16.496 -0.0832  0.1667 -0.8890
 4830SOL    HW126123   4.057   0.763  16.557  0.6167  1.0429  0.4699
 4830SOL    HW226124   4.063   0.910  16.510 -0.7222 -0.4842  1.4941
 4831SOL     OW26125   2.414   1.916   1.930 -0.2845 -0.9831 -0.2365
 4831SOL    HW126126   2.379   1.947   1.847 -2.1157 -1.6639  0.2877
 4831SOL    HW226127   2.385   1.825   1.923 -0.2667 -0.9722 -0.4397
 4832SOL     OW26128   0.207   2.532   0.849 -0.8160  0.1416 -0.5935
 4832SOL    HW126129   0.156   2.471   0.902  2.0480  0.7016  2.8029
 4832SOL    HW226130   0.288   2.485   0.828 -0.8311 -0.8185  1.5255
 4833SOL     OW26131   3.469   4.052  17.507 -0.0459 -0.1704 -0.1499
 4833SOL    HW126132   3.553   4.087  17.535  1.8243 -4.2054 -0.6613
 4833SOL    HW226133   3.476   4.067  17.413  2.1100 -1.0213 -0.1150
 4834SOL     OW26134   0.636   4.674   8.431 -0.1668  0.1261 -0.2239
 4834SOL    HW126135   0.724   4.705   8.448  0.3263 -0.0454 -2.4526
 4834SOL    HW226136   0.640   4.662   8.336 -0.2037 -1.3492 -0.0339
 4835SOL     OW26137   3.860   1.799   5.813  0.1885 -0.3962 -0.3071
 4835SOL    HW126138   3.888   1.750   5.736  1.5531  1.0950 -0.7460
 4835SOL    HW226139   3.831   1.882   5.776 -1.5128 -0.8348  0.0390
 4836SOL     OW26140   0.556   3.244   2.311 -0.3030  0.8609  0.2672
 4836SOL    HW126141   0.619   3.223   2.379  1.1012  2.9611 -0.3877
 4836SOL    HW226142   0.623   3.262   2.245 -0.4803 -2.0417 -0.7079
 4837SOL     OW26143   3.520   3.615   2.391  0.1332 -0.5551 -0.2903
 4837SOL    HW126144   3.555   3.634   2.478  1.8215 -0.3249 -1.0231
 4837SOL    HW226145   3.433   3.655   2.403 -0.2768 -1.6609  0.4862
 4838SOL     OW26146   2.890   0.154   2.232  0.1812 -0.7218  0.3490
 4838SOL    HW126147   2.981   0.181   2.246  0.0601  0.2111 -0.6386
 4838SOL    HW226148   2.899   0.062   2.206  2.9249 -0.4531  0.3158
 4839SOL     OW26149   1.244   1.904   5.593 -0.1775 -0.0565 -0.8828
 4839SOL    HW126150   1.170   1.961   5.569  0.6756  2.0565  1.5095
 4839SOL    HW226151   1.273   1.940   5.677 -2.6002  1.0407 -0.5132
 4840SOL     OW26152   3.382   0.679  12.658  0.1981  0.1099 -0.8286
 4840SOL    HW126153   3.386   0.749  12.723 -2.7838 -0.8260  0.3612
 4840SOL    HW226154   3.470   0.641  12.667 -0.3594 -1.5938 -2.7868
 4841SOL     OW26155   4.341   3.775  14.332 -0.2285 -0.0182 -0.5414
 4841SOL    HW126156   4.279   3.829  14.284 -1.2111 -1.4533 -0.8978
 4841SOL    HW226157   4.294   3.773  14.415  0.4291  1.3925 -0.1385
 4842SOL     OW26158   1.849   2.134  13.979 -0.0103 -0.5419  0.0245
 4842SOL    HW126159   1.792   2.072  14.024  2.2267 -1.3019  1.7978
 4842SOL    HW226160   1.810   2.147  13.893  0.8180 -2.3618 -0.6474
 4843SOL     OW26161   2.126   3.121  16.239 -0.4433  0.1276 -0.0326
 4843SOL    HW126162   2.158   3.035  16.208 -1.7038 -0.1640 -0.5004
 4843SOL    HW226163   2.155   3.125  16.330 -0.1061  0.7198 -0.1691
 4844SOL     OW26164   1.938   3.315  12.205  0.5373 -0.1077  0.3165
 4844SOL    HW126165   1.897   3.366  12.135  0.6651 -0.4006  0.0302
 4844SOL    HW226166   1.875   3.319  12.277 -0.6282  2.0408 -0.7911
 4845SOL     OW26167   0.453   1.807   3.086  0.4307  0.1677  0.3459
 4845SOL    HW126168   0.528   1.797   3.027 -0.6457  1.0109 -1.1766
 4845SOL    HW226169   0.493   1.775   3.167  0.5174  1.4601  0.8199
 4846SOL     OW26170   3.916   3.248   3.366  0.0232 -0.2866  0.0500
 4846SOL    HW126171   3.973   3.238   3.442 -0.8104 -0.2084  0.6906
 4846SOL    HW226172   3.949   3.178   3.310 -0.1077  1.7563 -2.5969
 4847SOL     OW26173   4.189   1.799   8.662  0.1121 -0.6758  0.8234
 4847SOL    HW126174   4.225   1.875   8.616  0.9692 -1.2728  0.5040
 4847SOL    HW226175   4.106   1.835   8.693 -0.5477  0.5300 -2.3186
 4848SOL     OW26176   2.803   4.381  10.989  0.2861 -0.3249 -0.2778
 4848SOL    HW126177   2.784   4.332  11.069  2.1724  0.5410  0.7042
 4848SOL    HW226178   2.740   4.454  10.989  1.3880  0.6334 -1.4318
 4849SOL     OW26179   4.140   4.203   3.474  0.3107  0.3386  0.1893
 4849SOL    HW126180   4.080   4.253   3.530 -0.7313  2.7878 -3.1007
 4849SOL    HW226181   4.220   4.194   3.526 -0.7853 -0.2195  1.7747
 4850SOL     OW26182   1.089   3.264   3.796  0.0514  0.0818 -0.0101
 4850SOL    HW126183   1.103   3.272   3.891  1.6581 -0.1389 -0.2358
 4850SOL    HW226184   1.177   3.281   3.763 -0.1549  0.8931 -0.1267
 4851SOL     OW26185   4.430   1.613  16.393 -0.1740  0.2065 -0.8322
 4851SOL    HW126186   4.507   1.662  16.422 -0.4230 -0.9650  1.7338
 4851SOL    HW226187   4.464   1.564  16.318  0.3845 -0.4005 -0.1861
 4852SOL     OW26188   4.524   2.275   1.357  0.1090  0.2190  0.0595
 4852SOL    HW126189   4.542   2.194   1.309 -1.5897  0.2955 -0.6987
 4852SOL    HW226190   4.467   2.312   1.290 -1.4752 -0.5322  0.9956
 4853SOL     OW26191   0.985   4.598   1.498 -0.0381  0.0334 -0.0397
 4853SOL    HW126192   0.949   4.561   1.579  1.3322  0.5852  0.8319
 4853SOL    HW226193   0.923   4.575   1.429  0.0640 -0.9706  0.1954
 4854SOL     OW26194   3.042   2.434  11.969  0.8007 -0.2619 -0.2918
 4854SOL    HW126195   3.129   2.453  12.004 -0.3029  1.1175  1.6914
 4854SOL    HW226196   2.989   2.460  12.044  2.2486 -0.2896  0.7493
 4855SOL     OW26197   4.040   2.347   2.783 -0.2544 -0.2924  0.2991
 4855SOL    HW126198   4.081   2.260   2.780  1.6488  0.4365  5.0381
 4855SOL    HW226199   3.955   2.329   2.743  0.0342 -0.9269 -0.0310
 4856SOL     OW26200   4.384   2.979   7.681  0.4467  0.1430  0.3617
 4856SOL    HW126201   4.320   3.049   7.672 -0.7787 -0.9453  0.6269
 4856SOL    HW226202   4.456   3.011   7.735  0.6292  0.0587  0.1696
 4857SOL     OW26203   0.494   1.745   2.628 -0.0235  0.1788 -0.0017
 4857SOL    HW126204   0.489   1.753   2.533 -0.5337  0.8121  0.0771
 4857SOL    HW226205   0.410   1.700   2.637 -0.3838  0.7013 -0.7300
 4858SOL     OW26206   2.715   2.219   2.543  0.0791  0.2966  0.0393
 4858SOL    HW126207   2.684   2.289   2.486 -0.4997 -1.1489 -1.4038
 4858SOL    HW226208   2.637   2.167   2.559 -0.2909  0.6227 -0.7258
 4859SOL     OW26209   1.068   2.070  16.015  0.8372  0.1184  0.0322
 4859SOL    HW126210   1.072   2.123  15.935  2.1305 -0.1470 -0.0802
 4859SOL    HW226211   1.022   1.991  15.987  0.1178  1.1647 -1.7487
 4860SOL     OW26212   2.940   4.657   6.680 -0.2011 -0.0088 -0.0816
 4860SOL    HW126213   3.028   4.682   6.707 -0.6709  1.0846  0.4062
 4860SOL    HW226214   2.946   4.679   6.587 -0.9435  1.0715  0.1242
 4861SOL     OW26215   3.070   2.865  16.329  0.1966 -0.1186 -0.0006
 4861SOL    HW126216   2.976   2.852  16.338  0.4543 -1.0665  1.3161
 4861SOL    HW226217   3.073   2.911  16.246 -1.4871  0.6393  0.3775
 4862SOL     OW26218   0.526   0.727   7.167 -0.4717  0.1778  0.0217
 4862SOL    HW126219   0.615   0.749   7.139 -1.2424  0.2649 -2.4419
 4862SOL    HW226220   0.475   0.807   7.153 -0.0936  0.2580 -0.9067
 4863SOL     OW26221   4.072   1.511   6.424  0.1699  0.2616  0.1659
 4863SOL    HW126222   4.085   1.421   6.455  2.5434  0.0164 -1.5729
 4863SOL    HW226223   4.133   1.516   6.351 -0.6882  1.8782 -0.4183
 4864SOL     OW26224   2.102   4.446   4.757  0.1106  0.4481  0.4198
 4864SOL    HW126225   2.012   4.419   4.774  0.6701  0.1885  2.9203
 4864SOL    HW226226   2.132   4.500   4.830 -0.2373 -0.1372  0.9957
 4865SOL     OW26227   3.689   0.470  14.532 -0.1187  0.2383 -0.0520
 4865SOL    HW126228   3.624   0.425  14.479  2.9098 -3.7184 -0.4492
 4865SOL    HW226229   3.762   0.443  14.476 -1.0577  0.8398 -1.5735
 4866SOL     OW26230   3.218   3.280   4.535  0.0837  0.1346 -0.4111
 4866SOL    HW126231   3.165   3.210   4.497  0.4325  0.3308 -1.2451
 4866SOL    HW226232   3.153   3.346   4.512 -1.4882 -1.4051 -0.3316
 4867SOL     OW26233   3.165   2.605   7.386  0.6601 -0.1946 -0.4521
 4867SOL    HW126234   3.222   2.529   7.377 -0.6571 -1.1262 -0.9253
 4867SOL    HW226235   3.112   2.577   7.461  3.3313 -0.6737  1.2538
 4868SOL     OW26236   1.033   2.082   5.541 -0.2563  0.2565  0.0887
 4868SOL    HW126237   1.038   2.177   5.531  0.9832  0.4244  2.3167
 4868SOL    HW226238   0.945   2.067   5.506  1.2999 -2.7193 -2.5559
 4869SOL     OW26239   1.722   3.699   5.971  0.0907 -0.3512  0.3089
 4869SOL    HW126240   1.804   3.654   5.992 -0.0524 -0.8338 -0.1841
 4869SOL    HW226241   1.743   3.792   5.977  1.7223 -0.6988 -0.1238
 4870SOL     OW26242   0.760   3.339   1.853  0.1012  0.0757  0.0312
 4870SOL    HW126243   0.847   3.377   1.867 -0.6484  1.3605  1.1723
 4870SOL    HW226244   0.745   3.360   1.761 -0.0882  0.9036  0.2552
 4871SOL     OW26245   3.384   1.483   5.897  0.4698  0.4386  0.7639
 4871SOL    HW126246   3.326   1.418   5.858  1.6037 -0.1529  0.0930
 4871SOL    HW226247   3.406   1.439   5.979  0.2820  0.7885  1.0033
 4872SOL     OW26248   3.815   0.835   1.606 -0.1988 -0.1319  0.3278
 4872SOL    HW126249   3.728   0.876   1.611  0.0738  0.2484  1.8534
 4872SOL    HW226250   3.805   0.756   1.659  1.3490  0.3647  1.3567
 4873SOL     OW26251   0.482   0.006   7.234  0.3486 -0.2565  0.2919
 4873SOL    HW126252   0.412   0.068   7.254  0.2048 -0.5047  0.5554
 4873SOL    HW226253   0.463   4.665   7.285 -3.0315  0.0374 -0.5275
 4874SOL     OW26254   2.588   1.418   1.769  0.5203  0.1242 -0.2770
 4874SOL    HW126255   2.592   1.507   1.734  0.6826  1.0824  2.1897
 4874SOL    HW226256   2.679   1.401   1.795  0.3873 -1.3295 -0.7643
 4875SOL     OW26257   1.964   1.244   2.974 -0.1613  0.2220 -0.3624
 4875SOL    HW126258   2.005   1.191   3.042 -0.6120  0.5855  0.1905
 4875SOL    HW226259   2.005   1.199   2.900  0.0679  1.5416 -1.0594
 4876SOL     OW26260   2.917   1.777   9.263 -0.3541 -0.6367 -1.3194
 4876SOL    HW126261   2.997   1.770   9.211  1.3499 -0.3352  1.2279
 4876SOL    HW226262   2.850   1.746   9.202 -1.8538  0.8320 -0.3954
 4877SOL     OW26263   1.502   2.953  14.580 -0.4902 -0.4949  0.4640
 4877SOL    HW126264   1.560   3.006  14.525  1.1676 -0.9753  1.7675
 4877SOL    HW226265   1.462   2.907  14.506  3.4803 -2.1639 -0.6472
 4878SOL     OW26266   2.836   4.303   7.985  0.2098 -0.3948 -0.0352
 4878SOL    HW126267   2.783   4.329   8.060 -0.1666  0.8436 -0.7315
 4878SOL    HW226268   2.801   4.357   7.914  3.0891  0.9644 -0.4026
 4879SOL     OW26269   1.237   3.778   1.693  0.0482  0.1632  0.0295
 4879SOL    HW126270   1.163   3.814   1.742 -0.2723 -1.8449  1.0097
 4879SOL    HW226271   1.308   3.841   1.711  1.2309 -1.0028 -0.5608
 4880SOL     OW26272   4.266   0.403  12.747  0.1340 -0.2301  0.1700
 4880SOL    HW126273   4.246   0.440  12.661 -0.7936 -0.9466  0.0789
 4880SOL    HW226274   4.202   0.334  12.763 -0.1193  0.0814  0.4968
 4881SOL     OW26275   2.862   4.001   4.606  0.0297 -0.3451  0.2721
 4881SOL    HW126276   2.769   4.019   4.618  0.6194  1.3005  2.3510
 4881SOL    HW226277   2.866   3.911   4.574 -0.1542 -0.5012  0.6893
 4882SOL     OW26278   0.261   1.792   9.611  0.4305 -0.2036  0.0999
 4882SOL    HW126279   0.327   1.761   9.673  2.3234  0.3291 -1.6652
 4882SOL    HW226280   0.315   1.788   9.532  0.7178 -2.0230  0.3833
 4883SOL     OW26281   0.769   2.447   5.716  0.0795  0.0279  0.1825
 4883SOL    HW126282   0.805   2.358   5.718  0.2293  0.1527  2.9309
 4883SOL    HW226283   0.681   2.427   5.685  0.4499 -1.1984 -0.0719
 4884SOL     OW26284   0.334   1.447   5.423 -0.0762  0.1839 -0.3957
 4884SOL    HW126285   0.315   1.360   5.459 -1.3675  0.8376  0.5289
 4884SOL    HW226286   0.244   1.469   5.396 -0.5116 -0.4638  0.5271
 4885SOL     OW26287   4.630   4.457   9.505  0.5436  0.6368 -0.4412
 4885SOL    HW126288   4.674   4.517   9.565  2.8665 -0.1342 -1.3633
 4885SOL    HW226289   4.693   4.386   9.489  0.9466  0.6054  1.2301
 4886SOL     OW26290   1.130   3.155   2.002  0.3307  0.0817  0.3453
 4886SOL    HW126291   1.179   3.233   2.029  1.2887 -0.8367  1.2512
 4886SOL    HW226292   1.149   3.098   2.076 -1.2382 -0.4775  0.3163
 4887SOL     OW26293   4.298   3.425  12.470 -0.4896  0.1166 -0.0003
 4887SOL    HW126294   4.274   3.419  12.378 -0.8386  0.0093  0.0944
 4887SOL    HW226295   4.225   3.399  12.527  1.0041 -1.5056  1.1875
 4888SOL     OW26296   2.469   1.458   5.741 -0.0030  0.0252 -0.0950
 4888SOL    HW126297   2.425   1.488   5.820 -1.8518 -1.6119 -0.4892
 4888SOL    HW226298   2.550   1.420   5.773 -1.1824 -1.7162  0.7776
 4889SOL     OW26299   2.389   0.614  12.861 -0.3135  0.8048  0.2921
 4889SOL    HW126300   2.352   0.592  12.946 -0.5788 -0.0490 -0.0467
 4889SOL    HW226301   2.483   0.623  12.876  0.0803  0.2387 -1.7950
 4890SOL     OW26302   2.898   1.974   3.917 -0.3217  0.1545  0.2223
 4890SOL    HW126303   2.870   1.896   3.868 -0.6265  0.7876 -0.6080
 4890SOL    HW226304   2.877   2.041   3.852  0.4131 -1.8628 -2.1149
 4891SOL     OW26305   0.557   1.312   6.821  0.4055  0.0363  0.3781
 4891SOL    HW126306   0.529   1.237   6.873 -0.9599  0.0889 -0.2812
 4891SOL    HW226307   0.526   1.389   6.867  2.5051  1.7420 -1.0507
 4892SOL     OW26308   0.559   4.404   5.166  0.8992 -0.2682 -0.2334
 4892SOL    HW126309   0.639   4.380   5.212  1.2310 -1.4841 -1.4682
 4892SOL    HW226310   0.550   4.346   5.091 -3.3663 -0.5253  0.4262
 4893SOL     OW26311   0.933   2.522   9.673 -0.6252 -0.5351  0.1807
 4893SOL    HW126312   0.976   2.607   9.667 -0.4051 -0.5139  2.0676
 4893SOL    HW226313   0.875   2.530   9.597 -0.6877 -0.0669  0.2784
 4894SOL     OW26314   2.053   3.844   1.102 -0.4700  0.0009  0.1202
 4894SOL    HW126315   2.126   3.899   1.075  0.3455 -1.3291 -0.3472
 4894SOL    HW226316   2.060   3.849   1.198  1.1178  1.3909 -0.0713
 4895SOL     OW26317   1.848   1.805   5.562 -0.0498 -0.3500  0.4254
 4895SOL    HW126318   1.825   1.861   5.636 -1.3776 -0.5699  0.1766
 4895SOL    HW226319   1.770   1.814   5.508  0.5234 -4.0573 -1.0688
 4896SOL     OW26320   2.613   1.303   2.248  0.3089  0.4715 -0.0083
 4896SOL    HW126321   2.694   1.261   2.276  1.0956  0.4324 -2.3455
 4896SOL    HW226322   2.633   1.396   2.252 -0.2098  0.6133 -0.6569
 4897SOL     OW26323   0.120   3.768   8.313 -0.9986 -0.0602  0.3207
 4897SOL    HW126324   0.147   3.718   8.235  0.9556 -0.6543  1.3729
 4897SOL    HW226325   0.100   3.711   8.388 -0.2752  1.3079  1.5508
 4898SOL     OW26326   2.562   0.627   1.046 -0.2486  0.1796 -0.4841
 4898SOL    HW126327   2.488   0.607   0.989 -0.2043  0.5860 -0.6878
 4898SOL    HW226328   2.635   0.572   1.017 -0.7560 -0.0731 -1.2967
 4899SOL     OW26329   3.574   4.284  10.268  0.1061 -0.0678  0.7218
 4899SOL    HW126330   3.655   4.259  10.314  0.0649  0.2600  0.9711
 4899SOL    HW226331   3.614   4.350  10.211 -1.1466  1.2899  1.4176
 4900SOL     OW26332   1.017   3.644   0.861  0.0115 -0.2843  0.5388
 4900SOL    HW126333   0.991   3.564   0.816 -2.3702 -0.1606  1.6561
 4900SOL    HW226334   1.082   3.679   0.800 -0.6114 -0.9195 -0.4879
 4901SOL     OW26335   1.308   1.668  14.645  0.8886 -0.3752  0.3621
 4901SOL    HW126336   1.319   1.726  14.720 -0.8731  0.9268 -0.4050
 4901SOL    HW226337   1.344   1.724  14.576 -1.5239  0.4833 -0.1876
 4902SOL     OW26338   0.904   4.580  11.836  0.1465  0.1471  0.1350
 4902SOL    HW126339   0.985   4.631  11.828  1.4162 -2.1359 -1.8441
 4902SOL    HW226340   0.934   4.490  11.819  0.9873  0.1918  1.3902
 4903SOL     OW26341   4.647   1.996  17.531 -0.0199 -0.5746  0.3168
 4903SOL    HW126342   4.663   2.084  17.566  1.3590 -0.1307 -1.4471
 4903SOL    HW226343   4.725   1.946  17.554 -0.7613 -1.4096  0.9952
 4904SOL     OW26344   1.157   1.553   1.770 -0.4059 -0.1742 -0.6039
 4904SOL    HW126345   1.183   1.636   1.811 -0.1140 -1.0232  0.9159
 4904SOL    HW226346   1.198   1.497   1.835 -1.7015 -0.4150  0.0199
 4905SOL     OW26347   4.262   4.127   6.644  0.1196 -0.5038  0.1071
 4905SOL    HW126348   4.284   4.050   6.592  0.3391  0.2520 -0.9178
 4905SOL    HW226349   4.169   4.113   6.662  0.2921 -3.1482 -1.1873
 4906SOL     OW26350   4.656   1.894  10.853  0.1171 -0.4323 -0.7148
 4906SOL    HW126351   4.623   1.859  10.770 -2.3105 -2.6070  1.1803
 4906SOL    HW226352   4.737   1.843  10.857 -0.0668 -0.3819  3.2739
 4907SOL     OW26353   4.284   0.860   9.401 -0.3477  0.0589 -0.1762
 4907SOL    HW126354   4.341   0.937   9.392 -0.0389 -0.1635 -0.1347
 4907SOL    HW226355   4.281   0.850   9.496 -0.9693 -0.1220 -0.2173
 4908SOL     OW26356   3.832   3.591   9.824 -0.1906  0.2629 -0.2016
 4908SOL    HW126357   3.765   3.658   9.821 -0.7777 -0.3119 -0.0226
 4908SOL    HW226358   3.788   3.511   9.796 -0.2106  0.6666 -1.2934
 4909SOL     OW26359   0.666   0.263   6.856 -0.2703  0.2526  0.2498
 4909SOL    HW126360   0.690   0.185   6.906  1.0728 -0.7429 -1.9471
 4909SOL    HW226361   0.573   0.271   6.876 -0.2908  1.4831 -0.3537
 4910SOL     OW26362   4.353   1.989   3.980  0.5673  0.7389  0.5011
 4910SOL    HW126363   4.428   1.961   3.928 -1.7126 -2.4765 -1.0187
 4910SOL    HW226364   4.299   1.911   3.985  1.1866  0.1460 -2.1673
 4911SOL     OW26365   1.800   3.142   1.550 -0.2324  0.3159 -0.1656
 4911SOL    HW126366   1.709   3.168   1.537 -0.2101  0.0805 -0.8414
 4911SOL    HW226367   1.843   3.213   1.597  1.1317 -0.9305  0.4883
 4912SOL     OW26368   0.996   0.251   5.707 -0.4074 -0.3062  0.5007
 4912SOL    HW126369   1.050   0.223   5.633 -1.4639  0.7324 -0.6762
 4912SOL    HW226370   1.039   0.213   5.783  0.8109 -1.3361 -0.7098
 4913SOL     OW26371   2.224   0.047  11.002 -0.2850 -0.5046  0.5104
 4913SOL    HW126372   2.156   4.736  11.048 -0.3156 -0.6939  0.2657
 4913SOL    HW226373   2.180   0.085  10.926  2.4000  0.9783 -0.2935
 4914SOL     OW26374   2.634   3.425   8.520 -0.5233  0.1037  0.3954
 4914SOL    HW126375   2.698   3.354   8.521 -0.1281  0.4814  1.3808
 4914SOL    HW226376   2.562   3.385   8.472 -1.6864  1.0336  1.3673
 4915SOL     OW26377   0.670   2.662   6.519  0.5335 -0.5391 -0.0049
 4915SOL    HW126378   0.727   2.704   6.583 -1.4023  0.1299  1.2623
 4915SOL    HW226379   0.724   2.587   6.492  1.3194 -0.2353  0.7079
 4916SOL     OW26380   0.609   2.270  10.659 -0.7373 -0.7949 -0.2534
 4916SOL    HW126381   0.644   2.333  10.722  0.3406 -0.6619 -0.9821
 4916SOL    HW226382   0.657   2.307  10.585 -1.2260  0.3860  0.0236
 4917SOL     OW26383   4.447   0.633   2.505  0.1843 -0.6126  0.0261
 4917SOL    HW126384   4.498   0.712   2.490  1.4142 -1.6309 -1.2153
 4917SOL    HW226385   4.402   0.623   2.421  1.7651 -1.0919 -0.7687
 4918SOL     OW26386   3.184   1.638   8.025 -0.2992 -0.5209 -0.5588
 4918SOL    HW126387   3.191   1.555   7.978 -0.9704  0.3168 -2.1187
 4918SOL    HW226388   3.103   1.611   8.069 -0.5404  0.0506 -0.6591
 4919SOL     OW26389   1.175   0.255   2.039  0.5423 -0.7411  0.3151
 4919SOL    HW126390   1.241   0.191   2.014  1.4619  0.1939  0.3272
 4919SOL    HW226391   1.231   0.333   2.036 -0.9250  0.2207 -1.9395
 4920SOL     OW26392   2.689   1.861   8.881 -0.1793  0.1424  0.1613
 4920SOL    HW126393   2.626   1.791   8.865 -1.5114  0.8321  2.4605
 4920SOL    HW226394   2.773   1.816   8.876  0.8972  1.8019  2.9872
 4921SOL     OW26395   2.851   1.913   2.829  0.0711  0.1758  0.1456
 4921SOL    HW126396   2.946   1.926   2.827 -0.1507  1.9295  1.5925
 4921SOL    HW226397   2.828   1.967   2.904  1.0115  0.4589  0.2322
 4922SOL     OW26398   2.530   2.077   3.198  0.5832  0.4084  0.0600
 4922SOL    HW126399   2.548   2.152   3.142  2.5960  0.8223  1.2405
 4922SOL    HW226400   2.435   2.074   3.192  0.4042  0.2918  2.8687
 4923SOL     OW26401   3.947   4.089   5.578 -0.0480 -1.4317 -0.0271
 4923SOL    HW126402   3.957   4.078   5.673  0.6431 -1.2927 -0.0843
 4923SOL    HW226403   4.033   4.065   5.543 -0.2146 -1.8889 -0.1246
 4924SOL     OW26404   4.703   4.670   5.396  0.2195 -0.3065 -0.0627
 4924SOL    HW126405   4.694   0.018   5.438  0.0010  0.1423 -1.0078
 4924SOL    HW226406   4.643   4.674   5.321  0.6853 -2.5278 -0.5653
 4925SOL     OW26407   0.895   3.953   1.135  0.2904 -0.2471  0.5432
 4925SOL    HW126408   0.893   4.017   1.063 -0.5775  0.1135  0.8975
 4925SOL    HW226409   0.831   3.997   1.191  0.1846 -2.2446  1.9822
 4926SOL     OW26410   0.989   2.570   6.639 -0.1194 -0.1436 -0.5095
 4926SOL    HW126411   1.036   2.544   6.718 -1.5202 -0.6730  0.1596
 4926SOL    HW226412   1.048   2.554   6.565 -0.7416 -1.6028 -0.6962
 4927SOL     OW26413   2.583   1.146   6.128 -0.2593 -0.2025 -0.2644
 4927SOL    HW126414   2.616   1.200   6.200 -0.5847 -0.2624 -0.0675
 4927SOL    HW226415   2.656   1.112   6.076  0.6057  1.1574  0.0702
 4928SOL     OW26416   4.433   0.397   8.704  0.9266 -0.1290 -0.7447
 4928SOL    HW126417   4.481   0.447   8.638  1.7632 -0.1381 -0.1432
 4928SOL    HW226418   4.428   0.314   8.659 -1.3328 -0.5393  0.2618
 4929SOL     OW26419   2.175   4.033   6.416 -0.5647 -0.1335 -0.0992
 4929SOL    HW126420   2.217   4.089   6.482 -0.3987 -1.4753  0.9518
 4929SOL    HW226421   2.247   4.016   6.356 -0.7057 -1.5849  0.1483
 4930SOL     OW26422   1.038   4.523   9.813  0.3085  0.0167  0.6604
 4930SOL    HW126423   1.006   4.599   9.862 -0.1734 -0.5242  1.1969
 4930SOL    HW226424   1.104   4.482   9.869  2.5533 -0.5547 -2.4190
 4931SOL     OW26425   0.280   2.946   4.894  0.3970 -0.1453  0.2599
 4931SOL    HW126426   0.203   3.002   4.880 -0.1397 -0.9258  0.0928
 4931SOL    HW226427   0.313   2.933   4.805 -0.3771  0.9861 -0.2022
 4932SOL     OW26428   3.521   1.131   3.616  0.2797 -0.6504  0.0960
 4932SOL    HW126429   3.545   1.162   3.529 -0.6975 -4.0601 -1.3605
 4932SOL    HW226430   3.429   1.156   3.621  0.5182  0.2690 -0.0864
 4933SOL     OW26431   4.493   1.923   2.135 -0.1354  0.4107  0.2099
 4933SOL    HW126432   4.464   1.905   2.224 -0.8548 -0.0472 -0.1112
 4933SOL    HW226433   4.529   2.010   2.149 -2.3808  1.5496 -1.1836
 4934SOL     OW26434   0.131   0.991   4.131 -0.4173  0.7943 -0.2637
 4934SOL    HW126435   0.167   1.046   4.201  0.1945  3.2797 -2.5608
 4934SOL    HW226436   0.208   0.954   4.087  0.3394  1.5034  0.4520
 4935SOL     OW26437   1.685   4.703   3.781  0.1860  0.3247  1.3289
 4935SOL    HW126438   1.719   4.716   3.692  0.5552  0.6109  1.5112
 4935SOL    HW226439   1.760   4.690   3.839  1.8309  2.8708 -0.2341
 4936SOL     OW26440   2.613   1.967   0.118  0.1959  0.0762 -0.0652
 4936SOL    HW126441   2.584   1.955   0.027  1.4121  0.3529 -0.4970
 4936SOL    HW226442   2.559   2.041   0.145 -1.0506 -0.4140 -1.1900
 4937SOL     OW26443   3.727   2.631   0.298  0.0014 -0.9911 -0.1905
 4937SOL    HW126444   3.661   2.576   0.259 -0.8461 -0.4810  0.5158
 4937SOL    HW226445   3.678   2.712   0.312  1.2432 -0.6257  2.2812
 4938SOL     OW26446   4.187   2.234   7.986  0.5506 -0.3471 -0.7451
 4938SOL    HW126447   4.155   2.219   7.897 -3.5876 -0.1972  0.7347
 4938SOL    HW226448   4.117   2.289   8.020  0.1186 -1.5521  0.3188
 4939SOL     OW26449   3.770   1.147   7.480  0.1370 -0.1191 -0.4070
 4939SOL    HW126450   3.774   1.059   7.518  0.2233  0.6303  1.3256
 4939SOL    HW226451   3.696   1.186   7.526 -0.0409 -0.1006 -0.7106
 4940SOL     OW26452   0.846   3.048   7.466 -0.1313 -0.3644  0.1832
 4940SOL    HW126453   0.805   3.108   7.527  0.6878  2.8183 -2.3874
 4940SOL    HW226454   0.882   2.976   7.519  1.5904 -0.2369 -0.7912
 4941SOL     OW26455   3.406   4.635   7.589  0.3575  0.3701  0.4845
 4941SOL    HW126456   3.382   4.727   7.600 -1.3148  0.2588 -1.9938
 4941SOL    HW226457   3.376   4.607   7.502 -2.3610  1.1206  1.1895
 4942SOL     OW26458   2.520   3.067   4.091  0.1746 -0.0968 -0.5091
 4942SOL    HW126459   2.577   2.991   4.102 -1.6322 -1.4346 -0.2682
 4942SOL    HW226460   2.432   3.029   4.095 -0.8234  1.9779 -2.5089
 4943SOL     OW26461   2.053   1.731   6.636  0.0934  0.0937 -0.7095
 4943SOL    HW126462   2.112   1.656   6.631 -1.0763 -1.0110  2.4069
 4943SOL    HW226463   2.090   1.778   6.561 -0.2952  0.2638 -0.7960
 4944SOL     OW26464   2.050   1.120  16.336  0.1164  0.3309 -0.5321
 4944SOL    HW126465   2.078   1.035  16.300  0.9054  0.1748  0.4452
 4944SOL    HW226466   1.983   1.091  16.399 -0.5500  0.2172 -1.2967
 4945SOL     OW26467   4.610   0.792  13.933  0.1305  0.5109  0.0725
 4945SOL    HW126468   4.575   0.833  13.854  1.5137  0.0816 -0.7541
 4945SOL    HW226469   4.692   0.768  13.890 -0.0250  2.8916 -1.5338
 4946SOL     OW26470   2.910   4.178   5.349  0.6530  0.4408  0.1614
 4946SOL    HW126471   2.934   4.127   5.271 -1.8572 -0.7725  0.1912
 4946SOL    HW226472   2.905   4.114   5.420 -0.9853 -0.7866 -1.0522
 4947SOL     OW26473   1.067   4.121   9.997 -0.0469  0.1272 -0.0127
 4947SOL    HW126474   1.111   4.146  10.078  1.3981 -0.6531 -0.5695
 4947SOL    HW226475   1.107   4.036   9.980  1.4625  1.3817 -2.6373
 4948SOL     OW26476   2.997   0.179   3.672  0.5441  0.2470  0.1877
 4948SOL    HW126477   3.029   0.269   3.662  0.9156  0.2151  1.1411
 4948SOL    HW226478   2.988   0.148   3.581 -2.5142 -0.3290  0.6698
 4949SOL     OW26479   0.498   4.537   7.939 -0.1327  0.3444 -0.3924
 4949SOL    HW126480   0.453   4.461   7.903 -0.0813  0.0005  0.2580
 4949SOL    HW226481   0.454   4.606   7.890  0.5330  0.9538 -0.1337
 4950SOL     OW26482   1.231   2.829   7.761 -0.4513  0.0631 -0.2372
 4950SOL    HW126483   1.255   2.830   7.854 -1.1798 -0.2688 -0.0498
 4950SOL    HW226484   1.282   2.755   7.729  1.4545  0.3615  2.0643
 4951SOL     OW26485   2.631   1.727   1.743 -0.1172  0.1201 -0.2854
 4951SOL    HW126486   2.596   1.802   1.792  0.9690 -1.1600  2.4486
 4951SOL    HW226487   2.566   1.710   1.675 -0.6206 -2.1031  0.7484
 4952SOL     OW26488   3.916   3.185   0.906 -0.2205 -0.1266 -0.3623
 4952SOL    HW126489   3.913   3.241   0.828  1.0901 -0.3947 -0.5929
 4952SOL    HW226490   4.006   3.200   0.933 -0.3229  0.5837 -0.4065
 4953SOL     OW26491   0.595   4.210   2.651 -0.3197 -0.2461  0.0878
 4953SOL    HW126492   0.505   4.243   2.646 -0.1875 -0.0488 -0.9756
 4953SOL    HW226493   0.585   4.117   2.633 -1.1090 -0.4403  1.5686
 4954SOL     OW26494   0.300   2.413   6.735 -0.3212 -0.0789  0.3755
 4954SOL    HW126495   0.287   2.421   6.641 -2.6703  1.9510  0.8601
 4954SOL    HW226496   0.383   2.367   6.734  0.1875  0.9583 -3.1971
 4955SOL     OW26497   3.859   4.533   8.010  0.3285 -0.2633 -0.0371
 4955SOL    HW126498   3.905   4.591   8.071 -1.3166  1.1268 -0.1211
 4955SOL    HW226499   3.880   4.561   7.921  0.4276 -0.2068  0.0035
 4956SOL     OW26500   4.398   0.225  17.589 -0.1498 -0.2389 -0.0899
 4956SOL    HW126501   4.381   0.173  17.668  1.9277  0.3191  0.7273
 4956SOL    HW226502   4.352   0.309  17.592 -0.4071 -0.4268  1.1521
 4957SOL     OW26503   1.020   0.438   5.459  0.9130  0.3446 -0.3198
 4957SOL    HW126504   0.996   0.352   5.424  0.8489  0.5653 -0.8079
 4957SOL    HW226505   1.109   0.423   5.492  1.6068  2.8291 -1.0720
 4958SOL     OW26506   2.167   2.218   5.765 -0.2976  0.0449  0.2209
 4958SOL    HW126507   2.235   2.185   5.706  1.1122  1.8769  0.8148
 4958SOL    HW226508   2.088   2.200   5.714  0.5409 -0.3912 -0.9318
 4959SOL     OW26509   0.197   2.438   8.652 -0.2803 -0.0689 -0.0985
 4959SOL    HW126510   0.268   2.424   8.589  0.7673  2.1686  0.5829
 4959SOL    HW226511   0.254   2.457   8.727  0.0399  0.3464 -0.4486
 4960SOL     OW26512   1.027   2.896  14.520  0.0837 -0.1411  0.1549
 4960SOL    HW126513   0.957   2.848  14.475 -0.5144  0.3987  0.5167
 4960SOL    HW226514   1.038   2.860  14.608  0.2045 -0.3571  0.0522
 4961SOL     OW26515   0.913   1.333   8.804 -0.4027  0.2067  0.3945
 4961SOL    HW126516   0.959   1.350   8.886  2.5272 -1.2583 -0.9206
 4961SOL    HW226517   0.972   1.363   8.735 -1.7897  3.1882  0.4944
 4962SOL     OW26518   3.569   2.125  12.190 -0.0304  0.0482  0.9541
 4962SOL    HW126519   3.582   2.173  12.272 -2.0696  0.4225  1.0567
 4962SOL    HW226520   3.529   2.186  12.128  0.5026 -0.6991 -0.1221
 4963SOL     OW26521   0.820   0.902   7.993 -0.1037  0.0068 -0.0417
 4963SOL    HW126522   0.748   0.842   7.973 -0.5387 -0.0994  1.8129
 4963SOL    HW226523   0.779   0.985   7.968  0.4339 -0.0347 -1.0847
 4964SOL     OW26524   0.035   4.408   7.458 -0.2119  0.0418  0.2501
 4964SOL    HW126525   0.061   4.331   7.408  2.5036  0.0846  1.6259
 4964SOL    HW226526   0.110   4.467   7.459  0.3129 -0.6278  0.1732
 4965SOL     OW26527   1.816   0.341   6.937  0.0212  0.4755  0.0332
 4965SOL    HW126528   1.902   0.358   6.974 -0.0508  3.7075 -1.2541
 4965SOL    HW226529   1.827   0.335   6.842 -0.1357 -2.5138  0.1912
 4966SOL     OW26530   1.900   2.893   6.825 -0.4751  0.5259 -0.1098
 4966SOL    HW126531   1.992   2.917   6.814 -0.2422 -0.2117  0.2365
 4966SOL    HW226532   1.881   2.957   6.894 -1.3245 -2.6675  2.6100
 4967SOL     OW26533   0.999   3.773   9.587  0.0392 -0.2200 -0.2430
 4967SOL    HW126534   1.053   3.806   9.515  0.5614  1.6715  1.0142
 4967SOL    HW226535   1.063   3.739   9.649 -1.2891  0.4706  1.4799
 4968SOL     OW26536   2.932   0.516   9.432  0.4775 -0.1520 -0.3419
 4968SOL    HW126537   2.922   0.421   9.437  1.1486 -0.1747  0.4993
 4968SOL    HW226538   2.932   0.528   9.337  3.5959  3.1619  0.0584
 4969SOL     OW26539   0.708   1.955   6.876  0.3959  0.1977 -0.4494
 4969SOL    HW126540   0.741   2.032   6.923  4.0209 -1.9946  0.5551
 4969SOL    HW226541   0.739   1.978   6.789  0.6945  0.5581 -0.2495
 4970SOL     OW26542   4.529   3.306   5.282 -0.0031 -0.3836 -0.2453
 4970SOL    HW126543   4.570   3.314   5.195  0.2938 -0.0438 -0.0720
 4970SOL    HW226544   4.571   3.223   5.304 -2.2429 -1.1141  1.2992
 4971SOL     OW26545   2.906   3.150  12.121  0.2842  0.2804  0.4851
 4971SOL    HW126546   2.963   3.105  12.060 -1.8208 -2.2545  0.3736
 4971SOL    HW226547   2.920   3.237  12.085 -0.9467  0.2614 -0.0623
 4972SOL     OW26548   2.599   0.495   3.684  0.4040 -0.0514 -0.3929
 4972SOL    HW126549   2.652   0.439   3.740 -1.3738 -2.5908 -1.2749
 4972SOL    HW226550   2.637   0.582   3.699 -0.9666  0.3793  0.6056
 4973SOL     OW26551   0.378   1.102   0.724 -0.1797  0.3626 -0.4833
 4973SOL    HW126552   0.361   1.090   0.630 -0.3518  1.2413 -0.5643
 4973SOL    HW226553   0.326   1.027   0.752  1.3778 -0.4915  0.0899
 4974SOL     OW26554   3.272   2.895   6.904 -0.3350 -0.1275  0.2055
 4974SOL    HW126555   3.341   2.961   6.913 -0.2513  0.0988 -1.9963
 4974SOL    HW226556   3.266   2.854   6.990 -0.3418 -0.6009 -0.0215
 4975SOL     OW26557   4.018   4.105   9.483 -0.4971 -0.1294  0.4412
 4975SOL    HW126558   3.944   4.156   9.516  0.8413  1.1665  1.4495
 4975SOL    HW226559   4.073   4.160   9.428 -2.2808 -0.1509 -1.3830
 4976SOL     OW26560   1.162   4.462  15.920 -0.5888 -0.8783  0.6048
 4976SOL    HW126561   1.086   4.405  15.933 -0.4964 -1.2928 -0.6453
 4976SOL    HW226562   1.115   4.545  15.920  1.4072  0.2397  0.5316
 4977SOL     OW26563   0.552   0.577   5.153  0.2424  0.4139 -0.0982
 4977SOL    HW126564   0.537   0.537   5.239 -1.2926 -0.6178 -0.8585
 4977SOL    HW226565   0.624   0.635   5.178 -0.6997  0.3173  2.9100
 4978SOL     OW26566   4.604   0.932   4.232 -0.1174 -0.8957  0.0046
 4978SOL    HW126567   4.692   0.953   4.202  0.2844  1.1964  2.5713
 4978SOL    HW226568   4.595   0.981   4.314 -0.2768  1.9563 -1.7299
 4979SOL     OW26569   2.637   3.549   4.507  1.2981 -0.0085 -1.0839
 4979SOL    HW126570   2.721   3.503   4.504  0.5482 -1.4788  0.5260
 4979SOL    HW226571   2.589   3.510   4.434  2.0786 -0.3561 -1.4174
 4980SOL     OW26572   1.108   4.049   5.211 -0.2462 -0.0874  0.1262
 4980SOL    HW126573   1.185   4.024   5.160 -0.7231  0.4701 -0.8672
 4980SOL    HW226574   1.126   4.018   5.300 -1.3897 -1.8605 -0.2521
 4981SOL     OW26575   2.436   2.867   7.497  0.0051 -0.6048 -0.1098
 4981SOL    HW126576   2.476   2.821   7.571  4.1468  1.8062 -0.8476
 4981SOL    HW226577   2.504   2.935   7.493  0.3188 -1.0615 -2.3289
 4982SOL     OW26578   4.079   4.426   6.302 -0.0929  0.2150  0.1412
 4982SOL    HW126579   4.067   4.342   6.347 -1.4679  0.1965 -0.2404
 4982SOL    HW226580   4.147   4.475   6.347  0.6515 -0.0672 -0.6759
 4983SOL     OW26581   1.996   2.123  11.245 -0.3704  0.0202  0.4482
 4983SOL    HW126582   2.022   2.053  11.185 -0.6826 -0.2441  0.6157
 4983SOL    HW226583   1.964   2.190  11.185 -0.0918  1.5916  2.0480
 4984SOL     OW26584   4.101   4.444   4.909 -0.2754  0.3062  0.6704
 4984SOL    HW126585   4.156   4.450   4.831 -1.0871 -1.3278 -0.0333
 4984SOL    HW226586   4.034   4.511   4.892 -0.0813  0.9175  2.2902
 4985SOL     OW26587   4.123   2.918  12.551  0.0721 -0.3843 -0.3537
 4985SOL    HW126588   4.175   2.979  12.499 -0.8761  1.0683  0.4007
 4985SOL    HW226589   4.044   2.914  12.496 -0.6785  2.0806  0.5357
 4986SOL     OW26590   3.726   3.168   9.952  0.2498  0.5491 -0.4763
 4986SOL    HW126591   3.754   3.229   9.883 -1.5395  0.4509 -1.2993
 4986SOL    HW226592   3.718   3.086   9.905 -0.0027  0.0970  0.3505
 4987SOL     OW26593   4.182   0.951  14.397  0.2080 -0.1956  0.3434
 4987SOL    HW126594   4.194   0.867  14.442 -0.7180 -0.7324 -0.3986
 4987SOL    HW226595   4.119   1.000  14.450 -1.3860 -0.9305 -0.8693
 4988SOL     OW26596   0.352   0.754   9.851 -0.2141  0.2228 -0.3902
 4988SOL    HW126597   0.267   0.714   9.832  1.2487 -3.4046  0.6815
 4988SOL    HW226598   0.319   0.812   9.920  0.4972  0.1888 -0.0231
 4989SOL     OW26599   3.987   2.349   9.053  0.2376  0.2295  0.2763
 4989SOL    HW126600   4.078   2.363   9.029  0.9471  0.7899  3.2541
 4989SOL    HW226601   3.975   2.254   9.051  1.6789  0.0753 -0.5886
 4990SOL     OW26602   1.073   2.028  14.504 -0.3119 -0.1864  0.5635
 4990SOL    HW126603   0.985   2.038  14.467  0.0282  0.8892  0.0338
 4990SOL    HW226604   1.063   2.016  14.598 -1.3999  2.6644  0.8155
 4991SOL     OW26605   2.861   1.595   5.711 -0.0993 -0.2154  0.5881
 4991SOL    HW126606   2.777   1.553   5.734 -0.2229 -0.9892 -1.2338
 4991SOL    HW226607   2.918   1.578   5.786 -3.6080  0.0090  3.3558
 4992SOL     OW26608   1.722   4.573  11.677  0.1255 -0.3641  0.4711
 4992SOL    HW126609   1.693   4.663  11.694 -1.1675 -0.9800  1.4864
 4992SOL    HW226610   1.669   4.546  11.602 -0.3908 -2.2950  1.5235
 4993SOL     OW26611   2.189   4.040   7.384 -0.1755 -0.5417 -0.2016
 4993SOL    HW126612   2.279   4.019   7.360 -1.2867 -2.6752 -2.5746
 4993SOL    HW226613   2.167   3.959   7.431 -0.2645 -1.7018 -2.2223
 4994SOL     OW26614   0.023   2.374   2.537  0.7983  0.0228  0.1086
 4994SOL    HW126615   4.673   2.412   2.539  0.8991  0.3369 -1.1530
 4994SOL    HW226616   0.012   2.302   2.599 -0.3426 -1.1811 -1.5100
 4995SOL     OW26617   0.050   1.355   1.873 -0.1015 -0.4558 -0.2296
 4995SOL    HW126618   0.007   1.329   1.791 -1.6884 -3.0282  1.3854
 4995SOL    HW226619   0.141   1.353   1.844 -0.2244 -0.2186 -0.6283
 4996SOL     OW26620   2.083   2.841  10.069  0.4488 -0.1496  0.6799
 4996SOL    HW126621   1.999   2.829  10.026 -0.6219 -2.8562  3.5405
 4996SOL    HW226622   2.076   2.922  10.121  0.5283 -0.5117  1.2512
 4997SOL     OW26623   0.107   2.243   5.381 -0.2546 -0.0348  0.2051
 4997SOL    HW126624   0.148   2.214   5.300  0.1720  0.0855  0.3759
 4997SOL    HW226625   0.170   2.198   5.437 -0.3003  2.0298  1.9400
 4998SOL     OW26626   4.477   2.261   1.861  0.2147 -1.0329  0.4610
 4998SOL    HW126627   4.549   2.225   1.809 -0.3683 -2.2176  0.4466
 4998SOL    HW226628   4.459   2.344   1.816 -1.6949 -2.2658 -1.0892
 4999SOL     OW26629   0.201   0.557  10.536 -0.2511 -0.0010  0.1240
 4999SOL    HW126630   0.143   0.570  10.461  1.8706 -0.0095 -1.5224
 4999SOL    HW226631   0.145   0.514  10.600  1.5602  0.4695  2.0484
 5000SOL     OW26632   1.215   4.096   4.876  0.2031  0.4423  0.1119
 5000SOL    HW126633   1.151   4.135   4.817 -0.5614 -0.1594  0.5437
 5000SOL    HW226634   1.222   4.170   4.937 -0.6862  1.6657 -1.2709
 5001SOL     OW26635   2.457   0.988   3.516 -0.4724  0.1789 -0.0984
 5001SOL    HW126636   2.446   1.047   3.441 -0.2959 -0.5625 -0.7167
 5001SOL    HW226637   2.363   0.975   3.526 -0.2682 -2.6328 -1.9447
 5002SOL     OW26638   3.576   1.124   1.900  0.5024 -0.2806  0.9657
 5002SOL    HW126639   3.569   1.090   1.989 -1.8306  1.5561  1.4854
 5002SOL    HW226640   3.562   1.219   1.909 -0.7217 -0.3010 -0.7373
 5003SOL     OW26641   1.658   0.663   6.856 -0.5076 -0.0373 -0.0324
 5003SOL    HW126642   1.702   0.599   6.801  0.5773  2.3288 -1.9526
 5003SOL    HW226643   1.617   0.601   6.917  1.3982 -0.2439  1.0171
 5004SOL     OW26644   3.696   4.564   5.368 -0.1642  0.2053  0.0435
 5004SOL    HW126645   3.724   4.596   5.454 -1.9454  0.3289  0.5799
 5004SOL    HW226646   3.771   4.568   5.309 -0.2721 -1.7290 -0.2184
 5005SOL     OW26647   3.862   4.453   9.504  0.4151  0.5402 -0.2218
 5005SOL    HW126648   3.846   4.373   9.555  0.1877 -0.3188 -1.6599
 5005SOL    HW226649   3.887   4.519   9.569 -2.0437 -0.4636  1.7440
 5006SOL     OW26650   4.373   1.693  12.124  0.9607  0.2876 -0.1079
 5006SOL    HW126651   4.354   1.664  12.214  0.1493  0.4881 -0.2131
 5006SOL    HW226652   4.467   1.681  12.108  1.3349  3.9623 -0.6253
 5007SOL     OW26653   4.554   3.922   5.391 -0.2151 -0.7576 -0.3256
 5007SOL    HW126654   4.621   3.942   5.325  1.2540 -0.7768  1.1777
 5007SOL    HW226655   4.587   3.844   5.434 -2.5884 -0.8165  1.3729
 5008SOL     OW26656   3.073   3.397  15.845  0.5222 -0.0071 -0.2715
 5008SOL    HW126657   3.060   3.335  15.774  0.5019 -1.8421  1.3229
 5008SOL    HW226658   2.988   3.392  15.890  0.9476  1.2174  0.6769
 5009SOL     OW26659   4.380   1.132   3.907  0.0066 -0.5942  0.1257
 5009SOL    HW126660   4.315   1.123   3.837 -0.5554 -0.1871  0.5996
 5009SOL    HW226661   4.342   1.207   3.952  0.6206 -0.1030 -0.1718
 5010SOL     OW26662   2.260   2.741  12.975 -0.5420  0.1936  0.6340
 5010SOL    HW126663   2.352   2.720  12.955 -0.2520  1.0279  1.0916
 5010SOL    HW226664   2.222   2.767  12.891  1.1726 -0.1376 -0.2644
 5011SOL     OW26665   3.769   2.222   6.058  0.1523 -0.7018  0.6204
 5011SOL    HW126666   3.864   2.225   6.060  0.1028  0.7989  0.9093
 5011SOL    HW226667   3.735   2.250   6.143 -0.1607  0.3659  0.1415
 5012SOL     OW26668   0.012   0.470  10.735  0.2887 -0.2080  0.2417
 5012SOL    HW126669   4.673   0.494  10.683  1.7292  0.7181 -1.4476
 5012SOL    HW226670   4.700   0.413  10.794 -0.3370 -0.1613 -0.2341
 5013SOL     OW26671   3.862   0.943   5.933 -0.2508 -0.9671 -0.3812
 5013SOL    HW126672   3.808   0.867   5.908 -0.5371 -1.6827  2.4442
 5013SOL    HW226673   3.880   0.907   6.020  1.3898 -2.2772 -1.2425
 5014SOL     OW26674   4.278   3.542   7.952 -0.3213  0.2510  0.5715
 5014SOL    HW126675   4.223   3.543   7.874 -1.1259  0.9321  1.1588
 5014SOL    HW226676   4.336   3.471   7.924  2.7594  2.8195  0.4603
 5015SOL     OW26677   0.587   3.444   5.971 -0.0709 -0.0300  0.1224
 5015SOL    HW126678   0.498   3.454   6.004  0.4194  0.7437  1.2027
 5015SOL    HW226679   0.635   3.409   6.047  1.3174 -0.9818 -1.1941
 5016SOL     OW26680   0.023   2.031  10.411 -0.2453 -0.2290  0.2073
 5016SOL    HW126681   0.007   2.125  10.402  1.3647 -0.2387 -2.8010
 5016SOL    HW226682   4.673   2.003  10.384 -0.2115 -0.8526  0.7582
 5017SOL     OW26683   2.234   1.194  16.088  0.1464  0.1964  0.2926
 5017SOL    HW126684   2.258   1.102  16.089 -1.7342 -0.2786  0.4953
 5017SOL    HW226685   2.265   1.223  16.174 -0.9586  0.4284  0.6137
 5018SOL     OW26686   4.134   3.938  14.235 -0.7101 -0.2970 -0.7890
 5018SOL    HW126687   4.070   3.871  14.259 -0.6695  0.2736  0.9378
 5018SOL    HW226688   4.085   4.019  14.231  2.5047  1.7990  1.9689
 5019SOL     OW26689   3.659   2.866   8.147 -0.0109  0.3115  0.0791
 5019SOL    HW126690   3.755   2.871   8.144 -0.0985  0.8810 -1.6233
 5019SOL    HW226691   3.640   2.952   8.184  1.5997  0.3238  0.8898
 5020SOL     OW26692   4.410   3.089   7.338  0.1108  0.0075  0.1885
 5020SOL    HW126693   4.362   3.006   7.342 -0.9043  0.7230  2.5777
 5020SOL    HW226694   4.496   3.052   7.357 -0.6259 -0.5209  2.5385
 5021SOL     OW26695   4.620   4.384   2.149  0.0900 -0.0824  0.1869
 5021SOL    HW126696   4.645   4.382   2.241  0.5263 -0.7173  0.0621
 5021SOL    HW226697   4.578   4.298   2.153 -0.2979  0.0865 -0.2989
 5022SOL     OW26698   4.165   1.725  11.958  0.4989  0.6233 -0.3010
 5022SOL    HW126699   4.150   1.816  11.982 -1.7958 -0.4173  2.1776
 5022SOL    HW226700   4.230   1.707  12.026 -1.4081  1.0669  1.6566
 5023SOL     OW26701   3.434   4.213  12.899 -0.0123  0.8848  0.3622
 5023SOL    HW126702   3.437   4.308  12.893 -1.8997  1.0009  1.4428
 5023SOL    HW226703   3.514   4.192  12.948 -0.7425 -1.4188  0.5739
 5024SOL     OW26704   1.377   1.132   1.885  0.1277 -0.0094  0.0874
 5024SOL    HW126705   1.332   1.057   1.926 -1.2773 -0.0821 -1.5760
 5024SOL    HW226706   1.459   1.087   1.867 -0.1156  0.4275 -2.0676
 5025SOL     OW26707   1.821   3.764   7.948 -0.1852 -0.1316  0.4747
 5025SOL    HW126708   1.784   3.848   7.976  2.0264  0.6850  1.0426
 5025SOL    HW226709   1.796   3.752   7.857  0.5173 -2.4581  0.5910
 5026SOL     OW26710   2.996   2.665   3.260 -0.2454  0.1559 -0.7073
 5026SOL    HW126711   2.981   2.700   3.173  0.9347  3.0989  0.2610
 5026SOL    HW226712   2.917   2.696   3.305 -0.6320 -1.5397 -0.1967
 5027SOL     OW26713   3.257   1.303   0.050 -0.1920  0.2934  0.2577
 5027SOL    HW126714   3.209   1.386   0.056  2.4815  1.9153 -1.1845
 5027SOL    HW226715   3.248   1.269   0.139 -2.3429  2.5047  0.8950
 5028SOL     OW26716   4.692   2.796   2.543 -0.3194  0.1839 -0.2001
 5028SOL    HW126717   4.679   2.740   2.467  0.3449  0.5291 -0.5657
 5028SOL    HW226718   4.608   2.783   2.588 -0.2017  0.1215  0.0004
 5029SOL     OW26719   2.579   3.911   5.539  0.2590 -0.7049  0.1316
 5029SOL    HW126720   2.550   3.969   5.469  0.6031 -0.3775  0.2624
 5029SOL    HW226721   2.535   3.827   5.523 -1.0421 -0.4065  2.1361
 5030SOL     OW26722   1.746   4.084   7.263  0.3028 -0.6379 -0.5733
 5030SOL    HW126723   1.816   4.108   7.203 -0.0871 -0.4374 -0.9548
 5030SOL    HW226724   1.737   4.168   7.308 -0.8104 -0.6066 -0.8596
 5031SOL     OW26725   3.431   4.488   0.272  0.1286 -0.0897 -0.2880
 5031SOL    HW126726   3.347   4.497   0.228 -0.0965 -0.3698  0.0810
 5031SOL    HW226727   3.437   4.562   0.333  1.2031 -1.1860  0.9536
 5032SOL     OW26728   1.335   1.580   0.742  0.0784 -0.4035 -0.6987
 5032SOL    HW126729   1.420   1.566   0.700  0.7146  1.5691 -0.0519
 5032SOL    HW226730   1.291   1.618   0.666 -0.2068 -0.1227 -0.3943
 5033SOL     OW26731   2.405   1.306  16.620 -0.0045  0.1313  0.0115
 5033SOL    HW126732   2.378   1.229  16.571 -1.4796  1.6372 -1.5419
 5033SOL    HW226733   2.446   1.264  16.695  1.3174  2.6069  0.6795
 5034SOL     OW26734   1.966   4.008   9.912 -0.1937  0.2671 -0.4243
 5034SOL    HW126735   2.010   4.078   9.961 -0.5330  1.1803 -1.4157
 5034SOL    HW226736   2.048   3.967   9.884 -0.3983 -0.3913 -0.0393
 5035SOL     OW26737   3.272   3.408   7.708  0.2690  0.1687 -0.1252
 5035SOL    HW126738   3.290   3.501   7.722 -3.0629  0.7594  0.1953
 5035SOL    HW226739   3.193   3.400   7.761  1.3120 -1.6914  1.1396
 5036SOL     OW26740   1.654   2.228   8.120  0.3055 -0.3179  0.0656
 5036SOL    HW126741   1.671   2.235   8.026 -1.9295  1.2974 -0.2042
 5036SOL    HW226742   1.709   2.152   8.139 -2.1733 -2.1327 -0.0153
 5037SOL     OW26743   4.325   4.239   4.052  0.1500 -0.1951 -0.0841
 5037SOL    HW126744   4.351   4.155   4.090  2.7560  0.3624 -0.6380
 5037SOL    HW226745   4.285   4.280   4.129 -0.6130 -0.8183 -0.1422
 5038SOL     OW26746   3.245   2.962  14.355  1.0505  0.7072  0.1102
 5038SOL    HW126747   3.303   2.887  14.342 -2.1783 -1.5569 -1.5560
 5038SOL    HW226748   3.176   2.952  14.289  0.4660 -0.2352  0.8743
 5039SOL     OW26749   0.449   1.148   6.596 -0.3574 -0.4029 -0.1710
 5039SOL    HW126750   0.456   1.063   6.638 -1.2316  0.7046  2.2356
 5039SOL    HW226751   0.480   1.202   6.668  0.4991  1.1756 -1.6993
 5040SOL     OW26752   2.062   3.564   6.829  0.3696  0.1371  0.2924
 5040SOL    HW126753   1.991   3.555   6.765 -0.6569  2.0238  1.1832
 5040SOL    HW226754   2.057   3.472   6.858  1.8493  0.4416  1.5028
 5041SOL     OW26755   3.079   1.598   1.697 -0.6257  0.1697  0.1177
 5041SOL    HW126756   3.042   1.529   1.752 -2.4438 -0.4594 -1.9156
 5041SOL    HW226757   3.011   1.662   1.716 -0.2670  0.3599  0.7857
 5042SOL     OW26758   0.049   1.165   7.575  0.2460 -0.4834  0.2248
 5042SOL    HW126759   0.030   1.250   7.615  0.0001 -0.0276 -0.8707
 5042SOL    HW226760   0.001   1.109   7.637  3.2906 -1.2073  1.9495
 5043SOL     OW26761   2.554   4.492   3.158  0.2142  0.1373 -0.0553
 5043SOL    HW126762   2.511   4.442   3.227  2.4909  0.0516  1.2884
 5043SOL    HW226763   2.484   4.494   3.092 -1.4819 -0.3925  1.7114
 5044SOL     OW26764   2.218   0.043   1.411 -0.2171  0.3989 -0.4224
 5044SOL    HW126765   2.278   0.099   1.361  2.5280 -0.5737  1.7765
 5044SOL    HW226766   2.222   4.695   1.368 -0.4800  0.3577 -0.3604
 5045SOL     OW26767   3.960   1.830   3.582 -0.3595 -0.4474  0.5063
 5045SOL    HW126768   4.000   1.905   3.625  0.2500 -1.1065  1.0969
 5045SOL    HW226769   4.019   1.757   3.603  0.2651  0.0807  0.6042
 5046SOL     OW26770   2.690   3.680   6.056  0.7268 -0.0637 -0.5793
 5046SOL    HW126771   2.753   3.616   6.090 -1.1614 -3.2872 -3.0509
 5046SOL    HW226772   2.660   3.727   6.133  1.5962 -1.4283  0.5890
 5047SOL     OW26773   3.452   0.021   7.112  0.1945  0.1150 -0.3190
 5047SOL    HW126774   3.512   0.092   7.088 -2.3760  2.6484  0.7782
 5047SOL    HW226775   3.507   4.681   7.122 -0.2120 -0.0194  0.9344
 5048SOL     OW26776   1.488   0.862  11.933 -0.1253 -0.7845 -0.0435
 5048SOL    HW126777   1.465   0.898  12.018 -0.2385 -0.9702  0.0052
 5048SOL    HW226778   1.557   0.920  11.901  1.1034 -2.9673 -1.4543
 5049SOL     OW26779   1.010   2.264   2.832  0.4417 -0.0662  0.0481
 5049SOL    HW126780   0.981   2.290   2.919  0.0751  1.3192 -0.4795
 5049SOL    HW226781   0.965   2.180   2.828  0.0842  0.0112  2.6092
 5050SOL     OW26782   4.168   0.362   8.902 -0.1108  0.4490 -0.3582
 5050SOL    HW126783   4.147   0.341   8.993  1.1418  1.4276  0.1415
 5050SOL    HW226784   4.198   0.451   8.916  1.5132 -0.6615  3.3155
 5051SOL     OW26785   1.574   3.659   1.698  1.2045  0.3340  0.4567
 5051SOL    HW126786   1.628   3.637   1.623 -0.7941 -1.3734 -0.4606
 5051SOL    HW226787   1.510   3.718   1.658  0.1644 -1.3405 -0.3195
 5052SOL     OW26788   3.129   0.903   1.432 -0.5102  0.0761  0.0575
 5052SOL    HW126789   3.217   0.899   1.472 -1.2186  0.1081  1.6293
 5052SOL    HW226790   3.154   0.972   1.370  0.4108  0.2818  0.6540
 5053SOL     OW26791   2.602   2.823   3.670  0.5024 -0.2455 -0.7641
 5053SOL    HW126792   2.629   2.745   3.718 -0.7146  0.8922  1.7430
 5053SOL    HW226793   2.620   2.893   3.733 -3.1107  0.7956 -0.8950
 5054SOL     OW26794   2.167   0.838   6.320  0.1642  0.0366  0.2944
 5054SOL    HW126795   2.205   0.925   6.308 -1.1688  0.2763 -2.1071
 5054SOL    HW226796   2.244   0.785   6.298 -0.4182 -1.0391  0.8172
 5055SOL     OW26797   2.723   1.480   8.652  0.4268  0.1302 -0.2657
 5055SOL    HW126798   2.710   1.575   8.657 -1.3967 -0.1788  0.8228
 5055SOL    HW226799   2.637   1.442   8.634  0.9741 -0.8593 -0.8025
 5056SOL     OW26800   2.975   0.412   3.312  0.1833 -0.1713  0.1044
 5056SOL    HW126801   3.045   0.462   3.269  1.1255 -1.2356  0.4168
 5056SOL    HW226802   2.903   0.467   3.279  0.1862  0.3216  0.9307
 5057SOL     OW26803   0.770   3.375   4.000 -0.1304  0.0979  0.2093
 5057SOL    HW126804   0.766   3.463   4.035  1.7499  1.4821 -3.0236
 5057SOL    HW226805   0.851   3.364   4.050 -0.0769  0.5927  0.2281
 5058SOL     OW26806   3.019   2.115   9.507 -0.2188  0.5832 -0.6320
 5058SOL    HW126807   3.038   2.208   9.510  0.7134  0.3789 -0.0959
 5058SOL    HW226808   2.945   2.120   9.448 -1.3464 -1.5723  0.5801
 5059SOL     OW26809   3.972   3.905   7.983  0.4069 -1.0152 -0.3313
 5059SOL    HW126810   3.964   3.812   8.006  0.7592 -0.8420  0.5114
 5059SOL    HW226811   3.901   3.937   8.039  0.7269  0.9561 -1.0442
 5060SOL     OW26812   1.833   4.595   1.894  1.1135 -0.4256 -0.2694
 5060SOL    HW126813   1.839   4.570   1.801 -2.1578  0.6888 -0.7992
 5060SOL    HW226814   1.882   4.677   1.902  0.8814 -0.2627 -0.5051
 5061SOL     OW26815   2.250   0.963  10.207  0.2705 -0.7305  0.0979
 5061SOL    HW126816   2.315   0.995  10.270  1.2883 -1.3808 -0.6089
 5061SOL    HW226817   2.270   1.030  10.141 -1.6838  1.2228  1.4997
 5062SOL     OW26818   4.645   4.442   8.464 -0.1342 -0.1668 -0.1890
 5062SOL    HW126819   4.567   4.389   8.454  2.0418 -3.0337 -1.8516
 5062SOL    HW226820   4.719   4.382   8.471 -0.8069 -1.1254 -1.4919
 5063SOL     OW26821   2.019   0.888   6.085 -0.1959 -0.0235  0.0848
 5063SOL    HW126822   2.084   0.846   6.142 -0.2454 -0.2342 -0.0165
 5063SOL    HW226823   2.055   0.974   6.062  2.9265 -1.0225  1.1689
 5064SOL     OW26824   0.300   3.595   3.207  0.5023 -0.4919  0.6357
 5064SOL    HW126825   0.276   3.591   3.115 -0.4322 -1.7960  0.9292
 5064SOL    HW226826   0.393   3.581   3.190  0.3354  0.5275 -1.0838
 5065SOL     OW26827   2.535   3.645   3.386 -0.0992  0.0452  0.3575
 5065SOL    HW126828   2.571   3.556   3.389  0.1970  0.1776  0.8967
 5065SOL    HW226829   2.597   3.700   3.338  0.5583 -1.8469 -0.9828
 5066SOL     OW26830   3.100   2.221  13.349 -0.8062  0.0481 -0.9719
 5066SOL    HW126831   3.082   2.313  13.370  1.8694  0.5081 -0.7180
 5066SOL    HW226832   3.011   2.199  13.322 -1.0532 -0.3454  0.1533
 5067SOL     OW26833   0.127   4.659   8.563  0.3365 -0.3566  0.0568
 5067SOL    HW126834   0.176   0.002   8.577 -1.0106  0.6345 -0.9464
 5067SOL    HW226835   0.140   4.637   8.471 -0.4106 -0.9402  0.0873
 5068SOL     OW26836   1.113   2.847   4.472  0.6066  0.2150 -0.1303
 5068SOL    HW126837   1.034   2.825   4.522 -0.9099 -2.4956 -3.7008
 5068SOL    HW226838   1.147   2.762   4.442 -0.4753  0.3138 -1.6715
 5069SOL     OW26839   0.658   1.154   8.541 -0.0459 -0.1575  0.2696
 5069SOL    HW126840   0.698   1.129   8.624  0.6024 -0.9139 -0.2662
 5069SOL    HW226841   0.653   1.069   8.498  1.8618  0.1788 -0.6578
 5070SOL     OW26842   3.832   4.692  15.030  0.6052  0.4382 -0.4179
 5070SOL    HW126843   3.912   4.681  14.977  2.0233 -1.1528  2.0386
 5070SOL    HW226844   3.859   0.023  15.091 -0.2025 -1.0893  1.6913
 5071SOL     OW26845   1.381   0.839   4.879  0.2225  0.6338 -0.4174
 5071SOL    HW126846   1.421   0.852   4.965  1.1995  2.6841 -1.1991
 5071SOL    HW226847   1.386   0.926   4.840 -0.0806 -0.6552 -3.2927
 5072SOL     OW26848   0.323   1.221   7.486  0.5091  0.4411  0.0743
 5072SOL    HW126849   0.244   1.213   7.540  0.3934  1.1486  0.0097
 5072SOL    HW226850   0.297   1.270   7.409 -0.1306  0.8607  0.5526
 5073SOL     OW26851   1.997   0.820  16.989 -0.1462  0.1971 -0.1678
 5073SOL    HW126852   1.985   0.813  17.083 -0.4892  2.4230 -0.0393
 5073SOL    HW226853   1.928   0.881  16.962 -0.7640  0.0907  1.1628
 5074SOL     OW26854   2.888   0.992   2.196  0.0158  0.4331  0.0807
 5074SOL    HW126855   2.973   0.971   2.158  0.1004  0.6440  0.1502
 5074SOL    HW226856   2.895   1.087   2.201 -1.3013  0.6812 -2.4735
 5075SOL     OW26857   2.279   1.460  12.188 -0.1072 -0.2925  0.3083
 5075SOL    HW126858   2.208   1.396  12.185 -0.8680  0.5454  0.1849
 5075SOL    HW226859   2.312   1.452  12.098  0.0990 -2.0906  0.5488
 5076SOL     OW26860   2.179   2.644   1.995 -0.4241 -0.0995  0.5821
 5076SOL    HW126861   2.118   2.638   1.922  0.1938 -0.8341  0.1297
 5076SOL    HW226862   2.145   2.582   2.060  1.1553 -0.2546  1.2531
 5077SOL     OW26863   0.767   3.369   7.218  0.0676  0.5829  0.4196
 5077SOL    HW126864   0.684   3.353   7.174  0.4097  1.5738 -0.5647
 5077SOL    HW226865   0.794   3.278   7.211 -3.2304 -0.5742  2.6592
 5078SOL     OW26866   0.331   2.280  10.312  0.7168  0.3012  0.0931
 5078SOL    HW126867   0.329   2.184  10.306 -3.2514  0.4198 -1.1345
 5078SOL    HW226868   0.314   2.312  10.223 -1.1862 -0.6318  0.1211
 5079SOL     OW26869   4.313   4.736   1.049  0.7324 -0.0172 -0.1267
 5079SOL    HW126870   4.253   0.050   0.996  0.5002 -2.4411 -2.2435
 5079SOL    HW226871   4.360   0.065   1.098  0.9101  0.5308 -1.0435
 5080SOL     OW26872   1.990   0.179   7.921  0.3470 -0.2441  0.0919
 5080SOL    HW126873   1.936   0.243   7.876  0.5072 -0.4818 -0.4390
 5080SOL    HW226874   2.034   0.134   7.849  1.2180  0.8783 -0.0806
 5081SOL     OW26875   1.711   2.786   4.523 -0.1726  0.7519 -0.4038
 5081SOL    HW126876   1.675   2.872   4.545 -0.4647  0.2880  0.9042
 5081SOL    HW226877   1.631   2.736   4.510 -0.3368  1.3353 -1.7368
 5082SOL     OW26878   0.195   1.055   2.529  0.0342  0.3727  0.1488
 5082SOL    HW126879   0.225   1.132   2.578 -1.7634  1.3386 -0.2570
 5082SOL    HW226880   0.228   0.981   2.581  1.6597  0.4476 -0.7934
 5083SOL     OW26881   3.971   0.239   4.673 -0.8119  0.6141 -0.1386
 5083SOL    HW126882   3.931   0.310   4.623 -0.5159  1.0537  0.2444
 5083SOL    HW226883   4.038   0.199   4.617 -0.1164  0.7779  0.5722
 5084SOL     OW26884   2.357   1.699   5.989  0.2092 -0.1406 -0.0010
 5084SOL    HW126885   2.273   1.654   5.982  1.0161 -1.9984  2.4556
 5084SOL    HW226886   2.360   1.774   5.929  1.8020  0.3913  0.7333
 5085SOL     OW26887   2.945   3.184   2.372 -0.8149 -0.0037 -0.4180
 5085SOL    HW126888   2.887   3.111   2.393 -0.2245  0.1793  1.8003
 5085SOL    HW226889   2.891   3.253   2.411  0.7091  1.9285 -1.7277
 5086SOL     OW26890   2.925   3.149   8.589 -0.0480  0.0768 -0.3302
 5086SOL    HW126891   2.976   3.069   8.575  0.7903  0.6557 -0.5727
 5086SOL    HW226892   2.925   3.186   8.500  0.3315 -3.8528 -1.9447
 5087SOL     OW26893   0.419   1.854   7.758 -0.4618  0.6601  0.2661
 5087SOL    HW126894   0.339   1.834   7.808  0.0684 -1.4016  0.3134
 5087SOL    HW226895   0.398   1.862   7.665 -1.6712  1.0064  0.5699
 5088SOL     OW26896   0.897   4.611   7.742  0.7692 -0.5465 -0.3833
 5088SOL    HW126897   0.870   4.700   7.762 -2.4786 -2.3430  3.3482
 5088SOL    HW226898   0.891   4.612   7.647 -1.5253 -0.2229 -0.2270
 5089SOL     OW26899   1.816   3.537   4.573 -0.6331 -0.2262 -0.2589
 5089SOL    HW126900   1.731   3.536   4.616 -1.2140  1.9274 -1.3698
 5089SOL    HW226901   1.817   3.624   4.532 -0.2948 -0.3771 -0.5740
 5090SOL     OW26902   1.933   4.038  12.562  0.3292  0.2533  1.0149
 5090SOL    HW126903   1.850   4.068  12.601  0.7337  1.6714  0.7793
 5090SOL    HW226904   1.987   4.010  12.635 -1.5172 -0.7536  1.9885
 5091SOL     OW26905   1.281   3.920   3.932 -0.0178  0.7802 -0.6306
 5091SOL    HW126906   1.204   3.894   3.983  0.5211 -0.0523 -0.2330
 5091SOL    HW226907   1.250   3.910   3.841 -0.0145 -1.0965 -0.4426
 5092SOL     OW26908   3.079   4.652   5.861 -0.2676 -0.0455  0.0655
 5092SOL    HW126909   3.077   4.558   5.880 -0.8637  0.1453  0.9536
 5092SOL    HW226910   2.991   4.671   5.828  0.7880  2.1976 -1.4479
 5093SOL     OW26911   1.584   2.612  11.292  0.5328  0.2049 -0.2155
 5093SOL    HW126912   1.672   2.585  11.264  0.6076  0.5020 -0.2668
 5093SOL    HW226913   1.549   2.659  11.216 -2.0229  0.0672  0.8891
 5094SOL     OW26914   3.721   2.158   0.622  0.5643 -0.2241  0.2679
 5094SOL    HW126915   3.631   2.180   0.647  0.2135 -0.6121 -0.6608
 5094SOL    HW226916   3.717   2.145   0.527  0.5006 -0.5627  0.3175
 5095SOL     OW26917   4.341   4.004   4.143 -0.0895 -0.4774 -0.1377
 5095SOL    HW126918   4.371   3.927   4.191  2.1214  0.7798  0.5047
 5095SOL    HW226919   4.315   3.960   4.062  4.2279 -0.5865 -1.4811
 5096SOL     OW26920   2.682   2.472   3.338 -0.0596  0.1439 -0.3898
 5096SOL    HW126921   2.687   2.560   3.376  1.4516 -0.1898  0.2068
 5096SOL    HW226922   2.636   2.496   3.257 -0.6957  1.2785  0.3060
 5097SOL     OW26923   3.186   2.009   0.345  0.4481 -0.7002 -0.2482
 5097SOL    HW126924   3.126   1.974   0.279  1.2147 -2.9255  0.2431
 5097SOL    HW226925   3.142   1.981   0.426  1.7513 -1.3000  0.2539
 5098SOL     OW26926   2.090   1.119   7.030  0.1837  0.0902  0.0535
 5098SOL    HW126927   1.999   1.093   7.049  0.4982 -0.4028  0.8773
 5098SOL    HW226928   2.090   1.076   6.945 -0.8278  2.4295 -1.1181
 5099SOL     OW26929   1.395   1.977   2.510 -0.3752  0.2523  0.0897
 5099SOL    HW126930   1.369   1.886   2.523  1.5304 -0.4817 -1.2341
 5099SOL    HW226931   1.352   1.987   2.425  2.6281 -0.2432 -1.4860
 5100SOL     OW26932   1.229   1.752   2.850  0.4587 -0.6680 -0.1223
 5100SOL    HW126933   1.324   1.742   2.858  0.3651 -0.9865  0.6116
 5100SOL    HW226934   1.224   1.737   2.756 -2.6656 -1.7399  0.2241
 5101SOL     OW26935   1.746   3.922   6.321 -0.2923 -0.3196  0.8540
 5101SOL    HW126936   1.703   3.974   6.254  1.3805  1.5168  1.1933
 5101SOL    HW226937   1.698   3.840   6.309 -0.7398 -0.2066  1.8431
 5102SOL     OW26938   1.342   3.604   8.734 -0.0049  0.0681 -0.0584
 5102SOL    HW126939   1.424   3.649   8.754 -0.4384  1.7813 -2.2437
 5102SOL    HW226940   1.363   3.511   8.743  2.3417  0.7647  1.7993
 5103SOL     OW26941   0.103   2.640   2.276  0.4544 -0.0658  0.1098
 5103SOL    HW126942   0.179   2.595   2.315  2.6147  1.8040 -1.9303
 5103SOL    HW226943   0.140   2.713   2.227  1.3609  0.0321  0.9275
 5104SOL     OW26944   0.154   1.552  14.321  0.5231 -0.1359  0.2793
 5104SOL    HW126945   0.185   1.478  14.269  2.0650  1.0378 -0.4691
 5104SOL    HW226946   0.231   1.574  14.374  1.6394 -0.9680 -1.0016
 5105SOL     OW26947   3.680   0.903   7.269  0.1431  0.0191  0.0060
 5105SOL    HW126948   3.708   0.853   7.192  0.3831  1.2636 -0.7240
 5105SOL    HW226949   3.761   0.925   7.315  0.1423  2.1620 -0.9777
 5106SOL     OW26950   1.180   2.632   1.547 -0.1284 -0.6752  0.5450
 5106SOL    HW126951   1.118   2.575   1.593  0.1943 -0.8186  0.8113
 5106SOL    HW226952   1.128   2.711   1.558 -0.1045 -0.3641 -1.5347
 5107SOL     OW26953   2.791   0.358  15.411 -0.3453 -0.1954  0.6134
 5107SOL    HW126954   2.854   0.412  15.459  1.4858  0.0365 -2.1141
 5107SOL    HW226955   2.842   0.339  15.333 -2.1621 -0.0082 -0.6302
 5108SOL     OW26956   4.162   3.872   1.590 -0.2818 -0.5304 -0.3656
 5108SOL    HW126957   4.227   3.804   1.607  1.5630  1.1279 -0.8037
 5108SOL    HW226958   4.135   3.901   1.677  2.8628 -0.0676  0.4785
 5109SOL     OW26959   4.245   3.591   2.458  0.1183  0.2836 -0.5615
 5109SOL    HW126960   4.150   3.599   2.442 -0.2697 -4.4238 -0.4841
 5109SOL    HW226961   4.253   3.620   2.549  0.1981 -0.2522 -0.3973
 5110SOL     OW26962   0.013   2.514   4.412  0.2212  0.6345  0.6812
 5110SOL    HW126963   4.735   2.578   4.481  0.6310  1.4988 -0.0318
 5110SOL    HW226964   4.716   2.432   4.447  0.4427 -0.3396 -1.3648
 5111SOL     OW26965   1.380   2.960   1.879  0.3405  0.0091 -0.0028
 5111SOL    HW126966   1.293   2.975   1.917  0.2328  0.1911 -0.3157
 5111SOL    HW226967   1.435   2.956   1.957  0.5161 -0.3090 -0.1425
 5112SOL     OW26968   2.312   3.782   5.689 -0.1426 -0.4776  0.3339
 5112SOL    HW126969   2.383   3.731   5.651 -1.2740 -0.2458 -2.1474
 5112SOL    HW226970   2.254   3.746   5.621  1.3726 -1.0643 -0.6413
 5113SOL     OW26971   2.353   0.755  14.937  0.5173  0.2191 -0.3811
 5113SOL    HW126972   2.295   0.830  14.947 -1.1396 -0.6402 -3.4958
 5113SOL    HW226973   2.437   0.801  14.932  0.3145  0.9298  3.1923
 5114SOL     OW26974   0.090   4.033  11.770 -0.5350  0.2435  0.3250
 5114SOL    HW126975   0.066   3.941  11.785  1.3592 -0.3734 -0.4397
 5114SOL    HW226976   0.061   4.044  11.680  0.8710 -1.8569 -0.3910
 5115SOL     OW26977   1.464   3.733  16.665  0.0707  0.5002  0.3114
 5115SOL    HW126978   1.475   3.794  16.737  1.2849  0.2873  0.2956
 5115SOL    HW226979   1.499   3.653  16.705 -0.8529  0.9185  1.9415
 5116SOL     OW26980   1.972   3.805  17.502 -0.6919 -0.1982 -0.4722
 5116SOL    HW126981   1.991   3.711  17.502 -0.2928 -0.1277 -3.6367
 5116SOL    HW226982   2.058   3.834  17.472 -0.8949  0.3514 -0.5224
 5117SOL     OW26983   3.761   1.781   4.922  0.4198  0.4231  0.1376
 5117SOL    HW126984   3.773   1.771   4.827  0.6875 -1.5549  0.3929
 5117SOL    HW226985   3.731   1.696   4.953  0.5158  0.4354  0.2673
 5118SOL     OW26986   1.780   1.650  17.581  0.7553  0.4128 -0.5603
 5118SOL    HW126987   1.745   1.562  17.597  0.3589  0.9290  1.4270
 5118SOL    HW226988   1.759   1.668  17.489 -1.7968  1.4223  0.2296
 5119SOL     OW26989   0.222   4.646   4.818  0.0889 -0.2396  0.1391
 5119SOL    HW126990   0.244   4.687   4.902 -2.0370 -0.0155  0.6012
 5119SOL    HW226991   0.130   4.619   4.824  0.1278  0.5795  4.4619
 5120SOL     OW26992   4.616   0.438   2.539 -0.1610  0.0108 -0.5548
 5120SOL    HW126993   4.636   0.425   2.632 -1.2446 -0.5577 -0.4074
 5120SOL    HW226994   4.549   0.506   2.533 -0.8550 -0.6646 -0.5704
 5121SOL     OW26995   2.167   0.017   2.894 -0.1387 -0.5690 -0.5856
 5121SOL    HW126996   2.173   4.727   2.985 -0.2014  2.2259  0.2840
 5121SOL    HW226997   2.079   4.719   2.879 -1.2313  0.3427  3.8032
 5122SOL     OW26998   0.077   2.156  11.602 -0.4677  0.2629 -0.1699
 5122SOL    HW126999   0.041   2.094  11.538  0.8138  0.3438 -0.9710
 5122SOL    HW227000   0.148   2.103  11.637 -2.2323 -2.8087 -1.1952
 5123SOL     OW27001   3.250   1.227   6.227  0.9446  0.5694 -0.0518
 5123SOL    HW127002   3.187   1.227   6.155  2.8684  0.8713 -1.7407
 5123SOL    HW227003   3.323   1.278   6.193  1.2176  0.4420  0.3497
 5124SOL     OW27004   0.664   0.430   8.466  0.1149  0.6254  0.6975
 5124SOL    HW127005   0.739   0.414   8.409  0.3256  0.9723  0.8798
 5124SOL    HW227006   0.690   0.502   8.523  1.6005  0.2542  0.4673
 5125SOL     OW27007   3.436   3.775   7.332 -0.4574  0.7556  0.6184
 5125SOL    HW127008   3.390   3.791   7.414  0.4041 -1.4198  1.5058
 5125SOL    HW227009   3.420   3.683   7.311  0.2367  0.7993 -0.0974
 5126SOL     OW27010   0.762   0.067  10.351 -0.4011  0.0836 -0.0825
 5126SOL    HW127011   0.749   0.038  10.441  0.9533  0.3940  0.2061
 5126SOL    HW227012   0.715   0.006  10.294 -1.8111  0.9821  0.1003
 5127SOL     OW27013   2.146   2.189  13.510  0.1028 -0.2073 -0.1355
 5127SOL    HW127014   2.081   2.159  13.446  1.5585  1.7665 -2.5525
 5127SOL    HW227015   2.099   2.250  13.568 -0.6533  1.9595 -3.0027
 5128SOL     OW27016   3.049   1.288   2.916  0.1200  0.1284 -0.3765
 5128SOL    HW127017   2.958   1.264   2.897  0.0952 -0.1371  0.0736
 5128SOL    HW227018   3.045   1.373   2.872  0.3594  0.0747 -0.4970
 5129SOL     OW27019   4.241   3.809  14.588  0.3076 -0.1868  0.9959
 5129SOL    HW127020   4.309   3.873  14.609 -0.3273  1.1333 -1.0401
 5129SOL    HW227021   4.271   3.733  14.639  0.4274  0.6711  2.2026
 5130SOL     OW27022   3.027   4.312   3.234  0.1263  0.1677 -0.3465
 5130SOL    HW127023   3.016   4.407   3.243  1.4612  0.3111 -0.1891
 5130SOL    HW227024   2.992   4.280   3.317  1.4469  0.3582  0.2918
 5131SOL     OW27025   2.867   2.778   7.480  0.0881  0.1695 -0.4016
 5131SOL    HW127026   2.819   2.841   7.533  0.9104  2.0223 -1.8742
 5131SOL    HW227027   2.900   2.840   7.414  0.2726 -0.9980 -1.4162
 5132SOL     OW27028   4.720   1.813  13.663 -0.0477 -0.0454 -0.5058
 5132SOL    HW127029   4.632   1.815  13.623 -0.9829 -0.0425  1.5780
 5132SOL    HW227030   4.709   1.882  13.728  0.1600 -0.6684  0.1804
 5133SOL     OW27031   0.955   1.017  11.050 -0.3256  0.5124  0.4995
 5133SOL    HW127032   0.948   0.923  11.032  0.6718  0.0319  2.6384
 5133SOL    HW227033   0.998   1.045  10.969 -0.3054 -0.0861  0.3019
 5134SOL     OW27034   3.001   2.748   0.047  0.1021 -0.4480 -0.2372
 5134SOL    HW127035   3.031   2.702   0.124  1.7977 -1.1293 -1.3111
 5134SOL    HW227036   3.034   2.837   0.060  1.1531 -0.7444 -0.8943
 5135SOL     OW27037   2.742   0.295   4.066 -0.1577  0.0394 -0.8622
 5135SOL    HW127038   2.648   0.279   4.060 -0.0355 -0.4978 -1.3215
 5135SOL    HW227039   2.748   0.298   4.161  1.4795  1.2911 -1.0077
 5136SOL     OW27040   0.449   1.960   6.510 -0.6139  0.5488  0.0973
 5136SOL    HW127041   0.543   1.943   6.505 -1.2787 -3.3041  0.3107
 5136SOL    HW227042   0.453   2.051   6.482 -0.5920  0.8225  1.0038
 5137SOL     OW27043   2.853   3.192   5.026 -0.3765 -0.4835  0.3247
 5137SOL    HW127044   2.942   3.197   4.990 -0.1756  0.8349  1.0114
 5137SOL    HW227045   2.817   3.127   4.966  0.3549 -0.5093 -0.0864
 5138SOL     OW27046   3.149   0.269   5.068 -0.3688 -0.4751  0.3055
 5138SOL    HW127047   3.139   0.355   5.109  0.2055 -0.5422  0.5746
 5138SOL    HW227048   3.144   0.301   4.978  2.7155 -0.2926  0.1969
 5139SOL     OW27049   2.584   4.099  12.517  0.7762 -0.1650  0.0495
 5139SOL    HW127050   2.673   4.084  12.548  0.9037 -0.0734 -0.2739
 5139SOL    HW227051   2.542   4.017  12.493  0.2351  0.4389 -1.0998
 5140SOL     OW27052   1.218   1.820   7.149 -0.0929 -0.1540  0.1625
 5140SOL    HW127053   1.139   1.847   7.196 -0.6102  0.1240 -0.8655
 5140SOL    HW227054   1.201   1.854   7.061 -0.6162  0.1040  0.3672
 5141SOL     OW27055   0.633   1.860   5.404 -0.1242 -0.0175 -0.1099
 5141SOL    HW127056   0.585   1.796   5.457 -1.6770 -0.0011 -1.5087
 5141SOL    HW227057   0.574   1.886   5.333  0.2322 -0.4595 -0.5642
 5142SOL     OW27058   0.643   4.311  15.337 -0.6435 -0.1663 -0.4487
 5142SOL    HW127059   0.591   4.346  15.409  0.4853 -0.4932  0.5157
 5142SOL    HW227060   0.703   4.385  15.334  1.3340 -1.7144  1.5256
 5143SOL     OW27061   0.682   1.862   9.827 -0.0508 -0.0905  0.1214
 5143SOL    HW127062   0.715   1.824   9.908  1.1886  0.5241 -0.1014
 5143SOL    HW227063   0.694   1.955   9.846  0.5575  0.0187 -0.8072
 5144SOL     OW27064   0.736   4.095   3.308  0.1724  0.3019 -0.1976
 5144SOL    HW127065   0.737   4.011   3.354  1.6197  1.5447  2.0317
 5144SOL    HW227066   0.819   4.091   3.261  0.6787  2.3242  0.5217
 5145SOL     OW27067   4.719   1.647   3.510  0.5753  0.2236  0.0837
 5145SOL    HW127068   0.009   1.559   3.487  0.4967  0.1805  0.1529
 5145SOL    HW227069   4.691   1.683   3.426  1.2307  1.9030  0.5716
 5146SOL     OW27070   4.022   3.228   4.412  0.6175 -0.6867  0.3160
 5146SOL    HW127071   3.945   3.276   4.441 -0.5650 -3.2893  1.4572
 5146SOL    HW227072   4.054   3.182   4.490  0.2784 -1.3903  0.0376
 5147SOL     OW27073   3.018   2.820   4.268  0.5473 -0.5387 -0.1609
 5147SOL    HW127074   3.071   2.740   4.263 -0.0067 -0.9891  1.0288
 5147SOL    HW227075   3.036   2.856   4.182  1.4132  1.5447  0.9041
 5148SOL     OW27076   2.798   0.788   6.202  0.1179 -0.0487 -0.4278
 5148SOL    HW127077   2.763   0.710   6.159  0.7208 -1.2401  1.2741
 5148SOL    HW227078   2.725   0.817   6.257 -0.1735 -2.5784  0.4968
 5149SOL     OW27079   1.639   3.032   1.174  0.1308 -0.2058  0.6604
 5149SOL    HW127080   1.591   2.968   1.226 -1.0766 -1.0809 -1.5379
 5149SOL    HW227081   1.729   3.000   1.167 -0.2384 -1.0131 -0.3697
 5150SOL     OW27082   0.280   2.598   8.116  0.2108 -0.2911 -0.0919
 5150SOL    HW127083   0.218   2.660   8.079 -0.4965 -0.9305  0.0072
 5150SOL    HW227084   0.227   2.524   8.147  0.0174 -0.6110 -1.1909
 5151SOL     OW27085   1.564   2.283  11.894 -0.0049  0.7551 -0.0884
 5151SOL    HW127086   1.486   2.297  11.947  0.6835  2.2644  0.5442
 5151SOL    HW227087   1.625   2.243  11.957  1.4977  0.4194 -1.7506
 5152SOL     OW27088   1.723   0.173  10.854 -0.2284  0.0851  0.1496
 5152SOL    HW127089   1.713   0.206  10.765 -0.4128 -0.5215 -0.0561
 5152SOL    HW227090   1.742   0.258  10.894  2.1078  0.4140 -1.6467
 5153SOL     OW27091   0.801   1.370   3.056 -0.5557 -0.3311 -0.2813
 5153SOL    HW127092   0.887   1.412   3.053 -0.3322 -0.7541  0.2370
 5153SOL    HW227093   0.776   1.361   3.148  1.3203  2.5096  0.4911
 5154SOL     OW27094   2.629   3.035   7.541  0.6911 -0.2139 -0.0743
 5154SOL    HW127095   2.696   3.011   7.605  1.2357 -0.7054 -0.8333
 5154SOL    HW227096   2.677   3.085   7.475  1.6190 -2.3014 -0.9582
 5155SOL     OW27097   2.407   4.532   2.541 -0.5281 -0.7281  0.1637
 5155SOL    HW127098   2.450   4.617   2.554 -1.5127 -0.3081  0.6951
 5155SOL    HW227099   2.360   4.546   2.459 -3.9500  0.0585  2.2633
 5156SOL     OW27100   2.777   0.164   8.665  0.0182  0.7794  0.4084
 5156SOL    HW127101   2.803   0.221   8.593 -0.6112 -1.6662 -1.7687
 5156SOL    HW227102   2.717   0.102   8.623  1.4714 -1.5718  1.7682
 5157SOL     OW27103   0.009   1.855   2.713 -0.3412  0.0873 -0.3079
 5157SOL    HW127104   0.102   1.856   2.737 -0.5193 -1.9242  0.5129
 5157SOL    HW227105   4.732   1.768   2.752  0.5395 -0.0168 -0.1899
 5158SOL     OW27106   1.531   0.521   7.975 -0.1983  0.3525  0.1230
 5158SOL    HW127107   1.599   0.494   8.036 -0.2565  0.1268  0.0905
 5158SOL    HW227108   1.455   0.476   8.013 -0.6115 -0.3812 -1.5427
 5159SOL     OW27109   0.783   4.161   1.942  0.4401  0.1320  0.3815
 5159SOL    HW127110   0.717   4.118   1.996  0.7593  2.5992  2.6991
 5159SOL    HW227111   0.826   4.226   1.996  2.0915 -1.1120  0.5859
 5160SOL     OW27112   1.080   3.408   6.481  0.1543  0.5324 -0.3421
 5160SOL    HW127113   1.114   3.341   6.421  0.4363 -0.7784  1.3048
 5160SOL    HW227114   1.062   3.348   6.553 -1.7029  1.1999 -0.2592
 5161SOL     OW27115   0.752   1.669  14.963  0.1510 -0.3200 -0.0206
 5161SOL    HW127116   0.823   1.605  14.964  1.8282  1.5439  0.2692
 5161SOL    HW227117   0.697   1.629  14.897 -2.1766  1.3081  0.9334
 5162SOL     OW27118   2.769   0.583   3.301  0.2921  0.4106 -0.2763
 5162SOL    HW127119   2.694   0.581   3.241 -0.3457 -0.5594  0.5658
 5162SOL    HW227120   2.746   0.652   3.363 -0.4871  0.0285 -0.1316
 5163SOL     OW27121   1.804   1.488   2.589 -0.1143  0.2065 -0.5187
 5163SOL    HW127122   1.729   1.446   2.547 -0.3783  1.2344 -1.0544
 5163SOL    HW227123   1.864   1.506   2.516  0.2068  0.9825 -0.0574
 5164SOL     OW27124   0.048   3.116  13.712  0.6512 -0.7097  0.2249
 5164SOL    HW127125   4.708   3.135  13.764  1.7184  1.5554  0.9864
 5164SOL    HW227126   0.026   3.033  13.669 -1.5474  0.3701 -0.7439
 5165SOL     OW27127   1.417   4.378   4.456  0.5228 -0.2309 -0.2940
 5165SOL    HW127128   1.331   4.421   4.458 -0.0116 -1.3018 -0.1313
 5165SOL    HW227129   1.384   4.300   4.412  1.2202 -1.5452  1.5174
 5166SOL     OW27130   3.471   3.157  11.040  0.2431 -0.2903  0.4729
 5166SOL    HW127131   3.469   3.061  11.044 -0.3230 -0.2233  1.8629
 5166SOL    HW227132   3.481   3.162  11.135 -0.0530 -0.6039  0.5190
 5167SOL     OW27133   2.620   4.518   6.514 -0.0987 -0.1234  0.6541
 5167SOL    HW127134   2.578   4.468   6.583  1.0090 -2.0750 -0.0918
 5167SOL    HW227135   2.593   4.608   6.532  0.4066 -1.0382  6.1856
 5168SOL     OW27136   1.847   0.978   5.541 -0.5911 -0.2880 -0.0087
 5168SOL    HW127137   1.830   0.884   5.534 -2.3027  0.2525 -3.3003
 5168SOL    HW227138   1.849   1.003   5.633 -0.8630 -1.2220  0.2566
 5169SOL     OW27139   3.021   0.938   5.729 -0.1340  0.2388 -0.4583
 5169SOL    HW127140   2.938   0.970   5.765  0.9390  1.6942  0.7269
 5169SOL    HW227141   3.060   0.895   5.805 -0.6614 -4.3266 -2.7653
 5170SOL     OW27142   2.614   0.446   5.229  0.2730  0.3660 -0.3071
 5170SOL    HW127143   2.658   0.524   5.262  0.9763 -0.6581  1.2056
 5170SOL    HW227144   2.523   0.474   5.228 -0.3682 -1.6766 -0.3451
 5171SOL     OW27145   3.363   3.758  10.064 -0.4705  0.3873 -0.9785
 5171SOL    HW127146   3.456   3.769  10.080 -0.1770 -1.3718 -1.4724
 5171SOL    HW227147   3.363   3.672  10.021  1.2591  1.0818 -2.3546
 5172SOL     OW27148   2.699   3.806   2.846 -0.0364  0.0908  0.2190
 5172SOL    HW127149   2.768   3.740   2.844  1.5145  1.8002 -2.4769
 5172SOL    HW227150   2.728   3.868   2.913 -1.2981  2.7901 -1.7104
 5173SOL     OW27151   4.641   0.598   0.035 -0.1926  0.1293 -0.9243
 5173SOL    HW127152   4.660   0.563  17.697  1.6909 -0.5137 -0.2539
 5173SOL    HW227153   4.635   0.692   0.015 -0.2105  0.7993  2.2696
 5174SOL     OW27154   2.861   1.988  14.085  0.3970  0.2625 -0.2016
 5174SOL    HW127155   2.946   2.008  14.045 -0.3351  1.0156 -1.3812
 5174SOL    HW227156   2.889   1.911  14.134  1.1565 -1.2788 -3.0639
 5175SOL     OW27157   2.620   2.394   1.566 -0.3625  0.2216 -0.1618
 5175SOL    HW127158   2.684   2.326   1.584 -0.7846 -0.4072 -0.9869
 5175SOL    HW227159   2.581   2.361   1.484 -0.0181 -1.5547  0.3892
 5176SOL     OW27160   2.594   2.924   7.885 -0.0411  0.3511  0.6178
 5176SOL    HW127161   2.565   3.003   7.840  2.0110 -0.3580 -1.9276
 5176SOL    HW227162   2.665   2.956   7.940  0.3901  0.8728 -0.2446
 5177SOL     OW27163   0.952   3.315  13.463 -0.4371 -0.3757  0.9006
 5177SOL    HW127164   0.918   3.353  13.382  0.0002 -1.2681  0.2959
 5177SOL    HW227165   1.035   3.361  13.473 -0.4843 -0.2159  0.5513
 5178SOL     OW27166   2.210   3.597   1.431 -0.3131 -0.0572  0.3984
 5178SOL    HW127167   2.222   3.567   1.341 -1.9972 -1.1377  0.5305
 5178SOL    HW227168   2.192   3.690   1.414  1.9674  0.5289  1.1966
 5179SOL     OW27169   0.210   0.194   1.638  0.0189 -0.5369  0.1415
 5179SOL    HW127170   0.256   0.118   1.603 -2.5597 -1.6234 -0.8410
 5179SOL    HW227171   0.126   0.151   1.649  0.2902 -1.2663 -0.6641
 5180SOL     OW27172   3.821   4.723   9.021 -0.0959  0.2231  0.3718
 5180SOL    HW127173   3.871   0.006   9.100 -2.8068  0.5522  1.9985
 5180SOL    HW227174   3.887   4.662   8.986 -1.4918 -1.1954  0.2251
 5181SOL     OW27175   0.128   0.807  15.025 -0.4457  0.1202 -0.2696
 5181SOL    HW127176   0.187   0.802  15.100 -2.4275 -0.6973  1.2214
 5181SOL    HW227177   0.051   0.846  15.066 -1.2188 -0.1743 -1.4390
 5182SOL     OW27178   1.224   3.594  11.244 -0.2948  0.2045  0.1429
 5182SOL    HW127179   1.153   3.586  11.307 -0.4048  2.5602  0.3083
 5182SOL    HW227180   1.273   3.659  11.295 -0.0080 -1.9197  2.5344
 5183SOL     OW27181   3.950   2.737  15.238  0.0277 -0.1358 -0.1535
 5183SOL    HW127182   3.959   2.691  15.321 -3.7743 -2.0973 -0.8351
 5183SOL    HW227183   3.854   2.743  15.232  0.2171  0.4861 -2.5224
 5184SOL     OW27184   4.088   4.288   2.852  0.3339 -0.1522 -0.5857
 5184SOL    HW127185   4.038   4.291   2.933  1.1338 -1.9419 -0.0238
 5184SOL    HW227186   4.056   4.367   2.809 -0.7060 -1.4020 -2.1157
 5185SOL     OW27187   0.315   4.475  14.166 -0.3046  0.1265 -0.2243
 5185SOL    HW127188   0.297   4.420  14.242 -0.2692 -1.3359 -1.2792
 5185SOL    HW227189   0.362   4.552  14.200  0.1294  0.0560 -0.6656
 5186SOL     OW27190   3.368   0.870  12.836  0.4204  0.1284 -0.4003
 5186SOL    HW127191   3.375   0.810  12.909 -0.8265 -1.7822 -1.8398
 5186SOL    HW227192   3.278   0.895  12.858  0.1341  0.6904 -2.1310
 5187SOL     OW27193   0.155   3.421   2.315 -0.5608 -0.5442 -0.0362
 5187SOL    HW127194   0.190   3.355   2.256 -1.1376 -1.3444  0.5277
 5187SOL    HW227195   0.200   3.501   2.288 -2.5041  0.2667 -0.8933
 5188SOL     OW27196   2.538   0.477   2.270  0.5645  0.6113  0.2441
 5188SOL    HW127197   2.586   0.440   2.197  0.0743  0.7435 -0.1432
 5188SOL    HW227198   2.522   0.564   2.233  1.4776  1.4741  1.8899
 5189SOL     OW27199   3.337   0.556   6.879  0.6337  0.0337 -0.1048
 5189SOL    HW127200   3.324   0.642   6.838  0.1980  0.2363  0.4462
 5189SOL    HW227201   3.370   0.592   6.962  2.2488 -0.4359 -0.5363
 5190SOL     OW27202   1.674   1.746   4.254 -0.3794 -0.3372 -0.2866
 5190SOL    HW127203   1.610   1.723   4.186  0.7909 -0.2305 -1.4307
 5190SOL    HW227204   1.667   1.672   4.314  1.3950 -0.3371 -0.0659
 5191SOL     OW27205   0.032   1.574   4.551  0.2464 -0.6081 -0.2151
 5191SOL    HW127206   4.722   1.622   4.484 -1.6127 -1.5069  0.4715
 5191SOL    HW227207   0.089   1.523   4.494  1.4652 -0.5467  0.9423
 5192SOL     OW27208   1.155   1.143   6.322 -0.3430  0.4172 -0.1839
 5192SOL    HW127209   1.179   1.088   6.248  0.7395 -1.2965  1.4612
 5192SOL    HW227210   1.061   1.121   6.323 -0.9708  3.0173 -0.3820
 5193SOL     OW27211   4.285   3.843   9.797  0.2705 -0.2335  0.0090
 5193SOL    HW127212   4.274   3.866   9.705 -0.5628  0.7881  0.3684
 5193SOL    HW227213   4.196   3.854   9.828  0.6405 -1.3056  1.4830
 5194SOL     OW27214   1.950   1.006   3.187 -0.1587 -0.1369 -0.0519
 5194SOL    HW127215   1.866   0.963   3.170 -1.3115  1.8500  0.5520
 5194SOL    HW227216   1.986   0.955   3.258  1.2710 -0.1461 -0.7851
 5195SOL     OW27217   0.099   2.014   8.515  0.2655 -0.2935  0.1672
 5195SOL    HW127218   0.063   1.936   8.557  0.2028 -0.9284 -1.0545
 5195SOL    HW227219   0.025   2.032   8.457  1.1818  1.4316 -0.4482
 5196SOL     OW27220   3.081   4.241   8.497  0.3347 -0.3976  0.0091
 5196SOL    HW127221   3.084   4.156   8.453  1.7791  0.1669 -0.9641
 5196SOL    HW227222   3.040   4.288   8.425 -0.7324 -1.2165  0.0739
 5197SOL     OW27223   1.929   1.481   7.741  0.2686 -0.4289  0.1149
 5197SOL    HW127224   2.016   1.457   7.710  0.0950  2.8787 -2.9575
 5197SOL    HW227225   1.901   1.536   7.668  1.9509  1.5705  0.9977
 5198SOL     OW27226   2.609   4.047   0.520 -0.2506  0.2234  0.5229
 5198SOL    HW127227   2.553   4.121   0.497  0.2781  0.3387 -0.3911
 5198SOL    HW227228   2.644   4.072   0.606 -0.7709 -2.1631  1.4319
 5199SOL     OW27229   3.464   3.325   3.942  0.0515 -0.3459 -0.2039
 5199SOL    HW127230   3.495   3.409   3.907 -1.4429 -0.1459 -1.0619
 5199SOL    HW227231   3.523   3.317   4.017  1.0384  4.5393 -0.4793
 5200SOL     OW27232   1.298   2.319   3.173  0.1866 -0.1845 -0.2690
 5200SOL    HW127233   1.269   2.264   3.245  0.5759 -1.2916 -0.9567
 5200SOL    HW227234   1.391   2.321   3.194 -0.3295 -1.0550  2.1124
 5201SOL     OW27235   4.594   1.806   3.287  0.1518  0.1104  0.1591
 5201SOL    HW127236   4.575   1.875   3.223 -1.3675  1.0929  1.6879
 5201SOL    HW227237   4.605   1.728   3.232 -1.3812 -0.9985  1.4192
 5202SOL     OW27238   2.046   1.313  12.179  0.9793  0.1151  0.1239
 5202SOL    HW127239   2.061   1.230  12.134 -0.5042  0.0202 -0.1944
 5202SOL    HW227240   1.961   1.341  12.146 -0.5099 -1.1434  2.8619
 5203SOL     OW27241   4.708   1.986   8.793 -0.8752  0.1091 -0.1391
 5203SOL    HW127242   4.630   2.029   8.758 -0.6927 -1.3828 -2.3658
 5203SOL    HW227243   4.693   1.893   8.774 -1.2705 -0.1213  1.2238
 5204SOL     OW27244   4.309   0.468   1.803  0.0835 -0.0354 -0.1610
 5204SOL    HW127245   4.391   0.498   1.765  0.1395  0.7608  0.5616
 5204SOL    HW227246   4.327   0.375   1.810  3.1297  0.6306  0.6081
 5205SOL     OW27247   1.176   0.991   7.054  0.0948  0.1078 -0.2503
 5205SOL    HW127248   1.271   0.998   7.069  0.4129 -1.1379 -1.7076
 5205SOL    HW227249   1.159   0.901   7.082 -0.0005  0.4430  0.7619
 5206SOL     OW27250   4.063   4.114  17.027  0.9511 -0.0499  0.5529
 5206SOL    HW127251   4.142   4.129  17.079  0.8441  0.4729  0.5721
 5206SOL    HW227252   3.996   4.105  17.095  1.6735  1.1788  1.4256
 5207SOL     OW27253   3.513   2.799   3.265  0.2947 -0.2466 -0.1073
 5207SOL    HW127254   3.503   2.885   3.306  2.4951 -1.4341  2.9430
 5207SOL    HW227255   3.485   2.740   3.335  1.9653  0.9083  1.5395
 5208SOL     OW27256   4.265   0.953   4.427  0.0672  0.0643 -0.3306
 5208SOL    HW127257   4.200   0.934   4.495 -1.6927  4.4263 -0.7518
 5208SOL    HW227258   4.310   0.869   4.421  0.4010  0.1144  1.3760
 5209SOL     OW27259   3.028   1.596   0.560  0.1335 -0.1246 -0.5583
 5209SOL    HW127260   3.093   1.603   0.630  0.7764 -0.1807 -1.1573
 5209SOL    HW227261   3.068   1.544   0.491 -0.8448 -2.4717  0.6531
 5210SOL     OW27262   4.090   3.872   6.750 -0.2117 -0.0784  0.1266
 5210SOL    HW127263   4.179   3.851   6.723  0.2633  0.9671  0.8876
 5210SOL    HW227264   4.036   3.827   6.684 -2.0545  1.8261  0.3391
 5211SOL     OW27265   0.736   0.643   1.631 -0.6705  0.2136  0.1953
 5211SOL    HW127266   0.798   0.640   1.704  1.1100  1.0503 -1.3027
 5211SOL    HW227267   0.751   0.554   1.599  0.6132 -0.0484  1.5318
 5212SOL     OW27268   3.871   3.852  13.194 -0.7609 -0.1643  0.2012
 5212SOL    HW127269   3.936   3.891  13.135 -3.1983  0.2381 -2.2308
 5212SOL    HW227270   3.895   3.759  13.186 -1.3920 -0.3005 -0.1233
 5213SOL     OW27271   1.425   2.372   1.384 -0.4187  0.0622  0.3405
 5213SOL    HW127272   1.446   2.465   1.375 -0.5913 -0.2092 -2.8886
 5213SOL    HW227273   1.345   2.360   1.334  0.7474  0.4902 -1.6003
 5214SOL     OW27274   1.085   1.285  12.482 -0.0027 -0.4248  0.1227
 5214SOL    HW127275   1.162   1.317  12.529  0.2571  0.3866 -0.8420
 5214SOL    HW227276   1.008   1.319  12.528 -2.1512 -3.0109 -1.5382
 5215SOL     OW27277   0.111   2.933   3.700 -0.0647  0.6042  0.3722
 5215SOL    HW127278   0.121   2.842   3.728 -0.3874 -0.0547 -1.6424
 5215SOL    HW227279   0.198   2.959   3.728  1.2972 -2.1190 -1.3942
 5216SOL     OW27280   0.070   0.518  15.125  0.1716  0.4985 -0.3646
 5216SOL    HW127281   0.111   0.586  15.071  0.1101  1.3345  0.6458
 5216SOL    HW227282   0.094   0.443  15.071  1.2887  1.0771 -0.6569
 5217SOL     OW27283   4.212   4.191   9.028 -0.2645 -0.2632 -1.0802
 5217SOL    HW127284   4.303   4.222   9.030 -0.1027 -0.7273 -1.1504
 5217SOL    HW227285   4.185   4.244   8.953 -3.7598  1.9966  1.8001
 5218SOL     OW27286   2.934   3.519  11.195 -0.5057 -0.6149 -0.5993
 5218SOL    HW127287   2.868   3.498  11.129 -0.1372  0.7496 -1.4082
 5218SOL    HW227288   2.882   3.566  11.260  2.5066  0.8480  0.7597
 5219SOL     OW27289   3.210   0.392  16.826  0.5891 -0.4709  0.1662
 5219SOL    HW127290   3.169   0.419  16.908  1.5083  0.0737  0.4476
 5219SOL    HW227291   3.221   0.299  16.845 -0.9679 -0.7586 -0.3664
 5220SOL     OW27292   3.237   0.796   3.713 -0.7353  0.0128 -0.2437
 5220SOL    HW127293   3.161   0.770   3.660 -2.3892  1.9490  1.2057
 5220SOL    HW227294   3.288   0.840   3.645  0.2092  0.5481  0.8084
 5221SOL     OW27295   1.183   2.356  10.899 -0.2244  0.0743 -0.1341
 5221SOL    HW127296   1.215   2.282  10.951 -1.5990 -1.0956 -0.9424
 5221SOL    HW227297   1.228   2.429  10.942 -0.6537 -1.3716  2.7476
 5222SOL     OW27298   2.657   1.224   6.366  0.4771 -0.5595  0.0030
 5222SOL    HW127299   2.633   1.183   6.449  0.9075 -2.2213 -0.6937
 5222SOL    HW227300   2.655   1.319   6.379 -1.1925 -0.7796  1.3563
 5223SOL     OW27301   0.093   3.248   7.769  0.1101 -0.4853 -0.2507
 5223SOL    HW127302   0.164   3.188   7.744  0.7934 -0.1309  0.8043
 5223SOL    HW227303   0.129   3.326   7.726 -0.7587 -0.5344 -1.0461
 5224SOL     OW27304   3.269   0.823   1.867 -0.0754  0.2120 -0.3078
 5224SOL    HW127305   3.339   0.850   1.925  0.8563 -0.0705 -1.3010
 5224SOL    HW227306   3.192   0.871   1.896  1.9203  3.8771 -1.0921
 5225SOL     OW27307   3.134   1.326  12.602 -0.2304  0.1555  0.2394
 5225SOL    HW127308   3.076   1.335  12.677  0.1312 -0.2493  0.5627
 5225SOL    HW227309   3.144   1.416  12.570 -2.4785  0.5455  0.6645
 5226SOL     OW27310   2.433   1.239  14.544  0.0030  0.4057  0.0299
 5226SOL    HW127311   2.464   1.220  14.632  0.2477  4.0323  0.7456
 5226SOL    HW227312   2.511   1.214  14.494 -0.8225 -0.5945 -0.7550
 5227SOL     OW27313   4.352   2.702   7.620  0.1827  0.2511 -0.4911
 5227SOL    HW127314   4.259   2.707   7.601 -0.3030 -2.2661  1.1792
 5227SOL    HW227315   4.385   2.791   7.609  0.4337  0.1887 -0.2434
 5228SOL     OW27316   3.739   2.056   0.333 -0.2004 -0.8488 -0.2293
 5228SOL    HW127317   3.646   2.057   0.309 -0.4708 -0.1093  0.8161
 5228SOL    HW227318   3.752   1.971   0.376  1.0898 -0.1554  0.7613
 5229SOL     OW27319   1.593   0.065  11.759  0.5907  0.1117 -0.9753
 5229SOL    HW127320   1.550   4.720  11.782  0.2099  0.8158  0.8350
 5229SOL    HW227321   1.550   0.075  11.674  0.6319  1.2951 -0.8545
 5230SOL     OW27322   3.499   2.216   6.875  0.1853 -0.0483  0.1249
 5230SOL    HW127323   3.493   2.307   6.846  0.7192  0.3248  1.1598
 5230SOL    HW227324   3.593   2.208   6.894 -0.1185 -0.0879  1.6284
 5231SOL     OW27325   2.830   1.439  12.409  0.3614  0.0603 -0.0486
 5231SOL    HW127326   2.810   1.423  12.502 -2.2447 -1.2275 -0.8626
 5231SOL    HW227327   2.924   1.420  12.406  0.2071 -0.7893  0.4628
 5232SOL     OW27328   3.955   1.409   3.130 -0.0204 -0.3911 -0.1762
 5232SOL    HW127329   3.866   1.397   3.095  0.8255  1.8471 -3.0283
 5232SOL    HW227330   3.956   1.351   3.206 -1.7718  0.9456  0.8861
 5233SOL     OW27331   1.934   0.063   6.301 -0.1744 -0.5501 -0.2604
 5233SOL    HW127332   1.860   0.006   6.281  0.5506 -0.9169 -1.8788
 5233SOL    HW227333   1.886   0.140   6.333  0.9614  0.3637 -0.7467
 5234SOL     OW27334   3.853   2.510   6.917  0.2690  0.7198  0.4499
 5234SOL    HW127335   3.908   2.517   6.995 -1.2739 -0.1040  1.6359
 5234SOL    HW227336   3.800   2.589   6.919  0.3910  0.7657  2.3939
 5235SOL     OW27337   1.378   2.333   2.493 -0.2268 -1.0966 -0.5241
 5235SOL    HW127338   1.400   2.361   2.581 -0.7404  0.3753 -0.8673
 5235SOL    HW227339   1.283   2.333   2.483 -0.1107 -0.9757 -1.6366
 5236SOL     OW27340   0.089   1.359   8.443  0.1655  0.0774 -0.1552
 5236SOL    HW127341   0.159   1.315   8.394 -0.0345 -0.4888  0.0698
 5236SOL    HW227342   0.067   1.279   8.491 -0.9871  0.9241  0.7125
 5237SOL     OW27343   2.398   1.302  14.073  0.0165  0.1034  0.5127
 5237SOL    HW127344   2.353   1.325  14.154 -0.0575 -3.8373  1.6189
 5237SOL    HW227345   2.487   1.277  14.098  0.5079  1.8378  0.4673
 5238SOL     OW27346   2.946   2.918   3.769 -0.1916  0.1661  0.4262
 5238SOL    HW127347   2.885   2.989   3.789 -2.0253 -1.4246  0.5852
 5238SOL    HW227348   2.881   2.848   3.756 -1.5736  1.7011 -0.9627
 5239SOL     OW27349   1.914   3.312   3.820  0.2442  0.5972 -0.7541
 5239SOL    HW127350   1.843   3.352   3.770 -2.1238 -0.5956  1.6040
 5239SOL    HW227351   1.921   3.227   3.778  0.0123  0.0529  0.2944
 5240SOL     OW27352   1.696   3.600   8.487 -0.0790 -0.4175 -0.1472
 5240SOL    HW127353   1.656   3.545   8.420 -0.9490  1.5758 -1.2389
 5240SOL    HW227354   1.773   3.544   8.499  2.1278  2.4332 -0.9737
 5241SOL     OW27355   1.109   2.330   2.562  0.2191 -0.4261 -0.1901
 5241SOL    HW127356   1.026   2.375   2.572  1.2629  1.5594 -0.5244
 5241SOL    HW227357   1.114   2.293   2.650 -3.1289  1.3908  0.7796
 5242SOL     OW27358   2.595   0.904  14.911 -0.3909  0.0336 -0.2524
 5242SOL    HW127359   2.640   0.965  14.971 -0.7147 -2.7109  2.7935
 5242SOL    HW227360   2.630   0.939  14.830  0.6316  1.0006  0.6019
 5243SOL     OW27361   0.067   1.750  16.695 -0.5496 -0.6927  0.4302
 5243SOL    HW127362   0.104   1.687  16.633  0.8597 -1.2379  1.8179
 5243SOL    HW227363   0.072   1.835  16.652 -1.1105 -0.8307  0.0912
 5244SOL     OW27364   0.669   3.496   0.856  0.3818  0.1842  0.4061
 5244SOL    HW127365   0.751   3.521   0.812 -0.1333 -3.5487 -2.6203
 5244SOL    HW227366   0.707   3.465   0.938  1.9676 -0.4081 -0.5473
 5245SOL     OW27367   4.473   3.919   2.873 -0.0205  0.2272  0.4363
 5245SOL    HW127368   4.568   3.904   2.876 -0.3313 -1.5501  1.7035
 5245SOL    HW227369   4.455   3.881   2.959 -1.4169 -1.3229 -0.5386
 5246SOL     OW27370   3.076   1.171   6.634  0.0335 -0.2588  0.0850
 5246SOL    HW127371   3.018   1.141   6.703  1.5103  0.3146  1.5821
 5246SOL    HW227372   3.024   1.133   6.564  0.0162 -2.2492  1.1836
 5247SOL     OW27373   0.205   0.286   8.749 -0.0715  0.1056 -0.2096
 5247SOL    HW127374   0.187   0.231   8.825 -0.3138 -0.7345 -0.8704
 5247SOL    HW227375   0.160   0.242   8.676  0.3176 -1.8208  0.7310
 5248SOL     OW27376   2.009   3.537   2.950  0.0064  0.4288  0.4566
 5248SOL    HW127377   1.922   3.560   2.919  0.3315 -0.2388 -0.9840
 5248SOL    HW227378   2.017   3.600   3.021 -1.8592 -0.2525  1.2606
 5249SOL     OW27379   0.950   2.613   5.700  0.2486 -0.6693  0.1302
 5249SOL    HW127380   1.017   2.545   5.695 -0.3243 -1.3061  1.0435
 5249SOL    HW227381   0.869   2.562   5.701  1.6184 -2.8138 -0.2246
 5250SOL     OW27382   3.299   1.227   5.845 -0.4006  0.1690  0.2895
 5250SOL    HW127383   3.363   1.180   5.900  1.4851  0.2006 -1.8833
 5250SOL    HW227384   3.326   1.218   5.754 -2.1513 -2.4177  0.0317
 5251SOL     OW27385   0.586   3.282   8.891 -0.1943  0.5131  0.6265
 5251SOL    HW127386   0.577   3.236   8.975  0.6506 -0.9989 -0.1213
 5251SOL    HW227387   0.667   3.239   8.864  0.3248  1.7888  0.1592
 5252SOL     OW27388   2.991   3.323   3.443  0.6485 -0.1506  0.1985
 5252SOL    HW127389   2.911   3.341   3.492 -0.7695 -0.5531 -2.0044
 5252SOL    HW227390   3.019   3.246   3.493 -0.3479 -1.6372 -1.5386
 5253SOL     OW27391   3.095   2.254   8.138 -0.1420 -0.0289 -0.2691
 5253SOL    HW127392   3.121   2.222   8.052 -2.5881 -3.3453  0.2674
 5253SOL    HW227393   3.009   2.216   8.155 -0.8776  0.5068 -2.8094
 5254SOL     OW27394   4.130   3.947   1.867 -0.8238 -0.4570  0.1710
 5254SOL    HW127395   4.053   3.895   1.891 -0.7392 -1.1379 -1.0261
 5254SOL    HW227396   4.164   3.954   1.957  0.2440  0.2562 -0.2837
 5255SOL     OW27397   2.921   2.888  17.101 -0.3715  0.1001 -0.8208
 5255SOL    HW127398   2.977   2.937  17.041 -2.6831 -0.5118 -3.4449
 5255SOL    HW227399   2.989   2.880  17.168 -0.0279  1.3043 -1.0282
 5256SOL     OW27400   1.284   1.793   1.997 -0.0712  0.6603  0.0650
 5256SOL    HW127401   1.251   1.881   1.978 -1.7543 -0.5157 -2.4548
 5256SOL    HW227402   1.361   1.789   1.940 -1.0503 -1.1023 -1.1649
 5257SOL     OW27403   1.934   1.095   3.798  0.7634 -0.2118  0.3445
 5257SOL    HW127404   1.940   1.077   3.705  0.7174 -0.4088  0.3779
 5257SOL    HW227405   1.845   1.130   3.795  0.3622 -1.4799 -2.1150
 5258SOL     OW27406   3.689   0.784   4.076  0.4674  0.2272  0.7121
 5258SOL    HW127407   3.610   0.736   4.100  0.8478 -0.8359 -0.1838
 5258SOL    HW227408   3.650   0.843   4.011 -1.0162 -0.7718  0.6964
 5259SOL     OW27409   0.047   2.342   5.956 -0.2564 -0.4592  0.7065
 5259SOL    HW127410   4.716   2.408   5.967 -0.6674 -0.9334  0.9779
 5259SOL    HW227411   0.011   2.260   5.922 -0.9400  0.3315 -0.4940
 5260SOL     OW27412   2.960   1.648   4.851  0.1156  0.0289  0.2034
 5260SOL    HW127413   3.003   1.704   4.787  0.9153 -2.2906 -1.2898
 5260SOL    HW227414   2.996   1.659   4.939  0.0745 -0.8598  0.3340
 5261SOL     OW27415   1.464   2.088   5.090  0.2612 -0.1722 -0.0334
 5261SOL    HW127416   1.417   2.006   5.104 -2.1763  0.6049 -3.4181
 5261SOL    HW227417   1.412   2.144   5.148  0.7672 -0.4102  0.6323
 5262SOL     OW27418   1.604   4.115   2.263 -0.0074 -0.1709  0.2281
 5262SOL    HW127419   1.628   4.207   2.258 -0.2518 -0.0316  1.8618
 5262SOL    HW227420   1.632   4.098   2.352 -1.7887 -1.4237  0.5514
 5263SOL     OW27421   4.309   1.766  15.741  0.5616 -0.3788 -0.4889
 5263SOL    HW127422   4.215   1.786  15.738  0.0515 -2.4117  1.9180
 5263SOL    HW227423   4.313   1.756  15.646  0.3101 -4.8128 -0.0456
 5264SOL     OW27424   3.066   1.620   4.443  0.1700 -0.0507 -0.4512
 5264SOL    HW127425   3.112   1.677   4.382  0.5356  0.1002 -0.0331
 5264SOL    HW227426   3.137   1.595   4.502  1.2597 -0.0296 -1.7617
 5265SOL     OW27427   0.071   4.201   6.909 -0.1881 -0.6297  0.4265
 5265SOL    HW127428   0.045   4.197   6.816  0.2480 -0.2472  0.2907
 5265SOL    HW227429   0.020   4.271   6.950 -0.7264 -0.8509  0.1326
 5266SOL     OW27430   1.192   2.221   6.505 -0.0102 -0.0458  0.3723
 5266SOL    HW127431   1.140   2.168   6.565 -2.8309 -0.4266 -2.3515
 5266SOL    HW227432   1.274   2.178   6.480 -1.5139 -2.0930 -1.0558
 5267SOL     OW27433   4.633   0.211   0.062  0.3916 -0.3632  0.3494
 5267SOL    HW127434   4.555   0.181   0.110 -1.2770 -0.8324 -2.6839
 5267SOL    HW227435   4.597   0.273  17.747 -0.7910  0.3101  1.6554
 5268SOL     OW27436   4.144   0.045   5.110  0.0173  0.3975  0.0217
 5268SOL    HW127437   4.171   0.036   5.019 -1.5334  0.3733 -0.4471
 5268SOL    HW227438   4.186   0.127   5.137  0.0307  0.2181  0.5498
 5269SOL     OW27439   0.891   0.104  14.029 -0.7702  0.5416 -0.1232
 5269SOL    HW127440   0.838   0.044  13.976 -0.2890 -0.2066  0.2472
 5269SOL    HW227441   0.865   0.188  13.990  2.0055  1.4494 -0.0534
 5270SOL     OW27442   0.551   2.251   5.071 -0.0643  1.0586  1.0778
 5270SOL    HW127443   0.461   2.263   5.103 -0.1365  0.8613  0.9456
 5270SOL    HW227444   0.547   2.319   5.004 -0.5586 -0.9784 -0.9494
 5271SOL     OW27445   2.132   4.431  13.069 -0.2056  0.2034 -0.3607
 5271SOL    HW127446   2.154   4.522  13.050 -4.5287  1.5023  0.8770
 5271SOL    HW227447   2.164   4.378  12.996  2.4637  0.4688  0.6096
 5272SOL     OW27448   4.320   1.838   3.394 -1.1357 -0.3123  0.1865
 5272SOL    HW127449   4.293   1.785   3.469  1.7661 -1.1003  0.6723
 5272SOL    HW227450   4.412   1.816   3.383 -1.1553 -1.1241  1.6192
 5273SOL     OW27451   3.045   1.497   0.152 -0.5960 -0.2420 -0.3190
 5273SOL    HW127452   2.959   1.538   0.160 -0.9017 -1.4948  2.8346
 5273SOL    HW227453   3.036   1.445   0.232 -1.2613  0.5937  0.1481
 5274SOL     OW27454   0.084   3.777   6.083 -0.3791  0.3175 -0.4542
 5274SOL    HW127455   0.123   3.712   6.141 -0.0130  1.1020  0.1824
 5274SOL    HW227456   0.124   3.753   5.999  3.9169  2.1543  1.0572
 5275SOL     OW27457   4.086   2.568   8.459 -0.0453  0.0281  0.2651
 5275SOL    HW127458   4.066   2.586   8.551  1.2502  0.7988  0.3889
 5275SOL    HW227459   4.101   2.655   8.421  2.0834 -1.2483 -1.7776
 5276SOL     OW27460   0.898   1.530   5.314  0.8605 -0.8054  0.0176
 5276SOL    HW127461   0.835   1.562   5.378  1.3114 -1.3311  0.7160
 5276SOL    HW227462   0.931   1.611   5.275 -2.9787 -0.9432 -3.5879
 5277SOL     OW27463   1.456   1.384   7.758 -0.4606  0.8997 -0.0212
 5277SOL    HW127464   1.534   1.329   7.746 -0.9011  0.4070 -0.6799
 5277SOL    HW227465   1.460   1.401   7.852 -0.9921 -0.5146  0.2581
 5278SOL     OW27466   4.735   0.920  12.074 -0.2455 -0.1196 -0.5794
 5278SOL    HW127467   0.007   0.924  11.979 -0.2504  1.2312 -0.5178
 5278SOL    HW227468   4.676   0.994  12.089 -0.0260  0.3258 -1.9640
 5279SOL     OW27469   2.245   0.605  11.156  0.4832  0.4455 -0.0761
 5279SOL    HW127470   2.318   0.646  11.201 -0.2462 -0.7878  2.2136
 5279SOL    HW227471   2.279   0.516  11.165 -2.4889 -0.6868  0.0376
 5280SOL     OW27472   0.020   0.473   6.286  0.1064 -0.1252  0.3376
 5280SOL    HW127473   0.031   0.556   6.240 -0.4161  0.4669  1.2681
 5280SOL    HW227474   0.030   0.493   6.379 -0.0881 -0.8645  0.5158
 5281SOL     OW27475   4.343   1.754  16.056  0.4644  0.4044 -0.0127
 5281SOL    HW127476   4.372   1.703  15.980 -0.1659 -0.8250  0.5763
 5281SOL    HW227477   4.287   1.816  16.010  1.8369  0.8085 -1.1326
 5282SOL     OW27478   2.138   1.511  11.926 -0.3058  0.1951 -0.0946
 5282SOL    HW127479   2.233   1.508  11.914 -0.1495 -2.1780  1.7719
 5282SOL    HW227480   2.111   1.419  11.929 -1.3020  0.5230  0.8502
 5283SOL     OW27481   4.638   0.818   6.236 -0.3949 -0.0866 -0.4352
 5283SOL    HW127482   4.646   0.889   6.172  1.7006 -0.8828 -1.0606
 5283SOL    HW227483   4.546   0.792   6.241 -0.4486  0.0711 -0.5805
 5284SOL     OW27484   1.170   2.214   7.220  0.3747  0.0134  0.2802
 5284SOL    HW127485   1.159   2.297   7.173 -0.4871 -0.2981 -0.0777
 5284SOL    HW227486   1.155   2.243   7.310  0.6139  0.5451  0.1512
 5285SOL     OW27487   1.936   0.330  14.756  0.6208  0.1807 -0.1021
 5285SOL    HW127488   1.954   0.416  14.793  0.6609 -0.4627  1.3628
 5285SOL    HW227489   1.925   0.267  14.827 -0.2615  0.9595  0.4485
 5286SOL     OW27490   3.839   0.689   5.202  0.7031  0.0420 -0.0792
 5286SOL    HW127491   3.857   0.597   5.181 -1.0185 -0.3661  0.2828
 5286SOL    HW227492   3.922   0.728   5.231 -0.2650 -0.6029  3.4989
 5287SOL     OW27493   0.714   3.891  15.489  0.3062  0.1876 -0.4935
 5287SOL    HW127494   0.781   3.823  15.495 -0.4734 -0.5495 -0.2203
 5287SOL    HW227495   0.638   3.833  15.489 -0.6697  1.4763  0.0838
 5288SOL     OW27496   2.397   1.699   1.291 -0.2341  0.3939  0.4614
 5288SOL    HW127497   2.481   1.701   1.244 -0.6354  0.0470 -0.2696
 5288SOL    HW227498   2.362   1.615   1.262  1.2487  0.1058 -0.5217
 5289SOL     OW27499   3.486   2.927   3.815  0.0016 -0.0031  0.4396
 5289SOL    HW127500   3.526   3.014   3.807  3.1178 -1.4836 -0.0667
 5289SOL    HW227501   3.395   2.957   3.815 -0.1452 -0.4056 -1.4178
 5290SOL     OW27502   4.303   0.203  17.325 -0.5967 -0.1804  0.2528
 5290SOL    HW127503   4.267   0.268  17.386 -1.1624  1.3166 -1.6608
 5290SOL    HW227504   4.388   0.183  17.364  0.5144  2.1756 -0.9531
 5291SOL     OW27505   3.291   3.405   6.044  0.3162  0.5361 -0.4057
 5291SOL    HW127506   3.276   3.497   6.022  0.8926  0.2776 -1.8518
 5291SOL    HW227507   3.318   3.372   5.959 -1.0041  2.8036 -1.6993
 5292SOL     OW27508   3.673   0.124  11.655 -0.5029 -0.5328 -0.1411
 5292SOL    HW127509   3.655   0.056  11.721  0.9272  1.4264  2.2583
 5292SOL    HW227510   3.624   0.193  11.700 -0.2256  1.0351 -2.2295
 5293SOL     OW27511   0.384   0.800   8.310 -0.7279 -0.3678 -0.4545
 5293SOL    HW127512   0.408   0.790   8.402 -1.5142 -2.5261 -0.4610
 5293SOL    HW227513   0.341   0.719   8.281  2.6329 -1.7633 -1.4662
 5294SOL     OW27514   0.460   2.748  12.966 -0.1732  0.3103 -0.1738
 5294SOL    HW127515   0.524   2.796  12.913 -1.6089 -0.7058 -2.8031
 5294SOL    HW227516   0.521   2.693  13.015 -0.0579  1.0252  0.4827
 5295SOL     OW27517   0.804   2.834  14.361 -0.1563  0.2102 -0.7694
 5295SOL    HW127518   0.784   2.914  14.313 -0.2256 -0.3678 -1.6887
 5295SOL    HW227519   0.719   2.824  14.405  0.7823 -0.7719  0.8211
 5296SOL     OW27520   2.095   2.191  14.071 -0.1926  0.3274  0.3524
 5296SOL    HW127521   2.141   2.152  13.997 -0.5219  0.0253  0.3121
 5296SOL    HW227522   2.008   2.203  14.033 -0.5153  0.8475  1.2417
 5297SOL     OW27523   1.309   1.043  12.786  0.1872 -0.6068  0.4233
 5297SOL    HW127524   1.302   0.955  12.824 -2.7598  0.2534  1.8858
 5297SOL    HW227525   1.223   1.040  12.743  0.8174  0.1391 -0.8851
 5298SOL     OW27526   1.157   1.013   6.073  0.3134  0.4824 -0.1305
 5298SOL    HW127527   1.160   1.023   5.978  0.3318  2.8594  0.1296
 5298SOL    HW227528   1.073   0.968   6.081 -0.8649  2.4653 -1.3715
 5299SOL     OW27529   1.988   4.060   9.368 -0.0163  0.3954 -0.3751
 5299SOL    HW127530   2.032   3.985   9.409  0.6937  0.9476 -0.1165
 5299SOL    HW227531   2.029   4.138   9.404 -0.8417  1.5927 -2.0117
 5300SOL     OW27532   4.218   2.757   6.081  0.1619 -0.0317  0.0295
 5300SOL    HW127533   4.273   2.835   6.074  0.9473 -0.6122 -0.2155
 5300SOL    HW227534   4.252   2.707   6.007  1.6589 -0.7364  1.2094
 5301SOL     OW27535   2.965   2.506   6.378 -0.7295 -0.6060  0.1125
 5301SOL    HW127536   3.025   2.443   6.418 -0.3014 -1.0025 -1.1408
 5301SOL    HW227537   3.022   2.583   6.382  1.2141 -1.9492 -1.2076
 5302SOL     OW27538   2.358   3.911   0.807 -0.3245  0.3425 -0.2043
 5302SOL    HW127539   2.322   3.944   0.889  0.1313  0.7894 -0.1859
 5302SOL    HW227540   2.339   3.990   0.756  0.8802  1.0698  0.4671
 5303SOL     OW27541   3.017   0.318   0.578 -0.1201  0.1649  0.3318
 5303SOL    HW127542   3.075   0.280   0.644 -1.5562  1.0536  2.0895
 5303SOL    HW227543   2.939   0.336   0.631  0.0942  1.6002  0.1448
 5304SOL     OW27544   4.427   4.104   7.565 -0.4767  0.9859  0.0660
 5304SOL    HW127545   4.420   4.194   7.599  0.4347  0.5966  1.2612
 5304SOL    HW227546   4.341   4.067   7.581 -1.1787  2.7103  0.2638
 5305SOL     OW27547   2.076   1.915   7.622  0.0078 -0.0681 -0.9431
 5305SOL    HW127548   2.065   1.825   7.592 -0.3401  0.3471 -2.0413
 5305SOL    HW227549   2.016   1.956   7.561 -0.6060  0.8064  0.2449
 5306SOL     OW27550   0.053   2.573  12.011 -0.0539 -0.1217 -0.2792
 5306SOL    HW127551   0.013   2.510  11.950  0.3219 -0.6389  0.0099
 5306SOL    HW227552   0.021   2.544  12.096 -2.8489 -1.3499 -1.7458
 5307SOL     OW27553   2.623   0.866   0.706 -0.3295 -0.3569  0.3012
 5307SOL    HW127554   2.545   0.857   0.761 -0.7139  4.4459  0.4622
 5307SOL    HW227555   2.606   0.950   0.665 -2.4289 -1.5271 -1.2420
 5308SOL     OW27556   1.748   3.853   2.554  0.0470 -0.0068  0.0359
 5308SOL    HW127557   1.764   3.938   2.514  1.1329 -0.3940 -0.3517
 5308SOL    HW227558   1.836   3.837   2.589  0.8339  0.8162 -1.5713
 5309SOL     OW27559   3.359   0.844   1.612 -0.1727 -0.1379 -0.1422
 5309SOL    HW127560   3.402   0.928   1.597  0.7419 -0.4453  0.8181
 5309SOL    HW227561   3.334   0.834   1.703 -0.6561  1.4740 -0.0981
 5310SOL     OW27562   3.726   2.881   8.995 -0.2748 -0.0330 -0.6529
 5310SOL    HW127563   3.734   2.842   8.908 -3.4282 -0.0308 -0.9459
 5310SOL    HW227564   3.795   2.834   9.042 -1.9708 -0.6227  1.2645
 5311SOL     OW27565   4.348   2.557  14.363 -0.1618 -0.1426 -0.1110
 5311SOL    HW127566   4.352   2.485  14.300 -0.4231 -0.6825  0.4872
 5311SOL    HW227567   4.255   2.562  14.385  0.3211  0.3092  1.7768
 5312SOL     OW27568   0.473   0.578   7.390 -0.0241 -0.3688  0.7221
 5312SOL    HW127569   0.477   0.618   7.304 -1.5686 -0.8709  0.4153
 5312SOL    HW227570   0.558   0.609   7.423 -0.1404  0.5719  0.1233
 5313SOL     OW27571   3.037   3.409  17.118 -0.0781  0.2552  0.2714
 5313SOL    HW127572   3.087   3.451  17.188  2.5640  0.3736 -1.7010
 5313SOL    HW227573   2.963   3.365  17.162 -1.5553  1.8029 -0.6458
 5314SOL     OW27574   3.170   2.261   2.883 -0.2705  0.7162  0.3470
 5314SOL    HW127575   3.243   2.306   2.926  1.7390 -2.4941  0.3248
 5314SOL    HW227576   3.097   2.313   2.917 -1.2412 -2.2621  2.8637
 5315SOL     OW27577   2.815   0.434   2.354  0.0304 -0.5180 -0.6798
 5315SOL    HW127578   2.846   0.358   2.305 -1.5011 -1.2279 -0.5272
 5315SOL    HW227579   2.730   0.446   2.312 -0.4128  1.2790  0.7604
 5316SOL     OW27580   2.168   1.172   3.915 -0.4083 -0.4086  0.4461
 5316SOL    HW127581   2.172   1.178   4.010  1.9034 -0.6931  0.3700
 5316SOL    HW227582   2.075   1.176   3.895  0.2638  1.0100 -2.3502
 5317SOL     OW27583   2.368   4.539   1.876  0.5896 -0.1947 -0.1865
 5317SOL    HW127584   2.459   4.532   1.905 -0.0511  0.0555  1.8802
 5317SOL    HW227585   2.381   4.552   1.782  1.3066 -1.7802 -0.3106
 5318SOL     OW27586   3.087   3.600   7.952 -0.9068  0.1794  0.1132
 5318SOL    HW127587   3.057   3.533   7.891 -0.0393 -1.4780  1.4894
 5318SOL    HW227588   3.099   3.673   7.892  2.0803  1.4940  2.3435
 5319SOL     OW27589   3.760   3.277   7.676 -0.0488 -0.1199  0.3389
 5319SOL    HW127590   3.754   3.198   7.729  0.3854 -0.5128 -0.1994
 5319SOL    HW227591   3.692   3.334   7.712 -1.3329 -1.6515  0.3594
 5320SOL     OW27592   0.330   4.521  13.784 -0.0157  0.1258  0.2455
 5320SOL    HW127593   0.342   4.514  13.689 -1.1198 -1.6544  0.2308
 5320SOL    HW227594   0.251   4.470  13.802  0.8888 -0.7211  1.8197
 5321SOL     OW27595   3.534   3.080   5.412 -0.5365 -0.2422 -0.6448
 5321SOL    HW127596   3.489   3.143   5.356 -2.3295 -0.1827  0.8385
 5321SOL    HW227597   3.460   3.069   5.472 -1.2310  0.9284 -1.2831
 5322SOL     OW27598   3.819   4.444  15.119 -0.2315  0.1270  0.2721
 5322SOL    HW127599   3.863   4.447  15.205  0.2188  0.6647  0.0230
 5322SOL    HW227600   3.815   4.538  15.105 -0.0019  0.1130  0.1038
 5323SOL     OW27601   2.612   2.960  14.671  0.2469 -0.7164  0.0886
 5323SOL    HW127602   2.683   2.897  14.684  1.3751  0.4218 -0.6239
 5323SOL    HW227603   2.664   3.030  14.632  0.4083 -0.6413  0.4402
 5324SOL     OW27604   4.046   3.996   8.398  0.0405  0.0390  0.0677
 5324SOL    HW127605   4.065   3.907   8.369  0.5984 -0.3247  1.5505
 5324SOL    HW227606   3.961   3.984   8.440 -0.1041 -2.3586 -0.9012
 5325SOL     OW27607   4.031   0.771   9.237  0.0910  0.1459 -0.4814
 5325SOL    HW127608   4.058   0.684   9.208  0.1129 -0.6687  1.9039
 5325SOL    HW227609   4.095   0.779   9.308 -1.1862 -0.0587  0.7208
 5326SOL     OW27610   0.459   0.657   1.859  0.1003  0.0789  0.1414
 5326SOL    HW127611   0.476   0.750   1.869  0.2382  0.0599  0.0808
 5326SOL    HW227612   0.376   0.659   1.811 -0.6934 -0.3600  1.4971
 5327SOL     OW27613   3.335   4.291   4.200  0.1571  0.0461  0.1573
 5327SOL    HW127614   3.266   4.284   4.135  1.4077 -0.5952 -1.0837
 5327SOL    HW227615   3.402   4.336   4.148 -0.1857  1.3639  0.8527
 5328SOL     OW27616   2.525   3.434   2.785  0.2707 -0.1228  0.0213
 5328SOL    HW127617   2.561   3.487   2.857 -2.0724  0.3019  0.8811
 5328SOL    HW227618   2.551   3.344   2.801 -0.7674 -0.1371  1.6747
 5329SOL     OW27619   3.914   0.898   7.412 -0.0070 -0.2272 -0.1522
 5329SOL    HW127620   3.994   0.867   7.369  0.5172 -0.5389  1.0371
 5329SOL    HW227621   3.942   0.909   7.503  1.4787 -0.0394 -0.6317
 5330SOL     OW27622   2.717   2.348  11.555 -0.7040 -0.0465  0.0338
 5330SOL    HW127623   2.745   2.273  11.608  0.9529  0.2060 -0.4787
 5330SOL    HW227624   2.687   2.302  11.476  0.6432 -1.3819  0.2937
 5331SOL     OW27625   0.768   4.352  13.927  0.2397  0.0930 -0.2987
 5331SOL    HW127626   0.780   4.324  14.018 -1.1732 -1.6215 -0.6402
 5331SOL    HW227627   0.675   4.371  13.922  0.0775 -1.4685 -3.0309
 5332SOL     OW27628   0.898   1.824   7.694 -0.2020  0.2028 -0.2108
 5332SOL    HW127629   0.852   1.880   7.756  3.0904  0.1786  2.2239
 5332SOL    HW227630   0.820   1.782   7.656 -2.7260  2.9604  2.0080
 5333SOL     OW27631   2.048   1.169  16.813  0.1496 -0.4650  0.2703
 5333SOL    HW127632   2.095   1.092  16.842 -1.4577 -1.7537 -0.5582
 5333SOL    HW227633   2.005   1.123  16.741 -1.9201 -0.0701  1.2726
 5334SOL     OW27634   2.675   4.069  17.299  0.2621  0.6296  0.2350
 5334SOL    HW127635   2.587   4.107  17.289 -0.3040 -0.4374  1.1261
 5334SOL    HW227636   2.657   3.982  17.264  2.2714  1.1421 -2.0369
 5335SOL     OW27637   3.527   2.294  11.992  0.1991  0.0512 -0.3045
 5335SOL    HW127638   3.498   2.363  11.931  0.2264  1.3968  1.2201
 5335SOL    HW227639   3.573   2.238  11.929 -1.5898 -1.6665 -0.0762
 5336SOL     OW27640   1.072   0.607   4.807  0.0250 -0.0218  0.1899
 5336SOL    HW127641   1.100   0.635   4.894  0.7307  0.9871 -0.3564
 5336SOL    HW227642   1.064   0.686   4.752  0.4290 -2.6793 -3.6836
 5337SOL     OW27643   2.972   0.776  14.016 -0.0342  0.3331 -0.0901
 5337SOL    HW127644   3.055   0.730  14.012 -1.1684 -1.5693 -1.7616
 5337SOL    HW227645   2.919   0.709  13.972  0.0612 -1.1936  2.0897
 5338SOL     OW27646   0.719   3.831   7.246  0.5258  0.0102  0.6576
 5338SOL    HW127647   0.797   3.886   7.252  1.2043 -1.1319  2.4281
 5338SOL    HW227648   0.760   3.748   7.273  0.3029 -0.6551 -1.0684
 5339SOL     OW27649   3.372   0.142  12.155 -0.1932  0.5366  0.3384
 5339SOL    HW127650   3.324   0.170  12.233  1.6593  0.4163  1.5080
 5339SOL    HW227651   3.314   0.070  12.129  1.4544 -1.1773  1.4936
 5340SOL     OW27652   1.991   1.255   1.645  0.1621  0.1979 -0.2166
 5340SOL    HW127653   1.981   1.234   1.738  0.2051  3.4360  0.5059
 5340SOL    HW227654   2.071   1.208   1.620  2.5158  2.3604  3.2790
 5341SOL     OW27655   2.586   1.125  15.111 -0.1802  0.2098  0.5994
 5341SOL    HW127656   2.664   1.154  15.160 -0.7238 -2.0076  2.7873
 5341SOL    HW227657   2.561   1.053  15.169 -0.6178 -0.4805 -0.4536
 5342SOL     OW27658   0.975   2.791   2.797  0.3261  0.3742 -0.0027
 5342SOL    HW127659   0.961   2.864   2.857 -0.0754  1.1000 -0.9695
 5342SOL    HW227660   1.041   2.822   2.735 -0.0169  0.1250 -0.4942
 5343SOL     OW27661   4.279   3.320   2.757  0.4271  0.0465  0.0982
 5343SOL    HW127662   4.186   3.299   2.759  0.7796 -1.8369 -3.0578
 5343SOL    HW227663   4.292   3.402   2.806 -0.6421  0.3940 -0.2008
 5344SOL     OW27664   2.851   0.439   1.507  0.7728  0.4183 -0.5906
 5344SOL    HW127665   2.820   0.362   1.555  1.3430 -1.4124 -3.1967
 5344SOL    HW227666   2.801   0.430   1.425  0.7118 -0.4033 -0.4664
 5345SOL     OW27667   1.115   4.390   7.717 -0.0492  0.0386  0.0225
 5345SOL    HW127668   1.069   4.411   7.799 -0.9069  2.2784 -1.0385
 5345SOL    HW227669   1.171   4.465   7.698  0.2789 -1.1017 -3.3559
 5346SOL     OW27670   3.634   1.636   6.716 -0.5101  0.1738  0.0355
 5346SOL    HW127671   3.606   1.574   6.649 -1.1790  0.2158  0.2786
 5346SOL    HW227672   3.712   1.596   6.757  0.3224  1.2066 -0.5397
 5347SOL     OW27673   4.362   0.844   7.884  0.3004  0.3559  0.0297
 5347SOL    HW127674   4.317   0.787   7.946  0.3835  0.8757  0.5631
 5347SOL    HW227675   4.412   0.904   7.939  0.3976  0.8303 -0.5726
 5348SOL     OW27676   2.399   0.174  15.181 -0.1700 -0.7079  0.0614
 5348SOL    HW127677   2.445   0.195  15.262 -1.7194  0.2478  0.7009
 5348SOL    HW227678   2.467   0.168  15.114  0.9481  1.8790  0.9551
 5349SOL     OW27679   3.524   2.733   3.608  0.6700  0.1062  0.3755
 5349SOL    HW127680   3.506   2.801   3.673 -0.9132 -1.0045  1.1116
 5349SOL    HW227681   3.606   2.774   3.580  2.4657 -2.6725  1.4963
 5350SOL     OW27682   2.571   0.811  17.518 -0.4092 -0.3312 -0.0797
 5350SOL    HW127683   2.524   0.802  17.601 -0.2241  0.8477  0.1512
 5350SOL    HW227684   2.585   0.906  17.514  0.3950 -0.5230 -1.9162
 5351SOL     OW27685   4.635   4.691   6.331  0.0867 -0.2627  0.0880
 5351SOL    HW127686   4.663   4.609   6.288  1.7488  0.6215 -0.5262
 5351SOL    HW227687   4.572   4.721   6.265  1.0943  0.9363 -0.3186
 5352SOL     OW27688   2.962   0.662  12.917  0.2504  0.7683  0.3996
 5352SOL    HW127689   3.002   0.748  12.904  0.6313  0.6041  0.4757
 5352SOL    HW227690   3.016   0.640  12.993 -2.6742 -2.9137  1.4224
 5353SOL     OW27691   4.467   0.817   5.959 -0.3253  0.3045  0.2424
 5353SOL    HW127692   4.422   0.784   6.036 -0.9320  0.8469  0.1176
 5353SOL    HW227693   4.526   0.882   5.998  1.0253  0.3943 -1.9794
 5354SOL     OW27694   1.567   4.722   8.039 -0.2372  0.1801  0.3774
 5354SOL    HW127695   1.548   4.631   8.062 -0.0126 -0.7276 -3.0894
 5354SOL    HW227696   1.486   0.035   8.050 -0.9363 -0.9952  0.6254
 5355SOL     OW27697   2.520   2.707   2.047 -0.5655  0.1235 -0.2136
 5355SOL    HW127698   2.507   2.751   1.963 -1.8235  1.2312  0.5567
 5355SOL    HW227699   2.450   2.642   2.045  0.2562 -0.6977 -2.1914
 5356SOL     OW27700   4.293   3.172   9.504  0.0611 -0.0693 -0.2295
 5356SOL    HW127701   4.357   3.235   9.471 -0.1481 -0.6564 -1.7338
 5356SOL    HW227702   4.318   3.179   9.596 -0.2739  1.3559 -0.2373
 5357SOL     OW27703   0.493   3.819  11.693  0.5860  0.1061  0.1631
 5357SOL    HW127704   0.414   3.865  11.665  1.5810  1.4132 -0.4577
 5357SOL    HW227705   0.547   3.814  11.614  0.9603  1.3445  0.3367
 5358SOL     OW27706   1.645   1.533   5.818 -0.5808  0.0581  0.0854
 5358SOL    HW127707   1.671   1.442   5.829  0.1204  0.1525 -0.8549
 5358SOL    HW227708   1.649   1.547   5.724 -0.7082  2.2504  0.3989
 5359SOL     OW27709   2.115   4.319   8.530 -0.3104 -0.2383 -0.6908
 5359SOL    HW127710   2.050   4.298   8.462 -1.7597 -1.2200  1.0077
 5359SOL    HW227711   2.171   4.242   8.519  0.7846  0.3708  0.7458
 5360SOL     OW27712   3.388   2.599   9.703  0.3057 -0.0943 -0.0708
 5360SOL    HW127713   3.474   2.591   9.743  1.1807  1.2205 -1.6809
 5360SOL    HW227714   3.385   2.690   9.673 -2.3681 -0.4920 -1.0304
 5361SOL     OW27715   3.386   1.019   4.613 -0.3897 -0.1920 -0.0415
 5361SOL    HW127716   3.435   0.944   4.648 -0.1027 -0.2616 -0.5949
 5361SOL    HW227717   3.341   1.041   4.695 -2.1409 -3.0588 -0.2340
 5362SOL     OW27718   0.028   2.213   6.464  0.2767  0.3813  0.5983
 5362SOL    HW127719   0.031   2.178   6.553  2.0272  0.2492  0.4902
 5362SOL    HW227720   4.676   2.195   6.434  0.7040  1.9228 -1.6362
 5363SOL     OW27721   2.289   4.184  16.241 -0.2126 -0.0206  0.0564
 5363SOL    HW127722   2.284   4.239  16.319  0.2748  0.7878 -0.4870
 5363SOL    HW227723   2.366   4.226  16.203 -0.1234 -0.7630 -0.5804
 5364SOL     OW27724   2.335   4.694  12.235  0.4736  0.0056 -0.3496
 5364SOL    HW127725   2.333   0.011  12.156  1.1944  0.2905 -0.1724
 5364SOL    HW227726   2.334   4.602  12.210 -1.1816  0.0402 -0.3978
 5365SOL     OW27727   2.527   4.241   2.897 -0.2773 -0.1264  0.1482
 5365SOL    HW127728   2.521   4.162   2.842  0.0562 -0.9765  1.3228
 5365SOL    HW227729   2.534   4.310   2.832 -2.6778 -1.4157 -1.5246
 5366SOL     OW27730   1.822   0.791   7.020 -0.0617  0.1097 -0.1405
 5366SOL    HW127731   1.753   0.765   6.960 -0.7880  0.4980  0.5310
 5366SOL    HW227732   1.841   0.709   7.066 -0.4711 -0.1559 -0.4518
 5367SOL     OW27733   1.272   4.049   2.746 -0.5286 -0.2715  0.3844
 5367SOL    HW127734   1.324   4.121   2.711 -0.4314 -0.6500 -0.2581
 5367SOL    HW227735   1.187   4.093   2.749  0.2380  1.0785  2.0683
 5368SOL     OW27736   1.205   0.549   3.067  0.0725 -0.2425  0.5433
 5368SOL    HW127737   1.184   0.553   2.974  1.1275 -1.4986  0.2612
 5368SOL    HW227738   1.115   0.542   3.101 -0.7015 -0.2081 -1.5397
 5369SOL     OW27739   4.003   4.591   5.456 -0.1330  0.1142  0.1782
 5369SOL    HW127740   4.032   4.524   5.518  1.0005  1.9378  1.6214
 5369SOL    HW227741   3.947   4.658   5.496  0.7025  0.2793  1.0694
 5370SOL     OW27742   0.258   0.840   5.947 -0.4044  0.4270  0.2150
 5370SOL    HW127743   0.311   0.777   5.897 -2.4235 -0.4879 -0.7846
 5370SOL    HW227744   0.324   0.871   6.008 -2.2385 -0.3861  2.5762
 5371SOL     OW27745   0.074   1.079  14.262 -0.3063  0.6826  0.1802
 5371SOL    HW127746   0.011   1.025  14.309  2.3761 -1.5079  1.2918
 5371SOL    HW227747   0.026   1.123  14.192  2.2808  0.8535 -1.5269
 5372SOL     OW27748   0.142   0.154   7.531 -0.5113 -0.2686  0.3101
 5372SOL    HW127749   0.106   0.227   7.581  1.0298 -0.2634  1.3991
 5372SOL    HW227750   0.180   0.201   7.457 -0.1051  0.7781  1.1858
 5373SOL     OW27751   0.544   3.085  10.319  0.1467 -0.0067  0.0341
 5373SOL    HW127752   0.633   3.112  10.342 -0.3333  0.7191  1.0421
 5373SOL    HW227753   0.501   3.085  10.404  0.9878  0.2720  0.4630
 5374SOL     OW27754   4.534   3.355   4.782  0.2066  0.5290  0.0418
 5374SOL    HW127755   4.454   3.339   4.733 -0.5303  0.7577  1.1682
 5374SOL    HW227756   4.542   3.451   4.780  0.9020  0.4355 -2.1562
 5375SOL     OW27757   1.267   0.235   4.688  0.2384  0.1372 -0.0957
 5375SOL    HW127758   1.176   0.227   4.660  0.2133  1.0458 -0.2898
 5375SOL    HW227759   1.245   0.245   4.781 -1.2899 -2.9015 -0.1373
 5376SOL     OW27760   2.735   1.311  17.300  0.0914 -0.1966  0.4561
 5376SOL    HW127761   2.706   1.347  17.216 -0.4096  0.7560  1.0390
 5376SOL    HW227762   2.760   1.391  17.346 -1.0264  1.7084 -2.2724
 5377SOL     OW27763   1.042   1.242   0.090 -0.0546  0.3767 -0.1612
 5377SOL    HW127764   1.085   1.197   0.017  1.2968  0.9131  0.2965
 5377SOL    HW227765   0.980   1.174   0.115 -2.3549  2.5755  0.1743
 5378SOL     OW27766   3.255   0.692   4.935 -0.2943  0.1405 -0.8664
 5378SOL    HW127767   3.219   0.745   4.864  1.3264  1.8342 -0.4251
 5378SOL    HW227768   3.340   0.661   4.905 -0.1912 -1.1351  0.7262
 5379SOL     OW27769   2.118   4.493  16.848  0.0083 -0.0083  0.4795
 5379SOL    HW127770   2.143   4.401  16.841 -3.1240 -0.8564  0.4580
 5379SOL    HW227771   2.199   4.535  16.819 -0.0519 -0.1277  0.1376
 5380SOL     OW27772   3.788   2.534   3.215  0.1101  0.0391  0.2701
 5380SOL    HW127773   3.771   2.446   3.250 -0.0674  0.3521  0.9666
 5380SOL    HW227774   3.796   2.587   3.294  0.0749  2.3607 -1.2748
 5381SOL     OW27775   3.896   4.030   4.963  0.1141  0.3654 -0.0387
 5381SOL    HW127776   3.944   4.059   5.041  1.0900 -0.8989 -0.1756
 5381SOL    HW227777   3.949   4.070   4.894 -0.0218 -1.2140 -1.0254
 5382SOL     OW27778   2.821   1.139  14.854  0.3473  0.3165 -0.2940
 5382SOL    HW127779   2.895   1.106  14.905  0.4624  2.4960  0.9504
 5382SOL    HW227780   2.847   1.231  14.847  0.3234  0.3881  0.5387
 5383SOL     OW27781   1.865   3.417   8.784  0.3532 -0.2880 -0.1309
 5383SOL    HW127782   1.887   3.485   8.849 -1.7916  0.2207  0.0432
 5383SOL    HW227783   1.936   3.428   8.721  1.0293  2.5565  1.1130
 5384SOL     OW27784   2.935   3.925   3.346  0.5420  0.2083  0.5745
 5384SOL    HW127785   2.862   3.980   3.374  1.1272  1.6053 -0.6654
 5384SOL    HW227786   2.987   3.937   3.426 -0.2411 -0.7377  1.2254
 5385SOL     OW27787   1.873   2.454   3.021  0.4289 -0.4257  0.2146
 5385SOL    HW127788   1.929   2.400   3.077  0.6294  0.3580  0.7660
 5385SOL    HW227789   1.929   2.466   2.945 -0.2996 -1.3322 -0.4667
 5386SOL     OW27790   1.932   0.984   2.305 -0.2412 -1.2333 -0.8402
 5386SOL    HW127791   1.954   0.900   2.265  1.2685 -0.9800 -0.5242
 5386SOL    HW227792   1.902   1.036   2.231 -0.9183 -2.8122 -1.6804
 5387SOL     OW27793   2.743   4.205  11.389 -0.7658 -0.2625  0.1464
 5387SOL    HW127794   2.797   4.274  11.351  2.0609 -2.7835 -0.3952
 5387SOL    HW227795   2.782   4.196  11.476 -1.8072 -0.0338  0.6376
 5388SOL     OW27796   3.115   2.583   4.264 -0.1853  0.3517 -0.0210
 5388SOL    HW127797   3.166   2.526   4.321 -1.0245  0.3470  0.7287
 5388SOL    HW227798   3.034   2.541   4.236 -0.9090  2.9564 -1.8761
 5389SOL     OW27799   1.169   3.438   7.686 -0.8870  0.0638  0.7350
 5389SOL    HW127800   1.206   3.375   7.748  1.5757  0.7098 -0.0790
 5389SOL    HW227801   1.175   3.522   7.732 -0.5126  0.4405  0.0057
 5390SOL     OW27802   2.888   0.107   6.987  0.0561  0.2454 -0.1249
 5390SOL    HW127803   2.982   0.095   6.998  0.3217  2.4792  0.0775
 5390SOL    HW227804   2.857   0.045   7.054  0.1940 -0.4207 -0.6788
 5391SOL     OW27805   2.544   0.553   1.525 -0.1268 -0.6656  0.5944
 5391SOL    HW127806   2.524   0.510   1.441  0.3318 -1.1483  0.7345
 5391SOL    HW227807   2.565   0.641   1.495  0.9414 -1.2896 -0.4646
 5392SOL     OW27808   2.938   0.297   6.084  0.1525 -0.4289  0.2548
 5392SOL    HW127809   3.005   0.229   6.092 -1.3079 -1.8240  0.7552
 5392SOL    HW227810   2.946   0.329   5.994 -1.4505  0.5617  0.4526
 5393SOL     OW27811   2.383   1.859   4.849  0.1201 -0.2318  0.2879
 5393SOL    HW127812   2.336   1.782   4.817  0.9274 -0.7593  0.3721
 5393SOL    HW227813   2.408   1.891   4.762 -0.0022  0.9912  0.7046
 5394SOL     OW27814   0.262   3.587   2.125  0.1105 -0.4270 -0.0576
 5394SOL    HW127815   0.331   3.595   2.060 -1.1167  1.4293 -1.1478
 5394SOL    HW227816   0.194   3.636   2.079  0.5497 -0.7740 -1.0611
 5395SOL     OW27817   4.378   2.982   6.104 -0.1644 -0.2341 -0.3457
 5395SOL    HW127818   4.473   2.973   6.104 -0.1680 -0.2044  0.5087
 5395SOL    HW227819   4.362   3.031   6.023 -1.0052  2.9009  1.7237
 5396SOL     OW27820   1.032   0.263   2.413  0.5361  0.3553  0.3447
 5396SOL    HW127821   1.025   0.232   2.323  1.1373 -1.6940  1.0116
 5396SOL    HW227822   0.944   0.300   2.421 -0.6607 -2.1614 -1.3534
 5397SOL     OW27823   3.625   2.705   6.142  0.1752 -0.1882 -0.4433
 5397SOL    HW127824   3.619   2.648   6.219  0.1462  0.9140  0.3621
 5397SOL    HW227825   3.676   2.772   6.187 -0.4798  1.1483 -1.7005
 5398SOL     OW27826   0.133   4.058  12.234 -0.1359  0.0289  0.2168
 5398SOL    HW127827   0.049   4.103  12.225  0.3177  0.6736 -0.7901
 5398SOL    HW227828   0.157   4.039  12.143 -0.2953  1.5528 -0.1322
 5399SOL     OW27829   2.184   4.713   6.405 -0.5343  0.0327  0.0241
 5399SOL    HW127830   2.162   4.621   6.392 -0.2177 -0.0262 -0.0905
 5399SOL    HW227831   2.105   0.017   6.372 -0.2799 -0.0984 -0.7404
 5400SOL     OW27832   4.118   2.994   9.288 -0.3689  0.2216  0.1290
 5400SOL    HW127833   4.168   3.005   9.368  0.5441  1.0723 -0.5530
 5400SOL    HW227834   4.067   2.915   9.307 -1.4966  0.5536 -1.4941
 5401SOL     OW27835   4.445   1.737  14.062  0.3005 -0.0246  0.2257
 5401SOL    HW127836   4.524   1.761  14.111  0.6566  2.5671 -1.5769
 5401SOL    HW227837   4.465   1.652  14.023 -0.2952 -0.1596  0.2219
 5402SOL     OW27838   2.241   1.039   8.653  0.2231 -0.0956 -0.3212
 5402SOL    HW127839   2.286   1.066   8.573  2.0425  0.9505  1.0642
 5402SOL    HW227840   2.241   1.113   8.714  1.0847 -1.3862  1.2377
 5403SOL     OW27841   3.555   4.669   9.593 -0.6570 -0.1785 -0.0057
 5403SOL    HW127842   3.460   4.670   9.595 -0.6535 -0.4215  0.2537
 5403SOL    HW227843   3.572   4.627   9.509 -0.2295 -0.1852  0.0834
 5404SOL     OW27844   3.635   0.417  10.149 -0.3198  0.9086 -0.2823
 5404SOL    HW127845   3.604   0.449  10.234  0.4705  0.3823  0.2035
 5404SOL    HW227846   3.563   0.434  10.088  1.7629  3.9023 -1.8878
 5405SOL     OW27847   1.184   3.288  17.212  0.1702 -0.3884  0.7776
 5405SOL    HW127848   1.103   3.304  17.163 -0.5850 -0.9591  1.8499
 5405SOL    HW227849   1.247   3.303  17.142  1.9533 -0.8965  2.2933
 5406SOL     OW27850   2.382   2.657   3.848  0.2418 -0.2948  0.3601
 5406SOL    HW127851   2.317   2.657   3.778  1.0863  0.5670 -0.4185
 5406SOL    HW227852   2.336   2.669   3.931 -0.0877 -0.2407  0.1692
 5407SOL     OW27853   4.701   4.633   1.908  0.1946  0.0251 -0.6866
 5407SOL    HW127854   4.615   4.625   1.951 -0.0565 -0.9284 -1.3726
 5407SOL    HW227855   4.689   4.716   1.862 -0.4280  1.2224  1.5995
 5408SOL     OW27856   3.091   2.104   6.559 -0.2547 -0.1811  0.0023
 5408SOL    HW127857   3.035   2.072   6.629 -1.5771  1.2685 -0.4092
 5408SOL    HW227858   3.169   2.140   6.602 -0.9210 -0.5766  1.5248
 5409SOL     OW27859   4.051   4.312  15.413 -0.0389 -0.6865  0.0154
 5409SOL    HW127860   4.141   4.285  15.430 -0.0913 -0.8238  0.0843
 5409SOL    HW227861   4.012   4.226  15.393 -0.3062 -0.8167  1.0702
 5410SOL     OW27862   0.084   0.169   1.217 -0.1449  0.0055 -0.3294
 5410SOL    HW127863   0.075   0.090   1.164  0.1821 -0.4426  0.2982
 5410SOL    HW227864   0.011   0.220   1.182  0.1946  1.5980  1.2762
 5411SOL     OW27865   0.798   2.677   3.797  0.3127  0.2375 -0.1806
 5411SOL    HW127866   0.806   2.763   3.838  1.9382  0.5036 -1.0905
 5411SOL    HW227867   0.710   2.649   3.823  2.3324 -5.1090  0.9328
 5412SOL     OW27868   1.307   0.588  17.122  0.4227 -0.3005  0.1820
 5412SOL    HW127869   1.261   0.578  17.206  1.9630  2.2066  1.3172
 5412SOL    HW227870   1.266   0.519  17.070 -0.3175 -0.6382  1.2006
 5413SOL     OW27871   1.694   2.432  16.352 -0.2578 -0.3361 -0.0001
 5413SOL    HW127872   1.742   2.492  16.409  0.5623  0.0633 -1.0954
 5413SOL    HW227873   1.760   2.405  16.289  2.4131 -2.5632  3.7492
 5414SOL     OW27874   0.096   4.710  14.009 -0.5345 -0.5473  0.3761
 5414SOL    HW127875   0.031   0.042  14.018 -0.6085 -0.7279  1.2415
 5414SOL    HW227876   0.159   0.017  13.953 -1.5787 -0.6765 -0.9233
 5415SOL     OW27877   0.145   3.124   6.096 -0.6013 -0.3283  0.2195
 5415SOL    HW127878   0.192   3.174   6.162 -1.9763  0.8018  0.3338
 5415SOL    HW227879   0.216   3.123   6.033  2.4288 -0.6481  3.6546
 5416SOL     OW27880   2.108   1.627  13.147 -0.0040 -0.1720  0.4685
 5416SOL    HW127881   2.197   1.653  13.168  1.1332 -1.7128 -2.5175
 5416SOL    HW227882   2.125   1.543  13.103  1.1005 -0.2979  1.1573
 5417SOL     OW27883   0.520   3.003   7.461  0.2387 -0.5744 -0.3297
 5417SOL    HW127884   0.607   3.037   7.481 -0.2148  1.9038 -2.5515
 5417SOL    HW227885   0.484   3.067   7.401 -2.4849 -0.0272  1.8686
 5418SOL     OW27886   4.730   0.189   5.522 -0.4166  0.3056  0.0736
 5418SOL    HW127887   0.063   0.247   5.493 -1.3369  1.6403  0.4879
 5418SOL    HW227888   4.671   0.254   5.560 -0.9375  0.4262 -0.9648
 5419SOL     OW27889   1.153   0.758   2.156 -0.0499 -0.0734  1.3429
 5419SOL    HW127890   1.123   0.843   2.190  0.1699  1.3198 -1.9879
 5419SOL    HW227891   1.151   0.706   2.236 -0.7002 -0.3754  1.1320
 5420SOL     OW27892   0.422   2.382   1.436 -0.0816  0.1449  0.0253
 5420SOL    HW127893   0.402   2.297   1.475  1.2788  0.2283  0.8846
 5420SOL    HW227894   0.443   2.448   1.502  1.1029  0.3601 -0.5631
 5421SOL     OW27895   3.339   0.732   2.879  0.9346 -0.0856  0.2280
 5421SOL    HW127896   3.257   0.713   2.835  1.7132  0.9073 -1.6484
 5421SOL    HW227897   3.359   0.639   2.891  0.0491 -0.3082 -0.0791
 5422SOL     OW27898   0.878   3.259   1.295 -0.2592 -0.3573  1.0358
 5422SOL    HW127899   0.857   3.168   1.277 -0.3088 -0.1135 -0.1331
 5422SOL    HW227900   0.970   3.256   1.323 -0.2607  0.2948  1.1123
 5423SOL     OW27901   1.866   3.921   7.466 -0.4092 -0.0121  0.0514
 5423SOL    HW127902   1.818   3.987   7.417 -0.0299 -0.2038 -0.5851
 5423SOL    HW227903   1.892   3.867   7.391 -3.9398 -1.3221 -0.2308
 5424SOL     OW27904   4.489   3.728  11.122  0.0111 -0.1095 -0.0465
 5424SOL    HW127905   4.476   3.661  11.054  2.9507  0.9210 -1.6161
 5424SOL    HW227906   4.531   3.684  11.196  0.3871  0.0622 -0.1593
 5425SOL     OW27907   0.069   1.081   0.234  0.5313 -0.0441  0.2178
 5425SOL    HW127908   0.073   1.111   0.143 -0.1643  0.3413  0.3136
 5425SOL    HW227909   0.027   1.151   0.285  0.4736 -0.3353  0.5676
 5426SOL     OW27910   3.714   1.514   4.983 -0.4029 -0.7470  0.4034
 5426SOL    HW127911   3.768   1.479   4.912 -0.0585  0.9244 -0.1632
 5426SOL    HW227912   3.632   1.504   4.933  0.3136  0.7150 -1.0914
 5427SOL     OW27913   3.782   3.485   8.917  0.1490 -0.4476 -0.2562
 5427SOL    HW127914   3.826   3.437   8.988 -2.5806 -2.6614 -0.0669
 5427SOL    HW227915   3.732   3.417   8.871  1.3429 -1.3837 -0.1833
 5428SOL     OW27916   2.542   4.405   6.782  0.1170 -0.5354  0.2578
 5428SOL    HW127917   2.562   4.324   6.830  1.1750 -0.7217 -0.4712
 5428SOL    HW227918   2.600   4.474   6.815  0.0258 -0.6303  0.6123
 5429SOL     OW27919   2.747   2.004   4.809  0.4079  0.3815  0.6819
 5429SOL    HW127920   2.708   2.065   4.746 -0.1662 -0.6507  0.0281
 5429SOL    HW227921   2.678   1.993   4.874 -1.0770 -1.1498 -1.1348
 5430SOL     OW27922   0.032   1.039   0.631 -0.1968  0.4780  0.4232
 5430SOL    HW127923   0.065   1.107   0.572  0.8002 -1.7148 -1.5198
 5430SOL    HW227924   0.094   0.967   0.618 -3.7837 -2.3384 -1.0418
 5431SOL     OW27925   1.779   4.202   5.634 -0.0993 -0.0013  0.4628
 5431SOL    HW127926   1.778   4.120   5.585  0.9960  0.7860 -0.8496
 5431SOL    HW227927   1.825   4.258   5.571  5.0026 -1.6440  2.7350
 5432SOL     OW27928   0.537   2.034  14.934 -0.2995  0.7571  0.1412
 5432SOL    HW127929   0.567   2.105  14.991  1.2212  0.8738 -0.8252
 5432SOL    HW227930   0.513   1.963  14.994 -0.8379  1.4140  0.7025
 5433SOL     OW27931   4.314   3.183   3.062  0.1137 -0.4138 -0.1131
 5433SOL    HW127932   4.335   3.276   3.070 -0.7198 -0.3841  1.7333
 5433SOL    HW227933   4.219   3.193   3.065  0.1919  0.0127  1.0828
 5434SOL     OW27934   4.330   2.784   1.602 -0.8392 -0.1877  0.2512
 5434SOL    HW127935   4.397   2.741   1.549 -0.6449 -1.0801  1.2344
 5434SOL    HW227936   4.383   2.828   1.668  1.1702 -2.4577  0.1233
 5435SOL     OW27937   2.516   4.336   7.727  0.0932  0.0467  0.5909
 5435SOL    HW127938   2.454   4.283   7.677  2.5436 -0.2021 -2.2030
 5435SOL    HW227939   2.519   4.292   7.813  1.4154 -0.4126  0.3188
 5436SOL     OW27940   2.883   3.768   4.494  0.3823  0.2383  0.2111
 5436SOL    HW127941   2.810   3.733   4.443 -1.4811 -0.1791  3.1802
 5436SOL    HW227942   2.953   3.720   4.448  2.9809  4.1193  0.1228
 5437SOL     OW27943   1.879   3.257   7.500 -0.1690  0.1278  0.2109
 5437SOL    HW127944   1.944   3.307   7.451 -1.6169  2.0648  0.2733
 5437SOL    HW227945   1.811   3.322   7.518  1.3625  2.0577 -0.8453
 5438SOL     OW27946   1.004   0.152  10.255 -0.1436 -0.7088 -0.5878
 5438SOL    HW127947   0.914   0.120  10.263  0.0532 -0.8861  0.8868
 5438SOL    HW227948   1.057   0.073  10.261  0.5128 -0.2351 -0.2164
 5439SOL     OW27949   0.338   0.506   5.545  0.8915  0.3794  0.0572
 5439SOL    HW127950   0.282   0.452   5.489  0.9640 -1.2605  1.5503
 5439SOL    HW227951   0.290   0.516   5.627 -0.8363  0.1790 -0.9209
 5440SOL     OW27952   3.743   3.185  17.009  0.5743  0.0390  0.7571
 5440SOL    HW127953   3.710   3.269  16.977  0.1142 -0.7684 -0.8709
 5440SOL    HW227954   3.739   3.143  16.923 -2.9447  1.9005 -0.0208
 5441SOL     OW27955   4.349   1.114   5.245  0.5493  0.1879  0.1550
 5441SOL    HW127956   4.428   1.136   5.294  1.8012 -1.1879 -1.2609
 5441SOL    HW227957   4.274   1.122   5.304  0.1165  0.1703 -0.3882
 5442SOL     OW27958   4.353   4.501   5.900 -0.0190  0.3582  0.1923
 5442SOL    HW127959   4.266   4.466   5.920  0.6795 -1.2979  0.3528
 5442SOL    HW227960   4.402   4.459   5.970  2.7693 -0.9473 -2.5368
 5443SOL     OW27961   3.680   0.412   4.039  0.0268 -0.4269 -0.0541
 5443SOL    HW127962   3.628   0.486   4.005  1.9784 -0.0838 -2.2693
 5443SOL    HW227963   3.714   0.385   3.953 -0.2173 -0.1295 -0.2460
 5444SOL     OW27964   0.997   2.082  17.691 -0.3924  0.1944  0.2712
 5444SOL    HW127965   0.973   2.116  17.605  0.1463  0.7209  0.3237
 5444SOL    HW227966   1.086   2.048  17.680 -0.2741  0.7655 -0.5628
 5445SOL     OW27967   0.748   4.381   4.353 -0.2869  0.2374 -0.3268
 5445SOL    HW127968   0.670   4.349   4.399  0.3972  1.1453  1.4604
 5445SOL    HW227969   0.724   4.474   4.358 -0.7105  0.0015  1.8833
 5446SOL     OW27970   1.617   4.215  16.043  0.0800  0.3085  0.1774
 5446SOL    HW127971   1.541   4.255  16.001 -0.2993 -4.3977 -3.5437
 5446SOL    HW227972   1.602   4.237  16.135  3.5032 -0.9826  1.0770
 5447SOL     OW27973   1.992   0.969  10.329  0.2181 -0.1930 -0.1517
 5447SOL    HW127974   2.048   0.994  10.255  3.4687  1.5150  2.8737
 5447SOL    HW227975   2.063   0.914  10.365 -0.8011 -0.4198  1.5356
 5448SOL     OW27976   0.452   2.043   3.592 -0.4179 -0.1574 -0.9434
 5448SOL    HW127977   0.483   2.029   3.503 -1.1426  1.3725 -1.4416
 5448SOL    HW227978   0.479   2.135   3.597  1.5900 -0.7847 -0.5818
 5449SOL     OW27979   1.699   2.943   2.333  0.0900 -0.4196  0.1253
 5449SOL    HW127980   1.791   2.951   2.361 -0.0991 -0.3068  0.7054
 5449SOL    HW227981   1.683   2.857   2.372 -0.9675  0.1623  0.9751
 5450SOL     OW27982   1.069   0.043   2.901  0.1885 -0.1224 -0.3285
 5450SOL    HW127983   1.076   0.048   2.996  0.3092 -0.5117 -0.3144
 5450SOL    HW227984   1.098   0.133   2.888  2.0172 -0.5362  0.8777
 5451SOL     OW27985   1.136   2.745   2.001 -0.6690 -0.0746  0.5991
 5451SOL    HW127986   1.083   2.767   2.078 -1.2476  1.4256 -0.2237
 5451SOL    HW227987   1.058   2.721   1.951  0.6549 -0.6162 -1.1899
 5452SOL     OW27988   2.204   1.426   4.894  0.6671  0.0398  0.1365
 5452SOL    HW127989   2.261   1.466   4.961  3.2474 -1.3180 -1.2390
 5452SOL    HW227990   2.194   1.339   4.933 -1.1253  0.8099  1.3841
 5453SOL     OW27991   0.113   2.861   6.590 -0.2889  0.3068 -0.4862
 5453SOL    HW127992   0.197   2.823   6.613  0.8346  3.2994  0.3610
 5453SOL    HW227993   0.096   2.918   6.664  0.2334  1.8311 -1.5360
 5454SOL     OW27994   1.325   2.646  14.738  0.0336 -0.0529  0.5045
 5454SOL    HW127995   1.348   2.709  14.806  1.9220  0.0983 -0.2662
 5454SOL    HW227996   1.376   2.567  14.757  1.5786  0.7703 -0.2654
 5455SOL     OW27997   3.333   0.302   7.706  0.1451 -0.0192  0.6078
 5455SOL    HW127998   3.252   0.254   7.688 -0.8550  1.9928 -0.1725
 5455SOL    HW227999   3.365   0.273   7.792  0.1978  0.4612  0.7482
 5456SOL     OW28000   1.319   3.479   5.947 -0.6982 -0.4889  0.0530
 5456SOL    HW128001   1.240   3.498   5.896 -1.0821  1.1497  1.2377
 5456SOL    HW228002   1.314   3.384   5.944  3.3358 -0.6009 -1.6393
 5457SOL     OW28003   3.045   1.342   7.358  0.0261  0.1131  0.0307
 5457SOL    HW128004   3.140   1.332   7.364  0.1217  1.0090  0.0173
 5457SOL    HW228005   3.024   1.263   7.308 -1.1034  0.3982  0.0546
 5458SOL     OW28006   1.301   2.141  16.149 -0.2086  0.0390 -0.3622
 5458SOL    HW128007   1.221   2.108  16.107  0.2795 -0.8315 -0.5881
 5458SOL    HW228008   1.272   2.228  16.178  0.4802  0.1158  0.0884
 5459SOL     OW28009   2.801   2.254   3.218  0.0786 -0.5883 -0.7248
 5459SOL    HW128010   2.774   2.328   3.272 -0.3204 -0.4296 -1.1393
 5459SOL    HW228011   2.896   2.258   3.225 -0.0461  1.0014  0.0369
 5460SOL     OW28012   2.263   0.398  16.838 -0.8057  0.2030  0.4770
 5460SOL    HW128013   2.237   0.325  16.895  0.6625 -0.0507  0.8069
 5460SOL    HW228014   2.324   0.450  16.889 -1.4285 -1.2631  2.7384
 5461SOL     OW28015   1.297   0.076   4.464 -0.4267  0.3213 -0.1146
 5461SOL    HW128016   1.229   0.102   4.403  0.1057  0.3103 -0.7146
 5461SOL    HW228017   1.294   0.148   4.527 -0.3433  0.1616  0.0724
 5462SOL     OW28018   1.901   3.182   8.341  0.4564  0.0819 -0.1050
 5462SOL    HW128019   1.851   3.102   8.329  1.4690 -0.2413 -2.2026
 5462SOL    HW228020   1.885   3.190   8.435 -0.1569 -1.6195 -0.0778
 5463SOL     OW28021   3.443   3.888  15.701  0.5965  0.4340  0.4245
 5463SOL    HW128022   3.405   3.834  15.632 -3.3989  0.9317  2.2424
 5463SOL    HW228023   3.417   3.833  15.775  0.3258  0.0924  0.0743
 5464SOL     OW28024   1.062   0.879   5.416  0.3089 -0.1259  0.1104
 5464SOL    HW128025   1.018   0.800   5.387 -1.8177  1.6232 -1.3825
 5464SOL    HW228026   0.991   0.934   5.450 -0.5577 -2.0353  1.3663
 5465SOL     OW28027   0.069   1.672  13.895  1.0729  0.7061 -0.0719
 5465SOL    HW128028   4.711   1.664  13.902  1.2064 -0.8633 -0.0011
 5465SOL    HW228029   0.080   1.696  13.803 -0.1058 -0.9508 -0.6517
 5466SOL     OW28030   1.324   1.655   0.120 -0.4532  0.0770  0.7636
 5466SOL    HW128031   1.298   1.662   0.028  0.6618 -1.0298  0.3791
 5466SOL    HW228032   1.314   1.561   0.132 -1.1713  0.0885  0.2562
 5467SOL     OW28033   4.474   1.295   1.120 -0.6595  0.4885  0.3883
 5467SOL    HW128034   4.550   1.259   1.167  0.7961 -0.5756 -2.7830
 5467SOL    HW228035   4.423   1.325   1.196 -1.3148 -0.3819  0.2924
 5468SOL     OW28036   0.878   1.535   9.730 -0.5015  0.1930 -0.0904
 5468SOL    HW128037   0.904   1.515   9.820  0.2781  2.4024  0.1712
 5468SOL    HW228038   0.785   1.517   9.746 -0.4239 -0.3996 -0.2999
 5469SOL     OW28039   2.530   0.830  17.205  0.7786  0.3109 -0.2525
 5469SOL    HW128040   2.580   0.875  17.273  1.4630 -1.0604  0.1705
 5469SOL    HW228041   2.578   0.866  17.131  0.4849  1.0384 -0.0848
 5470SOL     OW28042   2.828   4.701   2.829 -0.2238 -0.1488  0.3862
 5470SOL    HW128043   2.884   4.728   2.757 -0.6047 -2.5047 -0.8227
 5470SOL    HW228044   2.868   0.010   2.902  1.1482 -0.1115 -0.3910
 5471SOL     OW28045   0.138   4.560   1.180  0.4454 -0.2281 -0.2607
 5471SOL    HW128046   0.219   4.509   1.183  1.1811  0.9158 -0.5205
 5471SOL    HW228047   0.098   4.520   1.103  0.8557 -2.4456  0.6620
 5472SOL     OW28048   0.306   1.369  14.211 -0.6637  0.6152  0.0340
 5472SOL    HW128049   0.316   1.281  14.175  1.2281  0.7395  0.2565
 5472SOL    HW228050   0.400   1.386  14.217 -0.4380 -0.1966 -1.3597
 5473SOL     OW28051   1.198   2.938   9.596 -0.1874 -0.1744  0.2678
 5473SOL    HW128052   1.155   2.937   9.510  0.9790  0.4108 -0.3197
 5473SOL    HW228053   1.290   2.938   9.570 -0.2283  0.8157  0.1196
 5474SOL     OW28054   2.820   1.264   8.209  0.1441 -0.1499 -0.3913
 5474SOL    HW128055   2.778   1.189   8.167  1.0779 -1.2803  0.7031
 5474SOL    HW228056   2.738   1.314   8.219 -0.0633 -0.4825 -0.4502
 5475SOL     OW28057   1.534   4.680   8.990  0.3129  0.1040  0.1519
 5475SOL    HW128058   1.511   4.589   8.974  1.0255 -0.3320  1.5840
 5475SOL    HW228059   1.473   4.713   9.056 -0.1487  0.3344 -0.3934
 5476SOL     OW28060   1.482   3.066   5.156  0.4534 -0.2436  0.2174
 5476SOL    HW128061   1.431   3.137   5.117 -0.1418 -1.7735 -1.7659
 5476SOL    HW228062   1.410   3.011   5.186  0.0096 -0.1933 -0.7687
 5477SOL     OW28063   0.780   2.174   7.021  0.5480  0.3883 -0.3864
 5477SOL    HW128064   0.789   2.269   7.026  2.0185  0.3448 -2.2636
 5477SOL    HW228065   0.770   2.150   7.113 -0.9041  2.2273 -0.0885
 5478SOL     OW28066   2.379   1.406   7.542  0.9132  0.6494 -0.2243
 5478SOL    HW128067   2.460   1.452   7.563 -0.0539  0.9121  2.9441
 5478SOL    HW228068   2.412   1.338   7.484  1.1657  1.7528 -1.3593
 5479SOL     OW28069   2.024   1.578   3.028 -0.4836  1.0787 -0.2893
 5479SOL    HW128070   1.999   1.528   2.950 -2.8552  1.4648  0.2152
 5479SOL    HW228071   1.974   1.658   3.017 -0.9778  0.9418  0.9247
 5480SOL     OW28072   2.572   3.547   5.093 -0.2952  0.1162 -0.4715
 5480SOL    HW128073   2.652   3.527   5.044  0.1487  1.9194 -0.4838
 5480SOL    HW228074   2.506   3.566   5.026 -0.2647 -1.3156 -0.8981
 5481SOL     OW28075   2.221   2.888   8.899  0.0448 -0.1777 -0.5978
 5481SOL    HW128076   2.136   2.933   8.895  0.7316  1.1971  0.4293
 5481SOL    HW228077   2.289   2.945   8.936  0.1151  0.5899 -1.8975
 5482SOL     OW28078   0.203   3.226  14.943  0.5299 -0.0042 -0.2989
 5482SOL    HW128079   0.180   3.133  14.941  0.7250 -0.0123 -2.1476
 5482SOL    HW228080   0.199   3.237  15.038  1.3301 -0.2725 -0.2361
 5483SOL     OW28081   3.783   2.268   6.880 -0.1139 -0.6949 -0.5501
 5483SOL    HW128082   3.821   2.273   6.792  1.2054  0.0910  0.0731
 5483SOL    HW228083   3.805   2.358   6.903  0.0920 -1.2023  1.2381
 5484SOL     OW28084   4.651   0.717   6.907 -0.1043 -0.4346 -0.2115
 5484SOL    HW128085   4.670   0.716   6.813 -1.0621 -1.0167 -0.4017
 5484SOL    HW228086   4.557   0.699   6.905 -0.6990  2.5241  1.2429
 5485SOL     OW28087   2.825   2.911   8.085  0.1672  0.4068 -0.0396
 5485SOL    HW128088   2.810   2.821   8.116 -0.8363  0.1892 -1.1688
 5485SOL    HW228089   2.808   2.948   8.172  0.1339  1.5563 -0.5467
 5486SOL     OW28090   2.348   0.397  14.480 -0.3390  0.0763 -0.3349
 5486SOL    HW128091   2.326   0.314  14.437  1.2519 -0.1079 -0.7996
 5486SOL    HW228092   2.263   0.439  14.494  0.2004  0.7529  0.9245
 5487SOL     OW28093   2.374   3.503   9.620 -0.3134  0.5290  0.0672
 5487SOL    HW128094   2.380   3.597   9.604  4.1930 -0.2904 -3.0281
 5487SOL    HW228095   2.402   3.493   9.711  0.1270  0.1857 -0.1057
 5488SOL     OW28096   0.249   1.475   6.920 -0.9767  0.2428  0.1484
 5488SOL    HW128097   0.197   1.398   6.944 -0.9903 -0.1141 -1.0308
 5488SOL    HW228098   0.333   1.443   6.951 -0.9951 -0.8276 -0.9059
 5489SOL     OW28099   1.966   2.789   2.176 -0.3024 -0.4748  0.1451
 5489SOL    HW128100   1.999   2.729   2.243  0.1053  0.0618  0.4246
 5489SOL    HW228101   1.890   2.741   2.145 -1.5668  2.9983 -2.0901
 5490SOL     OW28102   2.467   3.031   3.571 -0.2657  0.7588  0.0578
 5490SOL    HW128103   2.425   2.990   3.495  0.4307  0.7063 -0.3086
 5490SOL    HW228104   2.504   2.951   3.609 -3.3603 -1.4003 -1.4764
 5491SOL     OW28105   1.317   1.536   8.550 -0.1776 -0.1086  0.0416
 5491SOL    HW128106   1.375   1.485   8.607 -1.5903 -0.8253  0.8454
 5491SOL    HW228107   1.377   1.566   8.482 -0.1149  1.3995  0.7529
 5492SOL     OW28108   3.091   3.316   8.112 -0.5953 -0.0331 -0.3412
 5492SOL    HW128109   3.145   3.240   8.090  0.1670  0.8637 -1.6074
 5492SOL    HW228110   3.050   3.329   8.026  0.8152  0.9037 -0.8716
 5493SOL     OW28111   2.618   2.691   4.269  0.0624  0.5448  0.1669
 5493SOL    HW128112   2.666   2.735   4.339  0.6082  0.1357  0.0458
 5493SOL    HW228113   2.654   2.603   4.276 -1.5879 -0.4065 -3.1059
 5494SOL     OW28114   1.991   2.821  10.940  1.1328  0.0360  0.6806
 5494SOL    HW128115   2.034   2.736  10.950  2.5831  0.7752  0.6442
 5494SOL    HW228116   1.968   2.829  11.032  3.0205  3.0618  0.8625
 5495SOL     OW28117   3.516   2.578   5.047 -0.1170 -0.0553 -0.4907
 5495SOL    HW128118   3.483   2.531   5.124  2.3585  0.1904  0.7299
 5495SOL    HW228119   3.585   2.513   5.032  0.5777  0.3779  0.8230
 5496SOL     OW28120   0.957   1.128   3.373  0.2210 -0.3858  0.1124
 5496SOL    HW128121   0.888   1.188   3.348  0.5134  0.6970  1.9328
 5496SOL    HW228122   0.975   1.151   3.464  0.9430 -1.5013  0.2658
 5497SOL     OW28123   4.648   0.537   8.089  0.2256  0.4251  0.0707
 5497SOL    HW128124   4.712   0.491   8.144 -1.2680 -0.6109  0.9806
 5497SOL    HW228125   4.638   0.619   8.137 -0.8902  0.6831 -0.5962
 5498SOL     OW28126   3.521   0.553  11.204  0.0434  0.2704  0.4148
 5498SOL    HW128127   3.581   0.481  11.184  1.5664  1.6812 -0.0725
 5498SOL    HW228128   3.566   0.587  11.281  1.1714 -1.8669  0.7020
 5499SOL     OW28129   1.237   0.818   2.967  0.6934 -0.2639 -0.3237
 5499SOL    HW128130   1.177   0.870   3.020 -2.1084 -1.9699 -1.8448
 5499SOL    HW228131   1.184   0.746   2.935 -0.5665  0.0437  1.1207
 5500SOL     OW28132   4.147   0.532   6.914 -0.2836  0.0030 -0.4865
 5500SOL    HW128133   4.138   0.448   6.868 -2.6194 -0.6372  1.1326
 5500SOL    HW228134   4.064   0.572   6.891  0.3778  0.9811 -1.1902
 5501SOL     OW28135   1.061   3.674   5.290 -0.4830 -0.4698 -0.4032
 5501SOL    HW128136   1.003   3.666   5.214 -0.2888 -0.7634 -0.5207
 5501SOL    HW228137   1.127   3.734   5.256 -1.4615  2.0680  2.1737
 5502SOL     OW28138   0.933   1.485   9.053  0.5516  0.6007  0.5982
 5502SOL    HW128139   0.926   1.579   9.069  1.6179  0.8916 -0.5981
 5502SOL    HW228140   0.846   1.475   9.015  0.7980 -0.1440  0.2319
 5503SOL     OW28141   0.641   1.152   9.070  0.2215 -0.1734  0.6388
 5503SOL    HW128142   0.570   1.096   9.102 -1.0890  1.4122  0.5220
 5503SOL    HW228143   0.718   1.101   9.096  0.9495 -0.2914 -1.7810
 5504SOL     OW28144   1.523   1.144   8.075 -0.0154  0.0707 -0.2433
 5504SOL    HW128145   1.444   1.196   8.090  0.6758  1.2431 -0.6539
 5504SOL    HW228146   1.516   1.083   8.148  0.9542  0.1565 -0.0755
 5505SOL     OW28147   4.277   0.651   2.291 -0.4344 -0.2122  0.2475
 5505SOL    HW128148   4.289   0.602   2.209  1.8962  0.1525  0.3860
 5505SOL    HW228149   4.202   0.703   2.260  0.8602 -0.0214 -2.6250
 5506SOL     OW28150   4.421   3.110  15.891  0.1270 -0.0936 -0.6665
 5506SOL    HW128151   4.345   3.085  15.838  0.9816 -0.2161 -1.8576
 5506SOL    HW228152   4.487   3.119  15.822 -0.1126 -2.5364 -1.2116
 5507SOL     OW28153   4.131   2.367   4.401 -0.1972  0.1782 -0.2507
 5507SOL    HW128154   4.133   2.305   4.328  0.6007 -1.3540  1.0688
 5507SOL    HW228155   4.215   2.409   4.385  0.2345 -0.9266 -0.9082
 5508SOL     OW28156   3.821   0.159   3.787  0.1837  0.1359 -0.1743
 5508SOL    HW128157   3.803   0.252   3.795  0.9028  0.3166 -0.7496
 5508SOL    HW228158   3.737   0.122   3.813  0.3240  1.0056  1.5189
 5509SOL     OW28159   1.210   2.594   8.267  0.4567 -0.2641 -0.1729
 5509SOL    HW128160   1.298   2.618   8.239  0.6878 -0.8817  0.0262
 5509SOL    HW228161   1.184   2.680   8.301  2.2420  0.1611  0.1111
 5510SOL     OW28162   1.862   1.429   5.990  0.1435  0.2306 -0.6542
 5510SOL    HW128163   1.957   1.416   5.988  0.0489 -0.6391  0.5541
 5510SOL    HW228164   1.824   1.343   6.008 -2.1344  1.2532 -0.6122
 5511SOL     OW28165   2.391   0.615   9.252  0.4920 -0.4909 -0.0209
 5511SOL    HW128166   2.399   0.623   9.347  1.8168 -0.1960 -0.1684
 5511SOL    HW228167   2.312   0.666   9.233  1.3610  0.8994  0.1270
 5512SOL     OW28168   1.463   2.941  14.210 -0.0607 -0.0896  0.4139
 5512SOL    HW128169   1.417   2.878  14.266  0.4274  0.0602  0.9730
 5512SOL    HW228170   1.401   3.013  14.222 -0.9853 -1.2205  2.4653
 5513SOL     OW28171   0.101   4.730  10.591  0.2556 -0.1304  0.2455
 5513SOL    HW128172   0.008   4.734  10.614 -0.1727  0.0198 -1.5684
 5513SOL    HW228173   0.148   4.683  10.661  0.6045  0.7228  0.5882
 5514SOL     OW28174   1.867   3.261  16.246  0.2826  0.2350  0.2460
 5514SOL    HW128175   1.948   3.212  16.234  1.4492  2.0998  0.3476
 5514SOL    HW228176   1.893   3.346  16.210 -0.4478  0.8301  1.1080
 5515SOL     OW28177   3.982   1.280   3.365  0.2696  0.4537 -0.0891
 5515SOL    HW128178   4.059   1.334   3.385  0.5946  0.2732 -0.8645
 5515SOL    HW228179   3.938   1.287   3.450 -2.5975 -3.8517 -1.2047
 5516SOL     OW28180   2.239   2.631   2.718 -0.5660  0.1012  0.3473
 5516SOL    HW128181   2.194   2.703   2.763 -1.1477  0.8172 -1.4184
 5516SOL    HW228182   2.292   2.677   2.654 -1.7885  0.3304 -0.4866
 5517SOL     OW28183   4.330   1.354  16.044  0.3047 -0.5010 -0.4463
 5517SOL    HW128184   4.368   1.284  16.097 -0.9077 -2.5761 -2.2980
 5517SOL    HW228185   4.264   1.309  15.991 -0.6350  0.9199 -0.4815
 5518SOL     OW28186   1.788   0.021   8.654  0.5388  0.5666  0.5077
 5518SOL    HW128187   1.864   4.710   8.684  0.6347 -0.3440 -1.2573
 5518SOL    HW228188   1.770   0.071   8.734 -0.2694 -1.1145  1.3739
 5519SOL     OW28189   1.900   4.590   3.605 -0.0955  0.2832  0.5351
 5519SOL    HW128190   1.993   4.569   3.595  0.2429  2.4365 -0.8860
 5519SOL    HW228191   1.912   4.685   3.611  2.4470  0.1392 -2.3524
 5520SOL     OW28192   1.376   4.583   7.180 -0.4174 -0.2171  0.2298
 5520SOL    HW128193   1.305   4.642   7.206 -0.5459 -1.1425  1.9524
 5520SOL    HW228194   1.325   4.531   7.118 -0.3054  2.5914 -2.2429
 5521SOL     OW28195   0.544   3.188   7.875 -0.2439  0.4290  0.0116
 5521SOL    HW128196   0.615   3.195   7.938  1.4575 -1.7462 -1.6905
 5521SOL    HW228197   0.494   3.111   7.904 -0.0338 -0.0037 -0.7858
 5522SOL     OW28198   2.520   2.631   8.477 -0.5082  0.0954 -0.3304
 5522SOL    HW128199   2.490   2.597   8.393 -0.9060 -0.6409  0.1015
 5522SOL    HW228200   2.439   2.679   8.498 -0.2751  1.8492 -3.5202
 5523SOL     OW28201   2.146   0.446   5.171 -0.7175  0.2020  0.3337
 5523SOL    HW128202   2.085   0.379   5.202 -3.1079  0.5474 -3.7093
 5523SOL    HW228203   2.101   0.525   5.202  1.5659  2.3712 -1.9330
 5524SOL     OW28204   0.540   4.637   4.388 -0.4741 -0.0792  0.1215
 5524SOL    HW128205   0.461   4.667   4.433 -1.3476 -1.5866 -0.3704
 5524SOL    HW228206   0.520   4.646   4.294  1.9940 -0.1473 -0.4145
 5525SOL     OW28207   3.881   3.652   5.902  0.2625 -0.3968 -0.4905
 5525SOL    HW128208   3.898   3.560   5.920  0.9926  0.0072  0.9203
 5525SOL    HW228209   3.957   3.709   5.908  0.3590 -0.5534 -0.2182
 5526SOL     OW28210   1.315   4.627   5.250 -0.0808 -0.7489 -0.4158
 5526SOL    HW128211   1.378   4.666   5.190  0.0391 -0.7123 -0.2658
 5526SOL    HW228212   1.288   4.702   5.304  0.6557  0.0763 -1.2017
 5527SOL     OW28213   3.811   2.786   8.751  0.4094 -0.1013 -0.4840
 5527SOL    HW128214   3.753   2.752   8.683  0.3578  0.4152 -0.7030
 5527SOL    HW228215   3.870   2.848   8.708  1.8541 -0.1508  1.4599
 5528SOL     OW28216   1.562   2.899  17.169  0.8334  0.5549  0.4676
 5528SOL    HW128217   1.500   2.827  17.183 -1.1369  2.1678 -0.0421
 5528SOL    HW228218   1.648   2.861  17.148 -0.8353 -3.3958  0.7932
 5529SOL     OW28219   0.657   0.541   6.592  0.3107  0.1705 -0.1053
 5529SOL    HW128220   0.647   0.529   6.497 -0.5738 -2.2324  0.2777
 5529SOL    HW228221   0.752   0.531   6.601  0.2804  0.6771  0.7114
 5530SOL     OW28222   1.339   3.306   3.695  0.0700  0.5735 -0.1408
 5530SOL    HW128223   1.342   3.290   3.601  0.9077 -1.0832  0.1675
 5530SOL    HW228224   1.425   3.272   3.720 -2.2547 -2.9442  3.0006
 5531SOL     OW28225   1.158   4.006   5.459 -0.1217  0.8003 -0.1009
 5531SOL    HW128226   1.145   4.053   5.541 -1.4407 -0.3649  0.3636
 5531SOL    HW228227   1.224   3.943   5.486 -0.4777 -0.6463 -2.5655
 5532SOL     OW28228   4.572   3.965   6.499 -0.1491  0.1052 -0.8732
 5532SOL    HW128229   4.666   3.984   6.505 -0.6234  2.7077 -1.5091
 5532SOL    HW228230   4.570   3.907   6.423  0.2631 -0.5089 -0.4124
 5533SOL     OW28231   1.931   4.075   1.586 -0.3398  0.1942  0.4059
 5533SOL    HW128232   1.908   4.133   1.659 -2.5949  0.0331 -0.1788
 5533SOL    HW228233   1.853   4.093   1.534 -0.6155 -3.4552 -0.4392
 5534SOL     OW28234   0.404   2.178   8.870  0.2316  0.3710 -0.1998
 5534SOL    HW128235   0.424   2.102   8.924  2.5692  0.4630 -0.9351
 5534SOL    HW228236   0.412   2.146   8.780 -0.6442 -2.0319  0.5877
 5535SOL     OW28237   2.362   4.111   4.959 -0.2419 -0.1750 -0.4817
 5535SOL    HW128238   2.418   4.165   5.014 -1.3734  0.0681  0.4327
 5535SOL    HW228239   2.316   4.182   4.914  0.0469 -0.0296 -0.5479
 5536SOL     OW28240   2.520   0.513  14.294 -0.4046 -0.2092 -0.2285
 5536SOL    HW128241   2.477   0.597  14.280  0.2739  0.1236 -0.3069
 5536SOL    HW228242   2.464   0.466  14.356 -0.9048  2.6026  1.4767
 5537SOL     OW28243   0.917   0.802   5.721  0.2402  0.2298  0.0469
 5537SOL    HW128244   0.902   0.755   5.640  0.7331  2.1170 -1.1337
 5537SOL    HW228245   0.904   0.730   5.782 -1.3123  0.6660  0.2467
 5538SOL     OW28246   1.546   2.618   4.791 -0.4918  0.3584 -0.0647
 5538SOL    HW128247   1.613   2.582   4.848 -1.9237  1.9747  2.6182
 5538SOL    HW228248   1.572   2.602   4.700  2.2801 -0.0999  0.8312
 5539SOL     OW28249   4.513   0.848   4.873  0.0548  0.1053 -0.3625
 5539SOL    HW128250   4.455   0.883   4.940 -1.6915 -3.0493 -0.2323
 5539SOL    HW228251   4.449   0.822   4.806 -0.7939  1.3637 -0.0290
 5540SOL     OW28252   3.788   2.010  16.363 -0.2779 -0.0699  0.4139
 5540SOL    HW128253   3.881   1.999  16.386 -0.5283 -0.9179  1.0659
 5540SOL    HW228254   3.748   1.987  16.447  0.4068 -0.5679  0.6117
 5541SOL     OW28255   0.736   4.270   0.711 -0.2521 -0.2200 -0.1434
 5541SOL    HW128256   0.673   4.228   0.653  0.1764  2.2417 -2.4022
 5541SOL    HW228257   0.765   4.337   0.649 -0.5779 -0.5557 -0.6550
 5542SOL     OW28258   1.941   3.039  13.342  0.0039 -0.0875 -0.3638
 5542SOL    HW128259   1.900   2.974  13.400 -0.1026  0.4456  0.1544
 5542SOL    HW228260   1.993   2.987  13.281  0.7085 -0.9843  0.9900
 5543SOL     OW28261   4.686   3.264   6.850  0.8166 -0.3714 -0.3678
 5543SOL    HW128262   4.710   3.171   6.845 -0.0247 -0.6736  1.0934
 5543SOL    HW228263   0.031   3.305   6.824  0.2863  0.4071 -0.8125
 5544SOL     OW28264   0.124   4.218   1.449  0.6557  0.6337 -0.5258
 5544SOL    HW128265   0.073   4.161   1.506 -0.5723  0.5759 -1.6968
 5544SOL    HW228266   0.188   4.162   1.406  1.7126  3.0183 -2.0962
 5545SOL     OW28267   3.702   3.848   3.926  0.3123  0.1097 -0.2188
 5545SOL    HW128268   3.710   3.768   3.874 -0.6702 -0.0872 -0.0639
 5545SOL    HW228269   3.641   3.891   3.866 -0.0647 -0.3437 -0.1667
 5546SOL     OW28270   4.713   1.118  12.266 -0.1166 -0.1897 -0.2095
 5546SOL    HW128271   0.038   1.047  12.262 -2.3191 -2.2064  1.1030
 5546SOL    HW228272   0.026   1.189  12.227 -1.2640 -0.6877 -2.5864
 5547SOL     OW28273   0.494   2.239   2.838 -0.3485  0.0928 -0.5107
 5547SOL    HW128274   0.412   2.287   2.851 -0.5941 -1.4728  3.7359
 5547SOL    HW228275   0.534   2.299   2.774  1.2145  0.8961  1.2048
 5548SOL     OW28276   0.948   4.304  16.041 -0.1517  0.0682  0.2468
 5548SOL    HW128277   0.913   4.226  16.084 -0.2313  0.2759  0.5584
 5548SOL    HW228278   0.981   4.350  16.118  0.4098 -2.1114  1.3088
 5549SOL     OW28279   2.248   1.025   2.034  0.1158 -0.0998 -0.1492
 5549SOL    HW128280   2.304   1.049   1.960  0.5967  0.5550  0.4295
 5549SOL    HW228281   2.300   1.057   2.107  1.5637 -1.9443 -0.3711
 5550SOL     OW28282   0.911   2.493   1.577 -0.5010 -0.1316 -0.0615
 5550SOL    HW128283   0.939   2.483   1.486  0.3269 -1.9569  0.3940
 5550SOL    HW228284   0.858   2.413   1.579 -0.7221  0.1065  3.0208
 5551SOL     OW28285   0.701   0.380  14.868  0.1863  0.5028  0.1750
 5551SOL    HW128286   0.740   0.465  14.847  0.1222  0.8221  1.4052
 5551SOL    HW228287   0.758   0.317  14.823  0.9142  1.1477  0.2031
 5552SOL     OW28288   4.149   3.277   8.811 -0.4454 -0.2515 -0.3974
 5552SOL    HW128289   4.190   3.209   8.758  1.2751 -0.6696  1.4879
 5552SOL    HW228290   4.057   3.275   8.782 -1.1288 -3.9323  1.9804
 5553SOL     OW28291   1.174   1.050   5.800 -0.3872 -0.2444 -0.3541
 5553SOL    HW128292   1.217   0.988   5.741  3.7762  0.8080  1.5401
 5553SOL    HW228293   1.222   1.131   5.784  0.1300 -0.2499  1.1161
 5554SOL     OW28294   0.154   1.669  16.184 -0.7189  0.0296  0.3131
 5554SOL    HW128295   0.084   1.689  16.122 -1.7060 -0.8753  1.1335
 5554SOL    HW228296   0.181   1.585  16.144 -0.4404  0.9845 -1.5259
 5555SOL     OW28297   3.317   3.258   2.222 -0.0439  0.5060 -0.1010
 5555SOL    HW128298   3.291   3.302   2.141 -2.1033 -0.1007  0.2325
 5555SOL    HW228299   3.410   3.237   2.216 -0.2255 -0.2474 -0.3735
 5556SOL     OW28300   0.842   4.258   6.241 -0.2502  0.3028  0.2784
 5556SOL    HW128301   0.830   4.245   6.335 -1.8753  1.3328  0.2027
 5556SOL    HW228302   0.873   4.349   6.243 -1.3647  0.6509  1.6117
 5557SOL     OW28303   4.114   0.336   6.736  0.3532  0.0853 -0.1438
 5557SOL    HW128304   4.190   0.285   6.763  0.3282  0.6268  0.9633
 5557SOL    HW228305   4.045   0.271   6.748 -0.3259  0.6856 -0.7680
 5558SOL     OW28306   3.463   0.904   5.780 -0.0211  0.3564 -0.3911
 5558SOL    HW128307   3.394   0.938   5.722  0.0601 -0.3163 -0.8796
 5558SOL    HW228308   3.450   0.812   5.757 -1.9361  0.7295 -0.8413
 5559SOL     OW28309   2.200   3.316  16.037  0.1448 -0.3251 -0.0038
 5559SOL    HW128310   2.147   3.240  16.059  0.4075  0.1041  2.1460
 5559SOL    HW228311   2.156   3.378  16.096  3.4777 -1.9580  4.1783
 5560SOL     OW28312   0.232   1.259   6.254  0.0873  0.5314  0.4394
 5560SOL    HW128313   0.242   1.354   6.266 -2.2317  0.8241  0.1358
 5560SOL    HW228314   0.246   1.247   6.160 -1.1492  0.9743  0.1939
 5561SOL     OW28315   1.321   1.126   7.584 -0.7372  0.0546 -0.3724
 5561SOL    HW128316   1.353   1.092   7.668  0.9603  1.0281 -0.6154
 5561SOL    HW228317   1.404   1.134   7.536 -0.7872 -0.1644 -0.4960
 5562SOL     OW28318   4.487   2.710   1.881 -0.0756 -0.5114  0.2450
 5562SOL    HW128319   4.465   2.801   1.898 -1.7328 -0.3745 -2.5711
 5562SOL    HW228320   4.411   2.672   1.925 -1.2023 -1.8861 -2.8257
 5563SOL     OW28321   1.197   2.585  14.276  0.1367 -0.0326 -0.0685
 5563SOL    HW128322   1.180   2.494  14.301 -1.8046  0.9350  2.1861
 5563SOL    HW228323   1.110   2.598  14.239 -0.4773 -1.9354  0.7375
 5564SOL     OW28324   4.521   1.227   0.826  0.3784  0.2797  0.4319
 5564SOL    HW128325   4.507   1.271   0.911 -0.4923  2.8755 -1.0556
 5564SOL    HW228326   4.571   1.288   0.773  1.1268  0.3145  1.1894
 5565SOL     OW28327   4.327   1.254   7.529 -0.1023  0.0798 -0.1560
 5565SOL    HW128328   4.266   1.249   7.455 -0.6147  2.4881  0.1141
 5565SOL    HW228329   4.302   1.340   7.561 -1.8712 -0.5368  0.1318
 5566SOL     OW28330   0.289   4.129   5.931  0.1050  0.0291  0.0912
 5566SOL    HW128331   0.332   4.053   5.971  0.0190  0.0183  0.1636
 5566SOL    HW228332   0.350   4.143   5.859 -0.2978 -0.8777 -0.4293
 5567SOL     OW28333   1.169   0.714   3.632 -0.3008 -0.1801  0.8464
 5567SOL    HW128334   1.133   0.788   3.583 -0.6471  0.5828  2.2701
 5567SOL    HW228335   1.229   0.672   3.570 -1.2055  0.9525 -0.7884
 5568SOL     OW28336   4.626   0.170   4.648 -0.0487  0.8530 -0.5866
 5568SOL    HW128337   4.637   0.167   4.552  0.6805 -0.7526 -0.4619
 5568SOL    HW228338   4.633   0.264   4.660 -2.1638  0.6934  1.7916
 5569SOL     OW28339   1.545   0.565   8.427  0.0823 -0.4144  1.0891
 5569SOL    HW128340   1.609   0.590   8.361 -0.6910  0.4880  0.6824
 5569SOL    HW228341   1.496   0.647   8.438  2.1268  0.7627  1.4255
 5570SOL     OW28342   1.753   4.346  16.805 -0.6842  0.7012 -0.4968
 5570SOL    HW128343   1.735   4.430  16.849 -1.3333  0.6472 -0.6598
 5570SOL    HW228344   1.777   4.295  16.883  1.2307  2.5899  0.1528
 5571SOL     OW28345   3.739   3.931   9.006 -0.6555  0.4735 -0.1091
 5571SOL    HW128346   3.698   4.017   9.015 -1.3816  0.0054  0.9177
 5571SOL    HW228347   3.810   3.949   9.068 -1.2093 -0.7079  0.8633
 5572SOL     OW28348   4.273   4.148   5.512  0.1208  0.9493 -0.1412
 5572SOL    HW128349   4.257   4.055   5.497  2.0504  0.9186 -1.9622
 5572SOL    HW228350   4.277   4.181   5.422 -0.0403  2.8484  0.5398
 5573SOL     OW28351   2.284   3.581   6.299 -0.5527 -0.3499 -0.0707
 5573SOL    HW128352   2.228   3.503   6.307  0.3857 -0.9647  0.5992
 5573SOL    HW228353   2.323   3.577   6.211 -2.2155  2.7657 -0.9192
 5574SOL     OW28354   2.665   2.787   5.938 -0.0825 -0.1496 -0.2027
 5574SOL    HW128355   2.654   2.855   5.871  0.1380 -0.4490 -0.5371
 5574SOL    HW228356   2.674   2.707   5.888  1.9746  0.2191 -0.4183
 5575SOL     OW28357   1.145   2.290   6.201 -0.2971 -1.2695  0.4517
 5575SOL    HW128358   1.169   2.309   6.292  0.6449  1.5517 -0.3867
 5575SOL    HW228359   1.064   2.340   6.201 -0.6332 -1.8050  1.4958
 5576SOL     OW28360   3.248   2.556   3.898 -0.1654  0.4462  0.6842
 5576SOL    HW128361   3.154   2.540   3.906 -0.4988  1.8405 -0.5742
 5576SOL    HW228362   3.247   2.592   3.809 -0.5966  1.8970  1.2737
 5577SOL     OW28363   3.268   0.612   2.182 -0.6613  0.0368 -0.3167
 5577SOL    HW128364   3.260   0.621   2.087 -0.5788 -0.1818 -0.3434
 5577SOL    HW228365   3.178   0.619   2.213  0.0496  2.1616  1.2933
 5578SOL     OW28366   2.989   0.856   1.688  0.2016  0.3292 -0.0733
 5578SOL    HW128367   3.041   0.878   1.611  2.1811 -1.6211  0.6876
 5578SOL    HW228368   2.938   0.779   1.661  2.9589 -1.9088  1.0847
 5579SOL     OW28369   4.537   2.472   5.436  0.4402  0.3162 -0.2205
 5579SOL    HW128370   4.618   2.469   5.487  1.7431  0.3921 -2.3103
 5579SOL    HW228371   4.473   2.499   5.502 -0.5073 -1.1991 -0.5435
 5580SOL     OW28372   0.605   2.943   5.904  0.1020  0.2156 -0.6412
 5580SOL    HW128373   0.616   2.966   5.812 -0.0678  0.3866 -0.6174
 5580SOL    HW228374   0.688   2.898   5.924 -0.6246 -0.2996  1.2096
 5581SOL     OW28375   4.152   4.727   7.283 -0.2696  0.2237  0.3406
 5581SOL    HW128376   4.201   4.689   7.209 -0.0195  1.2438 -0.0146
 5581SOL    HW228377   4.065   4.698   7.256  0.6286 -0.9948 -1.2468
 5582SOL     OW28378   2.148   3.755   4.600 -0.1356  0.5789 -0.1563
 5582SOL    HW128379   2.116   3.667   4.621 -0.1260  0.5259 -0.3675
 5582SOL    HW228380   2.200   3.769   4.679 -1.7568  2.0027  0.6509
 5583SOL     OW28381   0.335   4.406   8.213  0.3638  0.2153 -0.4884
 5583SOL    HW128382   0.429   4.420   8.212  0.6495 -1.6146  2.2491
 5583SOL    HW228383   0.324   4.342   8.142  0.4382 -0.8676  0.4699
 5584SOL     OW28384   3.881   3.414   4.117  0.4875 -0.1398 -0.1319
 5584SOL    HW128385   3.861   3.442   4.028  1.2296  1.8536  0.3296
 5584SOL    HW228386   3.949   3.348   4.107 -1.4676 -1.9239 -1.6924
 5585SOL     OW28387   2.652   3.391  16.006 -0.1321 -0.9711  0.0532
 5585SOL    HW128388   2.559   3.401  16.024 -0.4574 -2.5497 -0.7147
 5585SOL    HW228389   2.693   3.466  16.049 -0.7482  1.0324 -2.8339
 5586SOL     OW28390   0.394   0.453   0.821 -0.1702  0.4037 -0.1873
 5586SOL    HW128391   0.310   0.459   0.865  0.4331 -0.2694  1.0521
 5586SOL    HW228392   0.447   0.521   0.861  1.2839 -0.1549 -1.1367
 5587SOL     OW28393   4.374   4.496   1.436  0.0986 -0.4391  0.4187
 5587SOL    HW128394   4.442   4.560   1.417 -1.0645  0.4313 -0.7801
 5587SOL    HW228395   4.420   4.427   1.387  0.6632 -1.4074  2.3267
 5588SOL     OW28396   0.799   3.601   2.908  0.1591  0.5045 -0.5620
 5588SOL    HW128397   0.758   3.547   2.975  2.7292  0.0248  0.6439
 5588SOL    HW228398   0.726   3.628   2.853 -0.5635  0.8021  0.5369
 5589SOL     OW28399   4.227   3.982   1.353  0.9380  0.0374  0.3587
 5589SOL    HW128400   4.157   4.047   1.350  1.9580  1.1897  1.3055
 5589SOL    HW228401   4.224   3.955   1.445  2.1434 -1.7225 -0.1163
 5590SOL     OW28402   2.648   2.631   4.649  0.0958  0.5330  0.2922
 5590SOL    HW128403   2.600   2.709   4.678 -1.2211  0.1240 -0.7821
 5590SOL    HW228404   2.707   2.670   4.584  0.5543 -0.6356  0.0183
 5591SOL     OW28405   3.311   4.282   0.417 -0.5861 -0.3187  0.1038
 5591SOL    HW128406   3.258   4.245   0.346 -1.2571 -0.9810  0.9557
 5591SOL    HW228407   3.355   4.348   0.364  1.0554 -1.6975 -0.2669
 5592SOL     OW28408   4.383   0.902   3.275  0.2874 -0.1114 -0.2298
 5592SOL    HW128409   4.440   0.827   3.289 -0.3451 -0.8375 -1.5360
 5592SOL    HW228410   4.308   0.854   3.239 -0.6349  1.7109 -0.7622
 5593SOL     OW28411   1.837   0.217   6.015 -0.1857 -0.0549 -0.0994
 5593SOL    HW128412   1.754   0.265   6.016  0.9177  1.8222  1.3881
 5593SOL    HW228413   1.836   0.154   6.087  2.9269  1.2309  1.0791
 5594SOL     OW28414   1.494   4.645   4.704  0.3797 -0.6608 -0.3231
 5594SOL    HW128415   1.445   4.606   4.776 -1.9512  1.9912 -0.4561
 5594SOL    HW228416   1.456   4.607   4.625 -0.2124  1.1811 -0.9248
 5595SOL     OW28417   0.071   2.307   7.907 -0.3316 -0.4854  1.0175
 5595SOL    HW128418   4.715   2.319   7.896 -0.1662  1.0330  1.2823
 5595SOL    HW228419   0.108   2.388   7.873 -1.9529 -0.6385 -1.0716
 5596SOL     OW28420   4.256   1.435  13.545 -0.0362  0.1656 -0.7574
 5596SOL    HW128421   4.350   1.446  13.559 -0.1387 -0.4368  0.3942
 5596SOL    HW228422   4.254   1.399  13.456  3.1783  0.4147 -0.9423
 5597SOL     OW28423   4.679   4.666   4.720  0.3485  0.4056  0.0547
 5597SOL    HW128424   4.698   4.633   4.632  0.5068  1.6613 -0.3832
 5597SOL    HW228425   4.672   0.022   4.702 -1.2822  0.0435 -1.2091
 5598SOL     OW28426   2.985   1.579  10.773 -0.3905 -0.7300 -0.0161
 5598SOL    HW128427   2.996   1.607  10.864 -2.4913  0.1780 -0.0375
 5598SOL    HW228428   3.015   1.658  10.728  0.5504 -0.8459  0.3992
 5599SOL     OW28429   1.751   4.171  11.559  0.6942  0.3093  0.5469
 5599SOL    HW128430   1.753   4.247  11.618  0.8007  1.8508 -1.4631
 5599SOL    HW228431   1.780   4.105  11.622  0.3038 -0.1093  0.2894
 5600SOL     OW28432   2.422   2.942  15.107  0.6574  0.2081  0.3891
 5600SOL    HW128433   2.417   2.939  15.012 -0.2873  0.8617  0.4116
 5600SOL    HW228434   2.328   2.933  15.127  0.3086 -0.9780 -1.8025
 5601SOL     OW28435   0.807   0.741   2.608  0.3739 -0.3678  0.8261
 5601SOL    HW128436   0.868   0.780   2.671  0.7579 -4.4437  2.9582
 5601SOL    HW228437   0.863   0.705   2.539  0.4741 -0.0456  0.7380
 5602SOL     OW28438   1.290   2.563   4.732  0.1358  0.4778  0.3589
 5602SOL    HW128439   1.368   2.616   4.752 -0.6107  2.2679 -1.4341
 5602SOL    HW228440   1.274   2.584   4.640 -0.4251  0.6952  0.5079
 5603SOL     OW28441   0.556   2.430   4.839 -0.1677  0.1999  0.0436
 5603SOL    HW128442   0.599   2.489   4.901  1.1852 -0.4153 -0.3030
 5603SOL    HW228443   0.561   2.479   4.756 -0.5192  1.9493  1.0603
 5604SOL     OW28444   0.447   0.563   1.553 -0.5204  0.0199 -0.0328
 5604SOL    HW128445   0.529   0.525   1.584 -0.3217  1.7396  1.5452
 5604SOL    HW228446   0.401   0.484   1.526  2.4042 -1.6863 -0.0304
 5605SOL     OW28447   3.371   4.691   4.634  0.1656  0.4355 -0.0528
 5605SOL    HW128448   3.282   4.657   4.642  0.5588 -0.7828 -0.8110
 5605SOL    HW228449   3.414   4.641   4.565 -0.5816  0.4395 -0.5322
 5606SOL     OW28450   4.580   1.441  16.222  0.1065 -0.0035  0.6551
 5606SOL    HW128451   4.542   1.354  16.231  2.1536 -0.7600  1.9244
 5606SOL    HW228452   4.619   1.428  16.136  1.8898  2.9698  1.0096
 5607SOL     OW28453   1.225   1.305   2.551 -0.4544 -0.4487  0.0943
 5607SOL    HW128454   1.205   1.378   2.609 -0.1227  0.6436 -1.1730
 5607SOL    HW228455   1.241   1.229   2.608 -1.4786 -1.4459 -0.9405
 5608SOL     OW28456   1.352   4.470  13.290 -0.4310  0.0100  0.1696
 5608SOL    HW128457   1.295   4.413  13.341 -0.0616 -0.2774  0.2680
 5608SOL    HW228458   1.360   4.416  13.211 -2.4856  0.0301 -0.0393
 5609SOL     OW28459   2.357   4.672  17.157  0.3847 -0.0583 -0.0299
 5609SOL    HW128460   2.394   4.733  17.220  0.0324  1.3566 -1.2121
 5609SOL    HW228461   2.288   4.637  17.214  1.5234 -1.0818  0.7510
 5610SOL     OW28462   1.505   4.311  13.797 -0.3088  0.9472  0.0074
 5610SOL    HW128463   1.508   4.328  13.703  0.8315  1.1593  0.0813
 5610SOL    HW228464   1.422   4.265  13.812 -1.5622  2.9648 -0.8818
 5611SOL     OW28465   1.957   4.250   3.698  0.0413 -0.5242  0.2831
 5611SOL    HW128466   2.052   4.259   3.706  0.2967 -1.4879 -1.6976
 5611SOL    HW228467   1.937   4.183   3.764  0.0734 -1.2411 -0.4415
 5612SOL     OW28468   1.440   1.168   5.938  0.2744 -0.0456  0.2951
 5612SOL    HW128469   1.443   1.126   6.023 -2.1422  1.2166  1.0128
 5612SOL    HW228470   1.376   1.236   5.960  1.0333  0.5224  0.7302
 5613SOL     OW28471   3.800   2.413   7.938 -0.2880  0.0214  0.0904
 5613SOL    HW128472   3.765   2.412   8.027 -2.5282 -1.8056 -0.7877
 5613SOL    HW228473   3.831   2.323   7.930  1.3887  0.7571 -1.6412
 5614SOL     OW28474   2.187   3.057   7.908  0.3195 -0.2654  0.2739
 5614SOL    HW128475   2.225   2.969   7.901  1.8193  0.4213 -0.2771
 5614SOL    HW228476   2.157   3.076   7.819  1.2799  0.9859  0.2226
 5615SOL     OW28477   4.303   4.275   4.378  0.3768  0.1081  0.0783
 5615SOL    HW128478   4.309   4.194   4.429  1.1723  0.4008  0.4522
 5615SOL    HW228479   4.220   4.303   4.416  1.6715  1.1913  2.1287
 5616SOL     OW28480   0.570   1.301   6.189 -0.5877  0.2966 -0.1726
 5616SOL    HW128481   0.568   1.395   6.203 -0.9126 -0.0786  2.2218
 5616SOL    HW228482   0.546   1.306   6.096 -2.8118  0.8227  0.4154
 5617SOL     OW28483   0.506   1.693  17.666 -0.1447  0.3159  0.4254
 5617SOL    HW128484   0.543   1.633  17.601 -1.4507  0.5504 -0.5246
 5617SOL    HW228485   0.457   1.631  17.719 -1.2019  0.9230  0.1567
 5618SOL     OW28486   0.047   1.729   5.824  0.2972 -0.4018 -0.5301
 5618SOL    HW128487   4.697   1.763   5.838  0.4069 -0.5193  0.4161
 5618SOL    HW228488   0.072   1.777   5.745  0.4145 -2.2937 -1.6603
 5619SOL     OW28489   3.957   4.656   4.557  0.4662  0.2351  0.1238
 5619SOL    HW128490   3.873   4.693   4.531  0.8029  0.2636 -0.9229
 5619SOL    HW228491   3.948   4.644   4.651  0.8321  1.4803  0.3199
 5620SOL     OW28492   1.030   0.585   6.859  0.0730  0.2671  0.1880
 5620SOL    HW128493   1.006   0.508   6.910 -0.2053  0.1861 -0.0657
 5620SOL    HW228494   1.101   0.627   6.908 -0.2676  1.1830 -0.0878
 5621SOL     OW28495   2.522   2.589  14.722 -0.0320  0.6352  0.0058
 5621SOL    HW128496   2.478   2.532  14.785 -0.2523  2.3327  1.3961
 5621SOL    HW228497   2.490   2.551  14.641 -1.3188 -0.5781  1.0813
 5622SOL     OW28498   0.158   0.300   3.889  0.0662 -0.4617  0.1151
 5622SOL    HW128499   0.247   0.267   3.899  0.5526  0.3057 -1.7051
 5622SOL    HW228500   0.126   0.226   3.837  0.1064 -0.1331 -0.3790
 5623SOL     OW28501   4.424   2.070  16.398 -0.1013 -0.0946 -0.4201
 5623SOL    HW128502   4.354   2.017  16.361 -0.5200 -0.4499  0.8579
 5623SOL    HW228503   4.459   2.104  16.316  1.8961  1.3428  1.0155
 5624SOL     OW28504   3.295   1.706   8.598 -0.0129  0.3273 -0.0275
 5624SOL    HW128505   3.263   1.620   8.571  0.1957  0.7253 -1.5464
 5624SOL    HW228506   3.281   1.760   8.519  2.6028 -0.0621 -0.7532
 5625SOL     OW28507   3.378   0.811   2.426 -0.4627  0.1893  0.5465
 5625SOL    HW128508   3.304   0.848   2.378 -2.0585  1.0056  3.6502
 5625SOL    HW228509   3.335   0.760   2.495  2.1028 -2.6982  0.0372
 5626SOL     OW28510   1.217   0.139   2.602 -0.2413  0.1114  0.1364
 5626SOL    HW128511   1.304   0.177   2.585 -0.3486 -0.6500 -2.0543
 5626SOL    HW228512   1.159   0.201   2.558 -0.8492  0.9380  2.0916
 5627SOL     OW28513   3.266   0.622   9.965  0.0503  0.1165 -0.4314
 5627SOL    HW128514   3.261   0.706   9.920  0.6514  0.1429 -0.4569
 5627SOL    HW228515   3.184   0.634  10.013 -0.7187 -0.8298 -1.5276
 5628SOL     OW28516   1.355   3.500   3.874  0.4083  0.1002 -0.0433
 5628SOL    HW128517   1.362   3.428   3.811 -0.8880 -0.0234 -0.0386
 5628SOL    HW228518   1.314   3.569   3.822  0.3635 -0.3632 -0.6306
 5629SOL     OW28519   2.373   3.662   4.940 -0.0169  0.2692 -0.8617
 5629SOL    HW128520   2.297   3.720   4.930 -1.8366 -1.8338  0.6528
 5629SOL    HW228521   2.385   3.616   4.857  0.2337 -0.7716 -0.2434
 5630SOL     OW28522   3.038   1.907   8.634  0.2836  0.2048  0.4213
 5630SOL    HW128523   3.025   1.819   8.669 -1.1177  0.8734  1.5360
 5630SOL    HW228524   3.069   1.951   8.713  0.6310 -0.2614  0.5467
 5631SOL     OW28525   4.630   4.550   6.788  0.4227 -0.2964  0.3318
 5631SOL    HW128526   4.719   4.557   6.753  0.1531  0.0435 -0.2752
 5631SOL    HW228527   4.652   4.506   6.870 -2.7270 -1.3401  0.6215
 5632SOL     OW28528   2.231   3.381   8.639  0.9054 -0.7194  0.4189
 5632SOL    HW128529   2.235   3.350   8.548  1.5219  0.4102  0.0582
 5632SOL    HW228530   2.197   3.300   8.678 -0.4361  0.6476  2.0657
 5633SOL     OW28531   3.354   4.625  16.685 -0.2525 -0.0325 -0.0171
 5633SOL    HW128532   3.311   4.549  16.725 -1.0344 -0.0422 -0.8849
 5633SOL    HW228533   3.334   4.612  16.592  0.4141 -0.5773 -0.0915
 5634SOL     OW28534   1.861   4.568  17.571 -0.3528  0.3549 -0.5579
 5634SOL    HW128535   1.837   4.659  17.555 -0.9310  0.1027 -1.1100
 5634SOL    HW228536   1.956   4.576  17.564 -0.1694 -0.3716  0.9667
 5635SOL     OW28537   3.621   3.829  10.058 -0.1796  0.7077 -0.6898
 5635SOL    HW128538   3.630   3.902  10.119  2.0803 -0.9495  0.9434
 5635SOL    HW228539   3.699   3.785  10.091  1.1959  1.5445 -2.7677
 5636SOL     OW28540   3.339   0.047   8.682 -0.9246  0.1958  0.1448
 5636SOL    HW128541   3.299   4.703   8.652 -1.2154  0.4305 -0.1136
 5636SOL    HW228542   3.273   0.086   8.740  0.7287  0.2959  1.9670
 5637SOL     OW28543   1.695   2.310  15.252 -0.7871 -0.5555  0.2902
 5637SOL    HW128544   1.778   2.263  15.263 -1.4972 -1.9155 -0.1609
 5637SOL    HW228545   1.666   2.289  15.341  0.8168 -1.9294  0.4816
 5638SOL     OW28546   2.210   0.602   0.512 -0.2351  0.1112  0.7299
 5638SOL    HW128547   2.192   0.534   0.576 -2.1594  1.5553  1.7337
 5638SOL    HW228548   2.127   0.648   0.501  0.1676  0.5175 -0.7632
 5639SOL     OW28549   3.012   3.481  17.422  0.3356 -0.0978 -0.2553
 5639SOL    HW128550   2.951   3.454  17.491  0.7064  1.1504  0.5618
 5639SOL    HW228551   3.075   3.532  17.473 -0.3879 -0.2875  0.8130
 5640SOL     OW28552   1.301   1.830   5.018  0.4787  0.3163 -0.0838
 5640SOL    HW128553   1.211   1.862   5.005  0.2241 -0.9237 -1.3946
 5640SOL    HW228554   1.285   1.736   5.030 -0.1544  0.6375  1.5978
 5641SOL     OW28555   3.415   4.211  12.620  0.5161 -0.2008 -0.0470
 5641SOL    HW128556   3.400   4.305  12.606 -0.6196 -0.7370 -2.3449
 5641SOL    HW228557   3.431   4.226  12.713 -0.5840 -1.2025  0.3000
 5642SOL     OW28558   3.319   3.041  12.560  0.0030 -0.0445  0.0290
 5642SOL    HW128559   3.301   2.989  12.639 -0.4430  0.0332 -0.0183
 5642SOL    HW228560   3.340   3.130  12.589 -2.2717  0.3503  0.4821
 5643SOL     OW28561   4.437   4.105   3.320 -0.0074 -0.0234 -0.1888
 5643SOL    HW128562   4.496   4.155   3.377  0.5837 -2.9100  1.6978
 5643SOL    HW228563   4.430   4.168   3.247 -0.5526 -0.4484 -0.4971
 5644SOL     OW28564   3.007   4.598   7.683  0.3527 -0.3724 -0.1690
 5644SOL    HW128565   3.034   4.687   7.663 -0.3848 -0.3857 -1.1706
 5644SOL    HW228566   3.018   4.598   7.778  2.9314 -0.3827 -0.4537
 5645SOL     OW28567   3.654   1.474   7.557 -0.3925  0.0205 -0.2648
 5645SOL    HW128568   3.625   1.396   7.603  1.7152 -1.2913 -1.1830
 5645SOL    HW228569   3.726   1.500   7.615 -0.3678  0.9641 -0.7084
 5646SOL     OW28570   1.943   0.573  16.881  0.4716  0.6866  0.2743
 5646SOL    HW128571   1.858   0.603  16.849  1.2069  0.3408 -1.9347
 5646SOL    HW228572   1.976   0.651  16.924 -0.3265  0.7887  0.7158
 5647SOL     OW28573   0.803   1.633   8.251  0.6706 -0.6652 -0.5315
 5647SOL    HW128574   0.824   1.695   8.321  0.1581  1.3067 -2.1336
 5647SOL    HW228575   0.843   1.669   8.172 -1.2642  1.1772 -0.6985
 5648SOL     OW28576   0.677   1.667  10.952  0.3474  0.5014 -0.0049
 5648SOL    HW128577   0.748   1.718  10.914  0.6998 -0.5368 -0.7480
 5648SOL    HW228578   0.621   1.656  10.874 -1.0222  3.2989  0.6019
 5649SOL     OW28579   0.414   0.800  16.674  0.6957 -0.7352  0.4028
 5649SOL    HW128580   0.406   0.720  16.726  0.4684 -1.5083 -0.8000
 5649SOL    HW228581   0.510   0.797  16.678  0.7539 -1.7488 -1.6798
 5650SOL     OW28582   0.001   0.419  16.124 -0.5832  0.0903 -0.3941
 5650SOL    HW128583   0.048   0.341  16.154 -1.6429 -0.8690 -1.2546
 5650SOL    HW228584   4.682   0.379  16.058 -1.3452 -1.5035  1.2481
 5651SOL     OW28585   2.701   1.715   4.069  0.2031 -0.1003 -0.0404
 5651SOL    HW128586   2.727   1.763   4.148  0.7124  0.4904 -0.5722
 5651SOL    HW228587   2.613   1.687   4.092 -1.1043  2.4695 -1.8871
 5652SOL     OW28588   2.694   0.445   4.663 -0.3085  0.2097  0.2633
 5652SOL    HW128589   2.698   0.479   4.752  0.7310  0.1869  0.2183
 5652SOL    HW228590   2.640   0.511   4.620 -1.4241 -0.6368  0.3681
 5653SOL     OW28591   0.817   3.683   5.911 -0.2185  0.6086  0.1932
 5653SOL    HW128592   0.819   3.691   6.006 -2.4921 -0.8213  0.3512
 5653SOL    HW228593   0.724   3.680   5.891 -0.4695 -1.1556  1.6140
 5654SOL     OW28594   3.996   1.888   6.196 -0.1618  0.5749  0.5656
 5654SOL    HW128595   3.902   1.890   6.215  0.0082 -0.6550  1.5711
 5654SOL    HW228596   3.995   1.848   6.109  0.1913  1.6299  0.0795
 5655SOL     OW28597   0.393   0.852   4.852 -0.0699 -0.3087 -0.6126
 5655SOL    HW128598   0.437   0.789   4.795 -1.8151 -0.6968 -1.5237
 5655SOL    HW228599   0.437   0.936   4.835  1.2297 -1.0546 -0.9383
 5656SOL     OW28600   2.203   3.334   6.307  0.1711 -0.1210  0.2140
 5656SOL    HW128601   2.247   3.254   6.337  1.5008  0.6849  0.4019
 5656SOL    HW228602   2.136   3.292   6.253 -0.7996  1.1656  0.4236
 5657SOL     OW28603   4.350   3.270   6.572 -0.1439  0.4623  0.3778
 5657SOL    HW128604   4.257   3.251   6.564  0.2956  0.0094 -3.6793
 5657SOL    HW228605   4.352   3.246   6.665 -1.0110 -0.0579  0.2546
 5658SOL     OW28606   2.343   2.216   8.449 -0.2045  0.3580 -0.5889
 5658SOL    HW128607   2.360   2.132   8.406  1.4089  0.5514 -0.3134
 5658SOL    HW228608   2.429   2.258   8.443 -1.7376  3.1910 -2.7960
 5659SOL     OW28609   1.096   0.914   3.462  0.3931  0.3230  0.0349
 5659SOL    HW128610   1.037   0.982   3.430 -0.2879  0.0813  0.7639
 5659SOL    HW228611   1.178   0.963   3.467  2.4566 -3.1682  0.4315
 5660SOL     OW28612   3.894   0.514   6.784 -0.0826 -0.5883  0.5345
 5660SOL    HW128613   3.813   0.499   6.832  0.2655 -1.8537  0.7290
 5660SOL    HW228614   3.870   0.588   6.728 -0.3763 -1.6105 -0.6991
 5661SOL     OW28615   0.645   3.578   5.659  0.2415 -0.3158 -0.0393
 5661SOL    HW128616   0.555   3.573   5.692 -0.4347 -1.2701 -2.0474
 5661SOL    HW228617   0.631   3.665   5.620  0.5413 -1.2227 -2.1863
 5662SOL     OW28618   2.530   2.229  17.555  0.0511 -0.0489  0.5065
 5662SOL    HW128619   2.489   2.199  17.636 -1.2712 -0.7797 -0.4414
 5662SOL    HW228620   2.608   2.273  17.589  0.4064  0.1264 -0.5291
 5663SOL     OW28621   0.936   2.101   4.057  0.3003  0.4395 -0.1692
 5663SOL    HW128622   0.871   2.059   4.000  0.9160 -0.0618 -0.4943
 5663SOL    HW228623   0.962   2.178   4.008 -0.1246  0.4952 -0.3118
 5664SOL     OW28624   2.752   4.561   5.198 -0.6613  0.0200 -0.0949
 5664SOL    HW128625   2.748   4.494   5.266  0.1033  0.9377  0.8666
 5664SOL    HW228626   2.747   4.644   5.246  0.9326  0.4166 -0.6059
 5665SOL     OW28627   0.537   0.540  10.522  0.1485  0.3308 -0.2192
 5665SOL    HW128628   0.507   0.451  10.503  0.5844  0.5433 -1.9097
 5665SOL    HW228629   0.631   0.525  10.509  0.1026  1.4499 -1.9081
 5666SOL     OW28630   0.234   4.541  15.802  0.0307  0.0936 -0.2042
 5666SOL    HW128631   0.146   4.570  15.780 -0.0242 -0.7733 -1.1381
 5666SOL    HW228632   0.202   4.461  15.845 -1.7810  0.4967 -0.8035
 5667SOL     OW28633   2.420   1.697   1.560 -0.9937  0.0416 -0.6447
 5667SOL    HW128634   2.392   1.606   1.554  0.9490 -0.5605 -0.8076
 5667SOL    HW228635   2.387   1.719   1.473  2.8883 -2.6733 -2.7730
 5668SOL     OW28636   3.357   1.914   9.757  0.2053 -0.7326  0.1432
 5668SOL    HW128637   3.276   1.965   9.757  1.6083  1.4972 -0.3103
 5668SOL    HW228638   3.401   1.963   9.826  1.2639 -0.2925 -0.8507
 5669SOL     OW28639   0.432   2.944   6.238 -0.6225 -1.0652  0.4536
 5669SOL    HW128640   0.388   3.027   6.259  2.4989  0.3818  1.3936
 5669SOL    HW228641   0.446   2.906   6.325 -1.0313  2.3439  2.0184
 5670SOL     OW28642   2.729   2.617  11.689  0.3490  0.2582 -0.0283
 5670SOL    HW128643   2.808   2.665  11.664 -0.1820 -0.0055 -2.2342
 5670SOL    HW228644   2.753   2.527  11.668  0.0260  0.2691 -0.4584
 5671SOL     OW28645   3.774   2.519  12.427  0.2869  0.1001  0.3734
 5671SOL    HW128646   3.758   2.534  12.520 -1.1695  0.3530  0.0840
 5671SOL    HW228647   3.806   2.603  12.396  1.7528 -0.4441  0.4201
 5672SOL     OW28648   4.111   0.922   6.137 -0.1905 -0.3138 -0.7333
 5672SOL    HW128649   4.123   1.011   6.171 -1.9946 -0.5581  0.5322
 5672SOL    HW228650   4.029   0.895   6.178 -0.3458  0.3821 -0.5779
 5673SOL     OW28651   4.183   3.597   6.907  0.0440 -0.5925 -0.1162
 5673SOL    HW128652   4.230   3.515   6.890  2.7359  0.1904  3.5581
 5673SOL    HW228653   4.220   3.643   6.832 -0.4343 -1.9132 -1.1565
 5674SOL     OW28654   1.041   2.762   2.337  0.4480  0.4578 -0.1313
 5674SOL    HW128655   1.055   2.668   2.335  0.5275  0.4467  0.7639
 5674SOL    HW228656   0.975   2.763   2.268  0.5357 -1.0093 -0.2240
 5675SOL     OW28657   3.125   0.660   4.378  0.3450  0.0082  0.2421
 5675SOL    HW128658   3.202   0.717   4.367  1.3712 -1.6375 -1.0963
 5675SOL    HW228659   3.154   0.573   4.351  1.1832  1.1523 -2.6649
 5676SOL     OW28660   2.790   4.585   8.366 -0.1389 -0.2320  0.7089
 5676SOL    HW128661   2.807   4.517   8.430  2.0523  1.2285  1.6815
 5676SOL    HW228662   2.701   4.609   8.390  0.3387  0.9379  1.2895
 5677SOL     OW28663   2.260   0.294  16.583  0.0707  0.2166  0.6483
 5677SOL    HW128664   2.353   0.280  16.563 -0.5741  0.7620 -2.6421
 5677SOL    HW228665   2.281   0.329  16.670 -1.2499  0.4546  0.8610
 5678SOL     OW28666   1.709   3.501   6.549  0.5572 -0.1216  0.0709
 5678SOL    HW128667   1.672   3.588   6.536 -3.0203 -1.6760 -0.3490
 5678SOL    HW228668   1.801   3.524   6.536  0.1384  2.2964  1.4674
 5679SOL     OW28669   4.162   3.478   6.158  0.4016 -0.0117 -0.0496
 5679SOL    HW128670   4.133   3.526   6.236 -0.4173 -0.3537 -0.1498
 5679SOL    HW228671   4.249   3.446   6.182  0.2758 -1.6030 -1.7284
 5680SOL     OW28672   2.384   0.716   9.780 -0.4042 -0.2274 -0.6801
 5680SOL    HW128673   2.468   0.727   9.824 -0.9395 -1.6894  0.7194
 5680SOL    HW228674   2.389   0.621   9.770  0.0874 -0.2337 -0.4001
 5681SOL     OW28675   2.360   4.664   5.403  0.2250  0.1606 -0.4936
 5681SOL    HW128676   2.383   4.573   5.384  0.9123 -0.0230  1.2215
 5681SOL    HW228677   2.442   4.691   5.445  0.1438 -1.5380  0.7249
 5682SOL     OW28678   1.204   3.223   4.066 -0.0611 -0.3492  0.3985
 5682SOL    HW128679   1.160   3.206   4.149  0.2121  1.3868  0.8909
 5682SOL    HW228680   1.228   3.315   4.076 -0.0421 -0.2103 -0.8811
 5683SOL     OW28681   3.657   0.477   6.909  0.0878  0.2905  0.0857
 5683SOL    HW128682   3.634   0.507   6.821 -0.8047 -1.3956 -0.2444
 5683SOL    HW228683   3.633   0.384   6.908  1.0154  0.0493 -1.1486
 5684SOL     OW28684   3.460   0.923  17.254  0.6110  0.0019  0.0425
 5684SOL    HW128685   3.373   0.938  17.215  0.0710  2.1476  2.0508
 5684SOL    HW228686   3.450   0.974  17.334  1.5860  2.5120 -1.4262
 5685SOL     OW28687   1.336   0.089   8.021  0.0043  0.7745  0.5575
 5685SOL    HW128688   1.271   0.020   8.035  1.5402 -1.4695 -3.5443
 5685SOL    HW228689   1.276   0.158   8.048 -0.8273  0.1947  0.1903
 5686SOL     OW28690   2.943   4.457   3.730 -0.2554  0.2510  0.0978
 5686SOL    HW128691   3.018   4.496   3.685 -0.2079 -1.2222 -1.0912
 5686SOL    HW228692   2.936   4.514   3.807 -0.4037  1.2305 -0.6390
 5687SOL     OW28693   0.276   3.706  10.851  0.3089 -0.3018 -0.5879
 5687SOL    HW128694   0.339   3.766  10.892  2.2465 -1.8760 -1.2253
 5687SOL    HW228695   0.278   3.737  10.760  3.0865 -0.8618 -0.7210
 5688SOL     OW28696   3.450   1.789  17.323  0.1595  0.1949  0.3611
 5688SOL    HW128697   3.477   1.706  17.284  0.7311  0.0125  1.1583
 5688SOL    HW228698   3.377   1.818  17.268  1.7915 -1.5634 -2.7776
 5689SOL     OW28699   1.097   3.717   2.172 -0.0399  0.3151  0.1925
 5689SOL    HW128700   1.030   3.760   2.118  1.7876  0.5097 -1.8926
 5689SOL    HW228701   1.084   3.742   2.263 -1.8076 -0.6999  0.2152
 5690SOL     OW28702   3.537   3.708  16.373 -0.7901  0.2053  0.1197
 5690SOL    HW128703   3.487   3.787  16.396 -1.7433  0.0965 -1.5915
 5690SOL    HW228704   3.506   3.646  16.440 -0.8337 -0.4015 -0.4544
 5691SOL     OW28705   3.820   0.451   2.516 -0.2128  0.4240  0.8222
 5691SOL    HW128706   3.737   0.498   2.524  0.2414  1.1359  1.3317
 5691SOL    HW228707   3.880   0.524   2.497 -1.0040  0.0641 -3.0496
 5692SOL     OW28708   3.340   0.408  12.005  0.3158 -0.8878 -0.1803
 5692SOL    HW128709   3.337   0.458  11.924  1.7084 -0.0852  0.2747
 5692SOL    HW228710   3.256   0.362  11.997  0.7639 -1.8969  0.8635
 5693SOL     OW28711   4.552   4.518   7.899  0.0392  0.1507  0.1628
 5693SOL    HW128712   4.460   4.502   7.918  0.0436 -1.6903 -1.4185
 5693SOL    HW228713   4.583   4.429   7.913  0.7679  0.5521  1.1238
 5694SOL     OW28714   2.325   1.047  15.782  0.1154 -0.3761 -0.4566
 5694SOL    HW128715   2.308   1.009  15.869  2.2296  1.2681  0.6772
 5694SOL    HW228716   2.238   1.083  15.765 -1.0334 -3.2527 -0.6032
 5695SOL     OW28717   2.720   4.248   3.128 -0.1973  0.0538  0.1189
 5695SOL    HW128718   2.667   4.229   3.051 -0.7408  0.3290  0.4260
 5695SOL    HW228719   2.699   4.341   3.135  0.3624  0.2389 -0.6693
 5696SOL     OW28720   3.906   2.937  13.512 -1.1221  0.0419  0.2293
 5696SOL    HW128721   3.955   2.858  13.490 -0.8386 -0.1672  1.5738
 5696SOL    HW228722   3.895   2.976  13.426  0.7847 -2.2221 -1.0533
 5697SOL     OW28723   1.085   0.168   4.309 -0.5489  0.0975 -0.3760
 5697SOL    HW128724   1.132   0.250   4.292 -0.6985  0.6063  1.7669
 5697SOL    HW228725   0.999   0.187   4.271  0.3436  1.3138 -1.8223
 5698SOL     OW28726   1.028   0.030  16.636  0.5314 -0.3863  0.1410
 5698SOL    HW128727   1.089   4.737  16.568 -0.3675 -1.5450 -0.1374
 5698SOL    HW228728   0.944   0.018  16.593  1.4282 -1.5091 -1.2956
 5699SOL     OW28729   2.098   3.938   3.673  0.4935 -0.0267  0.0466
 5699SOL    HW128730   2.107   3.897   3.588 -0.3215 -0.6871  0.2768
 5699SOL    HW228731   2.034   3.871   3.699  0.8893  0.1309  1.4572
 5700SOL     OW28732   4.713   1.874  15.515  0.5385  0.1287 -0.0269
 5700SOL    HW128733   4.660   1.953  15.502 -0.6577 -0.4116  1.6337
 5700SOL    HW228734   0.053   1.915  15.554 -0.2545  1.5673  0.0420
 5701SOL     OW28735   2.803   1.423  12.686 -0.4393 -0.0475  0.1546
 5701SOL    HW128736   2.846   1.507  12.704  1.1529 -1.0634  1.0700
 5701SOL    HW228737   2.859   1.379  12.751 -0.6940  1.4746  1.4042
 5702SOL     OW28738   1.805   2.044  12.494 -0.4513 -0.2183  0.3431
 5702SOL    HW128739   1.719   2.079  12.519 -0.5593 -0.1936 -0.0482
 5702SOL    HW228740   1.833   2.010  12.579  2.5719  2.7725  0.5333
 5703SOL     OW28741   3.065   2.064   1.519 -0.1463 -0.1874 -0.1352
 5703SOL    HW128742   3.010   2.053   1.441 -0.5727  2.1309 -0.1777
 5703SOL    HW228743   3.034   2.149   1.551 -1.8580 -0.6733 -0.5093
 5704SOL     OW28744   1.464   4.643   2.413  0.2611 -0.0157  0.3057
 5704SOL    HW128745   1.462   4.682   2.500  0.4487  0.3688  0.1347
 5704SOL    HW228746   1.452   4.722   2.361  1.7719  0.1541  0.2091
 5705SOL     OW28747   1.935   4.298   8.311 -0.0002  0.2000 -0.0073
 5705SOL    HW128748   1.945   4.353   8.234  2.0139  1.8109  1.4286
 5705SOL    HW228749   1.871   4.346   8.364  0.4532 -0.2132  0.8980
 5706SOL     OW28750   3.272   1.100   9.416  0.5806  0.8064  0.3763
 5706SOL    HW128751   3.331   1.025   9.407 -0.5587  0.1963 -1.7856
 5706SOL    HW228752   3.307   1.157   9.347  3.1976  0.5896  1.5265
 5707SOL     OW28753   2.760   3.380   2.420 -0.3320 -0.4992  0.5634
 5707SOL    HW128754   2.705   3.417   2.351  1.2266 -0.1364 -0.5033
 5707SOL    HW228755   2.699   3.325   2.469 -1.7346 -0.2592 -0.9248
 5708SOL     OW28756   1.743   1.570  16.989  0.5704  0.2159 -0.1408
 5708SOL    HW128757   1.750   1.643  16.928 -2.3256  1.1382  0.6190
 5708SOL    HW228758   1.806   1.503  16.962  1.2410  0.6332  0.3901
 5709SOL     OW28759   2.528   0.184   0.182 -0.2200  0.2691  0.1281
 5709SOL    HW128760   2.438   0.160   0.162 -0.2406 -1.2918  2.1059
 5709SOL    HW228761   2.512   0.260   0.238 -1.8025 -0.8896  1.2634
 5710SOL     OW28762   1.943   2.106   8.780 -0.4342 -0.2166 -0.5477
 5710SOL    HW128763   1.992   2.162   8.720  0.8198  0.6206  1.2499
 5710SOL    HW228764   2.013   2.082   8.841  0.3606 -0.4459 -1.5534
 5711SOL     OW28765   2.539   0.663   0.179  0.2383 -0.2191 -0.0457
 5711SOL    HW128766   2.559   0.722   0.106 -0.4732  0.9066  0.6636
 5711SOL    HW228767   2.454   0.702   0.201  0.4161  1.1999 -1.9121
 5712SOL     OW28768   3.650   4.450   2.976 -0.1309  0.0731  0.1363
 5712SOL    HW128769   3.570   4.408   2.946  1.0436  0.7193 -3.9353
 5712SOL    HW228770   3.618   4.502   3.050  0.5155 -0.1883  0.5989
 5713SOL     OW28771   4.712   3.931  15.806  0.3644 -0.0592 -0.0140
 5713SOL    HW128772   0.004   3.868  15.740  0.8689 -0.6067  0.7374
 5713SOL    HW228773   4.710   3.871  15.881 -0.8703 -0.3757 -0.2987
 5714SOL     OW28774   4.108   0.055   2.263 -0.2019 -0.0994 -0.2867
 5714SOL    HW128775   4.015   0.076   2.269 -0.4214 -0.8873 -0.8743
 5714SOL    HW228776   4.150   0.139   2.244 -0.3629  0.0325 -0.0514
 5715SOL     OW28777   3.345   3.998   4.495  0.0453  0.4817 -0.5063
 5715SOL    HW128778   3.380   4.004   4.584 -0.5561 -3.4901 -0.0133
 5715SOL    HW228779   3.250   3.999   4.504  0.2241 -0.1636  1.6198
 5716SOL     OW28780   2.728   0.495   6.988 -0.1790 -0.2213 -0.3929
 5716SOL    HW128781   2.748   0.586   6.966  0.7967 -0.8688 -2.2127
 5716SOL    HW228782   2.633   0.492   6.995 -0.0536 -1.9017  0.5543
 5717SOL     OW28783   3.841   1.467   3.909  0.0543 -0.0493  0.2355
 5717SOL    HW128784   3.871   1.376   3.903 -2.3227 -0.8644  0.7129
 5717SOL    HW228785   3.746   1.453   3.913 -0.4084  2.8944 -0.8217
 5718SOL     OW28786   3.581   3.127   7.358  0.1746 -0.6423 -0.3713
 5718SOL    HW128787   3.542   3.197   7.411 -1.1905 -1.6029 -0.1258
 5718SOL    HW228788   3.639   3.085   7.422 -0.7514  1.3735  1.7806
 5719SOL     OW28789   0.837   4.289   2.690 -0.1801  0.1442 -0.4592
 5719SOL    HW128790   0.743   4.275   2.679 -0.0226 -0.8349 -0.5589
 5719SOL    HW228791   0.848   4.368   2.638 -1.5080  0.0124 -0.9355
 5720SOL     OW28792   2.984   2.283   1.234 -0.0985 -0.3253  0.1846
 5720SOL    HW128793   2.889   2.295   1.240  0.3310  2.2660  2.4162
 5720SOL    HW228794   2.989   2.188   1.227 -3.9941 -0.6834  1.6830
 5721SOL     OW28795   3.306   2.249   8.743 -0.0140  0.4017 -0.8740
 5721SOL    HW128796   3.232   2.215   8.793  0.5271 -1.2024 -1.1613
 5721SOL    HW228797   3.335   2.166   8.705  1.4419  1.0681 -1.2285
 5722SOL     OW28798   1.778   3.264   6.702  0.5526 -0.5493 -0.0497
 5722SOL    HW128799   1.768   3.183   6.653 -3.4492 -0.8136  1.1983
 5722SOL    HW228800   1.753   3.332   6.640 -0.7524 -0.6935  0.3150
 5723SOL     OW28801   3.404   4.614   7.908  0.6342  0.2528 -0.2232
 5723SOL    HW128802   3.484   4.625   7.958  0.4168 -0.1027  0.2072
 5723SOL    HW228803   3.433   4.626   7.818  0.5013  0.4122 -0.2446
 5724SOL     OW28804   3.316   0.562   2.564 -0.7427 -0.0750 -0.3485
 5724SOL    HW128805   3.245   0.569   2.628  0.8867 -0.4872  1.5147
 5724SOL    HW228806   3.307   0.470   2.537 -0.9618 -0.0686 -0.3003
 5725SOL     OW28807   0.824   4.497   7.226  0.7078  0.0034 -0.0763
 5725SOL    HW128808   0.730   4.492   7.211  1.2039  0.7707 -3.4685
 5725SOL    HW228809   0.839   4.404   7.240 -1.3489 -0.1583  1.0055
 5726SOL     OW28810   3.702   3.677   9.127 -0.1259  0.6706  0.2081
 5726SOL    HW128811   3.652   3.631   9.060 -1.3437  0.5201  1.2100
 5726SOL    HW228812   3.732   3.752   9.076 -0.0031  0.9954  0.7554
 5727SOL     OW28813   2.637   0.075   1.287 -0.0386 -0.3529 -0.3340
 5727SOL    HW128814   2.622   4.734   1.339  0.7461  0.3355  0.9462
 5727SOL    HW228815   2.692   0.117   1.354  0.2975 -2.5951  0.7950
 5728SOL     OW28816   0.036   4.149   5.844 -0.0383  0.3284 -0.5436
 5728SOL    HW128817   0.125   4.156   5.878 -0.8072  1.9343  1.1495
 5728SOL    HW228818   0.059   4.104   5.762  1.9572  0.6956 -0.1754
 5729SOL     OW28819   0.913   2.945  12.683  0.1611  0.1169 -0.2421
 5729SOL    HW128820   0.946   3.026  12.646  1.7333  0.0814  1.1088
 5729SOL    HW228821   0.987   2.884  12.677 -0.7778 -1.1621  0.9093
 5730SOL     OW28822   0.008   0.860   6.479  0.3760 -0.2043  0.0591
 5730SOL    HW128823   4.721   0.826   6.393  3.1184 -1.3531 -0.2868
 5730SOL    HW228824   0.054   0.942   6.462 -0.6223  0.0900 -1.2311
 5731SOL     OW28825   1.933   1.844   7.848  0.7395 -0.9216 -0.2972
 5731SOL    HW128826   1.945   1.931   7.884  1.3776 -0.3549 -1.8708
 5731SOL    HW228827   1.982   1.843   7.766  1.7103 -2.0889  0.2981
 5732SOL     OW28828   4.578   3.279   3.665  0.3107 -0.0315 -0.3989
 5732SOL    HW128829   4.652   3.336   3.687  1.2162 -1.0631 -0.8012
 5732SOL    HW228830   4.585   3.199   3.716 -2.2106 -1.3356 -2.1239
 5733SOL     OW28831   2.386   2.835  13.725  0.3289  0.0141  0.1506
 5733SOL    HW128832   2.403   2.921  13.763  0.1278  1.3023 -2.6629
 5733SOL    HW228833   2.373   2.848  13.631 -2.0969  0.5007  0.5714
 5734SOL     OW28834   0.580   1.545  12.517 -0.1035  0.4632  0.1123
 5734SOL    HW128835   0.649   1.485  12.491 -1.3002  0.2344 -2.4863
 5734SOL    HW228836   0.513   1.488  12.554  0.3800  0.0693  0.3752
 5735SOL     OW28837   2.557   4.004   4.735 -0.1529 -0.3558 -0.3724
 5735SOL    HW128838   2.472   4.016   4.692 -0.4519 -1.3028 -0.0500
 5735SOL    HW228839   2.534   4.028   4.825 -1.1236 -0.8781 -0.4791
 5736SOL     OW28840   3.722   1.419   0.811  0.4256  0.0462  0.4174
 5736SOL    HW128841   3.786   1.476   0.854  0.2408 -0.2616  1.0981
 5736SOL    HW228842   3.751   1.439   0.722 -0.8833 -1.5992 -0.3901
 5737SOL     OW28843   1.477   1.525   0.457  1.0223  0.7940 -0.0983
 5737SOL    HW128844   1.532   1.510   0.381  0.0492 -2.0489 -0.2202
 5737SOL    HW228845   1.538   1.573   0.513  1.9837  0.3168 -0.7348
 5738SOL     OW28846   1.722   3.433   5.666  0.0325  0.6803  0.0252
 5738SOL    HW128847   1.637   3.410   5.629  0.4405 -0.2138 -0.3565
 5738SOL    HW228848   1.690   3.451   5.754 -0.1029  0.7098 -0.0305
 5739SOL     OW28849   3.744   1.941   2.571 -0.4193  0.2230 -0.5524
 5739SOL    HW128850   3.705   2.010   2.625 -0.6532 -1.3935  1.3835
 5739SOL    HW228851   3.811   1.914   2.635 -1.4326  0.4162  0.5974
 5740SOL     OW28852   2.368   1.545   7.826  0.0974 -0.4784 -0.1124
 5740SOL    HW128853   2.321   1.467   7.797 -2.1498 -0.0632  2.5165
 5740SOL    HW228854   2.340   1.570   7.913 -1.0929  2.5952 -1.3689
 5741SOL     OW28855   1.707   2.377   2.221 -0.5164  0.0730 -0.0966
 5741SOL    HW128856   1.650   2.311   2.259 -0.1163 -1.0432 -1.4404
 5741SOL    HW228857   1.689   2.358   2.129 -1.3984  1.3031 -0.1759
 5742SOL     OW28858   0.828   2.629  17.208 -0.5607 -0.0358 -0.5219
 5742SOL    HW128859   0.769   2.692  17.167 -1.4562  0.3232  1.3298
 5742SOL    HW228860   0.767   2.581  17.264 -0.1267 -1.7887 -1.5733
 5743SOL     OW28861   2.181   1.260   5.363  0.3022 -0.4638 -0.0399
 5743SOL    HW128862   2.206   1.234   5.452 -1.1773 -1.1982  0.1423
 5743SOL    HW228863   2.086   1.259   5.360  0.2978  3.0716 -1.1666
 5744SOL     OW28864   3.919   1.718   7.490 -0.0765  0.0377  0.3700
 5744SOL    HW128865   3.944   1.635   7.531  0.3692  0.3687  0.7674
 5744SOL    HW228866   3.828   1.723   7.519 -0.5740  0.3378 -1.2179
 5745SOL     OW28867   2.160   2.291   5.067  0.3321  0.2331  0.1822
 5745SOL    HW128868   2.131   2.239   5.142  0.3199  0.2245  0.1716
 5745SOL    HW228869   2.105   2.368   5.080  1.3305  0.9031  0.4597
 5746SOL     OW28870   0.815   3.512   4.925  0.2477  0.1753 -0.5248
 5746SOL    HW128871   0.895   3.502   4.977 -1.8348 -1.6244  2.3467
 5746SOL    HW228872   0.834   3.480   4.837  1.9530 -0.0130 -0.0899
 5747SOL     OW28873   3.731   2.679   9.301  0.4282 -0.5902 -0.4239
 5747SOL    HW128874   3.726   2.585   9.283 -0.7399 -1.0611  2.3158
 5747SOL    HW228875   3.753   2.706   9.212 -1.9805  2.1410 -0.2020
 5748SOL     OW28876   1.460   0.677   5.461 -0.0458 -0.0020 -0.0757
 5748SOL    HW128877   1.365   0.685   5.473 -0.3398 -0.9520 -1.7170
 5748SOL    HW228878   1.477   0.733   5.386  0.5084  0.5329  0.4576
 5749SOL     OW28879   0.731   4.425   5.921 -0.2842  0.6889  0.0014
 5749SOL    HW128880   0.669   4.489   5.887  1.0477  1.9586 -0.0717
 5749SOL    HW228881   0.768   4.474   5.994  1.5847 -0.8355  0.0733
 5750SOL     OW28882   1.909   2.057   5.167  0.0732 -0.1369 -0.2830
 5750SOL    HW128883   1.844   2.081   5.232  0.5189 -1.3035  0.6011
 5750SOL    HW228884   1.885   2.124   5.103  0.9449  0.0444 -0.4221
 5751SOL     OW28885   4.473   1.544   7.517 -0.3658 -0.1645 -0.1871
 5751SOL    HW128886   4.519   1.571   7.597 -0.9219 -0.4841  0.2390
 5751SOL    HW228887   4.537   1.494   7.466  0.6039  0.8916  0.0095
 5752SOL     OW28888   0.534   3.158   5.044  0.2306 -0.7283  0.6155
 5752SOL    HW128889   0.447   3.138   5.079  0.8736 -0.5562  2.2923
 5752SOL    HW228890   0.590   3.160   5.121  0.8212 -1.8121  0.2108
 5753SOL     OW28891   3.779   2.158  16.107 -0.2802  0.4038  0.1436
 5753SOL    HW128892   3.712   2.224  16.121 -1.0494 -0.1490 -0.9638
 5753SOL    HW228893   3.791   2.126  16.197  0.3194  0.0551 -0.0581
 5754SOL     OW28894   0.622   2.186   4.540  0.0334 -1.1479 -0.2166
 5754SOL    HW128895   0.605   2.094   4.519  0.1954 -1.2896  0.2565
 5754SOL    HW228896   0.703   2.190   4.590  1.3231 -2.1987 -2.2602
 5755SOL     OW28897   4.360   4.294   2.844 -0.2376  0.0950 -0.5038
 5755SOL    HW128898   4.265   4.283   2.853 -0.2859  0.9812  0.0545
 5755SOL    HW228899   4.370   4.325   2.754  0.9985 -2.2685 -1.1810
 5756SOL     OW28900   1.816   1.933   6.386  0.3618 -0.1009 -0.4393
 5756SOL    HW128901   1.732   1.963   6.421  0.6547  1.0714 -0.7461
 5756SOL    HW228902   1.812   1.841   6.360 -2.5520  0.3990 -1.7859
 5757SOL     OW28903   3.487   1.076   5.983 -0.1245 -0.7202  0.0561
 5757SOL    HW128904   3.452   1.029   6.059  0.1644 -1.0720 -0.0262
 5757SOL    HW228905   3.485   1.006   5.918 -0.2162 -1.8065  1.2087
 5758SOL     OW28906   3.750   0.816   6.997 -0.3172 -0.3547 -0.2136
 5758SOL    HW128907   3.804   0.825   6.919 -0.3188  1.4091  0.0022
 5758SOL    HW228908   3.805   0.757   7.049 -0.4694  0.8562  1.3209
 5759SOL     OW28909   0.112   2.347  11.400  0.3674 -0.5202  0.8083
 5759SOL    HW128910   0.102   2.286  11.473  0.9895 -2.4732 -0.7387
 5759SOL    HW228911   0.022   2.358  11.369  1.1992 -0.7742 -1.7149
 5760SOL     OW28912   2.962   3.402  10.301  0.0991  0.6969  0.1571
 5760SOL    HW128913   2.925   3.322  10.337  0.6863 -0.1512 -1.1288
 5760SOL    HW228914   2.899   3.462  10.341 -1.3564 -1.0384  0.4263
 5761SOL     OW28915   2.521   1.347  15.407  0.3493 -0.0189 -0.1925
 5761SOL    HW128916   2.481   1.424  15.447 -1.9935 -0.8091 -0.9816
 5761SOL    HW228917   2.488   1.360  15.318 -1.7855 -0.5806  0.5153
 5762SOL     OW28918   3.190   3.010   6.633  0.6254 -0.1123 -0.0953
 5762SOL    HW128919   3.281   3.019   6.662 -0.1396 -0.1817  2.2527
 5762SOL    HW228920   3.156   3.095   6.659 -0.9268 -0.5298 -0.7499
 5763SOL     OW28921   2.162   2.914  14.934 -0.1504  0.2169  0.3424
 5763SOL    HW128922   2.242   2.897  14.885 -0.1903  0.6894  0.1178
 5763SOL    HW228923   2.151   2.843  14.998  2.9103  1.4179  2.1590
 5764SOL     OW28924   3.503   0.620   5.777  0.0391  0.0349 -0.1935
 5764SOL    HW128925   3.569   0.622   5.846 -0.9306 -0.5761  0.7553
 5764SOL    HW228926   3.494   0.525   5.766  0.3035 -0.3424  2.9364
 5765SOL     OW28927   1.945   0.147  14.374  0.6758 -0.3181 -0.1054
 5765SOL    HW128928   1.912   0.099  14.298  0.6644  2.5426 -1.9078
 5765SOL    HW228929   1.988   0.221  14.332  0.8583  0.0686  0.7561
 5766SOL     OW28930   2.571   0.969   4.133 -0.1077 -0.1409 -0.4266
 5766SOL    HW128931   2.585   1.054   4.090  1.3466 -0.3365 -0.3438
 5766SOL    HW228932   2.488   0.937   4.098 -1.9095  2.1826  1.7083
 5767SOL     OW28933   2.722   4.389   5.396 -0.8842 -0.3683 -0.1126
 5767SOL    HW128934   2.767   4.443   5.460  0.8299  1.3502 -2.7927
 5767SOL    HW228935   2.787   4.320   5.382 -0.7123 -0.2836  0.2863
 5768SOL     OW28936   2.210   4.475  12.069  0.5542 -0.2843 -0.7942
 5768SOL    HW128937   2.255   4.464  11.986  1.4191 -0.8133 -0.2556
 5768SOL    HW228938   2.202   4.384  12.097 -1.9324  0.4815  1.0282
 5769SOL     OW28939   3.942   3.037   3.613 -0.2822  0.6291 -0.0584
 5769SOL    HW128940   3.935   2.964   3.675  0.5157  0.7233  0.1436
 5769SOL    HW228941   3.926   2.992   3.530  0.8519 -1.1649  0.6963
 5770SOL     OW28942   3.662   0.770  17.166  0.0573  0.2008  0.5874
 5770SOL    HW128943   3.677   0.824  17.088  1.2491 -0.2694  0.4816
 5770SOL    HW228944   3.589   0.816  17.206  0.9979  3.1852 -1.1267
 5771SOL     OW28945   2.153   0.795   1.007 -0.3150 -0.0249 -0.2634
 5771SOL    HW128946   2.130   0.832   1.092  1.9768 -0.0742  0.3785
 5771SOL    HW228947   2.092   0.721   1.010  0.0792 -0.3413 -0.1226
 5772SOL     OW28948   3.187   3.725   4.403  0.6325  0.2392 -0.0661
 5772SOL    HW128949   3.154   3.751   4.317 -3.3219  0.9978  1.6835
 5772SOL    HW228950   3.276   3.696   4.384  0.4215 -0.8163  0.5686
 5773SOL     OW28951   0.726   2.627   2.775  0.2325 -0.3320 -0.2982
 5773SOL    HW128952   0.806   2.673   2.750 -0.5178  1.3855  0.5031
 5773SOL    HW228953   0.654   2.686   2.796 -1.2500 -2.5464  0.7248
 5774SOL     OW28954   0.787   3.222   8.026  0.5755 -0.2585  0.4616
 5774SOL    HW128955   0.844   3.250   8.097 -1.4770  1.9934  1.2365
 5774SOL    HW228956   0.842   3.246   7.951 -0.8793 -0.0386 -0.5398
 5775SOL     OW28957   1.598   3.465   5.922 -0.0421  0.4048 -0.0097
 5775SOL    HW128958   1.504   3.481   5.927  0.1252  0.9689  1.2309
 5775SOL    HW228959   1.632   3.554   5.931 -0.5904  0.4673  1.4188
 5776SOL     OW28960   0.437   3.564   1.269 -0.5695 -0.1144  0.4312
 5776SOL    HW128961   0.432   3.631   1.200 -0.1540  0.0814  0.5866
 5776SOL    HW228962   0.531   3.545   1.265 -0.0464  1.9255  2.4697
 5777SOL     OW28963   3.787   3.131   6.113  0.2098 -0.8486  0.2662
 5777SOL    HW128964   3.711   3.187   6.126  1.5979  0.7273  1.7156
 5777SOL    HW228965   3.749   3.058   6.065 -2.7699  0.6671  0.3353
 5778SOL     OW28966   0.176   0.324  17.027  0.0831  0.0727  0.0631
 5778SOL    HW128967   0.147   0.403  17.071 -0.3778 -0.5936  0.9556
 5778SOL    HW228968   0.145   0.250  17.079 -0.7240  1.0422  0.9447
 5779SOL     OW28969   3.922   3.320   5.094  0.7874  0.5576  0.7055
 5779SOL    HW128970   4.000   3.355   5.053  0.7595  0.0643  0.2420
 5779SOL    HW228971   3.857   3.378   5.055  0.6056  0.2197  0.5067
 5780SOL     OW28972   3.336   2.726   4.216  0.2324 -0.2372 -0.0134
 5780SOL    HW128973   3.263   2.664   4.225 -0.2499  0.5910  1.7906
 5780SOL    HW228974   3.377   2.713   4.131 -2.2152 -0.4540 -1.1678
 5781SOL     OW28975   1.396   4.212   0.181 -0.2723  0.2262 -0.3597
 5781SOL    HW128976   1.300   4.207   0.188 -0.6158  6.0742 -1.0248
 5781SOL    HW228977   1.419   4.123   0.155 -2.6923 -1.0315  1.7439
 5782SOL     OW28978   3.287   2.370   1.067  0.3005 -0.5520  0.6594
 5782SOL    HW128979   3.196   2.374   1.095 -0.4135 -0.3617 -1.6696
 5782SOL    HW228980   3.303   2.464   1.074 -2.6166  0.0750 -1.0134
 5783SOL     OW28981   2.758   4.629  11.151  0.5706  0.2398 -0.4534
 5783SOL    HW128982   2.802   4.702  11.195 -1.3724  1.7854 -1.0567
 5783SOL    HW228983   2.703   4.686  11.097 -1.8251 -1.9869 -0.3740
 5784SOL     OW28984   0.034   1.248   2.437 -0.1985  0.4133  0.0492
 5784SOL    HW128985   4.713   1.222   2.365 -0.4105 -1.0026  0.7418
 5784SOL    HW228986   0.084   1.168   2.450 -1.8167 -0.4592  0.9259
 5785SOL     OW28987   0.357   0.041  10.054 -0.0502  0.0376 -0.2370
 5785SOL    HW128988   0.334   0.000   9.970  1.0822  0.0696 -0.5568
 5785SOL    HW228989   0.277   0.090  10.071  0.1203  0.1087  0.3412
 5786SOL     OW28990   3.482   2.858   9.349 -0.4787  0.0849  0.2672
 5786SOL    HW128991   3.506   2.943   9.313  1.3334  0.2165  1.7609
 5786SOL    HW228992   3.567   2.813   9.355  0.0044  0.9404 -0.1450
 5787SOL     OW28993   3.337   0.103   3.065 -0.8536 -0.3685  0.7611
 5787SOL    HW128994   3.337   0.171   2.997  1.3995  0.8305  1.9424
 5787SOL    HW228995   3.342   0.156   3.145 -1.9151  0.9032 -0.0274
 5788SOL     OW28996   1.199   3.275   7.435  0.5400 -0.3133 -0.2927
 5788SOL    HW128997   1.178   3.301   7.525 -2.7332 -1.2468 -0.7731
 5788SOL    HW228998   1.167   3.185   7.436  2.9988 -1.1611  0.7304
 5789SOL     OW28999   4.121   3.260   3.587 -0.5747 -0.1428 -1.0093
 5789SOL    HW129000   4.054   3.304   3.641 -0.6444 -0.7285 -0.6081
 5789SOL    HW229001   4.077   3.175   3.586 -1.4736  0.3392 -2.4920
 5790SOL     OW29002   1.489   3.971   5.841 -0.2190  0.2259  0.3073
 5790SOL    HW129003   1.438   3.900   5.802 -1.7098  0.4863  1.7965
 5790SOL    HW229004   1.473   3.942   5.930  2.4025 -1.8623  0.1271
 5791SOL     OW29005   1.315   0.729   8.510  0.5290 -0.4804  0.8635
 5791SOL    HW129006   1.241   0.693   8.460  1.4125  1.7450 -2.0390
 5791SOL    HW229007   1.267   0.764   8.585 -1.0561 -1.2966  0.2309
 5792SOL     OW29008   0.792   4.715   5.295 -0.0414 -0.0629  0.2868
 5792SOL    HW129009   0.801   4.626   5.262 -1.0790 -0.2318  0.4650
 5792SOL    HW229010   0.743   0.016   5.223  0.7210  1.5806  0.6550
 5793SOL     OW29011   2.398   2.155   0.023 -0.0024  0.5250  0.3455
 5793SOL    HW129012   2.364   2.175   0.110  1.5959  1.5199  0.7469
 5793SOL    HW229013   2.319   2.154  17.718  1.4277  0.7522 -1.7511
 5794SOL     OW29014   1.927   2.925   1.433 -0.5279 -0.3568 -0.4023
 5794SOL    HW129015   1.882   3.005   1.458  3.2995  1.6068  0.2390
 5794SOL    HW229016   1.921   2.938   1.338 -0.1256 -0.0859 -0.3909
 5795SOL     OW29017   1.795   1.826  11.360  0.2754  0.1335 -0.8070
 5795SOL    HW129018   1.725   1.849  11.422  2.9222 -0.9403  2.5413
 5795SOL    HW229019   1.863   1.838  11.425 -1.0047  1.6094  0.2742
 5796SOL     OW29020   3.520   1.026   4.260 -0.4992  0.1281 -0.2998
 5796SOL    HW129021   3.588   1.064   4.204 -1.3945  2.6683  0.3545
 5796SOL    HW229022   3.476   0.974   4.193 -0.3338  0.2485 -0.5029
 5797SOL     OW29023   3.693   0.199  10.601  0.0661  0.6699 -0.2431
 5797SOL    HW129024   3.613   0.213  10.551  1.1263 -0.0106 -2.1155
 5797SOL    HW229025   3.752   0.248  10.544  0.9118 -2.0583 -1.7004
 5798SOL     OW29026   0.341   1.882   6.172 -0.0197  0.2301  0.3575
 5798SOL    HW129027   0.436   1.884   6.168 -0.1122 -1.0975 -2.1989
 5798SOL    HW229028   0.321   1.830   6.095  0.5046 -2.1157  1.8111
 5799SOL     OW29029   2.776   4.663   7.386  0.2241 -0.9073  0.1253
 5799SOL    HW129030   2.695   4.654   7.436 -1.5793  2.9662 -2.0452
 5799SOL    HW229031   2.813   4.729   7.445 -0.0975 -0.6435  0.0347
 5800SOL     OW29032   2.757   4.228  15.508 -0.3188 -0.0054  0.2490
 5800SOL    HW129033   2.696   4.299  15.532  0.4348  1.1443 -1.1998
 5800SOL    HW229034   2.709   4.190  15.435 -0.2653  1.6255 -0.6374
 5801SOL     OW29035   2.501   3.189   8.754 -0.4678 -0.2400 -0.7195
 5801SOL    HW129036   2.486   3.277   8.790  1.6115 -0.3367  0.3774
 5801SOL    HW229037   2.511   3.201   8.660 -1.1854  1.9670 -0.5272
 5802SOL     OW29038   3.132   0.613   2.767  0.1068 -0.1131  0.1310
 5802SOL    HW129039   3.082   0.693   2.751 -0.5349  0.2139  3.7586
 5802SOL    HW229040   3.058   0.556   2.789 -0.3363  0.1776 -0.6145
 5803SOL     OW29041   4.012   1.866   2.143 -0.3099 -0.2094  0.0712
 5803SOL    HW129042   3.932   1.902   2.105  0.4249  0.5760 -0.7023
 5803SOL    HW229043   3.969   1.797   2.195  2.2081 -0.7767  1.3759
 5804SOL     OW29044   0.388   2.428  10.814  0.0309  0.0393 -0.1398
 5804SOL    HW129045   0.466   2.429  10.870 -0.3763 -1.5660  0.4563
 5804SOL    HW229046   0.372   2.334  10.807  0.8051 -0.2312  1.6517
 5805SOL     OW29047   3.220   0.906   3.326  0.2543 -0.1475 -0.3875
 5805SOL    HW129048   3.254   0.909   3.236  0.1903 -0.5371 -0.4229
 5805SOL    HW229049   3.134   0.868   3.312  0.8908 -2.4472  1.9896
 5806SOL     OW29050   1.456   0.285   5.778 -0.1118 -1.1075  0.0379
 5806SOL    HW129051   1.409   0.246   5.851  0.1864  0.1412  0.9039
 5806SOL    HW229052   1.434   0.376   5.799  1.8861 -0.6812  0.2346
 5807SOL     OW29053   1.816   3.785   4.447 -0.8768 -0.0586  0.3199
 5807SOL    HW129054   1.816   3.880   4.449  1.3929 -0.1102  1.8962
 5807SOL    HW229055   1.851   3.770   4.359 -0.7680  0.9193  0.1984
 5808SOL     OW29056   3.708   4.328   8.135  0.4512 -0.0714 -0.3710
 5808SOL    HW129057   3.624   4.360   8.169  2.0009  1.9362  1.5741
 5808SOL    HW229058   3.739   4.406   8.088 -2.1617  0.3880 -1.3480
 5809SOL     OW29059   1.252   1.116   3.787  0.0051 -0.4678 -0.7490
 5809SOL    HW129060   1.311   1.049   3.750  0.3116  0.4498 -1.9068
 5809SOL    HW229061   1.307   1.141   3.861 -0.8493 -1.5268  0.2336
 5810SOL     OW29062   0.150   2.829   8.025 -0.0495 -0.0971 -0.1082
 5810SOL    HW129063   0.121   2.856   8.112 -1.0302  2.8105 -1.3152
 5810SOL    HW229064   0.227   2.886   8.025 -0.6697  0.7515 -3.4976
 5811SOL     OW29065   4.560   2.696   5.662  0.6296  0.1693  0.1766
 5811SOL    HW129066   4.602   2.684   5.577  0.4960  0.0084  0.1318
 5811SOL    HW229067   4.569   2.791   5.669  0.7663  0.1760 -0.0906
 5812SOL     OW29068   0.361   3.127  15.771  0.3544 -0.2576 -0.0374
 5812SOL    HW129069   0.270   3.137  15.800 -0.3387 -1.8076 -1.7127
 5812SOL    HW229070   0.368   3.032  15.781 -0.9016 -0.7535 -3.8088
 5813SOL     OW29071   0.656   1.567   1.306  0.4756 -0.1547 -0.0717
 5813SOL    HW129072   0.695   1.574   1.219  0.4773  1.8333  0.0691
 5813SOL    HW229073   0.588   1.502   1.289 -1.9966  2.1259  1.1574
 5814SOL     OW29074   1.657   3.883  13.333  0.2168 -0.3092 -0.2607
 5814SOL    HW129075   1.676   3.861  13.242 -0.1247 -0.7248 -0.2306
 5814SOL    HW229076   1.619   3.804  13.371 -0.7929  0.5461  0.5101
 5815SOL     OW29077   4.636   4.355   8.157  0.2209  0.2024  0.8493
 5815SOL    HW129078   4.545   4.325   8.165 -0.4605  1.4723 -1.9654
 5815SOL    HW229079   4.679   4.272   8.138  0.3298  0.1369  1.3664
 5816SOL     OW29080   1.907   1.124   7.935 -0.5532  0.1371 -0.1395
 5816SOL    HW129081   1.976   1.066   7.902  1.4020  2.4259 -0.0928
 5816SOL    HW229082   1.881   1.078   8.014  1.0094 -1.4750 -0.5627
 5817SOL     OW29083   0.810   2.117   3.409 -0.3135 -0.5464 -0.2283
 5817SOL    HW129084   0.824   2.080   3.322  2.2332  1.0930 -0.5109
 5817SOL    HW229085   0.752   2.186   3.379 -2.7936 -1.3942  2.5841
 5818SOL     OW29086   0.890   4.473   8.300  0.5232 -0.2592  0.0364
 5818SOL    HW129087   0.909   4.563   8.275  0.8913  0.1348  1.7484
 5818SOL    HW229088   0.979   4.444   8.320  0.7658  0.3680 -0.1740
 5819SOL     OW29089   4.491   3.271   9.679 -0.5230 -0.2942  0.4652
 5819SOL    HW129090   4.539   3.302   9.602 -0.0322  1.1116  1.3447
 5819SOL    HW229091   4.558   3.222   9.726 -1.9790 -1.0811  1.6858
 5820SOL     OW29092   0.614   2.408   2.654 -0.5757 -0.0854 -0.1745
 5820SOL    HW129093   0.565   2.456   2.587  0.2037  0.7340 -0.1621
 5820SOL    HW229094   0.642   2.482   2.709  0.6168  0.4795 -1.5386
 5821SOL     OW29095   2.060   1.956   1.889  0.4366  0.1329  0.2728
 5821SOL    HW129096   2.150   1.945   1.858 -0.3410  0.8454 -2.2349
 5821SOL    HW229097   2.016   1.914   1.815 -0.1669  1.0245  0.1352
 5822SOL     OW29098   2.978   4.431   4.191  0.2163 -0.8474 -0.2311
 5822SOL    HW129099   2.984   4.520   4.156 -1.1258  0.2685  2.3652
 5822SOL    HW229100   2.901   4.430   4.248 -1.1659  1.5654 -2.0907
 5823SOL     OW29101   4.394   2.792   7.058  0.4597 -0.0555  0.6980
 5823SOL    HW129102   4.408   2.849   6.982  0.0571  0.1760  0.7983
 5823SOL    HW229103   4.460   2.727   7.037  1.1945  0.3124  1.8698
 5824SOL     OW29104   2.994   0.044   2.563 -0.3050  0.3531 -0.3784
 5824SOL    HW129105   2.988   0.127   2.516  0.6009  1.2001  1.0037
 5824SOL    HW229106   2.916   4.730   2.542 -1.2210  0.8053  1.9062
 5825SOL     OW29107   4.154   2.264  16.992 -0.2713  0.1201 -0.3474
 5825SOL    HW129108   4.104   2.343  16.973 -0.0300  0.2894 -0.2807
 5825SOL    HW229109   4.187   2.237  16.906  0.3250 -2.3929  0.6869
 5826SOL     OW29110   0.822   4.187  11.054  0.2861 -0.8319 -0.8599
 5826SOL    HW129111   0.869   4.200  10.972 -0.2451  2.6947 -0.6151
 5826SOL    HW229112   0.853   4.264  11.102 -2.2477 -0.7135  0.5507
 5827SOL     OW29113   1.837   2.923   3.852 -0.2761  0.0041 -0.1725
 5827SOL    HW129114   1.807   2.882   3.772  2.8437  0.4815 -1.5729
 5827SOL    HW229115   1.932   2.928   3.841 -0.4618 -1.7606 -2.4790
 5828SOL     OW29116   0.620   4.131  17.268 -0.3045 -0.3556  0.2996
 5828SOL    HW129117   0.616   4.065  17.337 -1.1598  0.0038  0.5926
 5828SOL    HW229118   0.692   4.087  17.222  0.4998 -0.2788  1.4786
 5829SOL     OW29119   3.948   3.882   0.555 -0.1617 -0.4570  0.1807
 5829SOL    HW129120   3.877   3.884   0.491 -3.3562 -1.9751  3.6387
 5829SOL    HW229121   3.900   3.849   0.631 -0.1899  0.2201  0.4541
 5830SOL     OW29122   0.751   4.134   2.410  0.2903  0.0468  0.1142
 5830SOL    HW129123   0.711   4.049   2.427  2.0066 -0.9536 -0.8718
 5830SOL    HW229124   0.694   4.178   2.347 -0.1127 -1.9533 -0.8983
 5831SOL     OW29125   2.444   0.997   9.328 -0.3515  0.3823  0.0366
 5831SOL    HW129126   2.498   0.951   9.391 -2.0325  0.5240  1.5919
 5831SOL    HW229127   2.483   1.084   9.335  0.8569 -0.4027  2.8723
 5832SOL     OW29128   4.132   0.009   9.362  0.4294 -0.2351 -0.7687
 5832SOL    HW129129   4.144   0.006   9.267  1.1787 -2.7419 -0.5901
 5832SOL    HW229130   4.148   4.658   9.394 -1.7951 -0.1150  0.6971
 5833SOL     OW29131   1.073   1.800   9.367  0.8658 -0.3018  0.3003
 5833SOL    HW129132   1.027   1.884   9.376  2.4873  0.5244  0.9232
 5833SOL    HW229133   1.040   1.753   9.444  1.8584  0.6707  1.3193
 5834SOL     OW29134   2.238   2.737   7.932  0.1874  0.7660 -0.3437
 5834SOL    HW129135   2.211   2.659   7.980  2.3174 -0.7058 -1.5423
 5834SOL    HW229136   2.166   2.742   7.869 -1.0170 -0.7574  0.9214
 5835SOL     OW29137   0.113   4.463   8.745  0.0723  0.6444  0.0211
 5835SOL    HW129138   0.117   4.377   8.705 -1.8658 -0.1631  1.5811
 5835SOL    HW229139   0.111   4.526   8.672  0.9776  0.0663 -0.5072
 5836SOL     OW29140   0.844   1.039  14.232  0.1855  0.1888  0.8895
 5836SOL    HW129141   0.868   0.952  14.265  1.4866  0.1528 -0.1624
 5836SOL    HW229142   0.751   1.023  14.244  0.9964 -2.8083  3.2186
 5837SOL     OW29143   4.505   4.168   3.020 -1.0678 -0.2406  0.4808
 5837SOL    HW129144   4.471   4.235   2.960 -1.4782 -0.9011 -0.0161
 5837SOL    HW229145   4.478   4.086   2.979 -0.6794 -0.2805  0.3111
 5838SOL     OW29146   4.582   0.136   8.284 -0.0115  0.1411  0.3479
 5838SOL    HW129147   4.505   0.174   8.242 -0.7798 -0.3524  1.2994
 5838SOL    HW229148   4.575   0.049   8.243  0.5465  0.3700 -0.2188
 5839SOL     OW29149   0.391   3.136   5.991 -0.1776 -0.0649 -0.2205
 5839SOL    HW129150   0.452   3.063   5.975  1.2796  0.6023  2.2034
 5839SOL    HW229151   0.447   3.203   6.030 -1.0482 -0.5253  1.8416
 5840SOL     OW29152   3.178   0.917   2.247  0.1907  0.5244  0.2568
 5840SOL    HW129153   3.242   0.909   2.176 -0.1440 -0.5630  0.0810
 5840SOL    HW229154   3.181   1.012   2.263  0.0701  1.0602 -2.8518
 5841SOL     OW29155   2.176   1.873   6.268 -0.2958 -0.0255 -0.3039
 5841SOL    HW129156   2.112   1.802   6.266  1.9456 -2.0012 -1.5808
 5841SOL    HW229157   2.178   1.887   6.173  1.1119 -0.0035 -0.2708
 5842SOL     OW29158   3.687   4.136   6.834 -0.5543  0.3211 -0.3497
 5842SOL    HW129159   3.711   4.226   6.812  2.6166 -1.3521 -3.7391
 5842SOL    HW229160   3.720   4.078   6.765  1.5069 -0.0721  0.9545
 5843SOL     OW29161   2.903   3.409   6.923 -0.3374 -1.2875 -0.0746
 5843SOL    HW129162   2.901   3.472   6.995  1.5821 -1.0125 -0.2522
 5843SOL    HW229163   2.922   3.471   6.852  2.0039 -2.4049 -0.4140
 5844SOL     OW29164   1.263   4.046  15.922  0.1711  0.1574 -0.1452
 5844SOL    HW129165   1.267   4.106  15.997  1.9732  0.5227 -0.5251
 5844SOL    HW229166   1.323   3.978  15.953  0.3594  1.1604  1.7434
 5845SOL     OW29167   1.846   2.545  11.234 -0.7020 -0.2259 -0.5155
 5845SOL    HW129168   1.888   2.580  11.156 -0.0607 -0.6663 -0.3692
 5845SOL    HW229169   1.883   2.611  11.292  0.3121 -1.1880 -0.0608
 5846SOL     OW29170   0.748   4.144   8.490 -0.8526 -0.3192 -0.1290
 5846SOL    HW129171   0.768   4.070   8.432  2.5200  1.1070 -0.7968
 5846SOL    HW229172   0.669   4.111   8.533 -1.1343  1.6190  0.8268
 5847SOL     OW29173   4.567   4.726  10.603 -0.5237  0.5485 -0.0130
 5847SOL    HW129174   4.536   4.636  10.595  0.9949 -0.0819  1.1456
 5847SOL    HW229175   4.542   4.738  10.695 -1.5801  0.8479 -0.3304
 5848SOL     OW29176   1.758   4.254   8.035  0.3204  0.1062  0.6245
 5848SOL    HW129177   1.817   4.208   7.975  0.2187  0.4547  0.2557
 5848SOL    HW229178   1.674   4.215   8.009 -0.1129 -0.5598  3.0949
 5849SOL     OW29179   2.351   2.983   4.444 -0.1377 -0.4184 -0.1187
 5849SOL    HW129180   2.293   3.055   4.421  1.6826  0.9349 -0.5005
 5849SOL    HW229181   2.347   2.933   4.362  0.8068  0.4307 -0.6846
 5850SOL     OW29182   3.049   4.402   5.915 -0.1376 -0.1769 -0.7909
 5850SOL    HW129183   3.051   4.307   5.904 -0.5602 -0.4263  1.1807
 5850SOL    HW229184   3.097   4.417   5.997  0.6303 -2.2148 -0.8694
 5851SOL     OW29185   3.488   4.114  10.038  0.2455  0.1625 -0.2589
 5851SOL    HW129186   3.469   4.182  10.103  0.6768 -1.7301  1.8314
 5851SOL    HW229187   3.402   4.072  10.033  0.4468 -0.1313 -1.2054
 5852SOL     OW29188   3.989   3.848   4.230  0.5965 -0.0844 -0.2000
 5852SOL    HW129189   4.051   3.784   4.263  1.7189  0.5356 -1.1103
 5852SOL    HW229190   3.978   3.818   4.140  1.0537  1.6797 -0.8497
 5853SOL     OW29191   2.085   0.686   6.901 -0.4140 -0.4691 -0.0407
 5853SOL    HW129192   2.019   0.755   6.905  1.3729  1.2987 -1.0374
 5853SOL    HW229193   2.035   0.604   6.906  1.2407 -1.3956  1.2621
 5854SOL     OW29194   4.011   1.487   1.943  0.4993 -0.8675 -0.0421
 5854SOL    HW129195   4.011   1.409   1.887 -1.5700  1.1868 -2.9285
 5854SOL    HW229196   3.923   1.499   1.979  0.2026 -0.7912 -0.7837
 5855SOL     OW29197   0.518   4.232   4.942  0.0470 -0.3710 -0.2930
 5855SOL    HW129198   0.601   4.258   4.903  0.4780 -1.4218 -0.0918
 5855SOL    HW229199   0.466   4.284   4.880 -1.1628  0.1707  1.1830
 5856SOL     OW29200   1.000   1.501   7.612 -0.1946  0.4992 -0.0290
 5856SOL    HW129201   1.027   1.540   7.695 -2.6021  0.9446  0.5274
 5856SOL    HW229202   1.062   1.428   7.613 -0.8253 -0.1019 -2.7551
 5857SOL     OW29203   3.032   0.597  10.407  0.4567  0.6343 -0.1463
 5857SOL    HW129204   3.053   0.517  10.454  0.8785 -0.7240 -2.6483
 5857SOL    HW229205   2.940   0.603  10.432  0.3965 -0.5050 -0.1239
 5858SOL     OW29206   3.033   3.560   8.458  0.0174 -0.2938 -0.5577
 5858SOL    HW129207   3.106   3.590   8.404  0.3745 -0.1632 -0.0062
 5858SOL    HW229208   2.956   3.577   8.404  0.5296  1.3212 -0.7704
 5859SOL     OW29209   1.060   0.024   8.777  0.1712  0.2038  0.4749
 5859SOL    HW129210   1.060   0.017   8.872 -2.3703  2.0499  0.6156
 5859SOL    HW229211   1.155   0.028   8.764 -0.1562 -0.4716 -2.1572
 5860SOL     OW29212   3.781   0.240   7.828 -0.2201  0.3460  0.1681
 5860SOL    HW129213   3.828   0.309   7.875 -0.9250  1.2813 -0.5142
 5860SOL    HW229214   3.806   0.259   7.737 -2.5646 -0.6093 -0.6665
 5861SOL     OW29215   4.483   3.671   3.871  0.3615 -0.1599  0.0615
 5861SOL    HW129216   4.486   3.755   3.826 -1.1077 -0.7863 -1.2047
 5861SOL    HW229217   4.423   3.627   3.811  0.5935  1.1566 -1.1239
 5862SOL     OW29218   4.505   3.868  14.876 -0.0560  0.2561  0.5542
 5862SOL    HW129219   4.580   3.901  14.826  0.6210 -1.4093  0.4773
 5862SOL    HW229220   4.464   3.812  14.810 -1.8909  0.4698  1.5142
 5863SOL     OW29221   1.497   2.535  12.136 -0.1257  0.7550  0.2853
 5863SOL    HW129222   1.434   2.470  12.104  0.4706  0.4622 -0.2954
 5863SOL    HW229223   1.543   2.546  12.053 -0.3984  1.7631  0.2703
 5864SOL     OW29224   1.359   1.846   0.908 -0.0130 -0.4681 -0.1561
 5864SOL    HW129225   1.406   1.833   0.990  1.9207 -1.2839 -1.3892
 5864SOL    HW229226   1.316   1.761   0.904  1.6263 -1.2970 -0.1947
 5865SOL     OW29227   1.373   2.534   5.942 -0.0107  0.1003 -0.3498
 5865SOL    HW129228   1.324   2.573   6.014 -0.4159  1.3540 -1.3116
 5865SOL    HW229229   1.306   2.476   5.905 -0.9760  0.9100  0.1441
 5866SOL     OW29230   2.490   4.048   6.516 -0.1143 -0.0137 -0.0699
 5866SOL    HW129231   2.429   4.118   6.542  0.8916  1.4797 -1.6825
 5866SOL    HW229232   2.571   4.096   6.502  0.1576 -0.2866  0.5701
 5867SOL     OW29233   1.216   0.628   9.636  0.6069  0.0708  0.2938
 5867SOL    HW129234   1.294   0.615   9.581 -0.4974 -0.3714 -1.1691
 5867SOL    HW229235   1.244   0.634   9.728 -1.7695 -0.9895  1.0737
 5868SOL     OW29236   4.037   2.494   9.761 -0.1034  0.2402 -0.5756
 5868SOL    HW129237   4.046   2.458   9.850 -1.4425  1.1638 -0.0558
 5868SOL    HW229238   4.069   2.583   9.772  1.5545 -0.3760 -0.4443
 5869SOL     OW29239   3.012   2.601   1.990  0.2769  0.0316  0.3703
 5869SOL    HW129240   2.993   2.581   2.081  0.3142  0.1254  0.3991
 5869SOL    HW229241   2.995   2.695   1.994 -0.9813 -0.2408  1.5737
 5870SOL     OW29242   1.112   0.500   7.987 -0.4481  0.1128 -0.2438
 5870SOL    HW129243   1.039   0.531   7.934  0.7786  1.5863 -1.0909
 5870SOL    HW229244   1.140   0.579   8.034  0.0755 -0.5640  0.6000
 5871SOL     OW29245   2.247   0.283   4.318 -0.9611  0.2747 -0.5234
 5871SOL    HW129246   2.226   0.254   4.406 -0.9779  2.0986  0.0720
 5871SOL    HW229247   2.291   0.363   4.347  0.7853 -0.6899 -0.4700
 5872SOL     OW29248   2.223   4.221  15.131 -0.2198  0.5673 -0.1067
 5872SOL    HW129249   2.266   4.143  15.167 -0.3796  1.7293  2.6174
 5872SOL    HW229250   2.259   4.241  15.045  1.7130  1.2591  0.8554
 5873SOL     OW29251   0.879   2.021   2.775  0.1638 -0.3384  1.0136
 5873SOL    HW129252   0.812   2.020   2.707  0.3778  2.7498  0.7591
 5873SOL    HW229253   0.872   1.945   2.832  2.0363 -1.9255 -0.8857
 5874SOL     OW29254   0.415   0.245   6.991  0.2726  0.3661  0.6602
 5874SOL    HW129255   0.359   0.219   7.064  2.3624 -0.6545  1.8914
 5874SOL    HW229256   0.434   0.337   7.006  1.9951  0.1964 -0.5138
 5875SOL     OW29257   4.433   1.626   8.180  0.5872  0.0990 -0.3796
 5875SOL    HW129258   4.384   1.633   8.262 -1.0856 -3.3621 -1.0842
 5875SOL    HW229259   4.515   1.590   8.215  0.2431 -0.6235 -0.3385
 5876SOL     OW29260   3.191   4.128  10.896  0.3252  0.0070 -0.1335
 5876SOL    HW129261   3.158   4.038  10.889 -1.0967  0.6202 -1.2420
 5876SOL    HW229262   3.251   4.127  10.970  1.4753 -0.6840 -1.0784
 5877SOL     OW29263   0.284   0.578   1.248 -0.5431  0.6613 -0.3048
 5877SOL    HW129264   0.282   0.502   1.307  0.3249  0.2685 -0.7854
 5877SOL    HW229265   0.374   0.565   1.219  0.7255  2.7870  2.7188
 5878SOL     OW29266   3.123   2.437  12.933 -0.4277  0.4039 -0.4355
 5878SOL    HW129267   3.140   2.349  12.967 -0.8985  0.3049 -0.4578
 5878SOL    HW229268   3.038   2.450  12.975  0.3783 -0.1265  1.3825
 5879SOL     OW29269   1.584   1.888   2.869 -0.4541 -0.4561 -0.2959
 5879SOL    HW129270   1.665   1.878   2.820  0.3711 -2.2841  1.4068
 5879SOL    HW229271   1.550   1.798   2.873 -1.0530 -0.3674 -3.8224
 5880SOL     OW29272   3.299   4.728   8.991 -0.4028 -0.0997 -0.4676
 5880SOL    HW129273   3.368   4.668   9.020 -1.0809 -0.1327  1.0666
 5880SOL    HW229274   3.342   0.074   8.975  1.6259 -1.0798 -0.2418
 5881SOL     OW29275   3.441   0.620   6.258 -0.6167 -0.6543 -0.1956
 5881SOL    HW129276   3.404   0.624   6.346  0.5817 -0.1997  0.2863
 5881SOL    HW229277   3.419   0.709   6.233  0.0269  0.0650  1.7913
 5882SOL     OW29278   1.028   3.468   3.191  0.3659 -0.1758 -0.1926
 5882SOL    HW129279   1.048   3.522   3.114 -1.3029  2.4832  1.2437
 5882SOL    HW229280   1.117   3.437   3.209  0.3361 -0.1232  0.0433
 5883SOL     OW29281   2.851   2.980  11.786 -0.3639 -0.0914  0.3109
 5883SOL    HW129282   2.879   2.930  11.864  0.9847  0.6377  0.2926
 5883SOL    HW229283   2.903   2.945  11.714 -1.0031  1.9507 -1.1454
 5884SOL     OW29284   2.767   2.041   3.064 -0.3984 -0.1325 -0.0107
 5884SOL    HW129285   2.692   2.027   3.122 -0.5728  2.3800  0.3991
 5884SOL    HW229286   2.775   2.136   3.078  2.8447 -0.3998 -0.1090
 5885SOL     OW29287   3.204   4.182   3.391  0.3115 -0.0474  0.4228
 5885SOL    HW129288   3.269   4.141   3.333 -0.4446  0.0466 -0.5009
 5885SOL    HW229289   3.168   4.242   3.326  0.6628  0.2348  0.4910
 5886SOL     OW29290   0.290   2.213   2.521  0.1219  0.0214  0.3154
 5886SOL    HW129291   0.285   2.132   2.570 -2.7248 -0.3222 -0.5363
 5886SOL    HW229292   0.259   2.265   2.595 -1.4216 -1.4301  0.6720
 5887SOL     OW29293   3.232   4.520   7.051  0.4409  0.0654 -0.2775
 5887SOL    HW129294   3.240   4.427   7.072  0.1063  0.0250 -0.3163
 5887SOL    HW229295   3.286   4.540   6.975  2.1769 -0.7494  0.7547
 5888SOL     OW29296   2.906   4.493  12.719  0.0891  0.1892 -0.0164
 5888SOL    HW129297   2.961   4.571  12.711 -1.4825  1.1542 -1.4079
 5888SOL    HW229298   2.842   4.505  12.649 -0.3738  1.3640  0.6287
 5889SOL     OW29299   4.027   0.858   3.404 -0.1065  0.1930  0.1582
 5889SOL    HW129300   4.102   0.837   3.459  0.1974  0.8266 -0.0204
 5889SOL    HW229301   4.071   0.879   3.322  3.3137  0.0907  1.9991
 5890SOL     OW29302   1.524   2.662   3.631 -0.3768  0.1089 -0.4387
 5890SOL    HW129303   1.499   2.680   3.722  1.8724  1.2405 -0.0300
 5890SOL    HW229304   1.544   2.568   3.632 -1.5847 -0.1365  1.3317
 5891SOL     OW29305   0.093   1.910  13.197 -0.1001 -0.0597 -0.0085
 5891SOL    HW129306   0.104   1.818  13.220  2.9564  0.1726 -0.5287
 5891SOL    HW229307   0.082   1.945  13.286  0.0725 -0.6874  0.2602
 5892SOL     OW29308   0.507   4.284   4.466 -0.4157  0.3174 -0.1432
 5892SOL    HW129309   0.495   4.194   4.496  0.8561  0.2150  0.0605
 5892SOL    HW229310   0.422   4.328   4.471 -1.0177 -0.7699 -0.7287
 5893SOL     OW29311   0.951   1.447   2.043  1.0692  0.4172  0.4326
 5893SOL    HW129312   0.937   1.542   2.043  1.9178  0.5375  1.4320
 5893SOL    HW229313   0.910   1.421   1.960  1.5292  0.1116  0.3010
 5894SOL     OW29314   3.770   3.333   8.198 -0.1257  0.1003 -0.4576
 5894SOL    HW129315   3.863   3.355   8.189 -0.0886  0.0279 -0.2596
 5894SOL    HW229316   3.742   3.420   8.229 -0.9135 -0.5569  0.6694
 5895SOL     OW29317   1.549   4.139  16.943  0.2251  0.3761  0.1517
 5895SOL    HW129318   1.510   4.224  16.924 -0.9646 -0.1311  0.3630
 5895SOL    HW229319   1.630   4.177  16.978  0.0032  0.6160  0.3945
 5896SOL     OW29320   2.332   4.547   7.793 -0.0051  0.2190  0.7916
 5896SOL    HW129321   2.400   4.615   7.794  0.7185 -0.4759 -0.8619
 5896SOL    HW229322   2.391   4.475   7.773  0.2072 -0.0998  2.5612
 5897SOL     OW29323   0.362   1.377   0.356 -0.1161 -0.1452  0.2640
 5897SOL    HW129324   0.299   1.311   0.386  0.4773 -1.0268 -0.4081
 5897SOL    HW229325   0.369   1.441   0.426 -0.6086  3.4580 -2.9956
 5898SOL     OW29326   3.597   4.334   2.684 -0.4115 -0.4296  0.3640
 5898SOL    HW129327   3.623   4.413   2.638  0.3413 -1.2362 -0.6013
 5898SOL    HW229328   3.517   4.364   2.727  0.1335  0.5678  0.6721
 5899SOL     OW29329   0.007   4.621  15.082 -0.2025 -0.5934 -0.1059
 5899SOL    HW129330   0.062   4.614  15.160  0.6029 -1.2212 -0.7299
 5899SOL    HW229331   4.721   4.711  15.059 -4.2800 -1.4135  0.7974
 5900SOL     OW29332   4.355   2.280   6.569  0.4338  0.2593 -0.2424
 5900SOL    HW129333   4.387   2.370   6.568  0.4580  0.2924  1.8330
 5900SOL    HW229334   4.272   2.298   6.524 -0.3384 -0.7184  0.7932
 5901SOL     OW29335   1.992   1.321   0.541 -0.0778 -0.0459 -0.2761
 5901SOL    HW129336   2.076   1.288   0.508  0.4073 -2.3499  3.2385
 5901SOL    HW229337   1.937   1.243   0.531  0.7088 -0.4630 -1.3351
 5902SOL     OW29338   2.524   4.426   0.219 -0.5202  0.1266  0.5118
 5902SOL    HW129339   2.501   4.394   0.307 -0.5378 -0.0805  0.4313
 5902SOL    HW229340   2.527   4.349   0.162  1.2595  0.2792  0.3827
 5903SOL     OW29341   1.484   2.675  12.622 -0.4278 -0.3109 -0.1073
 5903SOL    HW129342   1.429   2.753  12.624 -0.1920 -0.1596  0.6050
 5903SOL    HW229343   1.440   2.624  12.554 -0.4688 -0.5755  0.1168
 5904SOL     OW29344   1.789   0.669   4.178 -0.1382  0.2960  0.6474
 5904SOL    HW129345   1.866   0.612   4.179  0.0068  0.5133  1.6327
 5904SOL    HW229346   1.729   0.614   4.128  0.4023  0.8355 -0.6158
 5905SOL     OW29347   4.732   2.580   1.967 -0.0507 -0.3447  0.6959
 5905SOL    HW129348   4.664   2.633   1.926  0.7714 -0.1771 -0.4216
 5905SOL    HW229349   4.731   2.608   2.059  1.6347  1.3227  0.1778
 5906SOL     OW29350   1.106   0.318   2.867  0.8525 -0.3417  0.8728
 5906SOL    HW129351   1.043   0.348   2.934 -1.5612 -0.4626 -1.3443
 5906SOL    HW229352   1.061   0.343   2.786  0.2161  2.7991  2.1719
 5907SOL     OW29353   3.182   3.240   5.109  0.0993  0.1827 -0.3650
 5907SOL    HW129354   3.198   3.154   5.068  0.2368  0.1683 -0.2818
 5907SOL    HW229355   3.151   3.292   5.035  0.5264 -0.0723 -0.7236
 5908SOL     OW29356   3.576   1.591  13.568  0.2783  0.9620 -0.4103
 5908SOL    HW129357   3.589   1.562  13.478 -1.7083 -0.1038 -0.3385
 5908SOL    HW229358   3.513   1.525  13.597 -0.4854  1.2240 -1.4704
 5909SOL     OW29359   1.707   0.383  13.334  0.2455 -0.0035 -0.3206
 5909SOL    HW129360   1.766   0.316  13.368  0.2343 -0.6804 -1.6585
 5909SOL    HW229361   1.625   0.336  13.320  2.3163 -4.1002  1.2731
 5910SOL     OW29362   1.765   1.468   9.417 -0.3562 -0.4594  0.1860
 5910SOL    HW129363   1.805   1.430   9.338 -1.1512  0.0634 -0.4667
 5910SOL    HW229364   1.683   1.507   9.388 -0.0419 -0.0635 -0.1781
 5911SOL     OW29365   4.236   1.848   7.644 -0.0889  0.9532  0.0704
 5911SOL    HW129366   4.272   1.860   7.556 -0.0175  2.5296  0.3131
 5911SOL    HW229367   4.203   1.938   7.650 -1.4542  0.3889  1.0376
 5912SOL     OW29368   2.423   0.344   7.919  0.3561 -0.2679  0.2561
 5912SOL    HW129369   2.397   0.279   7.984 -1.1889 -0.6958 -0.8065
 5912SOL    HW229370   2.370   0.327   7.842 -0.2011 -0.5144  0.7008
 5913SOL     OW29371   0.452   1.714   0.574  0.0377  0.6311  0.3400
 5913SOL    HW129372   0.488   1.803   0.571 -0.1836  0.7105  0.0142
 5913SOL    HW229373   0.429   1.712   0.666 -0.8494 -1.3813  0.0702
 5914SOL     OW29374   1.887   1.824   3.008 -0.4704 -0.1239  0.9914
 5914SOL    HW129375   1.842   1.841   2.925  1.1625 -1.4295 -0.1529
 5914SOL    HW229376   1.816   1.775   3.050  1.2821 -2.3139  1.4143
 5915SOL     OW29377   1.542   0.803  14.401 -0.2512  0.6188 -0.5691
 5915SOL    HW129378   1.477   0.799  14.471 -1.4596 -1.1647 -1.7922
 5915SOL    HW229379   1.480   0.819  14.330 -0.2183  0.4070 -0.6453
 5916SOL     OW29380   2.237   0.853   4.994  0.3212 -0.3419  0.2878
 5916SOL    HW129381   2.221   0.828   5.085 -1.8476 -1.1430 -0.3078
 5916SOL    HW229382   2.311   0.793   4.985  0.9050  0.4972 -0.3985
 5917SOL     OW29383   3.282   3.442   3.310 -0.4696  0.0127  0.4397
 5917SOL    HW129384   3.293   3.352   3.278  2.0748  1.1423 -1.8258
 5917SOL    HW229385   3.232   3.484   3.241  0.1587 -1.9873 -1.2565
 5918SOL     OW29386   0.602   0.206   3.260 -0.3136 -0.1606  0.4144
 5918SOL    HW129387   0.661   0.178   3.190 -0.0580  2.9984 -0.6574
 5918SOL    HW229388   0.532   0.143   3.273  0.3598 -1.0446 -0.3030
 5919SOL     OW29389   2.919   0.692   4.747  0.0073 -0.3866 -0.4448
 5919SOL    HW129390   2.895   0.647   4.666  0.2551 -1.2293 -0.0538
 5919SOL    HW229391   3.008   0.714   4.721  0.2361 -0.4188  0.2992
 5920SOL     OW29392   0.285   3.566   5.042 -0.2896  0.1408  0.1654
 5920SOL    HW129393   0.244   3.492   4.998  0.7887 -0.4650  0.2007
 5920SOL    HW229394   0.374   3.560   5.007 -0.2713  1.1146  0.0353
 5921SOL     OW29395   2.048   3.530   4.688 -0.3661  0.2452 -0.0874
 5921SOL    HW129396   2.013   3.536   4.777 -2.7066 -2.0670 -0.8272
 5921SOL    HW229397   1.973   3.518   4.628 -0.4955 -0.8170  0.2894
 5922SOL     OW29398   2.407   1.386   4.100 -0.1409  0.2776  0.0940
 5922SOL    HW129399   2.360   1.307   4.128 -0.4375  0.5361  0.3299
 5922SOL    HW229400   2.433   1.423   4.184  1.4912  0.7843 -0.6460
 5923SOL     OW29401   1.906   0.671   8.527  0.6129  0.2206 -0.9542
 5923SOL    HW129402   1.857   0.737   8.478 -0.1607  1.0340  0.9376
 5923SOL    HW229403   1.957   0.721   8.591 -0.3378 -0.3142  0.2288
 5924SOL     OW29404   4.620   4.372   3.827 -0.5108 -0.2568 -0.4875
 5924SOL    HW129405   4.587   4.456   3.859 -1.2733 -0.5292 -0.5575
 5924SOL    HW229406   4.647   4.382   3.736 -1.1266  1.4889 -0.4878
 5925SOL     OW29407   1.716   0.767   1.051  0.1409  0.0418  0.2606
 5925SOL    HW129408   1.626   0.795   1.033  0.3099  0.2535 -0.2363
 5925SOL    HW229409   1.730   0.696   0.989  0.6803 -0.3259  0.8017
 5926SOL     OW29410   4.688   2.860  14.519 -0.0596 -0.2386 -0.2402
 5926SOL    HW129411   0.021   2.862  14.454  2.0781  0.2116  2.0786
 5926SOL    HW229412   4.695   2.954  14.537  1.5662 -0.6652  1.4487
 5927SOL     OW29413   2.285   3.591   9.083 -0.5658 -0.2614 -0.4894
 5927SOL    HW129414   2.247   3.519   9.134  0.0400  0.3544  0.8391
 5927SOL    HW229415   2.238   3.574   9.002  0.3387  1.7946 -1.4515
 5928SOL     OW29416   2.592   2.111   8.889 -0.6461 -0.3876 -0.4466
 5928SOL    HW129417   2.527   2.095   8.821 -1.6780  0.9104  0.2121
 5928SOL    HW229418   2.641   2.029   8.889 -0.7906 -0.4813  0.2761
 5929SOL     OW29419   3.221   0.031  10.346  0.3139  0.4466  0.4868
 5929SOL    HW129420   3.207   4.689  10.397  0.4113  0.1013 -0.0307
 5929SOL    HW229421   3.306   0.010  10.309  0.3071  1.3832 -0.0577
 5930SOL     OW29422   4.295   4.459  11.389  0.7022  0.3777 -0.4509
 5930SOL    HW129423   4.326   4.371  11.369 -0.0804  0.2192 -0.9899
 5930SOL    HW229424   4.347   4.461  11.469 -0.0522 -0.6970  0.0629
 5931SOL     OW29425   0.252   2.348   4.189 -0.6323  0.7865 -0.4187
 5931SOL    HW129426   0.331   2.306   4.223 -1.3221  2.1798  2.8724
 5931SOL    HW229427   0.190   2.277   4.204 -1.7002  2.2450  1.9701
 5932SOL     OW29428   4.635   4.007   7.813  0.0443 -0.2413  0.1487
 5932SOL    HW129429   4.618   3.958   7.893  2.0428 -1.8830 -0.4280
 5932SOL    HW229430   4.586   4.087   7.830  1.3822  0.2683  1.5715
 5933SOL     OW29431   0.001   4.709  12.903 -0.1031  0.4849 -0.1404
 5933SOL    HW129432   0.067   4.721  12.972 -1.9458  1.5358  1.4509
 5933SOL    HW229433   4.667   4.670  12.952 -0.7776 -0.1987 -1.7005
 5934SOL     OW29434   2.381   0.512  12.315 -0.0616  0.4949  0.1199
 5934SOL    HW129435   2.367   0.604  12.337  0.6073  0.8824 -1.0545
 5934SOL    HW229436   2.311   0.464  12.361  0.2458 -0.9278 -0.8800
 5935SOL     OW29437   1.454   3.942   1.752  0.1936 -0.1375  0.3036
 5935SOL    HW129438   1.417   4.025   1.781  0.3975  0.3351 -0.7809
 5935SOL    HW229439   1.515   3.926   1.824  1.9518 -0.8146 -1.3069
 5936SOL     OW29440   2.955   4.141   7.628  0.4771 -0.0059  0.2824
 5936SOL    HW129441   3.032   4.194   7.649 -0.5469  1.4556  0.4321
 5936SOL    HW229442   2.893   4.210   7.604  0.0621 -0.3350  0.4092
 5937SOL     OW29443   0.731   2.828   7.157 -1.0264  0.1601  0.4774
 5937SOL    HW129444   0.718   2.785   7.241 -2.3732  0.4147  0.3934
 5937SOL    HW229445   0.663   2.796   7.099 -1.6254  1.3598  0.5056
 5938SOL     OW29446   0.512   2.767   4.327  0.6062 -0.5673  0.2493
 5938SOL    HW129447   0.527   2.711   4.251 -3.0660  0.2564 -1.0668
 5938SOL    HW229448   0.428   2.725   4.346  0.0679  0.4791  0.1283
 5939SOL     OW29449   0.699   1.033   1.541  0.0570  0.5436  0.2042
 5939SOL    HW129450   0.785   1.039   1.581  0.2675 -1.6312  0.1035
 5939SOL    HW229451   0.656   0.972   1.600 -0.0683 -0.7886 -1.2357
 5940SOL     OW29452   4.070   1.318  11.988 -0.2075 -0.1287  0.4807
 5940SOL    HW129453   4.045   1.400  12.030  0.0077  0.3165 -0.2468
 5940SOL    HW229454   3.987   1.276  11.967  0.5428 -1.2451 -0.2508
 5941SOL     OW29455   0.835   3.771   6.866  0.3281  0.3207  0.6435
 5941SOL    HW129456   0.762   3.774   6.929 -0.7506  0.0010 -0.5973
 5941SOL    HW229457   0.825   3.683   6.829  0.3492  0.9558 -0.8403
 5942SOL     OW29458   2.023   4.650   8.266 -0.2678  0.1490 -0.8033
 5942SOL    HW129459   2.005   4.733   8.222  4.7615  1.7437  0.1136
 5942SOL    HW229460   1.952   4.598   8.228  2.1317 -3.4405 -0.3637
 5943SOL     OW29461   0.378   3.765   3.436  0.6988 -0.0743 -0.0885
 5943SOL    HW129462   0.345   3.706   3.368  1.7589  0.0800 -0.7482
 5943SOL    HW229463   0.426   3.823   3.377 -2.3907  0.6381 -1.8742
 5944SOL     OW29464   4.490   4.051   0.191 -0.1346  0.1344  0.3271
 5944SOL    HW129465   4.433   4.032   0.117  0.7186 -1.8166  0.1818
 5944SOL    HW229466   4.430   4.070   0.262 -0.3249  0.9348 -0.0476
 5945SOL     OW29467   1.305   3.565   2.334  0.0568 -0.5637  0.3976
 5945SOL    HW129468   1.369   3.597   2.270  1.0448 -1.3990  0.9558
 5945SOL    HW229469   1.230   3.612   2.298  0.9048  0.8273  0.4387
 5946SOL     OW29470   3.253   2.769   7.191  0.3764  0.2524  0.2707
 5946SOL    HW129471   3.206   2.714   7.253  0.0274 -1.9486 -1.9621
 5946SOL    HW229472   3.242   2.856   7.228  1.4707  1.0967 -1.3960
 5947SOL     OW29473   2.789   2.013  10.425  0.7661 -0.3019  0.7321
 5947SOL    HW129474   2.727   2.032  10.495 -0.2415 -0.5335 -0.1057
 5947SOL    HW229475   2.875   1.991  10.462  1.6309 -0.0223 -1.1157
 5948SOL     OW29476   0.547   3.256   6.200  0.0574 -0.0738 -0.2114
 5948SOL    HW129477   0.486   3.229   6.270  0.3210  1.1662  0.4967
 5948SOL    HW229478   0.628   3.216   6.231  1.3057  2.1648 -0.6461
 5949SOL     OW29479   0.063   0.095   3.739  0.2062 -0.5141 -0.2563
 5949SOL    HW129480   0.077   0.028   3.673  0.3929  0.8726 -1.6258
 5949SOL    HW229481   4.706   0.105   3.734  0.1595 -0.1824  1.1256
 5950SOL     OW29482   2.331   2.790   1.769  0.2744 -0.3825  0.0915
 5950SOL    HW129483   2.277   2.712   1.782  0.1085 -0.6682 -2.3068
 5950SOL    HW229484   2.357   2.765   1.680  0.3725  0.1177 -0.0242
 5951SOL     OW29485   2.513   2.000   6.016 -0.3253 -0.0147  0.3466
 5951SOL    HW129486   2.598   1.979   6.056  0.0348 -0.1559 -0.4917
 5951SOL    HW229487   2.541   2.068   5.955  1.8336 -1.9120 -0.7860
 5952SOL     OW29488   0.363   1.790  11.433 -0.4504 -0.0714 -0.2060
 5952SOL    HW129489   0.380   1.751  11.347 -0.8250 -0.4833 -0.0921
 5952SOL    HW229490   0.389   1.881  11.421 -0.6819  0.2723  2.0191
 5953SOL     OW29491   4.312   4.424   2.600 -0.3495  0.2436  0.8606
 5953SOL    HW129492   4.226   4.384   2.588  0.7906 -1.9182 -0.0377
 5953SOL    HW229493   4.293   4.517   2.609  0.7313  0.7490 -2.0198
 5954SOL     OW29494   3.828   1.942  11.687  0.3632  0.3782 -0.0088
 5954SOL    HW129495   3.771   1.904  11.620  0.6305 -0.5984  0.3220
 5954SOL    HW229496   3.826   1.892  11.768 -2.6019  3.2561  1.6970
 5955SOL     OW29497   2.168   0.948   0.744 -0.3164  0.1117 -0.1754
 5955SOL    HW129498   2.092   0.890   0.737  0.0595 -0.5128  0.7462
 5955SOL    HW229499   2.220   0.899   0.808  0.4736  1.1807 -0.0033
 5956SOL     OW29500   1.779   2.117   0.534  0.0551  0.4864 -0.6343
 5956SOL    HW129501   1.747   2.206   0.520  0.3465  0.8519  1.0523
 5956SOL    HW229502   1.707   2.071   0.492 -0.7991 -0.4861  1.9143
 5957SOL     OW29503   3.885   3.894   6.953  0.5752 -0.5830 -0.4760
 5957SOL    HW129504   3.944   3.865   6.883 -1.0535 -1.8001 -1.3513
 5957SOL    HW229505   3.939   3.871   7.029  0.3754  1.5758  0.2922
 5958SOL     OW29506   3.351   1.562   5.140 -0.0035  0.3793 -0.0170
 5958SOL    HW129507   3.273   1.515   5.111 -1.1275  2.1103  0.2053
 5958SOL    HW229508   3.329   1.599   5.226  0.1707  1.9562 -0.6688
 5959SOL     OW29509   1.164   3.586   8.156  0.1054  0.0476 -0.2811
 5959SOL    HW129510   1.111   3.573   8.235 -0.5013 -1.6546 -0.9752
 5959SOL    HW229511   1.107   3.542   8.094 -0.2768  1.4569 -0.9138
 5960SOL     OW29512   2.797   4.000   2.989 -0.0887  0.0125 -0.3983
 5960SOL    HW129513   2.775   4.052   2.912  2.2397 -0.1081 -1.1264
 5960SOL    HW229514   2.828   4.064   3.053  0.9132 -0.8341 -0.0410
 5961SOL     OW29515   3.363   0.504   0.485 -0.6255  0.0661  0.1593
 5961SOL    HW129516   3.401   0.438   0.428 -1.9238  0.7198 -1.4623
 5961SOL    HW229517   3.270   0.503   0.461 -0.4921  2.3306 -0.4863
 5962SOL     OW29518   4.623   2.399   8.280  0.8972 -0.0677 -0.6265
 5962SOL    HW129519   4.591   2.325   8.332 -1.7285  1.5418  0.0415
 5962SOL    HW229520   4.550   2.407   8.217  1.3398  0.2577 -1.1005
 5963SOL     OW29521   2.146   1.199   5.062  0.2141  0.7200  0.8401
 5963SOL    HW129522   2.229   1.152   5.060 -1.1655 -1.8607  4.0576
 5963SOL    HW229523   2.144   1.241   5.147 -0.2664 -0.2625  1.3217
 5964SOL     OW29524   3.224   0.871   7.337  0.4598  0.1005 -0.1933
 5964SOL    HW129525   3.285   0.847   7.268  0.2657  0.1592 -0.3821
 5964SOL    HW229526   3.204   0.962   7.316 -0.6975  0.3030  1.7090
 5965SOL     OW29527   2.723   1.206   7.817  0.1978  0.2939  0.2451
 5965SOL    HW129528   2.670   1.272   7.861 -0.9036  0.1557 -0.8531
 5965SOL    HW229529   2.763   1.257   7.746 -0.1184  1.9397  1.2615
 5966SOL     OW29530   2.043   4.393   9.771  0.6464 -0.4626 -0.0214
 5966SOL    HW129531   1.953   4.405   9.740  1.0773 -0.1012 -1.1584
 5966SOL    HW229532   2.077   4.314   9.729 -1.6867 -2.1062  1.1814
 5967SOL     OW29533   1.443   4.406   3.709 -0.3995  0.8272 -0.3062
 5967SOL    HW129534   1.421   4.461   3.784 -0.8704 -0.1366  0.2578
 5967SOL    HW229535   1.539   4.408   3.712 -0.3655  0.4264 -1.0185
 5968SOL     OW29536   4.128   1.446  13.098 -0.2774  0.0718  0.8363
 5968SOL    HW129537   4.070   1.426  13.024  1.8681  1.0689 -1.1255
 5968SOL    HW229538   4.207   1.477  13.053 -0.6554  0.9670  0.7966
 5969SOL     OW29539   0.518   1.814  13.208 -0.3105  0.2569  0.4726
 5969SOL    HW129540   0.496   1.890  13.154 -0.8801 -2.3362 -2.9254
 5969SOL    HW229541   0.468   1.745  13.165 -3.4178  0.5672  3.5926
 5970SOL     OW29542   4.084   2.732   5.111  0.0960 -0.2274  0.3883
 5970SOL    HW129543   4.015   2.760   5.051  0.9819 -0.7179 -0.8683
 5970SOL    HW229544   4.119   2.817   5.137  0.9881  0.0925 -1.8091
 5971SOL     OW29545   1.280   2.365  12.014 -0.1266  0.0911 -0.3571
 5971SOL    HW129546   1.223   2.429  12.057  2.5198  1.6638  0.8393
 5971SOL    HW229547   1.238   2.356  11.929 -0.1376 -1.3893 -0.1856
 5972SOL     OW29548   3.031   1.850   8.174  0.0266  0.3058  0.6066
 5972SOL    HW129549   3.066   1.826   8.259 -0.5594 -0.1958  0.7057
 5972SOL    HW229550   3.109   1.832   8.121  0.1417  0.0217  0.8748
 5973SOL     OW29551   1.533   3.049   2.152 -0.5620  0.1536 -0.1771
 5973SOL    HW129552   1.502   3.124   2.204  2.7004  0.2199  1.6507
 5973SOL    HW229553   1.595   3.008   2.212 -1.1359 -1.5824 -0.7743
 5974SOL     OW29554   0.976   3.276   6.737 -0.1888 -0.8862 -0.5740
 5974SOL    HW129555   1.001   3.354   6.785  0.0159 -0.2771 -1.6776
 5974SOL    HW229556   1.057   3.225   6.741  0.3248  0.0531  0.5513
 5975SOL     OW29557   1.250   4.226  13.400 -0.1023 -0.0647 -0.4302
 5975SOL    HW129558   1.318   4.199  13.339  0.9677 -0.3898  0.8972
 5975SOL    HW229559   1.186   4.161  13.371  1.1283 -1.3998 -0.1515
 5976SOL     OW29560   3.680   4.461  10.089 -0.0938 -0.3657 -0.2688
 5976SOL    HW129561   3.759   4.508  10.116 -0.1246  0.6354 -1.9383
 5976SOL    HW229562   3.658   4.503  10.006  1.8597 -1.5677 -1.3718
 5977SOL     OW29563   3.585   3.089   4.656  0.3483  0.0425 -0.2238
 5977SOL    HW129564   3.615   3.094   4.565  2.2886  1.1752  0.5001
 5977SOL    HW229565   3.629   3.007   4.678  0.3591  0.1977  0.3119
 5978SOL     OW29566   4.264   2.650  16.542  0.5367 -0.1951 -1.0031
 5978SOL    HW129567   4.356   2.663  16.518  1.3111 -1.4924  1.2572
 5978SOL    HW229568   4.239   2.590  16.472  1.2698 -0.9364 -0.6331
 5979SOL     OW29569   1.601   1.194   5.588  0.1010 -0.1571  0.3596
 5979SOL    HW129570   1.661   1.222   5.657  1.3020 -1.9008  0.0247
 5979SOL    HW229571   1.588   1.102   5.611 -0.3693 -0.4751 -1.1320
 5980SOL     OW29572   0.731   0.198   9.037 -0.0984 -0.5705 -0.4238
 5980SOL    HW129573   0.681   0.264   8.989  0.7003  0.9747  0.8905
 5980SOL    HW229574   0.726   0.245   9.120  0.9551  0.5001 -0.9739
 5981SOL     OW29575   0.222   2.285   2.893  1.0089  0.0425 -0.3577
 5981SOL    HW129576   0.164   2.358   2.871 -1.7081 -1.5181  1.6099
 5981SOL    HW229577   0.169   2.206   2.887 -0.7982  1.2369  0.0015
 5982SOL     OW29578   1.193   0.072   7.749 -0.1408  0.0609 -0.5964
 5982SOL    HW129579   1.204   0.052   7.842 -2.2448 -0.2315 -0.4195
 5982SOL    HW229580   1.233   4.729   7.716 -1.7613 -0.7381 -0.6146
 5983SOL     OW29581   3.257   0.994   6.441  0.1611 -0.5219  0.1457
 5983SOL    HW129582   3.205   0.920   6.474  0.8857 -0.8964  0.4431
 5983SOL    HW229583   3.287   1.043   6.518 -1.8453 -1.6359  1.6577
 5984SOL     OW29584   1.613   3.555   4.952 -1.1750 -0.1071 -0.0597
 5984SOL    HW129585   1.664   3.636   4.944  2.7681 -2.6339 -0.4471
 5984SOL    HW229586   1.667   3.512   5.018 -0.4417  0.0109 -0.5809
 5985SOL     OW29587   4.313   3.782  16.204  0.0580 -0.4257 -0.2668
 5985SOL    HW129588   4.322   3.851  16.139  0.1783 -1.0833 -0.9423
 5985SOL    HW229589   4.400   3.742  16.202 -0.0095 -0.5604 -0.4687
 5986SOL     OW29590   1.772   4.110   9.754 -0.4514 -0.0011  0.1295
 5986SOL    HW129591   1.837   4.054   9.796  0.7049  0.6514 -0.8033
 5986SOL    HW229592   1.785   4.195   9.796 -0.4242 -0.6331  1.3922
 5987SOL     OW29593   3.912   3.009   4.626  0.1663 -0.3464 -0.2801
 5987SOL    HW129594   3.847   2.939   4.634 -0.3522 -0.2219 -3.4774
 5987SOL    HW229595   3.878   3.068   4.693  0.2549  0.5285 -1.0150
 5988SOL     OW29596   0.455   0.074   0.696 -0.2987  0.3018 -0.0845
 5988SOL    HW129597   0.442   0.078   0.791  2.0041  1.6266  0.1674
 5988SOL    HW229598   0.376   0.114   0.658 -0.9904 -1.7962 -0.8568
 5989SOL     OW29599   1.283   4.117   2.252  0.3660  0.4072  0.3107
 5989SOL    HW129600   1.323   4.204   2.243  0.9350  0.2498  1.2230
 5989SOL    HW229601   1.321   4.062   2.184  1.3256  0.7633  0.5532
 5990SOL     OW29602   2.283   2.062   3.235 -0.2280  0.0500 -0.3032
 5990SOL    HW129603   2.227   2.008   3.179  2.4318 -0.2098 -2.7121
 5990SOL    HW229604   2.307   2.002   3.305  1.5882 -0.0176 -0.9916
 5991SOL     OW29605   3.032   2.838  11.659  0.1661  0.6651  0.0028
 5991SOL    HW129606   3.110   2.844  11.603  0.3792  0.0902  0.2379
 5991SOL    HW229607   3.078   2.829  11.742  0.4369  0.4341 -0.1707
 5992SOL     OW29608   3.747   2.222   7.152 -0.7357 -0.2439  0.0925
 5992SOL    HW129609   3.718   2.132   7.137 -3.1369  0.3505  1.1544
 5992SOL    HW229610   3.773   2.239   7.062 -2.3072  2.2831  0.1150
 5993SOL     OW29611   3.258   0.149   7.331  0.2647  0.4310  0.0290
 5993SOL    HW129612   3.181   0.206   7.320 -0.2328 -0.5295 -1.4762
 5993SOL    HW229613   3.318   0.213   7.369 -1.0368  0.5655  1.8481
 5994SOL     OW29614   2.325   4.641   4.026 -0.2731 -0.7489  0.0595
 5994SOL    HW129615   2.284   4.691   3.955  0.9101 -0.5296 -0.4736
 5994SOL    HW229616   2.419   4.657   4.020 -0.2447 -1.1296 -0.5418
 5995SOL     OW29617   2.778   1.231   5.477 -0.7107 -0.1790 -0.8308
 5995SOL    HW129618   2.702   1.288   5.479 -1.8663 -1.7718  1.6715
 5995SOL    HW229619   2.743   1.149   5.513  0.3912 -1.3249 -2.3435
 5996SOL     OW29620   2.405   0.206   7.107  0.6406 -0.1713 -0.0690
 5996SOL    HW129621   2.381   0.123   7.148 -2.4678  1.0917  0.7252
 5996SOL    HW229622   2.455   0.177   7.031 -0.1763  1.8843 -1.4070
 5997SOL     OW29623   3.006   1.428   4.198  0.3421  0.2687 -0.7733
 5997SOL    HW129624   2.912   1.429   4.213  0.3428 -1.2472 -0.7191
 5997SOL    HW229625   3.056   1.489   4.253 -0.9812  1.5104 -0.9485
 5998SOL     OW29626   2.774   0.331   0.685  0.7578 -0.0812 -0.8354
 5998SOL    HW129627   2.754   0.237   0.688  0.2421  0.0895  1.2946
 5998SOL    HW229628   2.700   0.360   0.632 -0.9204 -0.7778  1.1050
 5999SOL     OW29629   4.327   2.256   0.422  0.4640  0.2385 -0.5123
 5999SOL    HW129630   4.358   2.294   0.340  0.1027  0.6886 -0.4410
 5999SOL    HW229631   4.394   2.295   0.478  1.1932 -1.1324 -0.4350
 6000SOL     OW29632   4.587   0.783   5.709 -0.0493  0.2468 -0.1103
 6000SOL    HW129633   4.546   0.780   5.795  1.9322  0.0501  0.8429
 6000SOL    HW229634   4.665   0.836   5.726  0.1468 -0.6790  1.8851
 6001SOL     OW29635   3.866   1.687   8.722  0.0797 -0.1176 -0.3086
 6001SOL    HW129636   3.805   1.619   8.750  1.4482 -1.0922  0.2800
 6001SOL    HW229637   3.944   1.633   8.710  2.4494  3.4405 -0.6237
 6002SOL     OW29638   3.140   2.214   3.859  0.0920 -0.0208 -0.1928
 6002SOL    HW129639   3.169   2.127   3.833 -2.6401 -0.8311 -0.4931
 6002SOL    HW229640   3.047   2.210   3.837  0.2996 -1.3901 -0.8052
 6003SOL     OW29641   2.375   0.562   5.226 -0.0414 -0.4388  0.0338
 6003SOL    HW129642   2.292   0.534   5.188  0.8807 -4.4239  0.9441
 6003SOL    HW229643   2.372   0.652   5.193  1.0584 -0.4751 -0.1563
 6004SOL     OW29644   3.189   4.398   7.424  0.2888 -0.0543 -0.3651
 6004SOL    HW129645   3.207   4.357   7.508 -2.0548 -2.1863 -0.9037
 6004SOL    HW229646   3.158   4.319   7.380  0.5812  0.0109 -0.6868
 6005SOL     OW29647   1.422   0.830   1.108  0.1625  0.6053  0.1517
 6005SOL    HW129648   1.405   0.742   1.142 -3.0947 -0.0642 -3.2299
 6005SOL    HW229649   1.354   0.884   1.149  0.5949  0.9348  0.4389
 6006SOL     OW29650   3.616   0.229  12.259 -0.5878  0.3106  0.1984
 6006SOL    HW129651   3.566   0.171  12.202 -0.0478  1.7139 -1.7067
 6006SOL    HW229652   3.596   0.319  12.234 -1.5913  0.1370  0.3796
 6007SOL     OW29653   1.812   2.278   4.506 -0.1294 -0.5831  0.1923
 6007SOL    HW129654   1.835   2.357   4.457 -3.8529 -0.3170 -1.1586
 6007SOL    HW229655   1.892   2.227   4.501 -0.4548 -1.1934  1.1336
 6008SOL     OW29656   2.227   3.879   4.907 -0.1973  0.3092  0.2681
 6008SOL    HW129657   2.275   3.962   4.912  0.2040 -0.0407  2.3305
 6008SOL    HW229658   2.138   3.915   4.914 -0.1087  0.8340 -1.2315
 6009SOL     OW29659   3.913   2.262  12.400  0.6042  0.0779  0.0411
 6009SOL    HW129660   3.873   2.254  12.486  0.1848  1.6773  0.0060
 6009SOL    HW229661   3.863   2.338  12.369 -1.0737 -0.8296  0.4871
 6010SOL     OW29662   3.964   2.027  13.606 -0.1656 -0.5150 -0.2643
 6010SOL    HW129663   4.018   1.948  13.608  3.8793  2.2858  0.6828
 6010SOL    HW229664   3.922   2.020  13.519 -2.0928 -0.3118  0.6394
 6011SOL     OW29665   1.654   0.529   7.547 -0.4748 -0.1538 -0.2757
 6011SOL    HW129666   1.648   0.601   7.483  2.7503  2.1003  1.9285
 6011SOL    HW229667   1.592   0.457   7.537 -1.7389  0.7461  1.2543
 6012SOL     OW29668   1.296   1.717  12.329  0.3521  1.2689  0.0815
 6012SOL    HW129669   1.385   1.751  12.319  0.3919  0.3983 -2.2704
 6012SOL    HW229670   1.301   1.642  12.270 -1.7318  2.1956 -1.2687
 6013SOL     OW29671   0.229   3.799   3.847  0.4119  0.0148 -0.3171
 6013SOL    HW129672   0.134   3.800   3.863  0.3059 -0.3216 -0.9332
 6013SOL    HW229673   0.228   3.728   3.782  1.4889 -1.1556  0.9641
 6014SOL     OW29674   0.358   4.396   4.765  0.4493 -0.1930  0.3649
 6014SOL    HW129675   0.359   4.487   4.796 -0.4320  0.1482 -0.5991
 6014SOL    HW229676   0.439   4.399   4.715  0.8823 -1.6368  0.9675
 6015SOL     OW29677   0.594   1.395   2.469  0.4182  0.0478  0.2250
 6015SOL    HW129678   0.527   1.463   2.465 -1.2906 -1.6598 -0.0018
 6015SOL    HW229679   0.614   1.379   2.377 -0.0833  4.6709 -0.6974
 6016SOL     OW29680   3.003   0.967   9.154 -0.4728  0.5382 -0.2077
 6016SOL    HW129681   2.913   0.991   9.178  0.1437  0.5791  2.1272
 6016SOL    HW229682   3.030   1.049   9.113  0.3829  0.2983 -0.1159
 6017SOL     OW29683   1.828   4.172   1.827 -0.2992 -0.0586 -0.0850
 6017SOL    HW129684   1.761   4.118   1.785 -1.8320  1.3959  0.5050
 6017SOL    HW229685   1.773   4.249   1.840 -1.3289 -0.6238 -1.1463
 6018SOL     OW29686   3.639   1.158   8.270 -0.8596  0.3363  0.2761
 6018SOL    HW129687   3.702   1.088   8.253 -0.2285  0.5028  1.9752
 6018SOL    HW229688   3.677   1.219   8.333  0.3629  0.4760 -0.5822
 6019SOL     OW29689   1.943   0.343  15.459 -0.2327 -0.1275 -0.0747
 6019SOL    HW129690   2.027   0.343  15.504 -0.4235 -2.6877  0.3064
 6019SOL    HW229691   1.898   0.417  15.499  0.8433  0.4500  0.0688
 6020SOL     OW29692   3.819   0.265   6.662  0.4132  0.3336  0.2737
 6020SOL    HW129693   3.741   0.274   6.607  1.6633 -0.2581 -1.5918
 6020SOL    HW229694   3.839   0.357   6.683 -1.0569  0.8569 -0.6355
 6021SOL     OW29695   3.149   4.213   7.034  0.4371 -0.6054  0.1078
 6021SOL    HW129696   3.244   4.203   7.029  0.3073 -2.5393  1.4343
 6021SOL    HW229697   3.129   4.139   6.978  0.7252 -1.7043  1.4445
 6022SOL     OW29698   4.292   1.243   6.592  0.4747 -0.2998  0.2453
 6022SOL    HW129699   4.323   1.208   6.676  1.0967  0.9483  0.5281
 6022SOL    HW229700   4.317   1.177   6.528  1.0975  0.2244 -0.0476
 6023SOL     OW29701   1.853   2.202   1.135  0.0482 -0.0145 -0.0168
 6023SOL    HW129702   1.823   2.128   1.082  0.1672 -0.7318  0.9301
 6023SOL    HW229703   1.782   2.205   1.199 -0.0799  2.2879 -0.2429
 6024SOL     OW29704   3.999   4.553   2.806  0.0639 -0.7728 -1.0720
 6024SOL    HW129705   3.976   4.593   2.890  0.8623 -2.2977 -0.1476
 6024SOL    HW229706   3.923   4.562   2.748  0.4828  1.6802 -1.2577
 6025SOL     OW29707   3.940   2.343   5.281  0.1527  0.2351  0.3303
 6025SOL    HW129708   3.893   2.426   5.273  0.0778  0.2101  0.5118
 6025SOL    HW229709   4.021   2.392   5.298 -0.2153  1.0570 -0.2631
 6026SOL     OW29710   2.709   2.851   4.081 -0.5151 -0.1496 -0.3769
 6026SOL    HW129711   2.694   2.807   3.998 -1.9022  0.0718 -0.2494
 6026SOL    HW229712   2.657   2.794   4.138  1.5035 -0.5037  1.0855
 6027SOL     OW29713   0.861   3.748   5.470 -0.4632  0.0589 -0.0418
 6027SOL    HW129714   0.909   3.709   5.542  1.6568  1.8186 -0.5131
 6027SOL    HW229715   0.925   3.742   5.399  1.2466 -0.5347  1.5573
 6028SOL     OW29716   4.706   2.723   9.109 -0.0804  0.4876  0.7380
 6028SOL    HW129717   4.699   2.695   9.018 -0.7196  3.2125 -0.0450
 6028SOL    HW229718   0.063   2.728   9.120  0.0104  1.4670 -0.4798
 6029SOL     OW29719   2.446   1.204   5.202  0.5717  0.5055  0.0068
 6029SOL    HW129720   2.483   1.128   5.248  0.4879 -0.3840 -1.3927
 6029SOL    HW229721   2.408   1.257   5.271  0.9145 -0.6941  1.1240
 6030SOL     OW29722   0.683   0.993   3.397 -0.1610  0.1540  0.2399
 6030SOL    HW129723   0.618   1.031   3.457 -0.8037  0.5064 -0.6789
 6030SOL    HW229724   0.740   0.934   3.447 -0.9614  1.1684  2.3180
 6031SOL     OW29725   0.291   2.209  16.660 -0.2402 -0.2728  0.2982
 6031SOL    HW129726   0.383   2.194  16.682 -0.1646  1.4357  1.0849
 6031SOL    HW229727   0.273   2.227  16.752 -0.4669  2.6718 -0.3355
 6032SOL     OW29728   2.020   2.876  14.669  0.7370 -0.4356  0.1157
 6032SOL    HW129729   2.028   2.795  14.619 -0.3929 -1.3145  1.3431
 6032SOL    HW229730   2.084   2.869  14.741  1.9166  1.0728 -0.7800
 6033SOL     OW29731   1.699   4.073   2.819  0.0543 -0.4165 -0.2758
 6033SOL    HW129732   1.652   4.151   2.849  0.9036  0.4715 -1.2438
 6033SOL    HW229733   1.778   4.063   2.872  1.1741 -0.5915 -1.9923
 6034SOL     OW29734   3.780   2.747   7.193  0.0395 -0.4484  0.0231
 6034SOL    HW129735   3.802   2.662   7.232  0.3475  0.8534  2.6706
 6034SOL    HW229736   3.839   2.805   7.241 -0.6680  1.3574 -1.2921
 6035SOL     OW29737   2.045   0.357  11.093 -0.4197  0.5309 -0.0131
 6035SOL    HW129738   2.130   0.381  11.129  1.1710 -3.0743 -1.3239
 6035SOL    HW229739   2.033   0.265  11.119 -1.1993  1.1706  1.8872
 6036SOL     OW29740   3.571   0.049   3.840 -0.2720  0.2338  0.0069
 6036SOL    HW129741   3.547   0.139   3.864  0.8401  0.6978 -0.6481
 6036SOL    HW229742   3.487   0.017   3.806 -0.5945  1.6212 -0.5128
 6037SOL     OW29743   1.313   0.866   1.924 -0.7135  0.0061 -0.1218
 6037SOL    HW129744   1.376   0.808   1.882  0.6250  1.2093  0.2085
 6037SOL    HW229745   1.239   0.812   1.951 -1.1972 -0.3549 -2.1908
 6038SOL     OW29746   3.420   3.179   6.936 -0.7874  0.1410  0.6138
 6038SOL    HW129747   3.388   3.268   6.952  0.4625  0.9316 -1.1173
 6038SOL    HW229748   3.498   3.184   6.991  0.4799 -0.8567 -1.0935
 6039SOL     OW29749   4.016   2.330   8.153  0.0195 -0.3525  0.2235
 6039SOL    HW129750   3.984   2.420   8.144  1.7982  0.0636 -2.0255
 6039SOL    HW229751   3.978   2.309   8.238  1.7242  0.9744  1.3089
 6040SOL     OW29752   4.421   3.491   8.980 -0.3202  0.5748 -0.3158
 6040SOL    HW129753   4.387   3.479   9.069  1.1875 -0.3702  0.1239
 6040SOL    HW229754   4.366   3.565   8.954 -0.1719  0.5313 -0.7453
 6041SOL     OW29755   2.148   2.441   8.465 -0.5387 -0.1678 -0.0529
 6041SOL    HW129756   2.075   2.380   8.452 -0.0791 -0.9579  1.0809
 6041SOL    HW229757   2.223   2.411   8.413 -0.3147 -0.2734  0.3350
 6042SOL     OW29758   0.870   2.530  15.386  0.4014  0.1754  0.1250
 6042SOL    HW129759   0.814   2.495  15.317 -0.5877  1.7070  0.1422
 6042SOL    HW229760   0.947   2.474  15.379  0.1911 -0.0027 -0.7797
 6043SOL     OW29761   1.883   4.067   7.867 -0.1307  0.5392 -0.5465
 6043SOL    HW129762   1.948   4.012   7.823  0.1165 -0.6961  1.3636
 6043SOL    HW229763   1.860   4.120   7.791 -0.2277 -0.0865 -0.9453
 6044SOL     OW29764   4.110   1.501   5.698  0.6040 -0.6216 -0.2260
 6044SOL    HW129765   4.064   1.428   5.657  0.3408  1.6573 -3.9477
 6044SOL    HW229766   4.077   1.484   5.786 -1.1336  3.7158 -0.0485
 6045SOL     OW29767   2.183   2.111  11.452 -0.1997 -0.2307  0.3409
 6045SOL    HW129768   2.262   2.110  11.397 -0.6812  0.2927 -0.3596
 6045SOL    HW229769   2.113   2.129  11.389  0.6698  0.8837 -0.3075
 6046SOL     OW29770   2.103   1.199   2.507 -0.3565 -0.9169  0.2779
 6046SOL    HW129771   2.094   1.115   2.462  0.2011  0.5619 -2.6242
 6046SOL    HW229772   2.015   1.237   2.495  0.8900  1.9778  0.2974
 6047SOL     OW29773   1.128   4.691   6.180 -0.5256  0.7787 -0.0217
 6047SOL    HW129774   1.183   4.623   6.218 -1.0628 -0.1861 -0.9706
 6047SOL    HW229775   1.150   0.019   6.246  1.2409  0.0427  0.1193
 6048SOL     OW29776   0.814   0.211   3.021  0.0883  0.6640  0.4128
 6048SOL    HW129777   0.799   0.221   2.927 -0.3423  0.4980  0.4657
 6048SOL    HW229778   0.799   0.119   3.045  1.1384  0.3751 -0.0100
 6049SOL     OW29779   2.290   3.978   2.879  0.4822 -0.1649  0.2659
 6049SOL    HW129780   2.379   3.968   2.844 -0.3661  0.1403 -1.9894
 6049SOL    HW229781   2.309   4.018   2.964 -4.1715  1.6108  0.4896
 6050SOL     OW29782   3.831   0.915   9.147 -0.5316 -0.6020  0.6669
 6050SOL    HW129783   3.911   0.879   9.185 -1.5491 -0.6910  2.7278
 6050SOL    HW229784   3.766   0.853   9.180 -0.0605 -1.8083 -0.6643
 6051SOL     OW29785   0.044   4.055   6.115  0.1418 -0.2623 -0.2688
 6051SOL    HW129786   0.090   3.974   6.092  2.7252  1.8286 -2.5031
 6051SOL    HW229787   0.017   4.099   6.035  2.0913 -0.4163 -1.0054
 6052SOL     OW29788   3.105   0.388   7.246  0.5378  0.3476  0.4411
 6052SOL    HW129789   3.150   0.389   7.161 -1.2152 -0.7213 -0.5039
 6052SOL    HW229790   3.125   0.474   7.285  1.2367 -0.1377  1.1525
 6053SOL     OW29791   4.321   1.116  13.146 -0.0286  0.0108 -0.1803
 6053SOL    HW129792   4.359   1.147  13.063 -1.9799  0.9558 -0.7260
 6053SOL    HW229793   4.337   1.022  13.140 -0.4662 -0.1671  1.6988
 6054SOL     OW29794   0.636   1.811   0.339 -0.1365  0.1180  0.1521
 6054SOL    HW129795   0.572   1.821   0.269 -1.2692  0.2490  1.2099
 6054SOL    HW229796   0.599   1.864   0.410  0.6812  1.5188 -0.4797
 6055SOL     OW29797   1.257   1.982   7.699  0.2432 -0.4915  0.0796
 6055SOL    HW129798   1.248   1.922   7.625  1.1094  0.5559 -0.8788
 6055SOL    HW229799   1.178   2.034   7.682  0.5874 -0.4192 -1.3594
 6056SOL     OW29800   1.944   2.377  15.004 -0.1991  0.5033  0.1007
 6056SOL    HW129801   1.885   2.304  15.020  0.7861 -0.0403  1.3140
 6056SOL    HW229802   1.882   2.419  14.945 -0.9681 -3.0367 -1.6078
 6057SOL     OW29803   3.857   2.966  15.567  0.0116 -0.1703  0.0285
 6057SOL    HW129804   3.828   3.019  15.494 -0.4680 -0.7231 -0.1803
 6057SOL    HW229805   3.796   2.892  15.569 -0.5445  0.3009  0.2381
 6058SOL     OW29806   2.351   2.786   4.237 -0.6733 -0.0106  0.0884
 6058SOL    HW129807   2.305   2.721   4.185  0.4838  1.3845 -2.6734
 6058SOL    HW229808   2.430   2.740   4.267 -1.8944 -0.8871  1.9975
 6059SOL     OW29809   3.929   1.379  12.906 -0.7393 -0.1363 -0.0156
 6059SOL    HW129810   3.874   1.307  12.938 -3.0871  2.0538  0.8658
 6059SOL    HW229811   3.934   1.352  12.814  1.7204 -0.5166  0.2448
 6060SOL     OW29812   4.697   3.280  11.247  0.9354 -0.2620  0.4224
 6060SOL    HW129813   4.729   3.371  11.249  0.6190 -0.1362 -0.1121
 6060SOL    HW229814   4.605   3.301  11.265 -0.1819 -2.9387 -2.2591
 6061SOL     OW29815   0.645   4.671   8.130 -0.1357  0.1172 -0.4271
 6061SOL    HW129816   0.603   4.607   8.072 -2.8059 -1.1496  2.8786
 6061SOL    HW229817   0.612   0.008   8.080 -0.3831  1.1235  1.2335
 6062SOL     OW29818   0.203   1.758  10.804  0.1136 -0.0415 -0.7138
 6062SOL    HW129819   0.276   1.700  10.783 -0.5392 -1.5627  1.1955
 6062SOL    HW229820   0.177   1.797  10.720  1.1058  1.5324 -0.2780
 6063SOL     OW29821   0.712   4.359   8.033 -0.6859 -0.0462  0.6831
 6063SOL    HW129822   0.660   4.343   8.112  0.5289 -3.4169  0.7891
 6063SOL    HW229823   0.670   4.439   8.001  1.8509  0.8754 -0.4347
 6064SOL     OW29824   4.010   4.566   8.939  0.6176 -0.4516 -0.1166
 6064SOL    HW129825   3.929   4.529   8.903  2.1986 -1.4347 -2.7050
 6064SOL    HW229826   4.061   4.564   8.858 -0.4309 -1.4588 -0.7582
 6065SOL     OW29827   4.566   2.583   5.912 -0.1060 -0.3427 -0.5687
 6065SOL    HW129828   4.470   2.583   5.917 -0.0693 -2.5764 -0.0586
 6065SOL    HW229829   4.571   2.599   5.818  0.0025 -1.4656 -0.7546
 6066SOL     OW29830   2.037   4.126  14.899 -0.7522  0.6561 -0.1184
 6066SOL    HW129831   2.060   4.104  14.989 -0.6051  1.4111  0.0297
 6066SOL    HW229832   2.005   4.213  14.919  0.3236  1.0018  0.0859
 6067SOL     OW29833   2.074   3.046   2.365  0.3308 -0.1047  0.1911
 6067SOL    HW129834   2.119   3.125   2.394  1.2660 -0.7507  0.4673
 6067SOL    HW229835   2.059   3.061   2.271  2.6222  0.1559 -0.1211
 6068SOL     OW29836   4.268   3.673  15.250 -0.3944 -0.4069  0.1051
 6068SOL    HW129837   4.188   3.628  15.224 -0.2773 -2.8513  3.8862
 6068SOL    HW229838   4.240   3.754  15.291  2.3664  0.4559  0.3289
 6069SOL     OW29839   3.273   1.176   0.296  0.0923 -0.5862 -0.0012
 6069SOL    HW129840   3.231   1.095   0.266  1.3432 -0.7162 -1.3598
 6069SOL    HW229841   3.366   1.154   0.300  0.2318 -0.5181 -2.8666
 6070SOL     OW29842   4.608   4.257  13.049  0.0997 -0.3233  0.4044
 6070SOL    HW129843   4.685   4.271  12.993  0.2771 -1.6959  0.3209
 6070SOL    HW229844   4.644   4.236  13.135 -1.4674  0.0856  1.1660
 6071SOL     OW29845   4.025   3.196   3.965  0.0622  0.5280 -0.0479
 6071SOL    HW129846   4.107   3.245   3.960 -0.4439  1.0143 -3.3668
 6071SOL    HW229847   4.055   3.123   4.019  0.6527  1.7929  1.3518
 6072SOL     OW29848   2.740   2.230   7.912 -0.4508  0.7234 -0.4225
 6072SOL    HW129849   2.792   2.190   7.982 -0.2430 -0.3776 -1.2125
 6072SOL    HW229850   2.781   2.227   7.825 -0.4297 -0.9963 -0.3448
 6073SOL     OW29851   2.568   0.971   0.079 -0.3559 -0.0761 -0.2090
 6073SOL    HW129852   2.600   1.054   0.045 -1.0943  0.1452 -0.3736
 6073SOL    HW229853   2.549   0.992   0.171  0.5341  1.0276 -0.2857
 6074SOL     OW29854   3.641   1.765   4.466  0.1303  0.2161  0.3072
 6074SOL    HW129855   3.610   1.677   4.448  2.2100  0.2797 -3.5148
 6074SOL    HW229856   3.681   1.788   4.382 -0.1579 -0.8284 -0.1118
 6075SOL     OW29857   4.192   2.262   5.029 -0.0346  0.3043 -0.0787
 6075SOL    HW129858   4.238   2.271   5.112 -1.6837  1.9164  0.6515
 6075SOL    HW229859   4.170   2.169   5.026  0.0565  0.2107  1.8915
 6076SOL     OW29860   1.823   1.151   6.091  0.5955 -0.6010  0.3781
 6076SOL    HW129861   1.835   1.173   6.184 -1.5161  3.7591 -0.3792
 6076SOL    HW229862   1.915   1.142   6.065  0.7048  0.4949  0.3763
 6077SOL     OW29863   3.860   3.314   9.714 -0.2735 -0.2186  0.3959
 6077SOL    HW129864   3.895   3.226   9.697 -0.3070  0.1686 -1.6715
 6077SOL    HW229865   3.848   3.348   9.626 -1.8880  0.2658  0.8139
 6078SOL     OW29866   3.087   0.649   7.384  0.0075  0.0151  0.5062
 6078SOL    HW129867   3.116   0.637   7.475  0.2357 -1.7824  0.1919
 6078SOL    HW229868   3.128   0.734   7.369  0.7464 -0.5134 -0.4180
 6079SOL     OW29869   4.338   3.204   1.810 -0.3861  0.1298  0.1975
 6079SOL    HW129870   4.280   3.279   1.826 -2.6649 -1.4561 -0.6720
 6079SOL    HW229871   4.366   3.167   1.894  0.0181  2.6560  1.1691
 6080SOL     OW29872   2.287   4.351   2.685  0.1084  0.6493  0.2006
 6080SOL    HW129873   2.302   4.409   2.760  2.1453 -3.1442  2.7084
 6080SOL    HW229874   2.334   4.405   2.621 -0.2337 -0.6166 -1.1194
 6081SOL     OW29875   3.329   1.557   4.597 -0.2583 -0.0277  0.4490
 6081SOL    HW129876   3.346   1.642   4.638  1.4696  0.0756 -0.5045
 6081SOL    HW229877   3.419   1.533   4.574 -0.5154 -1.2081  0.6719
 6082SOL     OW29878   2.840   1.817   5.561 -0.2968 -0.3645  0.0453
 6082SOL    HW129879   2.845   1.754   5.633  1.5798 -0.8723 -0.5173
 6082SOL    HW229880   2.745   1.827   5.552 -0.4103 -0.4919  1.0426
 6083SOL     OW29881   2.750   3.290  10.896 -0.1507 -0.2334 -0.1674
 6083SOL    HW129882   2.837   3.257  10.920  0.6130  2.0417  0.2240
 6083SOL    HW229883   2.747   3.381  10.925 -1.5819 -0.1154 -0.7162
 6084SOL     OW29884   2.574   2.183  12.063 -0.4001  0.3873  0.3174
 6084SOL    HW129885   2.668   2.200  12.054 -0.4877  0.5182 -0.4044
 6084SOL    HW229886   2.563   2.131  12.142 -2.3045 -1.5432 -1.2391
 6085SOL     OW29887   0.909   0.983   1.690 -0.5046  0.0643  0.4991
 6085SOL    HW129888   0.849   0.981   1.764 -1.1111  2.3273  0.0786
 6085SOL    HW229889   0.975   1.038   1.734  1.1045 -0.9729 -0.6060
 6086SOL     OW29890   3.967   3.341   7.935  0.0353 -0.0562 -0.0346
 6086SOL    HW129891   3.946   3.255   7.972 -0.5140  0.0852 -0.0136
 6086SOL    HW229892   4.025   3.310   7.866 -1.4223 -1.0805 -0.8136
 6087SOL     OW29893   0.477   1.450  17.509  0.0779 -0.0557  0.4296
 6087SOL    HW129894   0.566   1.434  17.541 -0.0651  0.6871  1.1974
 6087SOL    HW229895   0.482   1.394  17.432  1.2958 -0.6747  0.9634
 6088SOL     OW29896   1.200   4.150   5.700  0.6320 -0.8209  0.0241
 6088SOL    HW129897   1.206   4.230   5.753  3.1703 -0.4272 -0.8638
 6088SOL    HW229898   1.242   4.089   5.761  1.1755  1.8188  2.3051
 6089SOL     OW29899   1.116   2.273   0.188  0.4358  0.4146 -0.0253
 6089SOL    HW129900   1.029   2.313   0.179  1.1902  1.8256 -1.0725
 6089SOL    HW229901   1.089   2.193   0.142  2.0987 -0.9548  1.3997
 6090SOL     OW29902   0.051   3.227   0.615 -0.7447  0.1659  0.3922
 6090SOL    HW129903   4.709   3.184   0.645  0.0022 -1.6284 -0.1969
 6090SOL    HW229904   0.052   3.306   0.670 -0.8690  0.8666 -0.6093
 6091SOL     OW29905   2.036   0.724   2.627 -0.4533  0.1380  0.3312
 6091SOL    HW129906   2.126   0.731   2.658 -0.7308 -1.2385  1.4681
 6091SOL    HW229907   1.999   0.648   2.672  4.5569 -1.9602  0.9764
 6092SOL     OW29908   2.386   4.026   5.326 -0.5580 -0.1355 -0.3366
 6092SOL    HW129909   2.379   4.079   5.247 -0.8681  1.3754  0.7076
 6092SOL    HW229910   2.396   3.941   5.284  0.7833 -0.7080  1.1147
 6093SOL     OW29911   1.590   3.466   7.140 -0.0916 -0.1377 -0.1237
 6093SOL    HW129912   1.588   3.408   7.063  1.6836  0.7745 -0.8609
 6093SOL    HW229913   1.500   3.468   7.172 -0.6900 -0.4569 -1.7954
 6094SOL     OW29914   0.794   4.226   6.779 -0.0864 -0.2589  0.5866
 6094SOL    HW129915   0.886   4.220   6.807  0.8704 -2.9040 -3.0356
 6094SOL    HW229916   0.756   4.151   6.824 -0.4642 -0.6776 -0.4283
 6095SOL     OW29917   4.173   4.112  13.938 -0.0794 -0.1436  0.2291
 6095SOL    HW129918   4.117   4.147  13.868  0.7360  1.1348  0.2152
 6095SOL    HW229919   4.178   4.020  13.912  0.1408 -0.2831  0.7805
 6096SOL     OW29920   4.033   3.211   3.079 -0.1865 -0.5150 -0.1950
 6096SOL    HW129921   4.025   3.117   3.090  2.8952 -0.8353 -0.6946
 6096SOL    HW229922   3.965   3.221   3.012 -0.5335 -1.5775  0.0026
 6097SOL     OW29923   0.025   1.087   8.583  0.0938 -0.0860 -0.3721
 6097SOL    HW129924   4.671   1.063   8.593  0.3253 -0.9769 -0.3996
 6097SOL    HW229925   0.061   1.071   8.670 -1.3606  1.0394  0.4305
 6098SOL     OW29926   0.581   3.881  14.559 -0.0356  0.8445 -0.1534
 6098SOL    HW129927   0.516   3.947  14.533 -0.3057  0.0822 -1.3938
 6098SOL    HW229928   0.644   3.939  14.604  2.6229 -2.1226 -0.0497
 6099SOL     OW29929   2.116   0.619   6.501 -0.2277 -0.2316 -0.2661
 6099SOL    HW129930   2.046   0.568   6.461 -0.3370 -0.1165 -0.2213
 6099SOL    HW229931   2.134   0.685   6.434 -0.6050 -0.5848 -0.7159
 6100SOL     OW29932   1.512   0.178   3.665  0.0599  0.3015 -0.6384
 6100SOL    HW129933   1.528   0.109   3.730 -0.7748 -0.8160 -1.6131
 6100SOL    HW229934   1.584   0.157   3.606  0.2990 -2.5999  0.6926
 6101SOL     OW29935   3.126   3.316  17.728  0.1317  0.0020 -0.6980
 6101SOL    HW129936   3.058   3.362   0.027  1.1988  1.3473 -0.4640
 6101SOL    HW229937   3.179   3.390  17.699  2.7904 -1.2589  0.9632
 6102SOL     OW29938   0.254   3.868  11.584 -0.5964 -0.2910 -0.0422
 6102SOL    HW129939   0.232   3.798  11.646 -0.0635 -0.8727 -0.5068
 6102SOL    HW229940   0.175   3.923  11.587  1.7036  3.0050 -0.5920
 6103SOL     OW29941   0.794   2.773   5.525  0.3909  0.0767 -0.1432
 6103SOL    HW129942   0.821   2.714   5.454 -1.8588 -2.4123  1.0808
 6103SOL    HW229943   0.834   2.732   5.602  0.1032 -0.8073 -0.4606
 6104SOL     OW29944   0.960   0.424   7.637  0.9767 -0.1127 -0.5068
 6104SOL    HW129945   0.905   0.357   7.596  0.3546  0.6359 -0.8854
 6104SOL    HW229946   1.039   0.420   7.583  2.0256 -1.0229  1.1080
 6105SOL     OW29947   0.640   0.356   3.872  0.5376  0.4148 -0.5228
 6105SOL    HW129948   0.724   0.310   3.878  0.2151  0.2706  2.4654
 6105SOL    HW229949   0.650   0.425   3.937 -0.4213 -0.1911  0.2520
 6106SOL     OW29950   3.271   3.174   3.226  0.0164 -0.4698 -0.1978
 6106SOL    HW129951   3.354   3.128   3.217  0.5155  0.6917 -1.6111
 6106SOL    HW229952   3.211   3.108   3.190 -0.7999 -0.7835  1.7394
 6107SOL     OW29953   1.551   1.836  12.266 -0.1979 -0.2141 -0.4682
 6107SOL    HW129954   1.645   1.843  12.251  0.0177 -0.9986  0.5298
 6107SOL    HW229955   1.522   1.899  12.201 -0.9833  0.2261  0.3129
 6108SOL     OW29956   2.280   2.252   1.633  0.3507 -0.0204  0.1343
 6108SOL    HW129957   2.194   2.293   1.627 -0.2554 -1.1076  1.5611
 6108SOL    HW229958   2.323   2.285   1.712 -0.4310 -1.0361  0.9710
 6109SOL     OW29959   0.229   1.999   9.778 -0.1685 -0.3466  0.3402
 6109SOL    HW129960   0.214   1.918   9.730  0.1423  0.4378 -1.0718
 6109SOL    HW229961   0.308   2.041   9.744 -0.1962 -1.3635 -0.9641
 6110SOL     OW29962   1.935   0.108   3.613  0.2738  0.2233 -0.1504
 6110SOL    HW129963   1.987   0.183   3.583  0.3118  0.3714  0.2847
 6110SOL    HW229964   1.948   0.127   3.706 -1.3777 -0.4256  0.2118
 6111SOL     OW29965   4.019   0.503   1.585 -0.2375 -0.4471 -0.5766
 6111SOL    HW129966   3.962   0.427   1.576 -3.0228  1.6238 -0.5026
 6111SOL    HW229967   3.976   0.555   1.654  1.7861 -1.3298  1.3589
 6112SOL     OW29968   3.917   1.929   8.613 -0.0464 -0.0547  0.0927
 6112SOL    HW129969   3.904   1.847   8.661  0.6895 -0.0352  0.3313
 6112SOL    HW229970   3.924   1.889   8.527 -1.0007 -0.4387  0.1963
 6113SOL     OW29971   2.530   2.523   7.496 -0.1910  0.7569  0.1925
 6113SOL    HW129972   2.534   2.441   7.545  0.1162  1.1811  0.8774
 6113SOL    HW229973   2.540   2.601   7.550  1.2179  1.9223 -1.7764
 6114SOL     OW29974   0.821   3.864  16.563  0.0228  0.2653  0.7832
 6114SOL    HW129975   0.803   3.770  16.553  0.8047 -0.0634  2.4146
 6114SOL    HW229976   0.737   3.900  16.537  2.5638  4.3940 -1.7066
 6115SOL     OW29977   1.573   1.641   5.175 -0.1973  0.3193  0.0573
 6115SOL    HW129978   1.597   1.667   5.086  0.0521  0.4903  0.1729
 6115SOL    HW229979   1.478   1.648   5.183 -0.4313 -1.2669 -1.4252
 6116SOL     OW29980   4.089   1.531   2.364  0.2173  0.3480  0.7088
 6116SOL    HW129981   4.013   1.588   2.358  1.2632  1.5704 -0.7886
 6116SOL    HW229982   4.126   1.547   2.278 -0.5721 -1.4471  0.0301
 6117SOL     OW29983   0.778   0.593   0.560 -0.0561 -0.0749 -0.2065
 6117SOL    HW129984   0.745   0.656   0.496  0.5478 -0.2121 -0.6475
 6117SOL    HW229985   0.688   0.568   0.582  0.2008 -0.2189  0.6897
 6118SOL     OW29986   2.937   2.526   7.559  0.4240 -0.0814  0.4990
 6118SOL    HW129987   2.910   2.614   7.536 -1.0969 -0.7486 -0.2775
 6118SOL    HW229988   2.970   2.542   7.648  0.6212  0.2789  0.3593
 6119SOL     OW29989   3.290   2.131  12.780  0.0890  0.2442 -0.1186
 6119SOL    HW129990   3.220   2.084  12.733 -2.2149  1.2358  2.3222
 6119SOL    HW229991   3.260   2.123  12.870  1.7139  0.8055  0.4584
 6120SOL     OW29992   3.333   0.307   2.054  0.2378 -0.0902 -0.1772
 6120SOL    HW129993   3.315   0.319   1.960  0.3184 -0.3522 -0.2254
 6120SOL    HW229994   3.372   0.394   2.063  0.3899 -0.2311  0.5070
 6121SOL     OW29995   2.862   2.265  12.252 -0.3999  0.3442  0.1423
 6121SOL    HW129996   2.859   2.360  12.252  0.7508  0.3810 -1.1419
 6121SOL    HW229997   2.864   2.253  12.157  0.5055 -0.3337  0.2423
 6122SOL     OW29998   2.664   0.601   6.074  0.3273 -0.0306  0.1714
 6122SOL    HW129999   2.665   0.643   5.989  0.2727 -2.4177 -1.0003
 6122SOL    HW230000   2.593   0.539   6.056  0.2261  0.2698 -0.4501
 6123SOL     OW30001   2.091   3.841  15.960  0.1495 -0.1335 -0.1654
 6123SOL    HW130002   2.135   3.757  15.946 -0.1221 -0.1320 -1.0216
 6123SOL    HW230003   2.051   3.858  15.874  1.4486  1.4631 -0.4482
 6124SOL     OW30004   3.879   3.638  14.964 -0.4134  0.1121 -0.1628
 6124SOL    HW130005   3.954   3.634  15.024 -0.4399 -0.2676 -0.1497
 6124SOL    HW230006   3.904   3.712  14.909  0.4300 -1.9271 -2.5776
 6125SOL     OW30007   0.881   2.617   7.706 -0.0866  0.2429  0.0243
 6125SOL    HW130008   0.800   2.591   7.660  0.4040  2.2331 -1.9838
 6125SOL    HW230009   0.889   2.534   7.753  0.7688 -0.8566 -2.0590
 6126SOL     OW30010   3.316   3.135   7.216  0.2176 -0.1865  0.2820
 6126SOL    HW130011   3.387   3.080   7.248 -1.7570 -2.6964  0.3608
 6126SOL    HW230012   3.323   3.144   7.121 -1.5408  2.7042  0.4146
 6127SOL     OW30013   4.178   2.521   1.533  0.2954 -0.0891 -0.1310
 6127SOL    HW130014   4.107   2.460   1.512  0.5484 -0.6624  0.7066
 6127SOL    HW230015   4.123   2.593   1.566  1.6728  0.9829 -0.1844
 6128SOL     OW30016   4.319   0.502   6.187  0.5512 -0.0063  0.2304
 6128SOL    HW130017   4.224   0.508   6.173  0.3006 -1.7528  1.1840
 6128SOL    HW230018   4.327   0.440   6.260 -0.9728  0.2699  0.6352
 6129SOL     OW30019   1.735   1.057   0.803 -0.2606  0.2719 -0.0500
 6129SOL    HW130020   1.664   0.994   0.818  1.6571 -1.5889  1.0898
 6129SOL    HW230021   1.671   1.125   0.780 -3.6039 -1.7199  3.2267
 6130SOL     OW30022   4.008   2.756   6.388  0.2120  0.3224 -0.1054
 6130SOL    HW130023   4.067   2.690   6.426  1.2085  1.1435 -0.2389
 6130SOL    HW230024   4.071   2.811   6.343  0.7532 -1.4888 -1.5628
 6131SOL     OW30025   1.120   0.804   1.329 -0.5005  0.2675  0.3690
 6131SOL    HW130026   1.171   0.729   1.298  0.9215  1.5279 -0.3220
 6131SOL    HW230027   1.175   0.879   1.306  0.0656  0.3724  2.0781
 6132SOL     OW30028   2.157   4.507   0.812 -0.0106  0.4990  0.0849
 6132SOL    HW130029   2.231   4.505   0.873  0.3304 -0.4768 -0.3550
 6132SOL    HW230030   2.086   4.487   0.873 -0.2109  1.4614  0.1739
 6133SOL     OW30031   1.229   4.439   1.153  0.2398 -0.4606  0.2156
 6133SOL    HW130032   1.171   4.449   1.078 -1.0477  2.3204  1.5751
 6133SOL    HW230033   1.252   4.530   1.174 -2.3563  0.2543 -0.0440
 6134SOL     OW30034   2.164   0.455   9.441 -0.1569  0.3697 -0.0137
 6134SOL    HW130035   2.175   0.424   9.350  0.0133 -3.1803  1.1935
 6134SOL    HW230036   2.248   0.492   9.465  0.4770 -1.1211  0.0832
 6135SOL     OW30037   3.026   3.198   7.485  0.3214 -0.3194 -0.1968
 6135SOL    HW130038   2.931   3.189   7.481  0.4315 -0.9070 -1.4585
 6135SOL    HW230039   3.050   3.279   7.441 -1.0478  1.0520  1.5837
 6136SOL     OW30040   2.465   0.967   2.481  0.0626 -0.0560 -0.2936
 6136SOL    HW130041   2.523   0.894   2.460 -0.5156 -1.1011  1.7313
 6136SOL    HW230042   2.432   0.982   2.393  1.3284 -2.3198 -1.1429
 6137SOL     OW30043   1.713   0.904   3.904 -0.0828  0.4346 -0.3382
 6137SOL    HW130044   1.707   0.994   3.935 -0.5000  0.0165  0.7673
 6137SOL    HW230045   1.803   0.883   3.930 -0.4219  1.2002  1.4148
 6138SOL     OW30046   1.693   2.635   8.392 -0.2009  0.0269 -0.3503
 6138SOL    HW130047   1.630   2.639   8.464  0.9188 -1.5722  0.7014
 6138SOL    HW230048   1.771   2.676   8.428 -0.3545  0.9998 -1.1166
 6139SOL     OW30049   2.270   3.900   8.606  0.3361  0.0834 -0.0904
 6139SOL    HW130050   2.269   3.915   8.700 -0.5481  0.6135 -0.1797
 6139SOL    HW230051   2.231   3.813   8.606 -1.4674  0.8983 -0.6541
 6140SOL     OW30052   1.598   3.011   9.010 -0.7262 -0.8674 -0.1028
 6140SOL    HW130053   1.629   2.991   8.921  2.8702 -3.7874  1.8241
 6140SOL    HW230054   1.622   3.103   9.009 -0.3800 -0.9623 -0.4178
 6141SOL     OW30055   3.995   2.586   7.865  0.6190  0.0404 -0.1654
 6141SOL    HW130056   3.927   2.526   7.896  1.4660  0.4827  2.5147
 6141SOL    HW230057   4.050   2.535   7.806  0.4654 -0.7576  0.3972
 6142SOL     OW30058   0.473   2.021   8.068 -0.1142  0.4405 -0.2232
 6142SOL    HW130059   0.531   1.948   8.088  0.0181  0.7516  0.5300
 6142SOL    HW230060   0.475   2.067   8.152 -1.4516 -0.1231  0.1258
 6143SOL     OW30061   2.179   4.620   3.159  0.2720  0.3866 -0.3059
 6143SOL    HW130062   2.097   4.612   3.207 -0.2705  0.6747 -1.1801
 6143SOL    HW230063   2.246   4.630   3.227  0.7737  0.1915 -0.7709
 6144SOL     OW30064   1.795   2.363   6.935  0.0486 -0.2258  0.0578
 6144SOL    HW130065   1.792   2.442   6.882 -2.0403 -1.0577 -1.0440
 6144SOL    HW230066   1.781   2.298   6.867 -1.2682 -1.2116  1.2611
 6145SOL     OW30067   1.888   2.984   6.205 -0.5019  0.0734 -0.4816
 6145SOL    HW130068   1.884   2.927   6.129 -1.4477 -0.9690  0.3489
 6145SOL    HW230069   1.910   2.919   6.272 -0.2725  1.9194  1.2445
 6146SOL     OW30070   2.507   4.293   8.006 -0.6582 -0.0414  0.2621
 6146SOL    HW130071   2.501   4.227   8.076  0.3729 -0.7899 -0.3494
 6146SOL    HW230072   2.549   4.360   8.060  0.2237 -1.3082  1.1634
 6147SOL     OW30073   0.591   4.486   7.645 -0.2537 -0.0808  0.6177
 6147SOL    HW130074   0.682   4.500   7.673 -0.3388 -0.3606  1.0323
 6147SOL    HW230075   0.563   4.576   7.625 -0.6272 -0.4585 -0.5268
 6148SOL     OW30076   2.450   4.408   5.387 -0.3341  0.4246  0.2153
 6148SOL    HW130077   2.544   4.424   5.399  0.4251 -0.3752 -4.3400
 6148SOL    HW230078   2.442   4.323   5.430  2.8866  1.4104  2.7600
 6149SOL     OW30079   4.397   4.490   9.378 -0.0208  0.0625 -0.4264
 6149SOL    HW130080   4.392   4.416   9.318 -0.3432  0.6118 -1.0832
 6149SOL    HW230081   4.478   4.475   9.427 -0.6825 -0.9926  0.3266
 6150SOL     OW30082   2.364   0.606  13.562 -0.5775 -0.4524 -0.1682
 6150SOL    HW130083   2.305   0.639  13.494  1.1842  0.9621 -1.0333
 6150SOL    HW230084   2.331   0.517  13.573 -0.5636 -0.7017 -2.0864
 6151SOL     OW30085   2.046   2.604  16.990  0.3470 -0.1278  0.1890
 6151SOL    HW130086   2.082   2.586  17.077 -0.9601 -1.1259  0.5262
 6151SOL    HW230087   2.123   2.637  16.944  0.9294 -0.2325  1.0707
 6152SOL     OW30088   0.943   3.494   2.223 -0.2882  0.1761 -0.0690
 6152SOL    HW130089   1.017   3.547   2.195  0.0191  0.9569  2.2632
 6152SOL    HW230090   0.977   3.441   2.294 -0.0601  1.2124  0.5995
 6153SOL     OW30091   1.522   3.731   7.730 -0.5886 -0.5962 -0.6043
 6153SOL    HW130092   1.606   3.718   7.686 -0.6352 -0.6431 -0.6809
 6153SOL    HW230093   1.506   3.825   7.719 -0.7828 -0.7468 -1.6816
 6154SOL     OW30094   4.711   3.007  16.616  0.1051 -0.2461  0.1299
 6154SOL    HW130095   0.043   3.048  16.668 -1.0898 -0.1872  1.6711
 6154SOL    HW230096   4.696   2.940  16.682 -1.0352  0.1540  0.2737
 6155SOL     OW30097   3.778   2.600   9.824 -0.6755 -0.0759 -0.3616
 6155SOL    HW130098   3.857   2.545   9.820  1.3840  2.5313  4.4519
 6155SOL    HW230099   3.792   2.658   9.749 -1.7756 -0.1136 -0.5981
 6156SOL     OW30100   3.661   0.361   5.536 -0.2194 -0.4080  0.2385
 6156SOL    HW130101   3.712   0.387   5.613  0.4423  0.0090 -0.3420
 6156SOL    HW230102   3.575   0.351   5.578  0.2586 -3.4157  0.4925
 6157SOL     OW30103   0.614   1.792  13.652  0.1141  0.1751  0.3797
 6157SOL    HW130104   0.628   1.698  13.648 -0.9238  0.0182  0.2976
 6157SOL    HW230105   0.688   1.820  13.705  1.4264  0.1812 -1.4541
 6158SOL     OW30106   2.079   1.401   8.545  0.1264  0.1488  0.1152
 6158SOL    HW130107   2.018   1.339   8.505  1.1173 -0.2245 -0.8284
 6158SOL    HW230108   2.019   1.431   8.613 -0.1718 -2.1853  0.8924
 6159SOL     OW30109   4.692   4.378   4.128  0.2832 -0.1564 -0.3453
 6159SOL    HW130110   4.670   4.470   4.110  0.2128 -0.0479  0.2938
 6159SOL    HW230111   4.638   4.364   4.206  2.2377 -0.9045  0.8584
 6160SOL     OW30112   3.132   1.554  12.474 -0.2568 -0.0335 -0.7199
 6160SOL    HW130113   3.089   1.625  12.522 -0.2038 -1.3004  1.2359
 6160SOL    HW230114   3.172   1.592  12.396 -0.4343 -0.9188 -1.2407
 6161SOL     OW30115   3.965   1.770   0.585  0.6594 -0.4110 -0.2173
 6161SOL    HW130116   4.006   1.854   0.609 -1.5491  0.9162 -1.1077
 6161SOL    HW230117   3.910   1.749   0.660  1.2794 -0.0588  0.3413
 6162SOL     OW30118   1.213   2.560   4.426 -0.9341 -0.2407 -0.3636
 6162SOL    HW130119   1.213   2.477   4.473  1.8279  0.4665  0.8564
 6162SOL    HW230120   1.186   2.537   4.337 -2.1549  0.6991 -0.2398
 6163SOL     OW30121   4.559   1.862  15.843 -0.0038 -0.4806  0.0888
 6163SOL    HW130122   4.477   1.829  15.806 -0.8963  0.5640  1.0928
 6163SOL    HW230123   4.543   1.953  15.817 -1.7199 -0.5996  0.6963
 6164SOL     OW30124   1.737   1.308   8.094  0.6864 -0.2597  0.2973
 6164SOL    HW130125   1.786   1.293   8.013  0.0790 -1.6624  0.1770
 6164SOL    HW230126   1.672   1.239   8.081  1.9316 -1.4686  0.5550
 6165SOL     OW30127   3.720   2.288  13.513 -0.0169 -0.0840 -1.0563
 6165SOL    HW130128   3.641   2.235  13.523 -0.5752  1.1614  1.2534
 6165SOL    HW230129   3.709   2.333  13.430 -0.4860  2.7549  0.5496
 6166SOL     OW30130   0.660   1.282   4.514  0.1635 -0.7875 -0.1478
 6166SOL    HW130131   0.663   1.188   4.494  0.4341 -0.8009 -0.0464
 6166SOL    HW230132   0.584   1.296   4.458 -1.4262 -1.3091  1.8963
 6167SOL     OW30133   0.697   3.183   9.347 -0.3020  0.1113 -0.2195
 6167SOL    HW130134   0.778   3.134   9.363 -0.3267 -0.4342 -1.7220
 6167SOL    HW230135   0.646   3.148   9.419  0.7587  1.0553  1.0007
 6168SOL     OW30136   0.415   0.314   9.859 -0.1648  0.3336 -0.0111
 6168SOL    HW130137   0.494   0.360   9.832  0.1961  0.0352  0.5479
 6168SOL    HW230138   0.450   0.266   9.934  0.3210  1.0725  0.2264
 6169SOL     OW30139   2.073   1.563   9.042  0.1520 -0.0696 -0.1411
 6169SOL    HW130140   1.994   1.589   9.089  0.3481 -0.1004  0.2058
 6169SOL    HW230141   2.056   1.590   8.951 -4.4915  0.9359  1.0247
 6170SOL     OW30142   0.472   4.619   4.115  0.1525  0.3823 -0.3881
 6170SOL    HW130143   0.541   4.591   4.056  0.0647 -0.4511 -0.0907
 6170SOL    HW230144   0.450   4.531   4.145 -0.1826  0.9611  1.0815
 6171SOL     OW30145   1.874   0.302   4.908 -0.0523  0.1372 -0.0443
 6171SOL    HW130146   1.794   0.318   4.958 -0.3186 -1.2969 -0.0319
 6171SOL    HW230147   1.852   0.277   4.819 -0.6776  0.6556 -0.0354
 6172SOL     OW30148   0.994   1.576   3.195  0.6458  0.2080  0.7410
 6172SOL    HW130149   1.086   1.604   3.188  0.1376  1.2949 -1.5905
 6172SOL    HW230150   0.946   1.640   3.142  0.1560 -0.8263 -0.0606
 6173SOL     OW30151   1.952   3.709   5.140 -0.0793  0.0247 -0.1351
 6173SOL    HW130152   1.903   3.627   5.128  0.4636 -0.5813  1.7742
 6173SOL    HW230153   1.975   3.738   5.052  1.3532  0.7466  0.4801
 6174SOL     OW30154   3.268   0.612  15.209  0.4639  0.0657  0.1374
 6174SOL    HW130155   3.180   0.592  15.180  0.9667 -1.4452 -0.3218
 6174SOL    HW230156   3.243   0.685  15.266  2.2169 -0.0707  1.1070
 6175SOL     OW30157   3.653   4.585   0.961  0.0637 -0.0455  0.5695
 6175SOL    HW130158   3.609   4.657   1.007 -0.6892  0.1587 -0.4546
 6175SOL    HW230159   3.743   4.577   0.992  0.2475 -1.7191 -0.3709
 6176SOL     OW30160   1.474   0.723   1.744  0.0202 -0.1545  0.3089
 6176SOL    HW130161   1.449   0.656   1.680  1.3773 -0.1572 -0.2265
 6176SOL    HW230162   1.564   0.734   1.714  0.4022 -2.5090  0.5487
 6177SOL     OW30163   0.997   4.062   2.579 -0.3143  0.1031 -0.0503
 6177SOL    HW130164   0.904   4.079   2.594 -0.7232 -2.4018  0.2448
 6177SOL    HW230165   1.038   4.148   2.591 -0.2131 -0.0744  0.9151
 6178SOL     OW30166   4.331   2.964   2.426 -0.1464  0.1859 -0.4676
 6178SOL    HW130167   4.314   3.006   2.342  1.3684  1.1904 -0.2755
 6178SOL    HW230168   4.360   3.035   2.483  0.9633  0.5085 -1.4272
 6179SOL     OW30169   3.449   4.291   4.843 -0.0756 -0.2436  0.5225
 6179SOL    HW130170   3.528   4.240   4.823  0.3149  0.1809  0.9869
 6179SOL    HW230171   3.386   4.267   4.775  0.9859  1.2068 -0.9991
 6180SOL     OW30172   1.302   4.428   6.518  0.9139  0.3445 -0.6196
 6180SOL    HW130173   1.252   4.351   6.545  1.2400  0.3561  0.0298
 6180SOL    HW230174   1.233   4.495   6.521 -0.2471 -0.8857  0.1478
 6181SOL     OW30175   0.098   0.944   2.933  0.2312 -0.3804 -0.3022
 6181SOL    HW130176   0.067   0.942   3.023  0.9310 -0.6240 -0.0635
 6181SOL    HW230177   0.012   0.966   2.897  0.2486  0.1450 -0.0188
 6182SOL     OW30178   3.092   4.692  12.667 -0.0520  0.7094 -0.0750
 6182SOL    HW130179   3.113   0.044  12.693  0.5885  0.4609  0.2649
 6182SOL    HW230180   3.130   4.694  12.580  0.4994 -0.3302  0.1417
 6183SOL     OW30181   3.042   0.829   8.925 -0.1379  0.2651  0.3573
 6183SOL    HW130182   2.964   0.878   8.898 -0.1055  0.9682  1.5946
 6183SOL    HW230183   3.077   0.882   8.996 -1.7418  0.8824  0.6928
 6184SOL     OW30184   0.629   1.777   7.032 -0.2261  0.1529  0.6160
 6184SOL    HW130185   0.670   1.838   6.969 -1.9385  1.5674  0.8734
 6184SOL    HW230186   0.650   1.690   7.000  1.6483 -0.2339  2.9007
 6185SOL     OW30187   1.431   3.481  13.338  0.0444  0.5797 -0.6431
 6185SOL    HW130188   1.460   3.552  13.394  2.4679 -1.3880  0.6001
 6185SOL    HW230189   1.464   3.521  13.257  3.8206  0.5701  0.8671
 6186SOL     OW30190   2.530   0.464   5.904  0.1567  0.1424  0.0286
 6186SOL    HW130191   2.461   0.403   5.929 -0.0755  1.1410  1.8345
 6186SOL    HW230192   2.524   0.462   5.809 -1.2950 -0.0586  0.1274
 6187SOL     OW30193   1.449   1.878   1.573  0.2802  0.1692  0.1372
 6187SOL    HW130194   1.517   1.811   1.562 -0.3103 -0.2907 -0.7636
 6187SOL    HW230195   1.456   1.892   1.667 -1.7267 -1.5735  0.5446
 6188SOL     OW30196   3.013   0.153  13.587 -0.1142  0.0487  0.5373
 6188SOL    HW130197   2.996   0.061  13.605  0.5865  0.0853  1.4248
 6188SOL    HW230198   2.991   0.161  13.494  2.8184  0.8098 -0.0964
 6189SOL     OW30199   2.222   0.799   4.347  0.5445  0.8538 -0.2594
 6189SOL    HW130200   2.139   0.798   4.395  1.0136 -2.2022  0.4640
 6189SOL    HW230201   2.271   0.849   4.412  1.1419  1.6150 -1.3026
 6190SOL     OW30202   0.779   3.930   4.811  0.3043  0.0443 -0.2954
 6190SOL    HW130203   0.827   3.975   4.881 -0.0552 -0.4420  0.2666
 6190SOL    HW230204   0.687   3.933   4.835  0.4400  0.7831  0.1163
 6191SOL     OW30205   3.062   3.113   2.130  0.2904  0.3412  0.3232
 6191SOL    HW130206   3.022   3.143   2.212  1.2667 -1.6032  1.4978
 6191SOL    HW230207   3.034   3.182   2.071 -0.3418 -0.1082  0.0999
 6192SOL     OW30208   0.365   1.108  14.126  0.0099 -0.1872  0.4834
 6192SOL    HW130209   0.446   1.091  14.078  0.2923  0.7130  0.6352
 6192SOL    HW230210   0.301   1.057  14.076 -0.2442  1.4027 -0.7918
 6193SOL     OW30211   3.078   4.111   5.886  0.7209  0.3193 -0.4519
 6193SOL    HW130212   3.133   4.033   5.896 -0.5754 -0.4256  0.8416
 6193SOL    HW230213   2.989   4.076   5.891 -0.0677  2.3793 -0.2034
 6194SOL     OW30214   0.094   1.699   6.868  0.6515  0.0299 -0.4435
 6194SOL    HW130215   0.139   1.616   6.881 -0.3312 -0.2486  1.1125
 6194SOL    HW230216   0.021   1.665   6.816  0.1320  0.0615  0.2814
 6195SOL     OW30217   1.100   0.783  14.703 -0.3229 -0.1966  0.1303
 6195SOL    HW130218   1.018   0.784  14.654 -0.0911  0.4584 -0.2438
 6195SOL    HW230219   1.081   0.728  14.779 -0.2431 -1.1916 -0.5864
 6196SOL     OW30220   4.371   4.448   3.595  0.1298 -0.1925  0.0435
 6196SOL    HW130221   4.316   4.419   3.668  2.8044 -1.6515  1.4922
 6196SOL    HW230222   4.306   4.489   3.538 -0.1223 -1.5288 -0.6149
 6197SOL     OW30223   4.029   3.464   4.685 -0.5425  0.2117 -0.4202
 6197SOL    HW130224   3.980   3.545   4.671  1.0270  0.9591 -1.6168
 6197SOL    HW230225   4.021   3.398   4.616 -2.7728  0.3218 -0.2545
 6198SOL     OW30226   3.666   2.962   7.565 -0.1973 -0.3775 -0.3576
 6198SOL    HW130227   3.686   2.925   7.651  1.0120 -2.0566 -1.3763
 6198SOL    HW230228   3.599   2.897   7.543  1.8160 -2.8049  0.6988
 6199SOL     OW30229   1.769   1.845   8.519  0.3566 -0.3280  0.3688
 6199SOL    HW130230   1.742   1.764   8.475 -0.4079  1.0210 -1.6431
 6199SOL    HW230231   1.744   1.917   8.460 -0.5418  1.6621  3.1715
 6200SOL     OW30232   2.503   2.042   7.598  0.4715 -0.2207  0.0800
 6200SOL    HW130233   2.575   1.995   7.556  0.1591  0.2482 -1.0006
 6200SOL    HW230234   2.450   1.973   7.637 -1.9729  1.2044 -0.6677
 6201SOL     OW30235   0.657   1.790   7.570  0.0770 -0.2021  0.2955
 6201SOL    HW130236   0.612   1.799   7.486  0.0254 -0.4593  0.2949
 6201SOL    HW230237   0.590   1.774   7.637 -0.3773  0.8669  0.0921
 6202SOL     OW30238   3.174   0.277   9.173  0.1111  0.3442  0.8042
 6202SOL    HW130239   3.233   0.266   9.098  0.5515  1.0904  1.0437
 6202SOL    HW230240   3.154   0.370   9.165 -1.7383 -0.1577 -0.5781
 6203SOL     OW30241   3.628   3.322   4.147 -0.1233 -0.3803  0.8372
 6203SOL    HW130242   3.682   3.399   4.130  0.4970 -0.5077  2.2219
 6203SOL    HW230243   3.634   3.292   4.238 -0.6163  0.3559  1.1073
 6204SOL     OW30244   1.088   3.606   7.502 -0.3703  0.5907  0.0021
 6204SOL    HW130245   1.165   3.661   7.486  0.3120 -0.0102  1.2274
 6204SOL    HW230246   1.106   3.539   7.567  1.9096  2.1959  1.0451
 6205SOL     OW30247   0.162   1.994  10.651  0.4203  0.0426 -0.2351
 6205SOL    HW130248   0.106   1.994  10.574  0.3984  0.0403 -0.2191
 6205SOL    HW230249   0.217   2.069  10.629 -0.0652  1.5397  3.7016
 6206SOL     OW30250   0.486   1.850  14.635 -0.5768 -0.4100 -0.3806
 6206SOL    HW130251   0.501   1.844  14.541  1.1287 -1.0030 -0.0708
 6206SOL    HW230252   0.458   1.761  14.657 -0.9986  0.0420  0.9196
 6207SOL     OW30253   1.627   2.601  17.391 -0.0255 -0.2660  0.3783
 6207SOL    HW130254   1.574   2.679  17.374  3.1185  1.7359 -0.1472
 6207SOL    HW230255   1.706   2.641  17.427 -1.2339  0.7747  1.9100
 6208SOL     OW30256   3.497   0.515  15.077 -0.3446  0.4296  0.7378
 6208SOL    HW130257   3.428   0.565  15.121 -2.7996 -2.2632 -0.0781
 6208SOL    HW230258   3.531   0.462  15.149 -0.3428  1.0194  1.1713
 6209SOL     OW30259   1.302   0.088   5.447 -0.1713 -0.0248  0.4228
 6209SOL    HW130260   1.383   0.139   5.447  0.8041 -1.5585 -1.4727
 6209SOL    HW230261   1.272   0.103   5.537  0.1521 -3.5238  1.1340
 6210SOL     OW30262   1.326   0.163   3.352  0.3449  0.0321 -0.4028
 6210SOL    HW130263   1.244   0.203   3.380 -0.1934 -2.0801  1.0668
 6210SOL    HW230264   1.384   0.239   3.352  0.8954 -0.3929  1.1895
 6211SOL     OW30265   0.718   4.658   3.029 -0.4195  0.0661  0.1746
 6211SOL    HW130266   0.773   4.606   2.971 -1.8619  0.0855 -1.1967
 6211SOL    HW230267   0.641   4.650   2.973  0.3710  3.6520 -1.4177
 6212SOL     OW30268   1.209   1.320   3.286 -0.3394  0.5620 -0.1054
 6212SOL    HW130269   1.141   1.259   3.258 -1.1938  0.7655  1.5223
 6212SOL    HW230270   1.186   1.311   3.379 -0.0930  1.8220  0.0761
 6213SOL     OW30271   4.666   4.186   1.911  0.0260 -0.4638  0.1836
 6213SOL    HW130272   4.622   4.118   1.963 -0.0752  0.2657  1.0509
 6213SOL    HW230273   4.657   4.268   1.960 -0.4217 -1.3088  1.5119
 6214SOL     OW30274   1.148   3.816   1.092 -0.2917  0.3611  0.5407
 6214SOL    HW130275   1.085   3.879   1.126 -0.6244  1.1005 -1.4575
 6214SOL    HW230276   1.172   3.842   1.003 -0.8050  0.1422  0.3370
 6215SOL     OW30277   1.092   3.797   2.427  0.2180 -0.4622  0.1687
 6215SOL    HW130278   1.157   3.764   2.488  0.6574  0.8311  0.3894
 6215SOL    HW230279   1.067   3.881   2.465  0.9060 -0.5776  0.8775
 6216SOL     OW30280   1.215   4.703   1.202 -0.0219 -0.0542 -0.5552
 6216SOL    HW130281   1.270   0.043   1.190  0.2206 -0.6803 -3.4708
 6216SOL    HW230282   1.205   4.701   1.298  0.2965 -1.6978 -0.5444
 6217SOL     OW30283   2.996   3.771   2.032 -0.3630 -0.3583 -0.1870
 6217SOL    HW130284   2.919   3.747   1.981 -1.1358  1.3236  0.1716
 6217SOL    HW230285   2.959   3.747   2.117 -0.7719  1.3945  0.1377
 6218SOL     OW30286   1.065   3.765   7.127 -0.2501 -0.3548  0.2648
 6218SOL    HW130287   1.012   3.688   7.147  1.4789 -1.1819  1.6982
 6218SOL    HW230288   1.135   3.718   7.082 -0.7411 -0.2027 -0.6450
 6219SOL     OW30289   4.727   3.909   2.865 -0.0810 -0.0670 -0.3056
 6219SOL    HW130290   0.035   3.825   2.866  1.8060  0.9940  0.8947
 6219SOL    HW230291   0.025   3.947   2.945  3.3767 -1.0348 -1.4015
 6220SOL     OW30292   2.318   0.494  14.059 -0.1317 -0.6663 -0.3028
 6220SOL    HW130293   2.312   0.584  14.025 -1.4329 -0.3491  0.7681
 6220SOL    HW230294   2.365   0.503  14.142  0.7579 -3.6511 -0.5182
 6221SOL     OW30295   3.748   3.446   7.206 -0.2080  0.0736 -0.1952
 6221SOL    HW130296   3.837   3.443   7.170 -0.2265  0.7705 -0.2989
 6221SOL    HW230297   3.731   3.535   7.178  1.7471  0.1912 -0.9949
 6222SOL     OW30298   4.476   0.560   7.462 -0.8140 -0.0862 -0.3660
 6222SOL    HW130299   4.520   0.632   7.506 -1.7083 -0.7188  1.5579
 6222SOL    HW230300   4.512   0.568   7.373 -0.2489  0.6061 -0.0710
 6223SOL     OW30301   2.698   2.430   4.273  0.4344 -0.4919 -0.0589
 6223SOL    HW130302   2.656   2.368   4.214  0.0181 -0.6160  0.3700
 6223SOL    HW230303   2.785   2.433   4.233 -0.4003 -2.5746 -1.9940
 6224SOL     OW30304   3.876   3.204   7.429 -0.6382  0.2342  0.2159
 6224SOL    HW130305   3.820   3.254   7.370  0.4338  2.0446  0.7576
 6224SOL    HW230306   3.832   3.223   7.512 -1.1131 -0.4283  0.1223
 6225SOL     OW30307   3.202   1.407   7.906  0.3438  0.3729 -0.0064
 6225SOL    HW130308   3.286   1.421   7.862  0.6299  2.2926  1.1598
 6225SOL    HW230309   3.154   1.376   7.829 -1.6207 -1.6930  2.0399
 6226SOL     OW30310   0.699   1.301   0.308 -0.2222  0.0290  0.0510
 6226SOL    HW130311   0.703   1.368   0.377 -0.7962  0.5583 -0.4215
 6226SOL    HW230312   0.681   1.368   0.241  3.1602  0.5083 -0.4120
 6227SOL     OW30313   2.002   0.235   5.259 -0.3072  0.2524  0.0570
 6227SOL    HW130314   2.039   0.157   5.218  2.4523  0.3058  2.4367
 6227SOL    HW230315   1.998   0.204   5.349 -0.0102  1.9987  0.6862
 6228SOL     OW30316   0.437   1.310   4.346  0.3697  0.5261  0.0800
 6228SOL    HW130317   0.366   1.308   4.410 -2.0711 -0.3321 -2.6622
 6228SOL    HW230318   0.405   1.386   4.297 -1.7383 -1.9749 -2.4146
 6229SOL     OW30319   0.343   0.893   2.802  0.4419 -0.1578 -0.4601
 6229SOL    HW130320   0.314   0.844   2.725  0.0856 -0.6878  0.0089
 6229SOL    HW230321   0.266   0.892   2.859  1.7617  1.2171  1.3404
 6230SOL     OW30322   3.455   0.359   1.427 -0.3942  0.2412  0.0930
 6230SOL    HW130323   3.490   0.311   1.503 -1.0098 -0.9870 -0.3944
 6230SOL    HW230324   3.421   0.436   1.473  1.2559  2.3648 -2.2655
 6231SOL     OW30325   1.867   4.529   5.208 -0.7660  0.1636 -0.2977
 6231SOL    HW130326   1.810   4.602   5.229 -2.5009 -1.9738  2.4840
 6231SOL    HW230327   1.851   4.472   5.283  0.2531 -1.0528 -0.9923
 6232SOL     OW30328   2.688   0.291   3.333 -0.1724  0.4590  0.1191
 6232SOL    HW130329   2.724   0.253   3.413  0.8092 -1.7077 -1.3619
 6232SOL    HW230330   2.729   0.376   3.320  0.1929 -0.0451 -2.0707
 6233SOL     OW30331   1.822   3.727  15.981 -0.3444 -0.1930 -0.2234
 6233SOL    HW130332   1.911   3.755  15.960 -0.6482  1.2419  0.4039
 6233SOL    HW230333   1.775   3.803  16.017  0.5270 -0.3441  1.2422
 6234SOL     OW30334   3.100   3.340   2.958 -0.3800  0.0431 -0.2942
 6234SOL    HW130335   3.098   3.430   2.992 -0.7248 -0.6361  1.5129
 6234SOL    HW230336   3.138   3.290   3.031 -0.6433  0.6130  0.2379
 6235SOL     OW30337   2.094   3.103   5.445 -0.0361 -0.0346  0.0530
 6235SOL    HW130338   2.106   3.054   5.526 -0.5731 -0.4016 -0.0923
 6235SOL    HW230339   2.168   3.056   5.404 -0.7714 -0.3815 -0.8865
 6236SOL     OW30340   2.794   1.151   1.954  0.6962  0.2807  0.7011
 6236SOL    HW130341   2.793   1.206   1.876 -0.8163 -1.8818 -0.7804
 6236SOL    HW230342   2.768   1.220   2.015  0.8618  0.1524  0.9176
 6237SOL     OW30343   0.481   4.577  15.381  0.0967 -0.2379  0.0977
 6237SOL    HW130344   0.515   4.663  15.358  2.8613 -0.9606  1.3282
 6237SOL    HW230345   0.526   4.566  15.465 -2.7510  0.8908  1.7502
 6238SOL     OW30346   3.474   2.870   1.606  0.7064  0.0157 -0.7769
 6238SOL    HW130347   3.498   2.961   1.589 -0.8959  0.4856 -0.5128
 6238SOL    HW230348   3.410   2.890   1.674 -0.1802 -1.3589 -1.2038
 6239SOL     OW30349   2.226   3.922   9.853 -0.1745 -0.7280  0.2165
 6239SOL    HW130350   2.216   3.869   9.774 -1.1046  1.9384 -1.4613
 6239SOL    HW230351   2.281   3.994   9.821 -1.2818 -0.3498 -0.8571
 6240SOL     OW30352   2.266   3.645  13.679  0.0445  0.7762  0.2684
 6240SOL    HW130353   2.252   3.658  13.585 -0.2263  1.4696  0.3989
 6240SOL    HW230354   2.178   3.659  13.715  0.9356  4.0748  1.1961
 6241SOL     OW30355   0.761   2.375   0.578 -0.8651  0.0873  0.2757
 6241SOL    HW130356   0.754   2.425   0.660  1.0025  1.0317 -0.1411
 6241SOL    HW230357   0.839   2.319   0.582 -0.1017  1.0374 -1.3574
 6242SOL     OW30358   3.353   0.391  11.029  0.0344  0.6823 -0.4985
 6242SOL    HW130359   3.440   0.376  11.066 -0.3760  0.7106  0.4562
 6242SOL    HW230360   3.341   0.476  11.072 -2.0120 -0.4254  1.1072
 6243SOL     OW30361   1.036   0.843   7.795 -0.3536  0.3594 -0.5186
 6243SOL    HW130362   0.967   0.841   7.862 -0.2611 -1.2765 -0.4881
 6243SOL    HW230363   1.105   0.893   7.840  0.3390  0.4841 -1.7367
 6244SOL     OW30364   2.575   0.021   2.866  0.2947  0.4395  0.0826
 6244SOL    HW130365   2.669   0.004   2.866  0.1396 -0.3916  0.4924
 6244SOL    HW230366   2.561   0.020   2.961  0.1089 -1.7750  0.0157
 6245SOL     OW30367   2.060   0.735  10.035  0.2207 -0.2295  0.0418
 6245SOL    HW130368   2.092   0.760   9.949  2.5002  0.2120  1.0352
 6245SOL    HW230369   2.078   0.813  10.087 -3.2803 -0.4726  1.6697
 6246SOL     OW30370   3.586   2.371   4.285  0.4676  0.0365 -0.2495
 6246SOL    HW130371   3.534   2.395   4.209 -2.8190 -1.2339  1.6178
 6246SOL    HW230372   3.557   2.429   4.356  1.1971 -2.0654  1.7541
 6247SOL     OW30373   1.876   2.307  16.573  0.3360 -0.4889  0.0567
 6247SOL    HW130374   1.855   2.256  16.495 -1.3695 -0.3815  0.4549
 6247SOL    HW230375   1.822   2.266  16.640 -0.5825 -2.3518 -1.8301
 6248SOL     OW30376   0.866   4.683   7.496 -0.2164  0.2334 -0.8394
 6248SOL    HW130377   0.959   4.704   7.486  0.0128 -0.2305  0.2542
 6248SOL    HW230378   0.839   4.682   7.405  0.7253 -0.2704 -1.1121
 6249SOL     OW30379   1.255   1.804   7.498 -0.1151 -0.6287  0.1601
 6249SOL    HW130380   1.330   1.809   7.438 -1.8416 -0.3389 -1.9541
 6249SOL    HW230381   1.191   1.851   7.445 -0.1613 -0.8163  0.0496
 6250SOL     OW30382   3.245   2.341  12.611  0.5092 -0.0988  0.2533
 6250SOL    HW130383   3.245   2.426  12.655  3.3276 -0.2199  0.4735
 6250SOL    HW230384   3.198   2.300  12.684  0.7819  0.7533  0.9032
 6251SOL     OW30385   0.912   3.813  12.609  0.3853 -0.4015 -0.0006
 6251SOL    HW130386   0.865   3.895  12.592  3.7835  1.9443  2.0713
 6251SOL    HW230387   0.926   3.785  12.518 -0.0856  0.2172 -0.2681
 6252SOL     OW30388   1.613   1.393   3.586 -0.1077  0.3231  0.0655
 6252SOL    HW130389   1.605   1.403   3.491 -0.3347 -3.1637 -0.2734
 6252SOL    HW230390   1.707   1.403   3.599 -0.0100 -1.3048  0.6603
 6253SOL     OW30391   1.471   3.918  10.349  0.1129  0.1685  0.1781
 6253SOL    HW130392   1.439   3.840  10.303 -1.0984  1.5827 -1.3305
 6253SOL    HW230393   1.424   3.913  10.433  1.7837  0.1450  1.1195
 6254SOL     OW30394   3.068   3.070   3.581  0.0238 -0.3348 -0.1690
 6254SOL    HW130395   3.021   3.018   3.646 -0.4280 -1.0367 -1.0628
 6254SOL    HW230396   3.117   3.007   3.528 -1.1907 -0.4402 -1.1924
 6255SOL     OW30397   0.911   3.026   9.373  0.6239 -0.8770 -0.7860
 6255SOL    HW130398   0.912   2.938   9.412 -1.1465 -0.1471  0.9183
 6255SOL    HW230399   0.999   3.049   9.344  0.6273 -0.2009 -0.2445
 6256SOL     OW30400   1.402   2.602   7.735  0.0012  0.3031  0.0040
 6256SOL    HW130401   1.477   2.604   7.795  0.1413 -0.7376 -0.1297
 6256SOL    HW230402   1.401   2.510   7.709  2.6451 -0.5703  2.9472
 6257SOL     OW30403   2.764   0.712   6.627  0.0306 -0.3833  0.0634
 6257SOL    HW130404   2.681   0.678   6.591  0.2217 -1.9808  1.1072
 6257SOL    HW230405   2.817   0.637   6.601  0.3769  0.3139 -1.2081
 6258SOL     OW30406   0.588   2.205  14.466  0.0304 -0.0328 -0.0823
 6258SOL    HW130407   0.580   2.146  14.541  0.2268 -0.4826 -0.4197
 6258SOL    HW230408   0.614   2.146  14.396  0.2238 -0.5404  0.4164
 6259SOL     OW30409   3.320   1.445  14.337  0.8276  0.1258  0.4840
 6259SOL    HW130410   3.340   1.375  14.400  0.5902 -0.1745  0.2244
 6259SOL    HW230411   3.409   1.469  14.314  0.3475  2.4664  1.1172
 6260SOL     OW30412   4.219   0.820  15.925  0.2442  0.1267  0.0137
 6260SOL    HW130413   4.288   0.807  15.860  1.4594  2.5697  0.8087
 6260SOL    HW230414   4.165   0.869  15.863 -0.7289  1.4197  1.8720
 6261SOL     OW30415   2.676   1.358  14.176 -0.0031 -0.4694  0.8945
 6261SOL    HW130416   2.678   1.448  14.144  2.2695 -0.7814  0.1698
 6261SOL    HW230417   2.726   1.384  14.253  1.0764  0.4170 -0.0883
 6262SOL     OW30418   4.729   1.652  10.434 -0.0516  0.7650 -0.5891
 6262SOL    HW130419   4.727   1.561  10.406  1.2295  0.9330 -1.1933
 6262SOL    HW230420   0.081   1.648  10.465  0.5621 -1.1102 -2.6906
 6263SOL     OW30421   2.471   3.812   6.626  0.6199 -0.1443 -0.3694
 6263SOL    HW130422   2.472   3.891   6.572  3.2575  0.5890  0.7714
 6263SOL    HW230423   2.565   3.812   6.646  1.0242 -2.2650 -2.2366
 6264SOL     OW30424   0.756   2.494   9.463 -0.9774 -0.3955  0.5229
 6264SOL    HW130425   0.665   2.515   9.441 -0.6616  0.0255 -0.3741
 6264SOL    HW230426   0.757   2.408   9.420 -2.3527  0.5120 -1.3395
 6265SOL     OW30427   0.821   4.281   7.450 -0.4979  0.0924  0.0609
 6265SOL    HW130428   0.748   4.229   7.481 -1.0027  0.3445 -0.7010
 6265SOL    HW230429   0.804   4.261   7.358  0.7756  1.0922 -0.3916
 6266SOL     OW30430   2.567   4.355   6.282 -0.1489 -0.4960 -0.0984
 6266SOL    HW130431   2.587   4.276   6.331 -0.5722  0.5690  1.7812
 6266SOL    HW230432   2.571   4.418   6.354  0.8906 -1.7926  0.9543
 6267SOL     OW30433   3.983   2.893   4.374 -0.6157 -0.0768 -0.4574
 6267SOL    HW130434   3.976   2.800   4.394 -1.8113  0.5173  1.8392
 6267SOL    HW230435   3.945   2.943   4.446  0.1281 -0.7045  0.3712
 6268SOL     OW30436   2.668   2.074   8.172 -0.0178 -0.6118 -0.4581
 6268SOL    HW130437   2.700   2.036   8.090 -0.7897 -2.5817  0.1424
 6268SOL    HW230438   2.579   2.104   8.152  0.5614  1.2988 -0.1765
 6269SOL     OW30439   4.299   2.336   2.168  0.2101 -0.0977  0.2900
 6269SOL    HW130440   4.387   2.302   2.186  1.3056  3.5563  1.8153
 6269SOL    HW230441   4.252   2.260   2.201 -0.4261  0.0406 -0.3013
 6270SOL     OW30442   2.972   1.871   7.775  0.0904 -0.1399  0.0486
 6270SOL    HW130443   3.053   1.918   7.760 -0.3311 -0.3914 -2.9363
 6270SOL    HW230444   3.014   1.787   7.794 -0.7844 -0.0448  2.4982
 6271SOL     OW30445   0.425   0.660   5.858 -0.5002 -0.2060  1.0038
 6271SOL    HW130446   0.442   0.567   5.846 -1.0085 -0.1131 -0.3585
 6271SOL    HW230447   0.463   0.686   5.774 -1.8945  0.7647  0.6689
 6272SOL     OW30448   2.282   4.226   2.277 -0.0297 -0.0248  0.0160
 6272SOL    HW130449   2.193   4.213   2.244  0.8333 -1.7729 -1.5842
 6272SOL    HW230450   2.301   4.142   2.318  1.6545  0.6391  0.5869
 6273SOL     OW30451   1.911   0.109   1.847 -0.2259 -0.1390  0.8414
 6273SOL    HW130452   2.003   0.089   1.828  0.2731  0.6947  2.3740
 6273SOL    HW230453   1.923   0.149   1.933 -2.1777 -1.3825  1.6854
 6274SOL     OW30454   0.383   0.628   3.586 -0.2641  0.0938 -0.0027
 6274SOL    HW130455   0.383   0.656   3.677  0.4653 -0.4891  0.1798
 6274SOL    HW230456   0.362   0.708   3.539 -0.3761  0.0297 -0.0607
 6275SOL     OW30457   2.268   0.843  12.125 -0.0848 -0.4447 -0.1403
 6275SOL    HW130458   2.312   0.813  12.205  1.6499  2.9689  0.1633
 6275SOL    HW230459   2.344   0.872  12.075  0.6800 -2.2585 -0.0459
 6276SOL     OW30460   3.265   3.719   4.661  0.4269 -0.8326 -0.7291
 6276SOL    HW130461   3.189   3.668   4.690  0.8792 -0.3370  1.2759
 6276SOL    HW230462   3.228   3.756   4.581 -3.0390 -0.6620  0.9332
 6277SOL     OW30463   1.392   2.952   8.862 -0.0724  0.3803  0.2900
 6277SOL    HW130464   1.356   2.865   8.877 -0.0185  0.4815  0.9975
 6277SOL    HW230465   1.461   2.949   8.928 -0.8868  1.5050  1.1853
 6278SOL     OW30466   4.501   1.089   2.685  0.4690 -0.0508 -0.5029
 6278SOL    HW130467   4.493   1.016   2.747 -0.8577  1.7098  1.4150
 6278SOL    HW230468   4.488   1.169   2.737  0.5418  0.0457 -0.6346
 6279SOL     OW30469   4.647   0.593   1.911  0.7895  0.3503 -0.3635
 6279SOL    HW130470   4.718   0.564   1.970  0.3849 -1.0777 -0.5794
 6279SOL    HW230471   4.623   0.664   1.970 -0.4524  0.0396 -0.5036
 6280SOL     OW30472   0.093   2.969  16.975 -0.5314  0.3285 -0.4452
 6280SOL    HW130473   0.098   2.900  16.909 -2.4793 -0.7853  0.5830
 6280SOL    HW230474   0.059   3.041  16.922  0.5785  0.1059 -1.4582
 6281SOL     OW30475   0.967   3.520   1.838  0.0925  0.0311 -0.4642
 6281SOL    HW130476   1.059   3.503   1.820  0.7248  3.2616 -0.2900
 6281SOL    HW230477   0.977   3.599   1.891 -2.5113  0.2788 -0.3252
 6282SOL     OW30478   0.149   3.372   4.898 -0.8218 -0.1537  0.9054
 6282SOL    HW130479   0.150   3.276   4.896 -1.3261 -0.1169 -1.6420
 6282SOL    HW230480   0.184   3.390   4.811  0.5964  1.0546  1.7381
 6283SOL     OW30481   4.192   1.185   6.213  0.5084  0.0640  0.1726
 6283SOL    HW130482   4.271   1.221   6.173  0.1855  0.1676 -0.3669
 6283SOL    HW230483   4.131   1.258   6.204  0.0406 -0.5496 -1.5642
 6284SOL     OW30484   4.552   0.459   1.664 -0.4408 -0.4552  0.6674
 6284SOL    HW130485   4.583   0.469   1.754  1.9928 -0.5242 -0.1668
 6284SOL    HW230486   4.607   0.527   1.625 -1.9404  1.7325  2.3851
 6285SOL     OW30487   0.373   0.044   3.307 -0.2105  0.0818  0.4729
 6285SOL    HW130488   0.407   4.706   3.354  0.0603  1.2555  2.1642
 6285SOL    HW230489   0.283   0.021   3.283 -0.1449  1.5320 -1.1869
 6286SOL     OW30490   4.661   1.700  14.218  0.2398 -0.0539  0.4089
 6286SOL    HW130491   4.730   1.759  14.189  2.1467 -3.3643 -1.8016
 6286SOL    HW230492   4.716   1.640  14.268  1.0039 -0.6298 -1.1417
 6287SOL     OW30493   2.658   3.662   8.648  0.2941  0.0225 -0.9589
 6287SOL    HW130494   2.609   3.647   8.728  2.9524 -0.3703  0.6016
 6287SOL    HW230495   2.641   3.578   8.607  1.1737 -0.9147  0.6022
 6288SOL     OW30496   3.383   0.973  15.212  0.3482  0.1346 -0.0153
 6288SOL    HW130497   3.324   0.902  15.188  0.2121  0.5863 -1.0064
 6288SOL    HW230498   3.407   0.946  15.301  1.8410 -0.6088 -0.6361
 6289SOL     OW30499   2.347   1.896   5.774 -0.0473 -0.3568 -0.0145
 6289SOL    HW130500   2.336   1.969   5.712  2.1012  1.7118  2.0618
 6289SOL    HW230501   2.283   1.846   5.723 -1.9299  1.3887  0.6275
 6290SOL     OW30502   0.114   0.470   6.567 -0.0893 -0.1506 -0.3965
 6290SOL    HW130503   0.204   0.486   6.594 -0.5118 -0.2112  1.0910
 6290SOL    HW230504   0.098   0.381   6.599 -2.7583  0.9758  1.4261
 6291SOL     OW30505   0.544   4.369   7.011 -0.2676 -0.0933 -0.2909
 6291SOL    HW130506   0.482   4.346   6.942 -0.3847 -0.0759 -0.1920
 6291SOL    HW230507   0.554   4.460   6.986 -3.0754  0.5193  0.8162
 6292SOL     OW30508   4.503   1.743   2.936 -0.1723 -0.6235 -0.2960
 6292SOL    HW130509   4.455   1.669   2.898  0.0887  0.4874 -2.7423
 6292SOL    HW230510   4.594   1.715   2.945 -0.3153 -0.9609  0.1616
 6293SOL     OW30511   4.345   1.153  14.844  0.4954  0.3058 -0.1754
 6293SOL    HW130512   4.328   1.084  14.779  1.3804  1.3059 -1.4769
 6293SOL    HW230513   4.293   1.125  14.919 -0.1730 -0.2013 -0.8207
 6294SOL     OW30514   3.994   3.721   6.560  0.4493  0.2209  0.0512
 6294SOL    HW130515   4.059   3.657   6.530  1.6733  1.8723 -0.8361
 6294SOL    HW230516   3.915   3.693   6.513  0.0508 -0.2401  0.9857
 6295SOL     OW30517   3.654   4.050  13.098 -0.4586 -0.0418  0.2893
 6295SOL    HW130518   3.727   3.993  13.121  1.0673  1.4618 -0.9041
 6295SOL    HW230519   3.680   4.133  13.138  0.1340 -1.2185  2.3435
 6296SOL     OW30520   2.957   2.293  15.093  0.1049  0.7341  0.0617
 6296SOL    HW130521   2.884   2.336  15.048 -0.8769 -0.9746  0.0465
 6296SOL    HW230522   3.004   2.372  15.120 -0.7021  1.5351 -0.8527
 6297SOL     OW30523   4.618   0.115  12.675 -0.5912 -0.2129 -1.3340
 6297SOL    HW130524   4.560   0.181  12.715  2.3792  1.4837  0.1658
 6297SOL    HW230525   4.661   0.072  12.748 -1.8792 -0.1391 -0.5276
 6298SOL     OW30526   0.970   2.109   2.438  0.2844  0.3711 -0.2177
 6298SOL    HW130527   1.010   2.195   2.423  0.9929  0.0418 -0.2551
 6298SOL    HW230528   0.993   2.107   2.531  0.4422  0.0606 -0.2632
 6299SOL     OW30529   3.258   0.008  11.867  0.4278  0.1626 -0.5900
 6299SOL    HW130530   3.222   4.734  11.955  3.4253  1.0325  0.7686
 6299SOL    HW230531   3.320   4.673  11.866  0.0904 -0.1345  0.4854
 6300SOL     OW30532   3.867   4.400  12.929  0.2408 -0.6385 -0.5214
 6300SOL    HW130533   3.957   4.372  12.912  0.4944  0.6445 -1.3587
 6300SOL    HW230534   3.863   4.487  12.887  2.4518 -0.7998 -1.0712
 6301SOL     OW30535   1.663   1.699   3.135 -0.4870 -0.5759 -0.0308
 6301SOL    HW130536   1.592   1.636   3.142 -1.0235  0.2035  1.3832
 6301SOL    HW230537   1.725   1.670   3.202 -0.9500  1.0897  1.1116
 6302SOL     OW30538   0.307   2.610   0.023  0.2397 -0.2495  0.0247
 6302SOL    HW130539   0.366   2.678  17.740  1.2466 -1.2678 -0.2675
 6302SOL    HW230540   0.294   2.645   0.112 -2.7056 -3.7860  0.9849
 6303SOL     OW30541   0.946   2.198   0.637  0.4101  0.1696  0.2678
 6303SOL    HW130542   1.012   2.177   0.703  0.1284  0.3555  0.6114
 6303SOL    HW230543   0.985   2.163   0.557  0.8737 -0.4077  0.7464
 6304SOL     OW30544   3.045   1.804   4.076 -0.1971  0.3782  0.0063
 6304SOL    HW130545   2.990   1.865   4.026 -0.8924  1.2625  1.8304
 6304SOL    HW230546   3.068   1.736   4.013  2.1200 -0.7138  2.0411
 6305SOL     OW30547   2.044   3.430  11.164  0.0656  0.2736 -0.3226
 6305SOL    HW130548   2.031   3.364  11.096 -1.5025 -2.0318  2.1996
 6305SOL    HW230549   2.093   3.499  11.119 -2.5179  2.2086 -0.1761
 6306SOL     OW30550   4.356   1.743   7.383  0.0706  0.2027 -0.0822
 6306SOL    HW130551   4.391   1.664   7.423  0.6556  0.0783 -0.8390
 6306SOL    HW230552   4.431   1.802   7.385  0.0143  0.2737 -0.0455
 6307SOL     OW30553   1.446   2.986  16.067  0.5919 -0.5860 -0.3220
 6307SOL    HW130554   1.468   3.065  16.116 -2.8672  0.9795 -1.3027
 6307SOL    HW230555   1.360   3.011  16.034 -1.0293 -0.3836  4.0911
 6308SOL     OW30556   4.259   2.092  15.595 -0.3011 -0.9541 -0.1668
 6308SOL    HW130557   4.173   2.109  15.633  0.1730  1.2196 -0.0894
 6308SOL    HW230558   4.237   2.127  15.509  0.5369  3.3173  1.3727
 6309SOL     OW30559   3.167   3.539   9.336 -0.5640 -0.5779  0.3008
 6309SOL    HW130560   3.194   3.543   9.244 -2.4848 -0.7349 -0.2910
 6309SOL    HW230561   3.225   3.608   9.369  1.0184 -2.6296  1.7310
 6310SOL     OW30562   0.601   4.536   1.929 -0.2949  0.5002 -0.0212
 6310SOL    HW130563   0.650   4.474   1.875 -0.2906  1.9252 -1.6878
 6310SOL    HW230564   0.589   4.498   2.015 -0.4583  0.8444  0.1087
 6311SOL     OW30565   1.414   1.654  13.000  0.0389 -0.0092 -0.1583
 6311SOL    HW130566   1.396   1.741  13.035  0.5201 -0.0999  0.3061
 6311SOL    HW230567   1.433   1.610  13.082 -0.4701 -1.5728 -0.8703
 6312SOL     OW30568   0.323   3.199   8.289  0.6437 -0.7053  0.2846
 6312SOL    HW130569   0.375   3.192   8.369 -1.3848 -2.4768  1.4527
 6312SOL    HW230570   0.277   3.277   8.321  0.8759 -0.5312  0.1967
 6313SOL     OW30571   0.209   1.871   2.932 -0.0603 -0.5426  0.4193
 6313SOL    HW130572   0.198   1.880   3.026 -1.0804 -0.2186  0.2741
 6313SOL    HW230573   0.281   1.808   2.927 -0.3712 -0.9884  1.9384
 6314SOL     OW30574   0.965   2.575  14.486  0.0203  0.0588 -0.4393
 6314SOL    HW130575   0.947   2.611  14.399 -1.5233  0.3847  0.0158
 6314SOL    HW230576   0.992   2.487  14.460 -1.5847  0.0987 -2.1931
 6315SOL     OW30577   0.535   2.124   8.316 -0.6370 -0.1225  0.0535
 6315SOL    HW130578   0.566   2.136   8.406  1.5318  0.1244 -0.7097
 6315SOL    HW230579   0.486   2.206   8.305  1.6770  1.5392  2.0120
 6316SOL     OW30580   1.591   3.930   6.728  0.6349  0.4648 -0.0867
 6316SOL    HW130581   1.578   3.862   6.662  0.3844  0.6132 -0.1914
 6316SOL    HW230582   1.653   3.982   6.677  0.5042  0.5028 -0.2057
 6317SOL     OW30583   4.445   1.800   8.416  0.1076  0.3075  0.4518
 6317SOL    HW130584   4.366   1.854   8.404  0.6313  0.9508 -0.1614
 6317SOL    HW230585   4.512   1.868   8.424 -0.1356  0.4650  1.2025
 6318SOL     OW30586   3.674   3.921   4.881 -0.6134 -0.0141  0.1505
 6318SOL    HW130587   3.767   3.942   4.879 -0.9491  1.6712  2.4576
 6318SOL    HW230588   3.646   3.916   4.972 -1.4061  0.0491 -0.0829
 6319SOL     OW30589   0.303   2.227   3.276 -0.6353 -0.0335 -0.1662
 6319SOL    HW130590   0.243   2.163   3.237 -0.4210  0.0673 -0.6598
 6319SOL    HW230591   0.244   2.302   3.270  1.9824  2.0442  0.0185
 6320SOL     OW30592   1.318   3.738   7.448  0.4879 -0.6155  0.5526
 6320SOL    HW130593   1.296   3.822   7.487  0.8292 -0.0461 -0.4831
 6320SOL    HW230594   1.401   3.754   7.403  0.2267  0.2320  0.3628
 6321SOL     OW30595   0.915   4.692   9.999 -0.6080 -0.1383 -0.8049
 6321SOL    HW130596   0.835   4.711   9.949 -1.6330  0.2628  0.9801
 6321SOL    HW230597   0.947   0.044  10.011  1.4642 -0.9704 -0.2931
 6322SOL     OW30598   1.562   4.562   6.113  0.2827 -0.1029  0.2231
 6322SOL    HW130599   1.507   4.499   6.160  0.8191 -0.6521  0.1211
 6322SOL    HW230600   1.607   4.501   6.054 -1.1864 -1.4041  0.4122
 6323SOL     OW30601   0.666   3.554   3.401  0.7286 -0.0960  0.7910
 6323SOL    HW130602   0.581   3.518   3.424  0.3725 -0.9495 -1.9150
 6323SOL    HW230603   0.726   3.481   3.412 -1.3202 -1.8275  0.3918
 6324SOL     OW30604   2.808   3.892   4.113  0.4444  0.3332  0.4081
 6324SOL    HW130605   2.798   3.799   4.131 -0.9243  0.4701  0.3458
 6324SOL    HW230606   2.752   3.887   4.036  1.4287 -0.1305 -0.2741
 6325SOL     OW30607   2.794   3.831   7.305 -0.0600 -0.1254  0.0920
 6325SOL    HW130608   2.827   3.900   7.248  1.3566 -0.2863  0.7295
 6325SOL    HW230609   2.752   3.882   7.374  2.1215  3.2419 -1.1241
 6326SOL     OW30610   4.508   1.908   6.786  0.1058 -0.3788  0.1758
 6326SOL    HW130611   4.469   1.837   6.837  0.7273 -1.7223 -1.2173
 6326SOL    HW230612   4.432   1.966   6.779  0.5970  0.0911 -1.1864
 6327SOL     OW30613   2.955   1.101   3.187  0.1600  0.2141  0.0858
 6327SOL    HW130614   2.937   1.195   3.194  0.2354  0.4050 -2.5732
 6327SOL    HW230615   2.984   1.114   3.097  0.6549 -0.5174  0.1445
 6328SOL     OW30616   0.944   2.649  15.995  0.2379 -0.3059 -0.3909
 6328SOL    HW130617   0.876   2.582  16.008  1.0139 -0.9245  0.4697
 6328SOL    HW230618   0.999   2.599  15.935 -1.7476 -0.8069 -1.8078
 6329SOL     OW30619   0.481   4.302   1.699 -0.0814  0.1685  0.0322
 6329SOL    HW130620   0.424   4.323   1.773 -0.7168 -2.8101  0.3945
 6329SOL    HW230621   0.566   4.319   1.739 -0.5191 -0.6797  1.3393
 6330SOL     OW30622   4.333   4.006   5.187 -0.2358  0.5036 -0.1932
 6330SOL    HW130623   4.398   4.077   5.181  0.5951 -0.1750  0.8136
 6330SOL    HW230624   4.365   3.960   5.265  0.5070 -0.5809 -1.1507
 6331SOL     OW30625   0.730   4.350   1.764 -0.1882  0.0319 -0.3317
 6331SOL    HW130626   0.821   4.381   1.772  0.1165 -0.3534 -2.2241
 6331SOL    HW230627   0.731   4.259   1.793 -0.0770 -0.3693 -1.5583
 6332SOL     OW30628   1.264   3.504   4.131  0.3952  0.5283 -0.2181
 6332SOL    HW130629   1.300   3.505   4.043  2.2377 -1.5401  0.5194
 6332SOL    HW230630   1.286   3.589   4.169 -0.0421  1.0903 -1.2011
 6333SOL     OW30631   0.972   2.016   3.174  0.1042 -0.2611 -0.0846
 6333SOL    HW130632   1.030   1.945   3.199 -0.4022 -1.0877 -1.2394
 6333SOL    HW230633   0.904   1.979   3.117  0.1532 -1.5881  0.7219
 6334SOL     OW30634   4.668   2.092   7.120 -0.0318 -0.0066  0.0673
 6334SOL    HW130635   4.583   2.051   7.133  0.9144 -1.5551  1.4041
 6334SOL    HW230636   4.710   2.046   7.048  3.2769  2.9782  0.0583
 6335SOL     OW30637   3.855   0.417   4.510 -0.1050 -0.0599  0.2848
 6335SOL    HW130638   3.855   0.374   4.424  0.3942 -1.9391  1.2152
 6335SOL    HW230639   3.905   0.497   4.491  0.1335 -0.8370 -2.3547
 6336SOL     OW30640   1.290   3.197   5.990 -0.3201 -0.1034 -0.2972
 6336SOL    HW130641   1.371   3.186   5.940 -0.6082 -0.0410 -0.7692
 6336SOL    HW230642   1.329   3.187   6.077  1.1245 -2.0199 -1.1626
 6337SOL     OW30643   4.641   2.973   8.959 -0.1824 -0.4745 -0.0180
 6337SOL    HW130644   4.633   2.898   9.019 -0.8531 -0.5526 -0.2060
 6337SOL    HW230645   4.697   2.938   8.890 -0.3219 -3.8606  1.5688
 6338SOL     OW30646   3.032   3.984   6.876 -1.0456 -0.3953 -0.3083
 6338SOL    HW130647   2.969   3.919   6.844 -1.9631  0.3510  0.0155
 6338SOL    HW230648   3.099   3.978   6.808 -0.8016 -1.3895  0.0109
 6339SOL     OW30649   0.306   4.710   1.455 -0.0626  0.2952  0.0015
 6339SOL    HW130650   0.325   4.625   1.415  0.8901  1.0346 -1.1128
 6339SOL    HW230651   0.244   4.676   1.519 -0.6516  3.1864  0.9769
 6340SOL     OW30652   1.000   4.432  16.612  0.0106 -0.0080  0.1714
 6340SOL    HW130653   0.943   4.429  16.535  1.0781  1.8852 -0.6825
 6340SOL    HW230654   1.052   4.354  16.589  0.0743 -0.0858  0.5881
 6341SOL     OW30655   1.167   0.370   4.905 -0.2192  0.0812 -0.4580
 6341SOL    HW130656   1.114   0.328   4.972  1.4522 -1.9199 -0.3759
 6341SOL    HW230657   1.105   0.436   4.873  0.9279  2.7798  2.9551
 6342SOL     OW30658   0.487   3.249   0.563  0.4948  0.3213 -0.2583
 6342SOL    HW130659   0.562   3.282   0.513  2.8070 -3.1423  0.9217
 6342SOL    HW230660   0.462   3.318   0.623 -1.3199  0.6452 -1.3915
 6343SOL     OW30661   2.409   2.134   3.805 -0.0593 -0.3500 -0.3654
 6343SOL    HW130662   2.461   2.069   3.852 -1.3072 -0.6733  0.5961
 6343SOL    HW230663   2.330   2.107   3.852 -2.0144  1.1831 -2.7685
 6344SOL     OW30664   1.996   4.413   0.995 -0.2708 -0.5449 -0.1543
 6344SOL    HW130665   1.953   4.333   0.966  2.5655 -2.2259  0.2377
 6344SOL    HW230666   2.029   4.377   1.078 -0.3901  1.7171  0.8553
 6345SOL     OW30667   2.979   3.054   7.906 -0.2792 -0.0550  0.0731
 6345SOL    HW130668   2.915   3.006   7.959 -0.7846 -3.9316 -4.0394
 6345SOL    HW230669   2.937   3.139   7.908 -0.8984 -0.3344 -1.1789
 6346SOL     OW30670   2.479   1.972  13.956 -0.4921 -0.7777  0.2783
 6346SOL    HW130671   2.399   2.021  13.937  0.7261  0.8893 -0.4761
 6346SOL    HW230672   2.529   1.983  13.875  0.1030 -1.1693  0.5904
 6347SOL     OW30673   3.624   1.921   8.849 -0.1436  0.5905  0.2347
 6347SOL    HW130674   3.653   1.849   8.793 -0.6465  0.1247  0.5733
 6347SOL    HW230675   3.648   1.886   8.935 -2.2036 -3.1322 -0.7076
 6348SOL     OW30676   2.472   2.730   8.042 -0.0949  0.4715  0.7699
 6348SOL    HW130677   2.383   2.748   8.012  0.6154  3.3829  0.3754
 6348SOL    HW230678   2.516   2.811   8.016  0.3778  0.7544  2.5030
 6349SOL     OW30679   4.394   3.801  10.477 -0.2133 -0.5199 -0.4178
 6349SOL    HW130680   4.414   3.788  10.570 -0.4240  0.3507 -0.2516
 6349SOL    HW230681   4.386   3.896  10.467  0.1217 -0.4202  0.2203
 6350SOL     OW30682   3.941   4.336   3.629  0.5118 -0.4405 -0.3747
 6350SOL    HW130683   3.881   4.262   3.616 -0.1217  0.6237 -3.3314
 6350SOL    HW230684   3.950   4.344   3.724 -0.1296 -2.7798 -0.1086
 6351SOL     OW30685   1.600   2.692   8.646  0.0574  0.0808  0.6718
 6351SOL    HW130686   1.651   2.734   8.716  2.6079 -0.7386 -0.6628
 6351SOL    HW230687   1.569   2.768   8.596 -0.0807  0.1658  0.8870
 6352SOL     OW30688   0.246   2.581   1.805  0.6398  0.0173  0.8202
 6352SOL    HW130689   0.187   2.554   1.734  1.9945 -1.2181  0.1555
 6352SOL    HW230690   0.193   2.592   1.884  0.0663 -1.8195  0.7090
 6353SOL     OW30691   1.554   1.970   0.798 -0.4652 -0.5091 -0.1456
 6353SOL    HW130692   1.503   2.001   0.723 -0.1798 -0.0160 -0.1330
 6353SOL    HW230693   1.479   1.922   0.836  0.2408  0.9502  3.1339
 6354SOL     OW30694   2.408   1.321   3.812  0.1679  0.9210 -0.3323
 6354SOL    HW130695   2.421   1.358   3.900  1.0574  0.6973 -0.3689
 6354SOL    HW230696   2.345   1.252   3.832  0.8378  0.3357 -0.2207
 6355SOL     OW30697   0.194   2.051   0.326 -0.5306  0.6187 -0.1911
 6355SOL    HW130698   0.159   1.973   0.371 -0.9234  1.3839  0.8235
 6355SOL    HW230699   0.242   2.088   0.399  0.7914 -0.2129 -0.6473
 6356SOL     OW30700   4.641   3.766   4.219 -0.5688 -0.5681  0.2898
 6356SOL    HW130701   4.671   3.851   4.188  1.0690 -2.1348 -2.4249
 6356SOL    HW230702   4.578   3.791   4.287 -0.9714 -0.0164 -0.2969
 6357SOL     OW30703   1.148   0.262   8.079  0.3626  0.0667  0.5284
 6357SOL    HW130704   1.053   0.253   8.064  0.1753 -0.5052  2.1160
 6357SOL    HW230705   1.156   0.349   8.039 -1.0084  0.0513  0.1969
 6358SOL     OW30706   3.035   0.973   1.930 -0.1511  0.3349  0.2623
 6358SOL    HW130707   3.002   0.925   1.855 -2.2833  1.1247  0.7061
 6358SOL    HW230708   2.973   1.045   1.933 -1.7997 -1.0927  0.3880
 6359SOL     OW30709   2.563   1.784   2.517 -0.0831  1.0765  0.3988
 6359SOL    HW130710   2.651   1.820   2.525  0.5620 -0.0384 -1.8670
 6359SOL    HW230711   2.560   1.771   2.422 -0.3567  1.5367  0.3431
 6360SOL     OW30712   4.346   1.052  16.455 -0.6949  0.3902 -0.4494
 6360SOL    HW130713   4.409   0.980  16.445 -1.6938 -0.4822 -0.5305
 6360SOL    HW230714   4.261   1.008  16.458 -0.1434 -0.8681 -2.6302
 6361SOL     OW30715   2.837   3.020   4.576 -0.1817  0.5105  0.0001
 6361SOL    HW130716   2.741   3.030   4.582 -0.4224 -1.4728 -0.8159
 6361SOL    HW230717   2.858   3.027   4.669  2.3975 -1.5367 -0.4618
 6362SOL     OW30718   2.272   1.615   8.069  0.0735  0.5663  0.1686
 6362SOL    HW130719   2.180   1.608   8.041  0.1402 -0.0114  0.0948
 6362SOL    HW230720   2.267   1.566   8.150 -3.6924  0.4202 -0.1454
 6363SOL     OW30721   4.295   0.196   1.825 -0.4050  0.4047  0.4453
 6363SOL    HW130722   4.310   0.102   1.825  1.1682  0.6554  2.2532
 6363SOL    HW230723   4.200   0.189   1.834 -0.2820 -0.0448  1.4608
 6364SOL     OW30724   0.581   3.833   3.123  0.1466 -0.1324  0.3250
 6364SOL    HW130725   0.667   3.827   3.164  0.5050  2.6354 -0.0207
 6364SOL    HW230726   0.564   3.739   3.127  1.3514 -0.4837 -2.8501
 6365SOL     OW30727   2.069   3.431   7.926  0.4785 -0.4926 -0.8538
 6365SOL    HW130728   2.071   3.370   8.000  2.7622  0.4157 -0.1882
 6365SOL    HW230729   1.975   3.437   7.906 -0.0225 -0.5531  1.4953
 6366SOL     OW30730   4.335   1.928  16.819 -0.0324 -0.3381  0.5905
 6366SOL    HW130731   4.397   1.902  16.888  0.0072 -0.2723  0.5792
 6366SOL    HW230732   4.356   1.882  16.738  1.2066  0.3875  0.5019
 6367SOL     OW30733   0.545   3.626   8.594  0.1937 -0.0833 -0.4488
 6367SOL    HW130734   0.512   3.674   8.517 -0.2113  1.3202  0.6004
 6367SOL    HW230735   0.530   3.678   8.673  3.3350 -2.3563  1.6400
 6368SOL     OW30736   2.595   3.546   2.293 -0.2365  0.4179  1.1556
 6368SOL    HW130737   2.553   3.603   2.357 -0.4256  2.2179 -0.5515
 6368SOL    HW230738   2.521   3.527   2.235  2.0565 -1.6786 -1.0947
 6369SOL     OW30739   1.316   2.761   6.122 -0.3655  0.1281 -0.3559
 6369SOL    HW130740   1.247   2.824   6.141 -2.2069 -1.3604 -2.0057
 6369SOL    HW230741   1.397   2.811   6.128  0.2376 -0.7354 -1.2812
 6370SOL     OW30742   3.662   3.032  11.283 -0.0847  0.1339 -0.3378
 6370SOL    HW130743   3.700   3.119  11.267  1.9608 -0.5600  0.8115
 6370SOL    HW230744   3.740   2.977  11.278 -0.8102 -1.0564  1.5275
 6371SOL     OW30745   0.005   1.417   5.562  0.1313  0.1226 -0.6039
 6371SOL    HW130746   4.670   1.479   5.568  0.0965  0.1016 -0.8412
 6371SOL    HW230747   0.027   1.406   5.655 -0.1432 -0.1250 -0.5716
 6372SOL     OW30748   2.775   1.815   9.501  0.4308  0.1422 -0.2924
 6372SOL    HW130749   2.817   1.785   9.421  0.5174 -2.3158  0.6938
 6372SOL    HW230750   2.731   1.895   9.470  1.4521  1.8738  2.6722
 6373SOL     OW30751   0.367   3.825   8.454 -0.3443  0.7716 -0.3230
 6373SOL    HW130752   0.431   3.824   8.383  0.5271  1.2886  0.4383
 6373SOL    HW230753   0.285   3.822   8.406 -0.4857 -0.2091 -0.0215
 6374SOL     OW30754   1.692   3.037  14.413  0.4466 -0.1527 -0.7080
 6374SOL    HW130755   1.773   3.069  14.452  0.4513 -1.5331  0.4096
 6374SOL    HW230756   1.706   3.055  14.320  0.2214  1.0195 -0.5129
 6375SOL     OW30757   2.825   0.970   5.991  0.5880  0.2865  0.0141
 6375SOL    HW130758   2.825   0.904   6.061 -2.9819  0.0479 -0.2556
 6375SOL    HW230759   2.890   1.027   6.034  0.7795 -0.6054  0.9046
 6376SOL     OW30760   1.507   0.533   2.652 -0.1536 -0.0001 -0.2666
 6376SOL    HW130761   1.533   0.467   2.716 -0.2012 -1.8091 -2.1441
 6376SOL    HW230762   1.577   0.524   2.588 -0.5418 -1.7901 -0.4353
 6377SOL     OW30763   0.069   4.493   5.569  0.0844  0.2936 -0.1574
 6377SOL    HW130764   0.030   4.563   5.517 -0.0569  0.0540 -0.3790
 6377SOL    HW230765   0.007   4.479   5.641  1.5596  0.6296  1.1611
 6378SOL     OW30766   1.017   0.652   9.462  0.5590  0.1171 -0.2327
 6378SOL    HW130767   1.089   0.643   9.524 -0.0254 -0.4668  0.3554
 6378SOL    HW230768   0.956   0.690   9.526 -0.6203 -2.0614 -0.0673
 6379SOL     OW30769   2.348   1.653   4.393  0.3039  0.4729  0.4876
 6379SOL    HW130770   2.385   1.625   4.477  1.4297  1.2214  0.2380
 6379SOL    HW230771   2.258   1.620   4.399  0.7986 -0.8290  0.7223
 6380SOL     OW30772   4.139   1.756   9.751  0.7408 -0.1799 -0.0517
 6380SOL    HW130773   4.197   1.733   9.679 -0.2858  1.3428 -1.3642
 6380SOL    HW230774   4.079   1.819   9.711  2.8804  1.4484 -0.6926
 6381SOL     OW30775   2.249   3.785  13.445 -0.3490 -0.2810  0.2138
 6381SOL    HW130776   2.170   3.827  13.410  0.8297  1.7520  0.0187
 6381SOL    HW230777   2.315   3.853  13.450 -1.0309  0.4071 -0.2856
 6382SOL     OW30778   2.234   0.067   3.852 -0.2906 -0.6682  0.6828
 6382SOL    HW130779   2.297   0.139   3.848  0.0983 -0.9310  2.1419
 6382SOL    HW230780   2.157   0.120   3.832 -1.8969 -3.2646  0.0420
 6383SOL     OW30781   2.446   0.129   1.909 -0.2243  0.4758 -0.0618
 6383SOL    HW130782   2.529   0.093   1.880 -0.3554 -1.4449  1.9257
 6383SOL    HW230783   2.464   0.126   2.003  0.3950 -2.2573 -0.2838
 6384SOL     OW30784   1.117   1.699   6.758 -0.5462  0.4501  0.5384
 6384SOL    HW130785   1.212   1.709   6.770 -0.1828 -0.4080 -1.4802
 6384SOL    HW230786   1.084   1.763   6.820 -1.5976 -0.5915  1.0446
 6385SOL     OW30787   0.833   0.112  15.310 -0.0454 -0.1772 -0.3250
 6385SOL    HW130788   0.775   0.113  15.234 -1.6868 -0.6520  0.9103
 6385SOL    HW230789   0.869   0.201  15.305 -0.9654  0.3830  3.1384
 6386SOL     OW30790   0.252   3.353   7.283  0.2522 -0.2528  0.2285
 6386SOL    HW130791   0.251   3.449   7.286  5.1987 -0.2159 -0.9325
 6386SOL    HW230792   0.161   3.329   7.264 -0.5801  1.7975  1.5343
 6387SOL     OW30793   1.487   4.653  12.516  0.3356  0.1341  0.2784
 6387SOL    HW130794   1.420   4.654  12.448  1.6627  0.4874 -1.0193
 6387SOL    HW230795   1.440   4.677  12.596  0.1367  0.7343 -0.0223
 6388SOL     OW30796   3.845   2.101   9.031 -0.8085  0.1213  0.5702
 6388SOL    HW130797   3.758   2.112   9.071 -1.3320  1.6033 -0.9496
 6388SOL    HW230798   3.856   2.007   9.021 -0.3377  0.2853 -0.5491
 6389SOL     OW30799   0.126   4.232   2.353  0.0752 -0.2361 -0.0332
 6389SOL    HW130800   0.157   4.142   2.358 -0.1180 -0.1768  1.8924
 6389SOL    HW230801   0.042   4.229   2.399 -0.0520  2.9062  0.0032
 6390SOL     OW30802   0.305   1.292   8.297 -0.2175 -0.1669 -0.2170
 6390SOL    HW130803   0.372   1.349   8.337  0.6988 -1.9327  0.7510
 6390SOL    HW230804   0.358   1.214   8.282 -0.7216 -0.7066  0.8988
 6391SOL     OW30805   2.594   1.416   7.984 -0.2472 -0.3244 -0.5474
 6391SOL    HW130806   2.581   1.407   8.079  1.5709 -1.2743 -0.3870
 6391SOL    HW230807   2.515   1.455   7.947 -0.8028 -1.8065 -0.9163
 6392SOL     OW30808   2.361   2.938   7.044  0.1007  0.0475  0.4364
 6392SOL    HW130809   2.331   3.021   7.008  0.9217  0.9570  1.8896
 6392SOL    HW230810   2.294   2.929   7.111 -0.4259  0.0958 -0.0813
 6393SOL     OW30811   0.420   3.019   8.062  0.5899 -0.0401  0.1247
 6393SOL    HW130812   0.380   3.081   8.124  1.1240 -0.5265  0.9612
 6393SOL    HW230813   0.459   2.971   8.135  1.0526 -1.8543 -1.3338
 6394SOL     OW30814   3.615   3.035   9.212  0.9683  0.8778 -0.2247
 6394SOL    HW130815   3.584   3.125   9.214  0.1528  0.6028 -0.1672
 6394SOL    HW230816   3.641   3.041   9.120  2.2787 -1.6138 -0.0286
 6395SOL     OW30817   1.982   1.703  17.734  0.1416  0.1165 -0.1908
 6395SOL    HW130818   1.905   1.683  17.681 -1.3422  2.1760  1.2309
 6395SOL    HW230819   1.977   1.615   0.022  0.9830  0.0595 -0.2191
 6396SOL     OW30820   3.731   0.155  10.205 -0.2305  0.2112 -0.1896
 6396SOL    HW130821   3.699   0.231  10.156  0.4504  0.2139 -0.6306
 6396SOL    HW230822   3.770   0.204  10.277  0.5123 -1.6557  0.6908
 6397SOL     OW30823   4.214   4.221   3.162  0.1188 -0.1328  0.5784
 6397SOL    HW130824   4.166   4.304   3.162 -1.8458 -1.2585  1.0418
 6397SOL    HW230825   4.230   4.204   3.255  2.2415  0.1072  0.2511
 6398SOL     OW30826   3.012   0.817  15.573  0.2336 -0.4795 -0.0839
 6398SOL    HW130827   3.002   0.835  15.666 -1.5239  2.7855 -0.8941
 6398SOL    HW230828   2.925   0.838  15.539  0.8349  1.5943 -0.3559
 6399SOL     OW30829   3.844   2.771   9.577 -0.1745  0.2320 -0.0220
 6399SOL    HW130830   3.932   2.807   9.570 -0.4804  1.1777  0.8845
 6399SOL    HW230831   3.817   2.737   9.492  1.3891  1.3409 -0.9647
 6400SOL     OW30832   0.514   1.080   6.315  0.1605  0.3239 -0.2939
 6400SOL    HW130833   0.494   1.108   6.404  0.4855  0.8993 -0.4035
 6400SOL    HW230834   0.528   1.157   6.261 -0.5267 -0.4112 -1.5143
 6401SOL     OW30835   2.104   3.472  16.244 -0.3982  0.2207  0.6057
 6401SOL    HW130836   2.154   3.551  16.264  1.5443 -0.7098 -0.5351
 6401SOL    HW230837   2.117   3.430  16.329 -0.9246  2.5327  1.8283
 6402SOL     OW30838   3.565   1.324   0.009 -0.7360  0.6343  0.0230
 6402SOL    HW130839   3.470   1.324  17.747 -0.4485 -0.1246 -2.5047
 6402SOL    HW230840   3.573   1.256   0.077  0.7855  0.4869 -0.3045
 6403SOL     OW30841   1.058   2.665   7.434  0.1669 -0.8602  0.3859
 6403SOL    HW130842   0.971   2.646   7.400 -0.0673  1.4570 -0.3611
 6403SOL    HW230843   1.033   2.742   7.486  1.2261 -0.0534 -0.2905
 6404SOL     OW30844   4.124   0.633   5.600 -0.0954 -0.3081 -0.3020
 6404SOL    HW130845   4.132   0.578   5.523 -2.2684 -2.3865  0.9673
 6404SOL    HW230846   4.197   0.597   5.651  0.2020 -2.5446 -2.3268
 6405SOL     OW30847   0.138   1.324  11.299  0.4384  0.0638 -0.6687
 6405SOL    HW130848   0.075   1.253  11.296  1.9847 -1.3269 -0.1647
 6405SOL    HW230849   0.162   1.343  11.208 -2.9516  1.0602 -1.3522
 6406SOL     OW30850   2.382   4.673   3.335 -0.1223 -0.1108  0.4514
 6406SOL    HW130851   2.372   0.028   3.312 -1.2990 -0.7987 -1.8046
 6406SOL    HW230852   2.477   4.672   3.330 -0.2176 -1.4973 -1.0029
 6407SOL     OW30853   2.389   3.548   1.857 -0.0407  0.1461 -0.5134
 6407SOL    HW130854   2.358   3.530   1.946  3.8512 -0.4205  0.7219
 6407SOL    HW230855   2.437   3.468   1.837  1.2536  0.3330  1.8950
 6408SOL     OW30856   3.670   2.052  13.183 -0.3468  0.4019 -1.2754
 6408SOL    HW130857   3.745   2.090  13.138  0.2434 -0.2059 -0.8152
 6408SOL    HW230858   3.632   1.992  13.120 -1.6188  0.9829 -1.0615
 6409SOL     OW30859   2.366   1.004   8.304 -0.1941 -0.2316 -0.1156
 6409SOL    HW130860   2.401   1.053   8.230  1.3658 -0.9791  0.1198
 6409SOL    HW230861   2.286   0.970   8.263 -1.4256  0.6000  1.6115
 6410SOL     OW30862   2.960   1.652   3.120  0.0561 -0.0459 -0.0273
 6410SOL    HW130863   2.984   1.744   3.118 -1.3279  0.2358 -3.5063
 6410SOL    HW230864   3.000   1.634   3.206 -1.0492  1.5644  0.8108
 6411SOL     OW30865   4.058   1.395  17.507  0.3701  0.4734  0.0365
 6411SOL    HW130866   3.972   1.388  17.548  0.8164 -2.9450  0.3318
 6411SOL    HW230867   4.109   1.334  17.561  0.1296 -0.4814 -0.8280
 6412SOL     OW30868   3.076   0.694  10.158  0.7307 -0.4754  0.1694
 6412SOL    HW130869   3.062   0.663  10.248 -0.1296 -1.8505 -0.4356
 6412SOL    HW230870   3.092   0.783  10.188  0.6212  0.0365 -1.2791
 6413SOL     OW30871   0.489   2.808   9.230 -0.5622 -0.2123 -0.2251
 6413SOL    HW130872   0.493   2.874   9.300  0.0648  0.1860 -0.6337
 6413SOL    HW230873   0.548   2.848   9.166  0.8238 -1.2031  0.4304
 6414SOL     OW30874   3.220   2.289  14.886  0.1231 -0.2855 -0.0464
 6414SOL    HW130875   3.169   2.353  14.837 -0.7281  0.5353  1.9302
 6414SOL    HW230876   3.163   2.268  14.960  0.2454  0.8352  0.3594
 6415SOL     OW30877   3.746   2.114  16.802 -0.0363  0.0485 -0.2373
 6415SOL    HW130878   3.656   2.137  16.828 -0.0233  1.1312 -1.1448
 6415SOL    HW230879   3.787   2.166  16.871 -0.3314 -0.9067  0.6540
 6416SOL     OW30880   1.779   3.582   9.196  0.2729 -0.7979 -0.2852
 6416SOL    HW130881   1.783   3.677   9.190  2.2985 -0.7417  2.1173
 6416SOL    HW230882   1.691   3.580   9.160  0.2119  1.6110 -0.2295
 6417SOL     OW30883   3.672   2.815  12.560  0.4710  0.7014 -0.3595
 6417SOL    HW130884   3.577   2.812  12.572  0.5052 -1.3492 -0.6806
 6417SOL    HW230885   3.701   2.808  12.651 -2.1360 -0.2709  0.3955
 6418SOL     OW30886   1.505   4.699   4.320  0.0593 -0.3153  0.1393
 6418SOL    HW130887   1.474   4.629   4.263  0.0155 -0.3140  0.1615
 6418SOL    HW230888   1.430   4.730   4.372  1.0951  0.3467  1.2369
 6419SOL     OW30889   2.819   2.331   5.954  0.7782 -0.1707  0.1045
 6419SOL    HW130890   2.875   2.302   5.882 -1.6394 -2.0688 -1.0307
 6419SOL    HW230891   2.884   2.368   6.013  2.4410 -1.8987 -0.6220
 6420SOL     OW30892   3.201   2.900   8.217 -0.2601  0.0886  0.1960
 6420SOL    HW130893   3.216   2.978   8.164 -0.0480 -0.2274 -0.2010
 6420SOL    HW230894   3.106   2.888   8.214 -0.0606 -1.4525  0.5340
 6421SOL     OW30895   2.359   2.231  12.372  0.8718 -0.0660  0.6412
 6421SOL    HW130896   2.378   2.138  12.385  0.0158 -0.1806  1.0399
 6421SOL    HW230897   2.266   2.225  12.353  0.9585 -0.7212  0.4326
 6422SOL     OW30898   1.237   3.280   0.600  0.3357 -0.5648  0.3124
 6422SOL    HW130899   1.197   3.194   0.600 -0.9156  0.0062 -0.6700
 6422SOL    HW230900   1.237   3.294   0.505  1.4550 -0.4395  0.3285
 6423SOL     OW30901   0.973   1.560  11.693  0.2140 -0.2549  0.0266
 6423SOL    HW130902   1.063   1.566  11.724 -0.2586 -2.2398  1.7321
 6423SOL    HW230903   0.960   1.634  11.634 -1.0800 -0.9169 -0.5164
 6424SOL     OW30904   3.499   2.554   8.181 -0.2340  0.1928  0.2149
 6424SOL    HW130905   3.449   2.620   8.134  1.0211  0.5663 -0.6006
 6424SOL    HW230906   3.472   2.577   8.269 -1.2723  0.1794 -0.0990
 6425SOL     OW30907   1.379   0.834   1.461  0.2817 -0.0139 -0.8107
 6425SOL    HW130908   1.366   0.764   1.397 -1.1984 -1.6436  1.2836
 6425SOL    HW230909   1.330   0.803   1.536 -0.2367 -1.5922 -1.8015
 6426SOL     OW30910   0.177   0.553   2.613  0.5163  0.8242  0.1258
 6426SOL    HW130911   0.103   0.598   2.654  0.2506  0.1193  0.4112
 6426SOL    HW230912   0.215   0.510   2.688 -1.1256 -4.2769 -1.9948
 6427SOL     OW30913   4.610   0.933  11.518  0.2183 -0.3737  0.2157
 6427SOL    HW130914   4.636   0.841  11.515  0.7243 -0.2040 -0.5771
 6427SOL    HW230915   4.539   0.927  11.582 -0.2466 -0.5012 -0.3151
 6428SOL     OW30916   3.500   3.303   1.385  0.1192 -0.4716 -0.7170
 6428SOL    HW130917   3.426   3.356   1.413  1.7807  0.1384  2.5201
 6428SOL    HW230918   3.561   3.306   1.459 -0.8932 -2.8548  0.2382
 6429SOL     OW30919   3.989   1.524  12.139  0.1745  0.0334  0.5863
 6429SOL    HW130920   3.913   1.577  12.162  1.5880  2.2012  0.2275
 6429SOL    HW230921   4.049   1.555  12.207  0.3965  2.2243 -0.6226
 6430SOL     OW30922   2.210   2.287   0.213 -0.3049 -0.0345 -0.3561
 6430SOL    HW130923   2.143   2.351   0.189  0.5570  0.8638 -0.3871
 6430SOL    HW230924   2.278   2.349   0.239 -0.4127 -0.6313  1.3685
 6431SOL     OW30925   4.101   3.299  10.054 -0.0008 -0.4512  0.3090
 6431SOL    HW130926   4.169   3.343  10.104  0.7133  0.2940 -1.3139
 6431SOL    HW230927   4.122   3.303   9.961 -1.4283  1.4450  0.0576
 6432SOL     OW30928   4.024   2.080   7.132 -0.4315  0.0060  0.7032
 6432SOL    HW130929   4.032   1.993   7.171  2.0957  0.0835  0.3616
 6432SOL    HW230930   3.985   2.131   7.202  1.2720  3.2319 -0.6892
 6433SOL     OW30931   1.457   4.312   8.329 -0.4609  0.0677 -0.3592
 6433SOL    HW130932   1.410   4.249   8.383  1.2605 -0.6084  0.3307
 6433SOL    HW230933   1.545   4.275   8.324 -0.5082  0.0994 -1.5027
 6434SOL     OW30934   3.866   1.144   4.426  0.4581  0.2284  0.4165
 6434SOL    HW130935   3.916   1.146   4.345 -0.1592  2.6253  0.1159
 6434SOL    HW230936   3.922   1.187   4.490 -2.8738  1.3374  2.6106
 6435SOL     OW30937   2.304   1.048  10.910  0.1505 -0.2566  0.6800
 6435SOL    HW130938   2.312   1.010  10.997 -0.7264  0.9467  1.2986
 6435SOL    HW230939   2.263   1.133  10.926  2.6059  0.8048  1.3396
 6436SOL     OW30940   2.211   1.372  16.357 -0.2627  0.0748 -0.3756
 6436SOL    HW130941   2.135   1.320  16.382  0.9957 -1.9773 -0.8751
 6436SOL    HW230942   2.288   1.316  16.368  0.0430  0.1658 -2.1957
 6437SOL     OW30943   2.902   2.546   2.241 -0.3521 -0.4084  0.3778
 6437SOL    HW130944   2.875   2.462   2.205 -1.1844 -0.8042  1.9014
 6437SOL    HW230945   2.947   2.518   2.320  2.5280 -1.3057 -1.6017
 6438SOL     OW30946   3.849   2.432   3.803  0.5910  0.0030 -0.9467
 6438SOL    HW130947   3.758   2.421   3.830  0.0348  3.5927 -1.3501
 6438SOL    HW230948   3.847   2.383   3.721  0.6019  1.7538 -1.9782
 6439SOL     OW30949   0.257   4.536   6.202  0.1599 -0.6587 -0.0491
 6439SOL    HW130950   0.270   4.490   6.118 -3.8249 -1.7016 -0.0837
 6439SOL    HW230951   0.177   4.496   6.236  0.5229 -1.0918  0.2929
 6440SOL     OW30952   3.330   1.143   6.699  0.1654  0.2533  0.3527
 6440SOL    HW130953   3.239   1.158   6.675  0.9673 -2.0688 -4.1653
 6440SOL    HW230954   3.351   1.233   6.723  0.3109 -0.0949  1.5521
 6441SOL     OW30955   4.006   4.101   6.152  0.5544  0.1965 -0.2818
 6441SOL    HW130956   3.980   4.009   6.151 -0.5311  0.5060 -0.6752
 6441SOL    HW230957   4.091   4.094   6.196  0.8202  0.1302 -0.8038
 6442SOL     OW30958   1.909   1.343   6.287 -0.4358  0.0363 -0.5084
 6442SOL    HW130959   1.821   1.369   6.316 -0.1773 -0.4039  0.6395
 6442SOL    HW230960   1.951   1.429   6.275 -0.9153  0.3157 -0.1958
 6443SOL     OW30961   0.089   2.896   3.063  0.0312 -0.2497  0.6554
 6443SOL    HW130962   0.175   2.857   3.047  0.8476  1.3726  1.1414
 6443SOL    HW230963   0.102   2.965   3.127 -1.7272  0.3629  0.3718
 6444SOL     OW30964   0.174   4.464   6.675 -0.0048  0.5500 -0.5898
 6444SOL    HW130965   0.170   4.370   6.657  0.6863  0.1668  1.3130
 6444SOL    HW230966   0.260   4.495   6.647  0.2585 -0.7888 -1.2854
 6445SOL     OW30967   0.182   1.796   7.115 -0.4014 -0.4081  0.3488
 6445SOL    HW130968   0.137   1.760   7.039 -0.0287  2.8417 -1.3861
 6445SOL    HW230969   0.227   1.870   7.076 -3.2342  0.7776 -0.6551
 6446SOL     OW30970   1.006   0.629   8.846 -0.2994  0.6680  0.0371
 6446SOL    HW130971   0.958   0.660   8.923 -0.1804 -1.7575  1.0900
 6446SOL    HW230972   1.007   0.537   8.870 -2.2835  0.5141 -0.4565
 6447SOL     OW30973   2.797   3.769   2.194 -0.0666 -0.1522  0.7115
 6447SOL    HW130974   2.734   3.817   2.142  0.2523 -2.1158 -1.4757
 6447SOL    HW230975   2.745   3.700   2.235 -0.8274  0.0761  0.1203
 6448SOL     OW30976   3.663   2.995  17.248 -0.7471 -0.2426 -0.1725
 6448SOL    HW130977   3.671   3.057  17.176  2.3648 -1.2895 -0.7452
 6448SOL    HW230978   3.756   2.975  17.259 -0.4334  0.9550 -0.6699
 6449SOL     OW30979   1.940   1.141   3.504  0.0729  0.1160  0.1534
 6449SOL    HW130980   1.858   1.099   3.478  1.1607 -2.7137  1.2628
 6449SOL    HW230981   1.924   1.235   3.492 -1.7017 -0.4899 -2.2227
 6450SOL     OW30982   4.064   1.536  15.933 -0.0531  0.4652  0.3730
 6450SOL    HW130983   4.025   1.614  15.972 -1.6929 -0.5741  0.8194
 6450SOL    HW230984   4.149   1.532  15.977  0.0921  1.1911  0.1448
 6451SOL     OW30985   3.924   1.672   8.133 -0.5079 -0.6466  0.1451
 6451SOL    HW130986   4.008   1.629   8.115 -0.0073  0.0714  0.7376
 6451SOL    HW230987   3.904   1.706   8.046 -0.6414  1.3556  0.9568
 6452SOL     OW30988   4.565   1.945   3.785  0.2241 -0.1083 -0.1070
 6452SOL    HW130989   4.653   1.977   3.805 -0.1757 -0.2753  1.8948
 6452SOL    HW230990   4.580   1.949   3.691 -0.1894 -0.9334 -0.2104
 6453SOL     OW30991   3.623   4.390   3.602 -0.0853  0.1525  0.6769
 6453SOL    HW130992   3.685   4.455   3.634  0.8087 -0.2320 -0.2862
 6453SOL    HW230993   3.654   4.318   3.656 -0.9816 -0.3386  0.5371
 6454SOL     OW30994   1.556   3.254   1.433 -0.2712  0.6907  0.2055
 6454SOL    HW130995   1.503   3.262   1.512 -0.4589  0.7826  0.0683
 6454SOL    HW230996   1.492   3.246   1.362 -1.3285 -0.7529  1.3198
 6455SOL     OW30997   4.179   3.757   2.772 -0.8419 -0.1999 -0.5115
 6455SOL    HW130998   4.204   3.849   2.783 -0.7716 -0.3602  0.7355
 6455SOL    HW230999   4.265   3.717   2.788  0.1634  2.1682 -0.0033
 6456SOL     OW31000   0.998   2.405  17.155  0.0555  0.2767  0.4511
 6456SOL    HW131001   0.970   2.419  17.065 -0.2737 -0.1748  0.4865
 6456SOL    HW231002   0.970   2.492  17.183 -1.1875  0.0783 -0.1907
 6457SOL     OW31003   1.138   2.430   9.260 -0.1079 -0.6539 -0.1739
 6457SOL    HW131004   1.046   2.445   9.237 -0.7693 -1.7773  1.7444
 6457SOL    HW231005   1.130   2.431   9.355 -1.0890  2.5989 -0.2827
 6458SOL     OW31006   3.052   1.160  15.842 -0.5496 -0.0018 -0.3888
 6458SOL    HW131007   3.051   1.186  15.934 -0.0686  1.3338 -0.7687
 6458SOL    HW231008   3.026   1.240  15.796  0.6469  0.8171  0.3483
 6459SOL     OW31009   1.817   1.897   0.116  0.1127  0.4566  0.0839
 6459SOL    HW131010   1.888   1.857   0.065 -0.5479  0.7911 -1.0952
 6459SOL    HW231011   1.850   1.870   0.202 -0.5016  0.2123  0.2407
 6460SOL     OW31012   2.600   4.644   4.084  0.1285 -0.0997 -0.2224
 6460SOL    HW131013   2.581   4.688   4.167 -0.4098 -0.7940  0.0175
 6460SOL    HW231014   2.559   4.560   4.104 -1.1875  0.0112 -2.3392
 6461SOL     OW31015   3.877   3.120   1.999 -0.1435  0.8613  0.7604
 6461SOL    HW131016   3.914   3.036   1.973 -0.0780  1.8368 -2.3037
 6461SOL    HW231017   3.921   3.167   1.929 -1.9406  0.1503 -0.8215
 6462SOL     OW31018   2.749   3.585  17.305  0.0072  0.1569 -0.6737
 6462SOL    HW131019   2.669   3.584  17.252  1.4621  0.0085 -2.8565
 6462SOL    HW231020   2.786   3.499  17.288  1.3367  0.8080 -1.0360
 6463SOL     OW31021   2.343   2.673   6.952  0.0593  0.6500  0.2418
 6463SOL    HW131022   2.339   2.766   6.975  0.1320  0.9809 -1.0792
 6463SOL    HW231023   2.435   2.673   6.923  0.1489  0.9700  0.5366
 6464SOL     OW31024   3.386   1.809   0.103 -0.0651  0.1061 -0.2630
 6464SOL    HW131025   3.322   1.858   0.050 -1.5395 -0.4554  0.9879
 6464SOL    HW231026   3.428   1.758   0.034  0.8036  1.8198 -0.9778
 6465SOL     OW31027   0.166   2.752  12.871  0.4748  0.4180  0.0319
 6465SOL    HW131028   0.199   2.841  12.883  1.0826 -0.0520  1.7923
 6465SOL    HW231029   0.243   2.724  12.823 -0.5705 -1.6329 -0.4384
 6466SOL     OW31030   3.051   4.710   4.101  0.3448 -0.2879 -0.8764
 6466SOL    HW131031   3.037   0.064   4.121  1.6030 -0.2637 -0.0814
 6466SOL    HW231032   3.141   4.718   4.068  0.7571 -0.2461  0.2797
 6467SOL     OW31033   1.137   0.377  11.786  0.3306  0.4286  0.3303
 6467SOL    HW131034   1.104   0.466  11.774 -1.3048  0.0307  1.8294
 6467SOL    HW231035   1.142   0.376  11.882 -0.1767 -2.4452  0.3356
 6468SOL     OW31036   0.836   3.808   1.705 -0.4120 -0.0708  0.1131
 6468SOL    HW131037   0.746   3.831   1.728 -0.0239  1.4273  0.1644
 6468SOL    HW231038   0.820   3.739   1.641  0.8805  0.9689 -1.3343
 6469SOL     OW31039   2.072   1.759   2.612 -0.0290 -0.0628  0.1279
 6469SOL    HW131040   2.064   1.664   2.605  0.0473 -0.0150 -0.6321
 6469SOL    HW231041   2.111   1.768   2.525  1.8806 -2.5960  0.7075
 6470SOL     OW31042   0.727   3.456   6.364  0.2953  0.0900  0.3774
 6470SOL    HW131043   0.770   3.374   6.340 -1.6208 -0.1825 -2.0885
 6470SOL    HW231044   0.772   3.513   6.302  2.5323 -0.7219  1.2372
 6471SOL     OW31045   0.627   0.048  12.935  0.2818 -0.5034  0.3839
 6471SOL    HW131046   0.672   0.050  13.020  0.6531  0.0840  0.1685
 6471SOL    HW231047   0.588   4.698  12.940  0.5125 -0.4647  2.9046
 6472SOL     OW31048   0.786   3.907  13.145 -0.0164 -0.2720  0.7898
 6472SOL    HW131049   0.745   3.892  13.060 -1.8690  1.2526  1.4297
 6472SOL    HW231050   0.795   3.817  13.177 -0.4809 -0.5907  0.0361
 6473SOL     OW31051   4.635   0.499   5.672  0.0096  0.0553 -0.0353
 6473SOL    HW131052   4.700   0.471   5.738 -0.1600 -0.6991 -0.1867
 6473SOL    HW231053   4.624   0.591   5.696 -4.2496 -0.1181 -1.4093
 6474SOL     OW31054   3.416   0.736   8.022 -0.2527  0.7122 -0.0662
 6474SOL    HW131055   3.353   0.808   8.018 -0.3985  0.5203 -1.1957
 6474SOL    HW231056   3.437   0.718   7.931 -0.1212 -0.1157  0.1265
 6475SOL     OW31057   1.201   0.408   3.748  0.1839 -0.1466 -0.2561
 6475SOL    HW131058   1.115   0.414   3.708 -0.0238  1.3958  0.3960
 6475SOL    HW231059   1.189   0.321   3.786 -0.6076 -0.1407 -0.4853
 6476SOL     OW31060   2.423   0.457  13.178 -0.4236 -0.0057  0.4293
 6476SOL    HW131061   2.356   0.525  13.188  2.1529  2.1061  3.0843
 6476SOL    HW231062   2.377   0.378  13.208  0.4722 -0.6041  0.2214
 6477SOL     OW31063   2.725   0.697  15.181  0.0089  0.1091  0.4166
 6477SOL    HW131064   2.787   0.742  15.124 -0.9151  1.9391  0.8700
 6477SOL    HW231065   2.689   0.635  15.117  1.9959  1.1778 -1.7003
 6478SOL     OW31066   0.217   1.378   6.602  0.6563 -0.5080 -0.4989
 6478SOL    HW131067   0.280   1.307   6.588  1.6187 -0.1093  1.8539
 6478SOL    HW231068   0.249   1.446   6.543 -2.2586  0.9735 -0.3600
 6479SOL     OW31069   3.171   4.536   3.528 -0.3165  0.2525  0.0872
 6479SOL    HW131070   3.107   4.540   3.457  0.3124  0.0010 -0.4881
 6479SOL    HW231071   3.249   4.497   3.490 -1.4879 -1.6494 -0.3696
 6480SOL     OW31072   3.953   4.678  17.576 -0.0298 -0.5057  0.0359
 6480SOL    HW131073   3.932   4.660  17.484 -1.1748 -3.3046  0.8148
 6480SOL    HW231074   4.046   4.659  17.577  0.6192  2.7887  0.8573
 6481SOL     OW31075   3.398   1.318   5.552 -0.1647  0.0280 -0.0863
 6481SOL    HW131076   3.442   1.234   5.542 -2.9930 -1.6830  1.9922
 6481SOL    HW231077   3.411   1.355   5.465  0.2375  0.5960  0.2164
 6482SOL     OW31078   4.570   0.761   4.028  0.0804  0.7436  0.4139
 6482SOL    HW131079   4.629   0.813   3.973 -1.4502  1.8024 -0.2313
 6482SOL    HW231080   4.549   0.821   4.100 -2.2234  0.0833  0.2790
 6483SOL     OW31081   4.301   1.514  11.811 -0.3153  0.3949 -0.1830
 6483SOL    HW131082   4.352   1.593  11.827  1.8580 -0.4188 -3.0225
 6483SOL    HW231083   4.227   1.530  11.869 -1.0201  2.4691 -1.6154
 6484SOL     OW31084   3.115   1.438   6.657 -0.6045  0.1642 -0.0314
 6484SOL    HW131085   3.211   1.439   6.654 -0.6972  1.0425 -2.9903
 6484SOL    HW231086   3.095   1.345   6.664  0.2399  0.0330  0.6765
 6485SOL     OW31087   0.280   4.414   4.417  0.3727 -0.0874  0.8078
 6485SOL    HW131088   0.231   4.418   4.334  1.1351 -0.3136  0.3456
 6485SOL    HW231089   0.241   4.491   4.458 -1.4981 -0.4208 -0.3345
 6486SOL     OW31090   4.232   2.536   1.967 -0.8521  0.5320 -0.0586
 6486SOL    HW131091   4.155   2.544   1.911  0.3557  1.2558 -1.6109
 6486SOL    HW231092   4.240   2.441   1.980  0.5267  0.3545 -2.3823
 6487SOL     OW31093   3.038   3.428   7.321  0.3541 -0.0835 -0.0094
 6487SOL    HW131094   3.014   3.496   7.384  1.0459 -1.8394  2.1346
 6487SOL    HW231095   3.132   3.442   7.308  0.4850 -1.1840 -0.2989
 6488SOL     OW31096   3.316   3.491   7.284 -0.5875 -0.3270  0.5421
 6488SOL    HW131097   3.356   3.418   7.331 -1.4784 -1.8078 -0.9712
 6488SOL    HW231098   3.306   3.453   7.196  0.4886 -1.9722  1.1392
 6489SOL     OW31099   2.460   1.493   2.473  0.3600  0.5516 -0.5587
 6489SOL    HW131100   2.394   1.490   2.542  0.3778 -0.0041 -0.5619
 6489SOL    HW231101   2.518   1.565   2.500 -0.3304  0.9101 -0.0367
 6490SOL     OW31102   4.059   2.215   7.765  0.0113 -0.5816 -0.2071
 6490SOL    HW131103   4.084   2.305   7.743  0.0763 -0.6116 -0.2561
 6490SOL    HW231104   4.061   2.177   7.677  2.4728 -0.2144 -0.3039
 6491SOL     OW31105   2.915   0.862  16.763 -0.3854  0.7691  0.3519
 6491SOL    HW131106   2.979   0.839  16.832  0.6070 -1.4904 -1.3085
 6491SOL    HW231107   2.942   0.806  16.690  0.3227 -0.9662  1.9288
 6492SOL     OW31108   3.860   4.283   3.020  0.8178  0.3370  0.4092
 6492SOL    HW131109   3.826   4.202   2.984  1.3955 -0.6813  2.1649
 6492SOL    HW231110   3.789   4.342   2.992  0.3966 -0.5891 -0.4679
 6493SOL     OW31111   0.716   4.501   3.251 -0.0098 -0.0237  0.5707
 6493SOL    HW131112   0.680   4.432   3.195  0.3843  1.2056 -1.1651
 6493SOL    HW231113   0.714   4.567   3.183 -1.5441 -0.7354 -0.0719
 6494SOL     OW31114   3.516   1.065   5.473 -0.5118 -0.3944 -0.0108
 6494SOL    HW131115   3.553   0.977   5.484 -0.3324 -0.3575 -0.3323
 6494SOL    HW231116   3.595   1.108   5.440 -3.6087  2.9385 -2.9693
 6495SOL     OW31117   2.485   3.686   0.967  0.5723  0.2140 -0.1985
 6495SOL    HW131118   2.454   3.633   1.040 -0.2773  0.2238 -0.5499
 6495SOL    HW231119   2.413   3.749   0.962  0.4589  0.1402  0.5201
 6496SOL     OW31120   4.195   0.573   0.606 -0.0937 -0.2341  0.2177
 6496SOL    HW131121   4.268   0.624   0.640  1.0492 -1.4602 -0.3874
 6496SOL    HW231122   4.164   0.521   0.680  0.3571 -0.3985  0.2917
 6497SOL     OW31123   4.310   1.220   4.404  0.1787 -0.2458  0.4890
 6497SOL    HW131124   4.398   1.238   4.374 -0.3819 -1.4013 -1.8289
 6497SOL    HW231125   4.310   1.124   4.411  0.2959 -0.4001 -1.6972
 6498SOL     OW31126   0.751   2.503  17.736  0.1686  0.2053  0.3908
 6498SOL    HW131127   0.731   2.504  17.643 -0.9535  0.1196  0.6239
 6498SOL    HW231128   0.719   2.589   0.013  1.7328  1.5059 -1.9997
 6499SOL     OW31129   3.494   4.213   3.908  0.3142  0.3997  0.4286
 6499SOL    HW131130   3.586   4.219   3.934  0.3120  0.6257  0.3842
 6499SOL    HW231131   3.483   4.120   3.891  1.3136  0.4654 -0.5790
 6500SOL     OW31132   2.856   1.397  14.794 -0.0095  0.0850 -0.3075
 6500SOL    HW131133   2.882   1.366  14.708 -1.3199  0.8084 -0.9709
 6500SOL    HW231134   2.781   1.454  14.775  0.1811  1.8125  4.0890
 6501SOL     OW31135   4.566   4.633   8.180 -0.2088 -0.5914 -0.0565
 6501SOL    HW131136   4.620   4.564   8.142 -1.4791 -1.7673  0.2857
 6501SOL    HW231137   4.508   4.571   8.224 -0.6437  0.9086  1.5025
 6502SOL     OW31138   0.579   1.657   7.288 -0.5340 -0.0229  0.1811
 6502SOL    HW131139   0.597   1.696   7.202  0.0941  1.9038  1.1819
 6502SOL    HW231140   0.610   1.569   7.269 -2.0685 -0.8859  1.6851
 6503SOL     OW31141   4.591   2.662   5.012 -0.8007 -0.2881  0.1973
 6503SOL    HW131142   4.652   2.599   4.973  1.1827  1.3086  0.6873
 6503SOL    HW231143   4.509   2.613   5.008  0.2218 -1.9477 -0.3239
 6504SOL     OW31144   1.848   4.129  13.521 -0.5651 -0.0253  0.6387
 6504SOL    HW131145   1.915   4.065  13.499 -1.3100 -0.8497  0.7528
 6504SOL    HW231146   1.775   4.070  13.540 -2.3096  1.4451 -1.3693
 6505SOL     OW31147   3.486   4.374   4.449  0.4524 -0.6330  0.2890
 6505SOL    HW131148   3.445   4.340   4.529  0.0232 -2.0376 -0.5232
 6505SOL    HW231149   3.407   4.367   4.395  2.3305  1.3124 -2.7512
 6506SOL     OW31150   2.569   2.232  16.632 -0.2418  0.3941 -0.5849
 6506SOL    HW131151   2.576   2.250  16.538 -0.1385 -0.2957 -0.7069
 6506SOL    HW231152   2.518   2.308  16.660  0.7579  0.2990  1.4420
 6507SOL     OW31153   0.799   0.126   7.778  0.8685 -1.0424  0.1703
 6507SOL    HW131154   0.739   0.174   7.835  1.1715 -1.4252  0.8137
 6507SOL    HW231155   0.880   0.140   7.826  1.0860 -1.1641 -0.1628
 6508SOL     OW31156   3.802   2.549   4.870  0.2455  0.1217 -0.6572
 6508SOL    HW131157   3.771   2.470   4.913  1.4248 -0.8411 -1.5643
 6508SOL    HW231158   3.858   2.514   4.801 -0.2084  1.6510 -1.8163
 6509SOL     OW31159   3.015   4.099  16.701  0.2524  0.0727 -0.1540
 6509SOL    HW131160   3.090   4.158  16.702 -0.9064  1.4473  4.5481
 6509SOL    HW231161   3.054   4.018  16.735  1.7092 -0.2526 -2.5950
 6510SOL     OW31162   3.365   1.812   0.550 -0.4265 -0.4257 -0.1076
 6510SOL    HW131163   3.322   1.773   0.474 -0.9492 -0.8131  0.3847
 6510SOL    HW231164   3.340   1.903   0.536  3.8664  0.4263 -2.1466
 6511SOL     OW31165   0.245   3.713   8.972  0.6415 -0.3529 -0.0673
 6511SOL    HW131166   0.227   3.795   9.018 -0.6539 -1.1087  0.7526
 6511SOL    HW231167   0.154   3.690   8.955  1.2694 -3.0829  0.3347
 6512SOL     OW31168   1.676   4.585  15.986  0.5155  0.3929  0.2985
 6512SOL    HW131169   1.699   4.665  16.033  0.6567  0.5751 -0.0806
 6512SOL    HW231170   1.645   4.624  15.904  2.7512  1.1219 -0.2032
 6513SOL     OW31171   4.404   3.818   4.345 -0.2476 -0.1119 -0.2163
 6513SOL    HW131172   4.329   3.762   4.327 -1.4530  1.2489  0.5694
 6513SOL    HW231173   4.367   3.870   4.417 -0.9755 -1.2685  0.2434
 6514SOL     OW31174   1.227   1.323   6.033 -0.2486 -0.0361  0.1978
 6514SOL    HW131175   1.168   1.393   6.004  2.3349  2.4897  1.0594
 6514SOL    HW231176   1.168   1.261   6.075 -0.5048  0.6952  0.9309
 6515SOL     OW31177   4.475   4.674  15.793 -0.8598  0.2952  0.3969
 6515SOL    HW131178   4.391   4.721  15.793  0.4328  2.6361 -0.7019
 6515SOL    HW231179   4.527   4.737  15.743 -0.2201 -0.8441 -0.3808
 6516SOL     OW31180   2.849   3.585   7.462  0.0549 -0.1702 -0.3934
 6516SOL    HW131181   2.819   3.600   7.552  0.2855  0.7579 -0.4700
 6516SOL    HW231182   2.813   3.668   7.430  1.3981  0.3383 -0.6045
 6517SOL     OW31183   3.455   0.712   3.138 -0.4039  0.1654 -0.1463
 6517SOL    HW131184   3.394   0.746   3.073  0.4673  0.7839 -0.6529
 6517SOL    HW231185   3.524   0.775   3.117  0.2474 -0.9159 -1.2558
 6518SOL     OW31186   2.497   3.169   5.213  0.2841  0.3459 -0.2412
 6518SOL    HW131187   2.457   3.219   5.142  1.6866  1.2239 -0.4381
 6518SOL    HW231188   2.440   3.093   5.218  0.1021  0.6807  2.8741
 6519SOL     OW31189   1.523   1.343   1.372 -0.1252 -0.3962  0.2557
 6519SOL    HW131190   1.471   1.355   1.451  0.8441  0.1295  0.8209
 6519SOL    HW231191   1.596   1.294   1.410  0.1719 -0.9856 -1.0581
 6520SOL     OW31192   3.216   2.432   4.964 -0.0969  0.6106 -0.5115
 6520SOL    HW131193   3.279   2.360   4.961 -0.4851  0.1738  1.8184
 6520SOL    HW231194   3.249   2.482   4.890 -1.6987  1.9110 -0.3506
 6521SOL     OW31195   3.976   3.698   9.238  0.0654 -0.1206  0.3704
 6521SOL    HW131196   3.881   3.696   9.225  0.0312 -2.5860  0.9704
 6521SOL    HW231197   3.990   3.690   9.332 -2.5580  1.1210  0.8739
 6522SOL     OW31198   2.977   0.572  15.409  0.1494  0.0821 -0.1009
 6522SOL    HW131199   2.980   0.599  15.317 -1.7694 -0.7073 -0.4032
 6522SOL    HW231200   2.968   0.658  15.451 -2.3225  0.5486 -1.5996
 6523SOL     OW31201   3.060   2.213   9.072 -0.0932  0.1046  0.0154
 6523SOL    HW131202   3.124   2.151   9.109 -0.7531 -0.6775 -0.1592
 6523SOL    HW231203   3.075   2.297   9.114 -0.8987 -0.6454  1.8138
 6524SOL     OW31204   2.332   3.627   3.008  0.1253  0.1581  0.7299
 6524SOL    HW131205   2.307   3.685   3.081 -2.5768  0.6033 -0.5386
 6524SOL    HW231206   2.423   3.613   3.034  0.8279  1.7505 -0.8960
 6525SOL     OW31207   0.910   3.115   1.851  0.4378 -0.4757 -0.2346
 6525SOL    HW131208   0.846   3.183   1.865  0.2362 -0.7713  0.2620
 6525SOL    HW231209   0.989   3.130   1.904 -1.3359  1.2854  1.9073
 6526SOL     OW31210   2.447   1.498  17.562  0.2839  0.3913  0.7833
 6526SOL    HW131211   2.384   1.568  17.548 -0.3586  0.0493  2.0235
 6526SOL    HW231212   2.427   1.424  17.504 -0.4647  0.5798  0.8020
 6527SOL     OW31213   4.371   3.343   7.769  0.7245  0.1708  0.2057
 6527SOL    HW131214   4.286   3.372   7.737 -0.1037  0.0844  2.3556
 6527SOL    HW231215   4.387   3.291   7.691 -0.8791  0.0161  0.0020
 6528SOL     OW31216   0.732   1.977   3.893 -0.2331 -0.3621 -0.1128
 6528SOL    HW131217   0.753   1.966   3.800  0.6521 -1.0554  0.1676
 6528SOL    HW231218   0.708   2.069   3.883  1.1219 -0.0617 -0.6978
 6529SOL     OW31219   0.853   0.736   6.463  0.1913 -0.4265  0.3473
 6529SOL    HW131220   0.901   0.668   6.510  1.0657 -0.2213 -0.2676
 6529SOL    HW231221   0.867   0.702   6.375 -1.2508  2.7664 -1.1500
 6530SOL     OW31222   3.292   1.032   5.297 -0.4620  0.0144  0.3030
 6530SOL    HW131223   3.361   1.063   5.354  0.7539 -1.3348 -0.4324
 6530SOL    HW231224   3.348   0.980   5.240 -1.1203  0.2847 -0.6023
 6531SOL     OW31225   2.937   3.096   2.937  0.4618 -0.1798  0.1624
 6531SOL    HW131226   2.924   3.013   2.891  1.8973 -1.8765  2.8501
 6531SOL    HW231227   2.999   3.142   2.880  0.4980 -2.0241 -1.2872
 6532SOL     OW31228   0.891   1.283  11.332  0.0292 -0.4058  0.2097
 6532SOL    HW131229   0.799   1.263  11.313 -0.1434  1.0212 -0.4348
 6532SOL    HW231230   0.878   1.376  11.317 -0.0407 -0.1408  1.9561
 6533SOL     OW31231   3.115   0.045  14.116  0.2110 -0.2016  0.1128
 6533SOL    HW131232   3.158   0.010  14.038  0.2877  0.3056 -0.0727
 6533SOL    HW231233   3.184   0.042  14.182 -0.5746 -0.5813  0.9258
 6534SOL     OW31234   0.732   4.469  13.047 -0.4397 -0.4674  0.1171
 6534SOL    HW131235   0.732   4.428  13.133 -0.0450 -0.3237  0.1835
 6534SOL    HW231236   0.809   4.525  13.044 -0.0591 -0.9973 -0.0228
 6535SOL     OW31237   1.942   4.397  11.687 -0.1550  0.6669 -0.3083
 6535SOL    HW131238   1.858   4.434  11.712  0.0099 -0.0002  1.2326
 6535SOL    HW231239   2.011   4.458  11.713 -0.0929  0.1377  0.7736
 6536SOL     OW31240   0.356   1.059  16.585 -0.0773 -0.3054  0.3490
 6536SOL    HW131241   0.437   1.109  16.587  0.7753 -1.6562 -0.3141
 6536SOL    HW231242   0.373   0.972  16.621 -1.7804 -1.5075 -1.7298
 6537SOL     OW31243   4.318   3.518   3.716  0.1967  0.1398  0.2179
 6537SOL    HW131244   4.294   3.426   3.729  0.6933 -0.1259 -0.7988
 6537SOL    HW231245   4.345   3.519   3.624  0.8458 -0.3565  0.3976
 6538SOL     OW31246   4.284   0.362   4.580  0.4669  0.1420 -0.3996
 6538SOL    HW131247   4.232   0.299   4.529 -1.5132 -1.0227  3.0336
 6538SOL    HW231248   4.324   0.411   4.508  1.8091 -0.8562 -0.3178
 6539SOL     OW31249   3.614   3.986   9.601  0.2581  0.1895  0.1426
 6539SOL    HW131250   3.521   4.009   9.602  0.3983  0.7488  0.4027
 6539SOL    HW231251   3.614   3.910   9.659 -0.4682  0.3453  0.3458
 6540SOL     OW31252   1.489   4.422   8.907 -0.2639 -0.2521 -0.0259
 6540SOL    HW131253   1.411   4.421   8.851 -0.3900 -2.6719  0.2095
 6540SOL    HW231254   1.488   4.331   8.937 -1.1339 -0.8302 -1.8353
 6541SOL     OW31255   1.315   1.076   3.456  0.2629  0.2733  0.2642
 6541SOL    HW131256   1.329   1.170   3.451 -1.6388  0.4953 -0.7458
 6541SOL    HW231257   1.345   1.051   3.369  0.1662  1.0404  0.0134
 6542SOL     OW31258   0.424   3.217   5.355 -0.2679  0.4986 -0.0127
 6542SOL    HW131259   0.414   3.215   5.450 -0.0122 -1.5375 -0.0189
 6542SOL    HW231260   0.468   3.301   5.342  2.8783 -1.2558 -0.5117
 6543SOL     OW31261   0.157   0.013  13.121  0.2924 -0.6149  0.3489
 6543SOL    HW131262   0.151   0.108  13.122 -0.3195 -0.6527 -0.2753
 6543SOL    HW231263   0.169   4.730  13.213 -1.3078 -1.3847  0.3708
 6544SOL     OW31264   2.146   0.402  12.425 -0.5071 -0.0266 -0.0710
 6544SOL    HW131265   2.092   0.325  12.441 -1.1102  0.1157 -1.4461
 6544SOL    HW231266   2.081   0.468  12.402 -2.0947 -1.0748  1.4945
 6545SOL     OW31267   0.883   1.889  14.212  0.3053  0.1260  0.1525
 6545SOL    HW131268   0.856   1.812  14.162 -1.7813  0.9237  0.0693
 6545SOL    HW231269   0.978   1.884  14.196  0.1320 -2.1559 -0.0863
 6546SOL     OW31270   1.068   0.095   3.747 -0.4028  0.4528  0.2989
 6546SOL    HW131271   1.132   0.066   3.682  1.2323  0.5979  1.8427
 6546SOL    HW231272   1.134   0.093   3.816  1.1763  1.6499 -1.1715
 6547SOL     OW31273   0.409   3.417   2.926 -0.1247 -0.5029  0.5280
 6547SOL    HW131274   0.375   3.482   2.866  0.8323 -0.9636 -0.5038
 6547SOL    HW231275   0.455   3.360   2.864  1.4525  2.1831 -0.7644
 6548SOL     OW31276   1.408   3.038   3.989  0.3412 -0.2515 -0.0145
 6548SOL    HW131277   1.431   2.992   4.069 -0.4867 -0.8282 -0.1062
 6548SOL    HW231278   1.333   3.090   4.017 -0.3887 -1.4230  0.2097
 6549SOL     OW31279   1.112   1.584   5.933  0.1428 -0.1252  0.1984
 6549SOL    HW131280   1.204   1.580   5.909  0.2077 -0.0127  0.4213
 6549SOL    HW231281   1.074   1.531   5.863  0.2381  1.0325 -0.7360
 6550SOL     OW31282   2.582   1.402   5.401 -0.0928 -0.0343 -0.4744
 6550SOL    HW131283   2.493   1.434   5.414 -1.1288 -2.1284 -2.4263
 6550SOL    HW231284   2.607   1.483   5.356  0.6883 -0.3774 -0.6659
 6551SOL     OW31285   3.073   0.548   5.972  0.3188  0.1927 -0.1671
 6551SOL    HW131286   3.083   0.472   5.914  0.0467 -1.1276  1.5253
 6551SOL    HW231287   3.124   0.517   6.046 -0.9128 -2.1705 -0.2967
 6552SOL     OW31288   2.182   3.273   2.058  0.8378 -0.0347 -0.2760
 6552SOL    HW131289   2.227   3.235   1.982 -1.1265  0.1014 -1.5114
 6552SOL    HW231290   2.140   3.190   2.081 -0.8097  0.8260 -0.2119
 6553SOL     OW31291   0.864   0.564   7.844  0.0012 -0.0608  0.0876
 6553SOL    HW131292   0.798   0.594   7.782  0.9676 -0.6048 -1.2067
 6553SOL    HW231293   0.923   0.515   7.787 -0.4607  1.4128 -1.6645
 6554SOL     OW31294   2.320   1.841   5.434 -0.2677  0.1121 -0.1416
 6554SOL    HW131295   2.255   1.773   5.416 -0.5448  0.7174 -1.4430
 6554SOL    HW231296   2.393   1.783   5.457 -1.6776 -0.8624  1.8507
 6555SOL     OW31297   3.005   0.614   2.262  0.1432 -0.1492  0.4473
 6555SOL    HW131298   2.943   0.543   2.278 -1.1306  0.8264 -0.1122
 6555SOL    HW231299   2.974   0.645   2.176 -1.7387  3.5038  2.4310
 6556SOL     OW31300   2.607   2.911   2.217 -0.1481 -0.2448 -0.1203
 6556SOL    HW131301   2.536   2.975   2.229  1.1056  1.5424 -2.3335
 6556SOL    HW231302   2.566   2.849   2.157 -1.2204  3.0378 -2.7588
 6557SOL     OW31303   2.697   1.007   5.576  0.6008  0.2901  0.2225
 6557SOL    HW131304   2.736   0.928   5.541 -0.8831  0.3634 -1.5679
 6557SOL    HW231305   2.658   0.973   5.657 -2.4367  1.5359 -0.7126
 6558SOL     OW31306   4.225   1.920   2.581  0.0691 -0.2828  0.5204
 6558SOL    HW131307   4.258   1.873   2.504 -0.0599  1.5505 -0.6372
 6558SOL    HW231308   4.199   1.852   2.644 -0.8323 -0.6484 -0.2427
 6559SOL     OW31309   4.676   4.411   7.058  0.1741  0.3646  0.2877
 6559SOL    HW131310   4.610   4.366   7.111  2.2923 -1.1394  1.6629
 6559SOL    HW231311   4.737   4.441   7.125  1.6297 -0.1767 -0.7800
 6560SOL     OW31312   2.206   4.723   6.683 -0.8265 -0.3232 -0.0947
 6560SOL    HW131313   2.178   4.633   6.666  0.8107 -0.9025  0.3192
 6560SOL    HW231314   2.197   0.013   6.592  2.1297  0.7532 -0.0496
 6561SOL     OW31315   2.655   3.290   7.136  0.3355 -0.5099  0.2107
 6561SOL    HW131316   2.590   3.225   7.109  0.8322 -1.9031  2.2815
 6561SOL    HW231317   2.713   3.281   7.061  0.4225 -1.7701  0.4130
 6562SOL     OW31318   2.162   1.737  15.135 -0.0546  0.2580  0.7162
 6562SOL    HW131319   2.121   1.800  15.075  0.7883 -0.9381 -1.1330
 6562SOL    HW231320   2.100   1.717  15.205 -0.0209 -1.6795  0.1911
 6563SOL     OW31321   0.506   2.261  11.354 -0.7449 -0.0226 -0.4081
 6563SOL    HW131322   0.468   2.280  11.268  1.1913  3.7547 -0.4050
 6563SOL    HW231323   0.487   2.346  11.394 -0.5429 -0.1408 -0.0614
 6564SOL     OW31324   1.268   3.032   1.256 -0.1088  0.5329  0.1137
 6564SOL    HW131325   1.211   3.104   1.284 -1.3319 -0.7698  0.9885
 6564SOL    HW231326   1.289   3.048   1.164 -0.5997  0.7276  0.0358
 6565SOL     OW31327   0.416   1.671   8.544  0.5631 -0.7832 -0.0958
 6565SOL    HW131328   0.427   1.719   8.463 -0.7869 -0.4946 -0.1144
 6565SOL    HW231329   0.327   1.634   8.544 -0.7195  2.3269 -0.0598
 6566SOL     OW31330   0.335   0.641   9.168 -0.4700 -0.4218  0.1898
 6566SOL    HW131331   0.320   0.622   9.076 -1.6204 -0.1099  0.3060
 6566SOL    HW231332   0.243   0.644   9.196  0.4277  2.9278  2.7900
 6567SOL     OW31333   4.105   4.722  10.060 -0.2024  0.3669  0.5861
 6567SOL    HW131334   4.144   4.719   9.973 -0.0406  1.0406  0.6372
 6567SOL    HW231335   4.117   4.631  10.088 -0.6842 -0.2448 -1.2182
 6568SOL     OW31336   3.980   0.313   9.926  0.1825  0.2351 -0.5331
 6568SOL    HW131337   3.994   0.360   9.844 -1.3132 -0.9842 -1.4936
 6568SOL    HW231338   3.885   0.304   9.920  0.1218 -1.0584  2.3873
 6569SOL     OW31339   3.199   2.830   9.388 -0.2240 -0.1815 -0.1207
 6569SOL    HW131340   3.294   2.835   9.381 -0.0313 -2.5969  0.6041
 6569SOL    HW231341   3.181   2.834   9.482  1.4788 -1.5495  0.2624
 6570SOL     OW31342   1.893   1.901   4.115 -0.1557 -0.2225 -0.6238
 6570SOL    HW131343   1.847   1.928   4.036 -0.7186 -2.3718 -1.0310
 6570SOL    HW231344   1.820   1.856   4.158  1.6112 -0.1285  2.4871
 6571SOL     OW31345   3.271   2.357   5.772 -0.2453 -0.1356 -0.3546
 6571SOL    HW131346   3.305   2.336   5.859  1.7053  3.3764 -0.2859
 6571SOL    HW231347   3.188   2.314   5.791 -0.4307  0.4472  0.1215
 6572SOL     OW31348   3.442   3.273   5.247 -0.0125  0.2281  0.4439
 6572SOL    HW131349   3.398   3.352   5.279 -0.0559  0.2071  0.4366
 6572SOL    HW231350   3.464   3.307   5.160  0.3825  1.1793  0.9126
 6573SOL     OW31351   0.032   4.222   6.634 -0.2778  0.3118 -0.2159
 6573SOL    HW131352   4.677   4.207   6.614  0.3648 -1.2863 -1.9763
 6573SOL    HW231353   0.067   4.183   6.554  1.0841  1.1362 -0.0135
 6574SOL     OW31354   1.308   3.821   5.225 -0.2275 -0.3664 -0.6861
 6574SOL    HW131355   1.335   3.886   5.289  0.2523 -0.2496 -1.0011
 6574SOL    HW231356   1.356   3.744   5.257 -2.2193 -0.8506  1.1381
 6575SOL     OW31357   4.147   0.028  13.259 -0.0895  0.6029 -0.4273
 6575SOL    HW131358   4.072   0.055  13.207 -0.4628  1.4504  0.5550
 6575SOL    HW231359   4.215   0.088  13.227  1.8334 -0.5792  1.3856
 6576SOL     OW31360   0.047   1.049  16.966  0.0998 -0.0245  0.2787
 6576SOL    HW131361   0.084   1.022  16.881 -1.0331 -0.3207 -0.1151
 6576SOL    HW231362   0.021   1.140  16.953  2.8667  0.5988 -1.0831
 6577SOL     OW31363   2.226   3.595   2.341  0.5041  0.5512 -0.9925
 6577SOL    HW131364   2.288   3.629   2.404 -1.9016  1.7492  0.7169
 6577SOL    HW231365   2.164   3.667   2.330 -2.3684 -1.6073  1.1249
 6578SOL     OW31366   2.801   4.559  15.856  0.4710 -0.0851  0.0999
 6578SOL    HW131367   2.841   4.577  15.771 -1.2020 -1.5461 -1.0010
 6578SOL    HW231368   2.840   4.626  15.912  2.5763 -1.0238 -0.2613
 6579SOL     OW31369   2.337   4.179  14.392 -0.2851  0.2190  0.8413
 6579SOL    HW131370   2.288   4.100  14.369 -1.3336  2.1925 -3.7785
 6579SOL    HW231371   2.424   4.144  14.372 -0.3563 -0.5851  1.9485
 6580SOL     OW31372   4.418   2.824   7.942 -0.0049 -0.3867  0.3593
 6580SOL    HW131373   4.448   2.909   7.976  1.1394 -1.1458  1.2329
 6580SOL    HW231374   4.498   2.782   7.913 -1.1295 -0.7979 -2.1372
 6581SOL     OW31375   0.065   4.374   1.723 -0.1536 -0.0569  0.2353
 6581SOL    HW131376   0.063   4.306   1.655 -0.2971  0.0848  0.1004
 6581SOL    HW231377   4.713   4.375   1.756 -0.7975 -0.0946 -1.5186
 6582SOL     OW31378   2.928   1.996   1.281 -0.2048  0.1675  0.3186
 6582SOL    HW131379   2.952   1.904   1.279  1.3243  0.5506  1.0250
 6582SOL    HW231380   2.870   2.005   1.206  1.3052  1.7506 -0.6509
 6583SOL     OW31381   3.225   1.276  14.712  0.3025 -0.4203 -0.3861
 6583SOL    HW131382   3.300   1.258  14.656  0.4619  0.2580 -0.3859
 6583SOL    HW231383   3.162   1.213  14.677  0.9216 -1.7442  0.9040
 6584SOL     OW31384   3.504   3.301  15.490  0.1954 -0.9685  1.1925
 6584SOL    HW131385   3.536   3.354  15.563 -1.5829  0.5045  0.8973
 6584SOL    HW231386   3.568   3.331  15.425  0.7568 -0.2823  2.0581
 6585SOL     OW31387   4.016   1.736   5.366 -0.2254 -0.2129 -0.3336
 6585SOL    HW131388   4.034   1.731   5.460 -1.6433 -1.1912 -0.1208
 6585SOL    HW231389   3.922   1.751   5.367 -0.1574  0.2127  0.1303
 6586SOL     OW31390   3.740   3.971   6.628 -0.4734  0.4257  0.1275
 6586SOL    HW131391   3.668   3.925   6.584  0.0226 -0.8011  0.5962
 6586SOL    HW231392   3.805   3.985   6.559 -0.9948  1.7277 -0.1044
 6587SOL     OW31393   0.423   2.817   6.466 -0.2636  0.4401 -0.4505
 6587SOL    HW131394   0.502   2.767   6.445  0.2229  0.0891  2.2286
 6587SOL    HW231395   0.400   2.805   6.558  1.6016  2.7750  0.3232
 6588SOL     OW31396   0.722   0.013   9.837 -0.3430  0.3658 -0.4848
 6588SOL    HW131397   0.695   0.053   9.754 -1.2806  0.5727 -0.0850
 6588SOL    HW231398   0.674   4.670   9.817  0.0715 -0.3944  1.6132
 6589SOL     OW31399   3.446   3.298   6.521  0.4135  0.3543 -0.0390
 6589SOL    HW131400   3.460   3.224   6.581  1.4900 -1.6589 -2.7649
 6589SOL    HW231401   3.506   3.366   6.552  1.9322  0.0401 -2.2638
 6590SOL     OW31402   1.949   0.918   4.049  0.3681  0.6737 -0.0143
 6590SOL    HW131403   1.954   1.003   4.094 -2.2669  0.2197  1.0986
 6590SOL    HW231404   1.933   0.864   4.127 -3.7861 -0.1326 -1.4442
 6591SOL     OW31405   0.298   4.113   6.984  0.4261  0.1036 -0.1810
 6591SOL    HW131406   0.279   4.084   7.073 -0.2616 -0.6312 -0.5735
 6591SOL    HW231407   0.220   4.162   6.958  1.5590  2.0042 -0.0203
 6592SOL     OW31408   2.159   4.316   8.041  0.2451  0.5603  0.3739
 6592SOL    HW131409   2.218   4.248   8.072  0.8796  0.8597 -0.1670
 6592SOL    HW231410   2.189   4.387   8.098 -1.6826  1.9510 -0.3494
 6593SOL     OW31411   2.095   0.835   3.840 -0.1596 -0.2636 -0.3037
 6593SOL    HW131412   2.130   0.911   3.793 -0.4722  0.7943  1.1673
 6593SOL    HW231413   2.022   0.891   3.867 -1.1051 -1.2348 -0.8256
 6594SOL     OW31414   4.562   2.179   2.114 -0.6089 -0.2087  0.3486
 6594SOL    HW131415   4.545   2.223   2.030  0.0374 -0.2221  0.2084
 6594SOL    HW231416   4.651   2.198   2.142 -0.1896  1.4187 -2.0617
 6595SOL     OW31417   3.592   3.979   4.400 -0.5802  0.1901 -0.6075
 6595SOL    HW131418   3.504   3.973   4.437  0.2973 -3.1913  0.9166
 6595SOL    HW231419   3.587   3.920   4.325  0.6266 -1.0740  0.2920
 6596SOL     OW31420   0.922   4.540   2.895 -0.2057 -0.6005 -0.4244
 6596SOL    HW131421   0.950   4.474   2.959 -2.0947 -0.9440  0.0551
 6596SOL    HW231422   0.980   4.612   2.920  0.3142 -0.7489 -1.2146
 6597SOL     OW31423   3.093   2.622  12.525 -0.0994  0.0956  0.3107
 6597SOL    HW131424   3.107   2.707  12.484 -0.9614  0.0564 -0.0525
 6597SOL    HW231425   3.140   2.641  12.606  0.1856 -1.2720  0.4658
 6598SOL     OW31426   2.687   0.708   5.338 -0.3553  0.2958  0.0225
 6598SOL    HW131427   2.691   0.768   5.263 -4.0369  1.1126  0.4896
 6598SOL    HW231428   2.759   0.744   5.390 -2.3734  4.6027 -0.1359
 6599SOL     OW31429   0.837   2.127  16.699 -0.2183 -0.7581  0.3556
 6599SOL    HW131430   0.888   2.125  16.618 -0.3772 -1.3191  0.2679
 6599SOL    HW231431   0.874   2.046  16.735  0.1464 -1.3133 -1.2741
 6600SOL     OW31432   0.926   2.598   1.846 -0.1801  0.5572  0.0548
 6600SOL    HW131433   0.879   2.682   1.846 -0.2639  0.5090 -0.7442
 6600SOL    HW231434   0.911   2.570   1.756  0.3020  1.7106 -0.3952
 6601SOL     OW31435   0.964   3.511   7.934  0.0641 -0.1079  0.2397
 6601SOL    HW131436   1.017   3.435   7.908 -0.6997 -1.1338  1.6902
 6601SOL    HW231437   0.945   3.548   7.848 -1.2326 -0.3173  0.4347
 6602SOL     OW31438   1.179   0.407   4.257 -0.0104  0.2577  0.2669
 6602SOL    HW131439   1.201   0.444   4.172 -0.7356  2.8701  1.1952
 6602SOL    HW231440   1.170   0.479   4.320  1.6298  0.6184  0.0944
 6603SOL     OW31441   2.063   4.082   8.176  0.6191 -0.0275 -0.3581
 6603SOL    HW131442   2.017   4.070   8.093 -2.9692  3.2187  1.1267
 6603SOL    HW231443   2.011   4.151   8.218  0.4124 -0.9200  0.8839
 6604SOL     OW31444   3.502   0.025   5.928 -0.0657  0.4790 -0.2139
 6604SOL    HW131445   3.576   0.070   5.969 -0.6908 -0.3984  1.9238
 6604SOL    HW231446   3.508   4.672   5.959 -0.0377  0.8542  0.8815
 6605SOL     OW31447   2.323   1.685   5.096  0.1148  0.3996 -0.5320
 6605SOL    HW131448   2.408   1.678   5.052 -0.8371 -0.1173 -2.3321
 6605SOL    HW231449   2.320   1.780   5.104 -1.2772  0.3572 -0.5447
 6606SOL     OW31450   3.082   0.822   5.333 -0.3307 -0.2721 -0.3563
 6606SOL    HW131451   3.112   0.913   5.338 -0.5590 -0.0903 -2.2151
 6606SOL    HW231452   3.105   0.802   5.242  0.3091  0.0843 -0.2740
 6607SOL     OW31453   0.036   3.210   9.206 -0.0912 -0.1970 -0.0381
 6607SOL    HW131454   0.072   3.293   9.174  2.2470 -0.2934  2.3445
 6607SOL    HW231455   0.051   3.218   9.300  0.5824 -0.4127 -0.1275
 6608SOL     OW31456   0.955   1.554   0.496  0.4113  0.6720  0.1741
 6608SOL    HW131457   0.860   1.556   0.483  0.7104 -0.7575 -2.1822
 6608SOL    HW231458   0.968   1.467   0.458 -1.5495  0.0475  0.9454
 6609SOL     OW31459   4.710   2.913  17.256 -0.0312 -0.2634  1.0194
 6609SOL    HW131460   4.725   2.911  17.161  0.7839  1.8808  1.1142
 6609SOL    HW231461   4.712   2.819  17.272  0.2851 -0.4743 -0.2516
 6610SOL     OW31462   4.241   1.629  12.358  0.1823  0.0022 -0.3893
 6610SOL    HW131463   4.236   1.539  12.389 -0.9102  0.3923  0.5641
 6610SOL    HW231464   4.273   1.659  12.442 -0.1236 -0.2862 -0.1695
 6611SOL     OW31465   0.702   1.205   1.806 -0.2354  0.1595 -0.1341
 6611SOL    HW131466   0.772   1.270   1.797 -0.2190  0.5408  2.8083
 6611SOL    HW231467   0.657   1.203   1.721  1.2603 -0.7928 -0.9163
 6612SOL     OW31468   2.893   2.633   8.129 -0.6733 -0.0335  0.3128
 6612SOL    HW131469   2.897   2.597   8.218  1.4537 -2.6826 -0.8468
 6612SOL    HW231470   2.978   2.598   8.102 -0.5118  1.0627 -0.5939
 6613SOL     OW31471   2.483   2.245   2.985  0.0783 -0.0017 -0.4248
 6613SOL    HW131472   2.560   2.266   2.932  0.1490  1.7358  0.3732
 6613SOL    HW231473   2.442   2.190   2.917  0.8344  2.3024 -2.7371
 6614SOL     OW31474   4.546   3.317   8.475 -0.8276 -0.3639  0.2572
 6614SOL    HW131475   4.486   3.243   8.479 -2.4432  0.8535 -1.2492
 6614SOL    HW231476   4.633   3.280   8.461 -0.1793  1.6453 -1.0349
 6615SOL     OW31477   1.879   0.711   5.558  0.5882  0.2034  0.6776
 6615SOL    HW131478   1.810   0.666   5.608 -0.9298  1.5630 -0.1987
 6615SOL    HW231479   1.935   0.744   5.628  1.2434  1.1982 -0.3138
 6616SOL     OW31480   1.247   2.589   7.239  0.0662 -0.2924  0.0534
 6616SOL    HW131481   1.320   2.639   7.276 -0.9539  1.2212  0.0247
 6616SOL    HW231482   1.163   2.628   7.264  1.0927  2.6567 -1.1669
 6617SOL     OW31483   3.544   3.995  15.011 -0.1454 -0.4765  0.1007
 6617SOL    HW131484   3.534   4.071  14.953 -0.7787  1.5929  2.8605
 6617SOL    HW231485   3.483   4.021  15.081  0.4184  0.0288  0.4090
 6618SOL     OW31486   2.565   1.358   1.175 -0.1242 -0.6116 -0.0601
 6618SOL    HW131487   2.598   1.357   1.085  1.0207  0.0169  0.3577
 6618SOL    HW231488   2.487   1.411   1.157  0.9818  0.4320 -1.7192
 6619SOL     OW31489   2.300   4.032   8.829 -0.4407  0.6307  0.6526
 6619SOL    HW131490   2.283   4.126   8.833  2.6023  1.1561  1.5994
 6619SOL    HW231491   2.362   4.022   8.902 -2.8076  1.6395  2.8159
 6620SOL     OW31492   2.609   3.552   3.047 -0.0447 -0.8916 -0.9165
 6620SOL    HW131493   2.695   3.590   3.029  0.2910 -0.2127  2.0207
 6620SOL    HW231494   2.623   3.493   3.121  0.6120  1.9927  1.2584
 6621SOL     OW31495   4.267   2.031   8.905 -0.0498  0.7566  0.3351
 6621SOL    HW131496   4.284   2.118   8.939 -0.1153  1.0872 -0.4881
 6621SOL    HW231497   4.202   2.054   8.838  0.4320  0.4309 -0.2351
 6622SOL     OW31498   2.881   0.010  16.008  0.8286 -0.6246 -0.7746
 6622SOL    HW131499   2.941   0.017  16.081 -0.0093 -0.5281 -0.0980
 6622SOL    HW231500   2.865   0.099  15.978  1.1443 -0.0867  0.7054
 6623SOL     OW31501   2.579   1.739   6.450 -0.6617  0.6237  0.2395
 6623SOL    HW131502   2.529   1.815   6.421  1.4729  1.9471  0.0311
 6623SOL    HW231503   2.620   1.773   6.529  0.8823 -1.0606  0.1852
 6624SOL     OW31504   0.125   3.366   3.736 -0.0056 -0.0194  0.0222
 6624SOL    HW131505   0.182   3.419   3.680 -1.6974  1.1460 -0.5988
 6624SOL    HW231506   0.178   3.289   3.759  0.5529  0.2574 -0.3168
 6625SOL     OW31507   2.062   4.023   4.599  0.6638  0.0473  1.0205
 6625SOL    HW131508   1.989   4.025   4.537  0.7452  0.5061  0.9418
 6625SOL    HW231509   2.085   3.930   4.590 -0.6206 -0.0499 -1.4280
 6626SOL     OW31510   3.759   4.148   4.003  0.2264 -0.2800 -0.0603
 6626SOL    HW131511   3.768   4.052   3.998 -0.2987 -0.2382 -1.8469
 6626SOL    HW231512   3.814   4.171   4.077  1.4326  0.8607 -1.3096
 6627SOL     OW31513   4.046   3.856  14.755  0.1493 -0.5439  0.0322
 6627SOL    HW131514   4.097   3.836  14.677 -0.6005 -1.5995 -0.2001
 6627SOL    HW231515   4.118   3.859  14.819 -0.0948  2.4413  0.1507
 6628SOL     OW31516   4.340   2.026   6.441  0.3213  0.0091  0.1039
 6628SOL    HW131517   4.410   1.974   6.481  0.6597  0.7228  0.4449
 6628SOL    HW231518   4.386   2.109   6.431 -0.6601  0.5082 -0.2975
 6629SOL     OW31519   2.243   1.239   1.112 -0.2932 -0.4537  0.7744
 6629SOL    HW131520   2.185   1.181   1.064  0.3955 -1.5052  1.2235
 6629SOL    HW231521   2.238   1.322   1.065  1.2856 -0.6094  0.3309
 6630SOL     OW31522   0.662   0.981   5.371  0.6422 -0.1402  0.7417
 6630SOL    HW131523   0.684   0.915   5.305  0.1068  0.5189 -0.0907
 6630SOL    HW231524   0.571   0.962   5.395 -0.4157  2.7380 -1.0212
 6631SOL     OW31525   3.033   1.329  15.617  0.5515  0.0685 -0.2963
 6631SOL    HW131526   3.064   1.325  15.527  0.5742 -0.4410 -0.2654
 6631SOL    HW231527   2.942   1.354  15.601  0.1314  0.0336  2.0055
 6632SOL     OW31528   4.570   1.627   4.341 -0.1423  0.1985 -0.9527
 6632SOL    HW131529   4.560   1.574   4.262  1.6013 -1.9977  0.3066
 6632SOL    HW231530   4.546   1.562   4.407  1.3693  1.7964  1.1429
 6633SOL     OW31531   4.606   1.336   3.790 -0.1107  0.0938  0.3372
 6633SOL    HW131532   4.640   1.285   3.864 -0.1053  0.0939  0.3347
 6633SOL    HW231533   4.673   1.323   3.722  0.0418 -2.8553  1.0434
 6634SOL     OW31534   2.323   2.694   6.649  0.1281  0.6644  0.4684
 6634SOL    HW131535   2.348   2.757   6.582  0.3668 -0.1538 -0.2069
 6634SOL    HW231536   2.408   2.663   6.680 -0.1417 -0.3077  0.2341
 6635SOL     OW31537   0.060   2.977   0.209 -0.3080  0.6598  0.0247
 6635SOL    HW131538   0.044   3.065   0.241 -0.6941  0.9202 -0.8837
 6635SOL    HW231539   4.725   2.968   0.148 -0.9561  0.9146  0.7703
 6636SOL     OW31540   1.669   0.274   5.115 -0.1682  0.1482  0.1041
 6636SOL    HW131541   1.712   0.342   5.166  1.9467 -0.9575 -0.2174
 6636SOL    HW231542   1.599   0.325   5.075  1.2620  0.5984 -1.8160
 6637SOL     OW31543   1.052   0.310   1.426  0.3483  0.4866  0.4537
 6637SOL    HW131544   1.050   0.298   1.521 -3.1136 -0.3721  0.2685
 6637SOL    HW231545   1.039   0.404   1.420  2.0866  0.5179 -2.8657
 6638SOL     OW31546   4.282   1.357   5.107  0.3471  0.0673 -0.7652
 6638SOL    HW131547   4.333   1.301   5.166  0.8998 -0.4781 -1.7767
 6638SOL    HW231548   4.192   1.326   5.118  0.3621  0.0690 -0.6278
 6639SOL     OW31549   2.487   0.715   2.093  0.0027 -0.1742 -0.3418
 6639SOL    HW131550   2.510   0.699   2.002 -1.8439 -1.1962 -0.6383
 6639SOL    HW231551   2.546   0.788   2.110  0.2390 -0.4039 -0.1775
 6640SOL     OW31552   1.590   3.901   8.070  0.0209 -0.5577 -0.2188
 6640SOL    HW131553   1.558   3.816   8.038  0.7561  0.3679 -3.4192
 6640SOL    HW231554   1.522   3.907   8.137  0.3574 -1.0427  0.1627
 6641SOL     OW31555   0.335   4.395   1.455 -0.0967 -0.1462 -0.1408
 6641SOL    HW131556   0.381   4.372   1.536 -3.2587 -1.5018  1.2645
 6641SOL    HW231557   0.246   4.362   1.466  0.5323 -1.7659  0.1141
 6642SOL     OW31558   0.596   1.998  10.568 -0.3335 -0.5229  0.7357
 6642SOL    HW131559   0.577   2.082  10.610 -0.8486 -0.6614  0.7816
 6642SOL    HW231560   0.689   1.990  10.585 -0.6980 -1.7029  2.1770
 6643SOL     OW31561   1.718   2.143   0.037  0.2397 -0.0156 -0.1239
 6643SOL    HW131562   1.761   2.057   0.042  0.6139  0.0551 -2.0715
 6643SOL    HW231563   1.626   2.120   0.045 -0.6132  3.3494 -0.4932
 6644SOL     OW31564   2.885   2.472  17.238  0.6652  0.4654  0.1507
 6644SOL    HW131565   2.833   2.456  17.317 -0.0976  0.4631 -0.3509
 6644SOL    HW231566   2.950   2.529  17.278 -0.0736  2.7663 -1.9476
 6645SOL     OW31567   2.345   0.074   7.596  0.7323 -0.2535 -0.0630
 6645SOL    HW131568   2.349   0.086   7.691  0.3172 -0.1655 -0.0543
 6645SOL    HW231569   2.409   0.142   7.577  0.8262 -0.2263  0.3416
 6646SOL     OW31570   4.666   0.563   3.773 -0.1233  1.0518  0.1529
 6646SOL    HW131571   4.572   0.559   3.793 -0.1978  1.7605 -0.0332
 6646SOL    HW231572   4.693   0.475   3.797  0.9668  1.2533 -0.3375
 6647SOL     OW31573   4.495   2.381   8.912 -0.1904  0.3803 -0.0084
 6647SOL    HW131574   4.478   2.414   8.824  0.6412  0.8994  0.0271
 6647SOL    HW231575   4.588   2.360   8.904 -0.4886 -1.0082  0.1444
 6648SOL     OW31576   2.218   3.166   6.936  0.1345  0.0698  0.1038
 6648SOL    HW131577   2.160   3.217   6.880 -0.2867 -1.4360 -0.8402
 6648SOL    HW231578   2.196   3.211   7.017  0.7769 -0.9696  0.8705
 6649SOL     OW31579   4.216   4.271   5.234  0.2211 -0.6230 -0.1700
 6649SOL    HW131580   4.131   4.234   5.209 -0.2607 -0.1334  0.7404
 6649SOL    HW231581   4.280   4.214   5.191  0.4825  1.7893 -3.0242
 6650SOL     OW31582   0.048   2.128   1.827  0.2880  0.2128  0.8068
 6650SOL    HW131583   0.055   2.192   1.898 -0.6660  0.3164  0.8036
 6650SOL    HW231584   0.110   2.170   1.767  1.3429 -1.7459  0.5354
 6651SOL     OW31585   2.703   3.385   3.237 -0.5531 -0.2868 -0.4729
 6651SOL    HW131586   2.757   3.374   3.315 -1.4611  2.2909  0.5014
 6651SOL    HW231587   2.736   3.306   3.193 -0.3301  1.0129 -2.6120
 6652SOL     OW31588   1.193   3.436  13.468  0.0753  0.0809  0.3431
 6652SOL    HW131589   1.225   3.447  13.558  2.8311 -0.6218 -0.5569
 6652SOL    HW231590   1.275   3.413  13.425  0.1713  0.2472  0.4369
 6653SOL     OW31591   1.150   3.152   9.032 -0.7297 -0.3826  0.1760
 6653SOL    HW131592   1.212   3.181   8.966  1.0021 -0.4128  1.7875
 6653SOL    HW231593   1.127   3.237   9.072 -1.9037 -0.0958 -1.0845
 6654SOL     OW31594   2.941   2.433   4.140  0.2893  0.2833  0.5241
 6654SOL    HW131595   2.965   2.343   4.120 -0.8206  0.9676 -3.7318
 6654SOL    HW231596   2.943   2.480   4.057 -0.7039  0.8923  0.8439
 6655SOL     OW31597   1.545   2.945  14.845  0.2917  0.2510  0.5144
 6655SOL    HW131598   1.548   2.849  14.840 -0.4826  0.3057 -0.8629
 6655SOL    HW231599   1.551   2.964  14.752 -0.7945 -0.7365  0.2453
 6656SOL     OW31600   0.289   0.620   3.298 -0.3892  0.4392  0.0421
 6656SOL    HW131601   0.373   0.628   3.344 -1.2443  0.7589  1.5366
 6656SOL    HW231602   0.281   0.528   3.273 -1.4201  0.5080  0.1295
 6657SOL     OW31603   2.313   3.515   2.101 -0.9914  0.5873 -0.3011
 6657SOL    HW131604   2.267   3.558   2.174  0.1712  0.1345  0.6984
 6657SOL    HW231605   2.248   3.445   2.087 -2.0814  1.2451  1.4686
 6658SOL     OW31606   0.520   4.471  13.509 -0.1980 -0.5986  0.0654
 6658SOL    HW131607   0.521   4.431  13.422  1.7878 -1.2927  0.4113
 6658SOL    HW231608   0.494   4.392  13.558 -0.3821  0.1361  1.1410
 6659SOL     OW31609   1.053   4.001   8.519  0.1379  0.6911  0.1101
 6659SOL    HW131610   1.055   3.905   8.520 -3.0542  0.6571  1.3947
 6659SOL    HW231611   0.988   4.016   8.451 -1.2446  0.2779  1.3389
 6660SOL     OW31612   3.517   0.178   0.828 -0.7312  0.0139 -0.2985
 6660SOL    HW131613   3.455   0.242   0.794 -0.3060  0.6871  0.2010
 6660SOL    HW231614   3.501   0.097   0.779 -1.2669 -1.3002  2.0481
 6661SOL     OW31615   1.753   3.016   4.845  0.2226 -0.2943 -0.2376
 6661SOL    HW131616   1.747   3.085   4.910 -4.0499  1.9261 -2.9485
 6661SOL    HW231617   1.843   2.986   4.853  0.5598  1.2883  1.9280
 6662SOL     OW31618   1.805   1.501  10.670 -1.2547 -0.0487  0.3956
 6662SOL    HW131619   1.786   1.594  10.678  2.0387  0.5255  1.4456
 6662SOL    HW231620   1.735   1.452  10.714 -2.1048  2.0001  1.3149
 6663SOL     OW31621   3.772   0.736   3.434 -0.1411 -0.4320 -0.1725
 6663SOL    HW131622   3.858   0.770   3.411  0.5369  0.7176  4.0192
 6663SOL    HW231623   3.721   0.816   3.425 -0.3535 -0.8586 -2.7121
 6664SOL     OW31624   0.017   4.196   1.173 -0.0928  0.3677  0.4317
 6664SOL    HW131625   0.012   4.236   1.260 -0.5703  0.8165  0.2037
 6664SOL    HW231626   0.112   4.187   1.166  0.2149  1.2855  3.3544
 6665SOL     OW31627   3.638   0.951   3.386  0.5042  0.3945  0.1630
 6665SOL    HW131628   3.664   1.044   3.383 -2.7901  1.1863 -2.8917
 6665SOL    HW231629   3.647   0.924   3.295 -0.8508  1.8977 -0.4083
 6666SOL     OW31630   0.494   3.469   6.500  0.5723 -0.0634 -0.2243
 6666SOL    HW131631   0.581   3.475   6.462  0.8657  2.7947  0.8744
 6666SOL    HW231632   0.447   3.520   6.435 -0.9362 -0.2747  0.6933
 6667SOL     OW31633   2.380   2.150   8.028  0.0467 -0.2789  0.0591
 6667SOL    HW131634   2.405   2.231   8.072 -0.4697 -0.0367 -0.0967
 6667SOL    HW231635   2.412   2.163   7.938  1.4927 -0.6153  0.5238
 6668SOL     OW31636   3.924   0.988   5.211  0.4344 -0.3984  0.6722
 6668SOL    HW131637   3.982   0.977   5.286 -1.3085 -0.6042  1.9862
 6668SOL    HW231638   3.998   0.980   5.150 -0.6676 -1.3985 -0.5306
 6669SOL     OW31639   3.734   3.601   2.200 -0.0471  0.0258 -0.1474
 6669SOL    HW131640   3.666   3.623   2.264 -1.7756  0.5866 -2.1816
 6669SOL    HW231641   3.692   3.612   2.115  0.4272  3.3853  0.0525
 6670SOL     OW31642   3.437   4.530   5.324 -0.5728 -0.0367 -0.0324
 6670SOL    HW131643   3.448   4.483   5.242 -0.9538  0.5504 -0.4193
 6670SOL    HW231644   3.528   4.545   5.349 -0.2522  0.8175 -1.7339
 6671SOL     OW31645   0.440   2.704   5.819  0.3002 -0.1924 -1.0524
 6671SOL    HW131646   0.475   2.782   5.862 -2.3446 -0.0628  0.8877
 6671SOL    HW231647   0.419   2.650   5.895  0.7565  0.5792 -0.3897
 6672SOL     OW31648   2.680   3.231  14.833 -0.3792  0.5301  0.4869
 6672SOL    HW131649   2.761   3.280  14.825 -0.4758  0.4900 -0.7170
 6672SOL    HW231650   2.693   3.166  14.903  2.5852  2.2727  1.5357
 6673SOL     OW31651   0.609   1.054   2.506 -0.2764 -0.1402 -0.1961
 6673SOL    HW131652   0.597   1.121   2.438 -0.7649  0.6835  0.7045
 6673SOL    HW231653   0.604   0.976   2.451  2.8218 -0.0577 -0.6500
 6674SOL     OW31654   1.549   1.874  17.641  0.3942 -0.2314 -0.5513
 6674SOL    HW131655   1.573   1.917  17.559 -2.3402  2.6806  0.2142
 6674SOL    HW231656   1.606   1.797  17.634  2.0214  0.9420 -0.4158
 6675SOL     OW31657   0.929   4.554   5.712  0.4790  0.0179  0.0621
 6675SOL    HW131658   0.917   4.459   5.716 -0.6587  0.1916  0.7392
 6675SOL    HW231659   0.998   4.556   5.778 -0.1612 -0.0855  0.7433
 6676SOL     OW31660   1.098   4.468  16.241 -0.0469 -0.1451  0.5909
 6676SOL    HW131661   1.035   4.527  16.198 -0.0715 -1.9623 -1.8194
 6676SOL    HW231662   1.111   4.520  16.321  0.7620 -0.0815  0.4141
 6677SOL     OW31663   2.673   1.623   5.259  0.5441  0.3751 -0.2758
 6677SOL    HW131664   2.765   1.638   5.241  0.8872 -0.5052  0.7226
 6677SOL    HW231665   2.634   1.701   5.220  0.3552  1.7855  2.7625
 6678SOL     OW31666   1.164   3.843   7.954 -0.1343 -0.2994 -0.2959
 6678SOL    HW131667   1.102   3.894   8.005 -0.7868  0.6886 -2.0806
 6678SOL    HW231668   1.215   3.797   8.021  0.3670  1.1680  0.3236
 6679SOL     OW31669   0.658   2.625   6.243 -0.2816  0.1161 -0.2144
 6679SOL    HW131670   0.694   2.543   6.211  2.2931  1.5860 -1.1225
 6679SOL    HW231671   0.646   2.597   6.334  1.7909  2.1587  0.6903
 6680SOL     OW31672   2.722   0.575  17.439  0.3703  0.5284  0.0094
 6680SOL    HW131673   2.699   0.666  17.460  2.5712  1.5515 -1.9247
 6680SOL    HW231674   2.730   0.535  17.525  0.0816  1.4864  0.4871
 6681SOL     OW31675   2.699   1.609   9.691 -0.2336 -0.1021  0.0306
 6681SOL    HW131676   2.633   1.550   9.655  1.8862 -3.4595  1.7460
 6681SOL    HW231677   2.710   1.684   9.632 -0.7734 -1.0691 -1.3052
 6682SOL     OW31678   2.720   4.660  12.901  0.1599 -0.4763 -0.4813
 6682SOL    HW131679   2.758   4.737  12.858  2.1952 -0.1683  1.8715
 6682SOL    HW231680   2.755   4.583  12.857 -1.7660 -0.7554 -1.5183
 6683SOL     OW31681   2.946   1.316  17.718  0.1658  0.5082 -0.3821
 6683SOL    HW131682   2.997   1.383   0.015 -0.1222  0.6285 -0.2373
 6683SOL    HW231683   2.877   1.367  17.675 -1.4858  0.2464  1.9526
 6684SOL     OW31684   1.575   2.661  11.556  0.0024  0.0376  0.3184
 6684SOL    HW131685   1.571   2.651  11.461  1.9222  1.6855  0.0609
 6684SOL    HW231686   1.653   2.609  11.578  0.3940  0.0840 -1.0061
 6685SOL     OW31687   4.381   0.473   8.025  0.0468  0.3107  0.4180
 6685SOL    HW131688   4.379   0.385   7.987  2.2256  1.1897 -1.6604
 6685SOL    HW231689   4.474   0.466   8.047  0.1056 -0.1208  0.0398
 6686SOL     OW31690   1.536   4.141   7.933  0.2266  0.8481 -0.4836
 6686SOL    HW131691   1.451   4.119   7.971  0.8175  2.1747  1.5949
 6686SOL    HW231692   1.569   4.054   7.911 -0.0821  0.1400  1.9176
 6687SOL     OW31693   4.003   4.432   3.197  0.2150  0.4903  0.9880
 6687SOL    HW131694   3.967   4.349   3.166  3.7877 -0.1453 -1.4742
 6687SOL    HW231695   3.937   4.494   3.166 -0.6799 -1.2650 -0.5776
 6688SOL     OW31696   4.418   0.340   6.409 -0.4500 -0.2342 -0.0362
 6688SOL    HW131697   4.434   0.404   6.478 -0.1887 -2.3615  1.8693
 6688SOL    HW231698   4.494   0.285   6.429 -0.0226 -0.6188 -2.6507
 6689SOL     OW31699   1.715   3.255  15.945  0.4732 -0.0679 -0.2495
 6689SOL    HW131700   1.668   3.325  15.900  1.2270  0.5362 -0.0938
 6689SOL    HW231701   1.792   3.303  15.974 -0.2173 -2.6284  5.8422
 6690SOL     OW31702   2.399   0.631   7.350  0.0617  0.3091 -0.2901
 6690SOL    HW131703   2.441   0.659   7.269 -0.4558  0.9654 -0.3213
 6690SOL    HW231704   2.381   0.537   7.338  1.7169 -0.2406  1.3699
 6691SOL     OW31705   1.470   3.311   5.604 -0.2744 -0.0859  0.8884
 6691SOL    HW131706   1.375   3.311   5.597 -0.3319  1.2562  1.8779
 6691SOL    HW231707   1.500   3.224   5.578  0.1230  0.1464  0.5678
 6692SOL     OW31708   2.677   3.950   1.456 -0.1785 -0.0225 -0.0248
 6692SOL    HW131709   2.749   3.968   1.516  0.1398 -0.2639 -0.3345
 6692SOL    HW231710   2.715   3.900   1.384  0.4111  1.5042 -0.7774
 6693SOL     OW31711   0.796   3.463   8.280 -0.2005  0.0314  0.6582
 6693SOL    HW131712   0.757   3.377   8.293 -2.4223  0.7799 -1.0396
 6693SOL    HW231713   0.882   3.426   8.260 -1.0731 -1.8142  0.3252
 6694SOL     OW31714   4.334   0.788   3.855 -0.2240  0.2694  0.7109
 6694SOL    HW131715   4.424   0.810   3.831 -0.2745  1.5038  1.6259
 6694SOL    HW231716   4.336   0.766   3.948  0.0119 -0.1849  0.5961
 6695SOL     OW31717   0.054   4.706   6.548 -0.3839  0.0403  0.3362
 6695SOL    HW131718   0.004   4.699   6.467  1.7218  0.0905 -0.9774
 6695SOL    HW231719   0.094   4.619   6.557  0.8504  0.4293 -1.3050
 6696SOL     OW31720   3.108   4.478   2.405 -0.3070  0.1494  0.1433
 6696SOL    HW131721   3.159   4.456   2.482 -1.0052 -1.5355  0.1293
 6696SOL    HW231722   3.096   4.392   2.365 -0.6516 -0.0629  0.6995
 6697SOL     OW31723   2.757   1.019   8.554  0.2397  0.1246  0.0831
 6697SOL    HW131724   2.767   0.997   8.646  0.7745 -1.4123 -0.3347
 6697SOL    HW231725   2.777   0.935   8.511  0.2827 -0.2184  0.7825
 6698SOL     OW31726   4.246   0.763   3.542 -0.0940 -0.2370  0.0790
 6698SOL    HW131727   4.233   0.737   3.634  0.7742 -1.4875 -0.1597
 6698SOL    HW231728   4.334   0.798   3.548  0.9596 -2.4089 -3.2004
 6699SOL     OW31729   3.225   2.698   3.666  0.1301  0.5476 -0.6766
 6699SOL    HW131730   3.312   2.703   3.627  1.0865 -0.7309  1.3080
 6699SOL    HW231731   3.180   2.771   3.624 -2.4301 -1.2001 -1.0433
 6700SOL     OW31732   1.460   1.631   2.824 -0.0709  0.3958  0.1160
 6700SOL    HW131733   1.434   1.547   2.863  0.5957 -0.0291 -0.3558
 6700SOL    HW231734   1.483   1.607   2.734  1.2577  1.8831  0.0592
 6701SOL     OW31735   1.818   0.582  10.088  0.6121 -0.3557 -0.7395
 6701SOL    HW131736   1.846   0.512  10.028  0.5653  0.1763 -1.3790
 6701SOL    HW231737   1.877   0.651  10.058 -1.1231  1.6152  0.3824
 6702SOL     OW31738   2.211   1.227   0.434  0.2324  0.3027 -0.1597
 6702SOL    HW131739   2.248   1.139   0.436 -1.2242 -0.2991  0.7353
 6702SOL    HW231740   2.209   1.251   0.342  3.2039  2.0330  0.2295
 6703SOL     OW31741   1.268   0.328  10.559 -0.2177 -0.5554  0.0340
 6703SOL    HW131742   1.206   0.337  10.632 -1.4407 -0.3746 -1.0115
 6703SOL    HW231743   1.348   0.360  10.601 -0.3139 -0.4014  0.0990
 6704SOL     OW31744   4.271   3.544   5.102  0.0792  0.1399  0.1845
 6704SOL    HW131745   4.224   3.503   5.029 -0.0867 -0.0288  0.3856
 6704SOL    HW231746   4.260   3.479   5.172 -0.0561 -3.4226 -3.1234
 6705SOL     OW31747   4.661   1.534   8.339  0.3882  0.7622 -0.1142
 6705SOL    HW131748   4.723   1.462   8.354 -0.5759  0.0465  0.4168
 6705SOL    HW231749   4.724   1.576   8.280  0.2618  0.8927 -0.1546
 6706SOL     OW31750   2.221   2.112   4.233 -0.3269  0.2395  0.9215
 6706SOL    HW131751   2.277   2.188   4.243 -1.8413  1.3971  0.6107
 6706SOL    HW231752   2.160   2.131   4.305 -1.0396  2.0793 -0.1713
 6707SOL     OW31753   3.658   2.334   8.161 -0.2204 -0.0491  0.1055
 6707SOL    HW131754   3.604   2.258   8.181  0.4996 -0.5763  0.0306
 6707SOL    HW231755   3.598   2.407   8.178 -0.0900  0.3465 -1.1726
 6708SOL     OW31756   4.592   2.315  11.643 -0.2015  0.5287  0.3654
 6708SOL    HW131757   4.594   2.340  11.550 -0.1472  1.6013  0.6542
 6708SOL    HW231758   4.675   2.270  11.659 -1.2142 -1.5348 -0.1077
 6709SOL     OW31759   3.865   1.691  17.010  0.1171 -0.1462  0.1451
 6709SOL    HW131760   3.839   1.710  17.101 -0.4957  1.6645 -0.4022
 6709SOL    HW231761   3.934   1.757  17.006  0.6908 -0.7139  0.7110
 6710SOL     OW31762   2.235   1.819  17.711 -0.3716 -0.1147  0.1060
 6710SOL    HW131763   2.142   1.801  17.699 -0.3382 -0.5129  0.4557
 6710SOL    HW231764   2.232   1.883   0.032  1.7575  1.9639 -1.6488
 6711SOL     OW31765   3.647   4.277   7.089  0.0051 -0.1379 -0.0234
 6711SOL    HW131766   3.680   4.237   7.009  0.6412 -1.3071  0.8284
 6711SOL    HW231767   3.680   4.225   7.162  2.6848 -2.2416 -2.7193
 6712SOL     OW31768   1.753   2.027   0.959  0.1414 -0.3943 -0.2554
 6712SOL    HW131769   1.676   1.991   0.915 -1.4818  1.0059  1.4322
 6712SOL    HW231770   1.810   2.031   0.882  2.4471 -0.0919  1.4673
 6713SOL     OW31771   0.958   0.418   2.038  0.0601 -0.0365  0.2197
 6713SOL    HW131772   1.032   0.357   2.037  1.9834  2.2574  1.8446
 6713SOL    HW231773   0.935   0.397   2.129  0.6782  1.5712  0.7368
 6714SOL     OW31774   3.730   0.579   4.261  0.1963  0.2131 -0.2109
 6714SOL    HW131775   3.766   0.629   4.188 -0.4933  0.2485 -0.5275
 6714SOL    HW231776   3.690   0.506   4.213 -2.3587  2.2857 -1.2093
 6715SOL     OW31777   1.745   4.167  13.818 -0.1956  0.2641  0.7577
 6715SOL    HW131778   1.671   4.228  13.819  1.4970  2.3554 -0.9814
 6715SOL    HW231779   1.734   4.116  13.738 -0.2761  0.3981  0.6833
 6716SOL     OW31780   2.069   2.756   7.046 -0.3385 -0.1396 -0.5778
 6716SOL    HW131781   2.084   2.811   6.969  0.0450 -1.9004 -1.7575
 6716SOL    HW231782   2.060   2.673   6.999 -2.3463  0.0527 -0.5286
 6717SOL     OW31783   3.246   2.383   9.811 -0.4362  0.0006  0.1329
 6717SOL    HW131784   3.322   2.331   9.836 -0.3359 -0.6266 -1.4351
 6717SOL    HW231785   3.287   2.461   9.774 -0.6386  0.2713  0.4910
 6718SOL     OW31786   1.832   0.922  16.385 -0.1882  0.6716  0.0382
 6718SOL    HW131787   1.769   0.855  16.415 -0.2005  0.4875 -0.4102
 6718SOL    HW231788   1.799   0.957  16.303  2.0447  0.4247 -0.9637
 6719SOL     OW31789   0.455   1.365   7.110 -0.5352 -0.4039 -0.2182
 6719SOL    HW131790   0.377   1.362   7.165  0.0377 -1.0009  0.5688
 6719SOL    HW231791   0.523   1.349   7.175  1.8191 -0.0484 -2.5954
 6720SOL     OW31792   4.515   1.981  14.985 -0.1552 -0.1027 -0.0950
 6720SOL    HW131793   4.520   2.003  15.078 -0.5304 -2.2744  0.4479
 6720SOL    HW231794   4.604   1.981  14.950 -0.6212  0.4278 -1.2652
 6721SOL     OW31795   1.717   1.144   2.086  0.2812 -0.2909  0.0951
 6721SOL    HW131796   1.625   1.168   2.078  0.5206  0.1985 -1.2604
 6721SOL    HW231797   1.714   1.052   2.059  0.5835 -0.4761  0.6901
 6722SOL     OW31798   3.598   3.856   7.961  0.3966  0.1286 -0.5438
 6722SOL    HW131799   3.541   3.906   7.901  0.8785 -1.0152 -1.9607
 6722SOL    HW231800   3.624   3.784   7.904 -0.0574 -0.7364  0.3439
 6723SOL     OW31801   2.107   2.086   2.201  0.3871  0.1227  0.0494
 6723SOL    HW131802   2.029   2.124   2.242  1.0127  0.3340  1.0249
 6723SOL    HW231803   2.124   2.126   2.116 -1.1666 -0.0433 -0.3479
 6724SOL     OW31804   4.448   1.731   7.010 -0.2623 -0.0950  0.2497
 6724SOL    HW131805   4.510   1.694   7.073 -1.7876 -0.7507  1.3756
 6724SOL    HW231806   4.413   1.650   6.973  0.4485 -0.2223 -0.1451
 6725SOL     OW31807   3.523   2.740   7.485  0.0179  0.2054 -0.5537
 6725SOL    HW131808   3.567   2.655   7.493  0.4548  0.6510  1.7278
 6725SOL    HW231809   3.492   2.737   7.394 -0.9873 -3.5320 -0.0973
 6726SOL     OW31810   3.307   3.059   5.547  0.2675  0.2740 -0.1870
 6726SOL    HW131811   3.247   3.115   5.498  2.6996  2.4831 -0.6694
 6726SOL    HW231812   3.256   2.979   5.557  0.5718 -0.3079 -3.3165
 6727SOL     OW31813   1.234   2.072   1.962  0.4330 -0.1387 -0.2665
 6727SOL    HW131814   1.261   2.148   2.014  1.1012 -0.0952 -0.6697
 6727SOL    HW231815   1.211   2.125   1.885  1.9759  2.4449  1.0256
 6728SOL     OW31816   0.918   0.606   7.195 -0.2281 -0.1182  0.0050
 6728SOL    HW131817   0.857   0.647   7.134  1.4307  0.2095 -1.4109
 6728SOL    HW231818   0.866   0.533   7.229 -0.1762  1.1345  2.7762
 6729SOL     OW31819   4.069   2.031  11.724 -0.2418  0.2516 -0.2616
 6729SOL    HW131820   4.044   2.087  11.798 -1.0115 -1.7489  1.0036
 6729SOL    HW231821   3.984   1.995  11.698 -0.5788  0.0698  1.0729
 6730SOL     OW31822   0.399   3.635   6.278 -0.1734  0.6267 -0.0246
 6730SOL    HW131823   0.474   3.694   6.282  0.2951 -0.0551  1.2066
 6730SOL    HW231824   0.404   3.595   6.191  3.1382  1.0033 -0.0149
 6731SOL     OW31825   0.840   2.262   8.297  0.0657 -0.5180  0.1482
 6731SOL    HW131826   0.917   2.295   8.344 -0.1807  1.1891 -0.6202
 6731SOL    HW231827   0.777   2.325   8.333  0.8504  0.1759  0.3080
 6732SOL     OW31828   4.631   0.384   2.817  0.7246 -0.4680 -0.0404
 6732SOL    HW131829   4.687   0.413   2.889  0.2853  1.9434 -0.6579
 6732SOL    HW231830   4.596   0.305   2.857 -0.1355 -0.5545 -0.9363
 6733SOL     OW31831   0.024   1.297   1.098  0.4184  0.7775 -0.3266
 6733SOL    HW131832   0.039   1.218   1.047  0.0465 -0.1728  1.0221
 6733SOL    HW231833   0.029   1.372   1.039  2.3774  1.8977  1.2513
 6734SOL     OW31834   3.441   0.393   9.960 -0.4485  0.3893 -0.5211
 6734SOL    HW131835   3.389   0.471   9.938  2.0698  2.4897  0.9787
 6734SOL    HW231836   3.366   0.337   9.980  0.2545 -1.0452 -1.9348
 6735SOL     OW31837   4.025   2.274  17.544 -0.0899 -0.2232 -0.2316
 6735SOL    HW131838   4.015   2.215  17.618 -0.9549 -1.2033 -1.1246
 6735SOL    HW231839   3.965   2.245  17.475 -1.3414 -0.9118  1.1516
 6736SOL     OW31840   3.135   1.550  11.276 -0.3522  0.6653 -0.4318
 6736SOL    HW131841   3.202   1.488  11.305 -0.5953  0.2313 -0.7984
 6736SOL    HW231842   3.183   1.615  11.225 -1.3158  0.7559 -1.2267
 6737SOL     OW31843   0.780   4.071  15.257  0.0837  0.3460  0.5486
 6737SOL    HW131844   0.735   4.022  15.326  1.5896 -0.9961  0.5658
 6737SOL    HW231845   0.739   4.156  15.273  0.3162  0.3097  1.3716
 6738SOL     OW31846   0.821   4.061   4.573 -0.2648 -0.1336 -0.1938
 6738SOL    HW131847   0.809   4.003   4.649  1.9987  1.6407  1.5168
 6738SOL    HW231848   0.727   4.079   4.561 -0.6897 -1.1383  1.5542
 6739SOL     OW31849   2.592   1.667   6.132  0.3703  0.0179 -0.1522
 6739SOL    HW131850   2.638   1.751   6.139 -0.9981  0.5995  1.8841
 6739SOL    HW231851   2.511   1.695   6.089  1.1785  1.2257 -0.9088
 6740SOL     OW31852   1.460   1.103   1.554  0.2184  0.1692  0.1990
 6740SOL    HW131853   1.442   1.010   1.538 -1.1442  0.6235 -0.9486
 6740SOL    HW231854   1.471   1.132   1.464  0.3542  0.3656  0.2784
 6741SOL     OW31855   1.198   1.801  10.839  0.6158  0.1400 -0.4317
 6741SOL    HW131856   1.148   1.798  10.921  0.9933  1.9841 -0.1226
 6741SOL    HW231857   1.148   1.747  10.779 -1.7631  1.8146  0.0117
 6742SOL     OW31858   0.484   1.121   4.772  0.1686  0.3147 -0.2167
 6742SOL    HW131859   0.571   1.126   4.812  0.6441  0.1399 -1.2205
 6742SOL    HW231860   0.425   1.176   4.825  0.0627  0.7925 -0.8236
 6743SOL     OW31861   4.570   1.107  15.907 -0.0729 -0.5270  0.1297
 6743SOL    HW131862   4.663   1.122  15.894  0.1123 -1.5106  0.3142
 6743SOL    HW231863   4.574   1.069  15.995 -4.4533 -1.4373 -0.0775
 6744SOL     OW31864   4.561   1.679   5.256  0.0329  0.5049  0.2085
 6744SOL    HW131865   4.534   1.659   5.166  1.1069 -0.0185  0.0010
 6744SOL    HW231866   4.491   1.630   5.298  0.7680 -0.5333  0.2063
 6745SOL     OW31867   3.597   0.522   6.645  0.0743 -0.5547 -0.0664
 6745SOL    HW131868   3.505   0.543   6.627 -0.2527 -0.7118  1.4522
 6745SOL    HW231869   3.599   0.444   6.590 -0.2907 -0.2739 -0.4859
 6746SOL     OW31870   2.330   2.954   6.365  0.9134  0.2400 -0.0554
 6746SOL    HW131871   2.360   2.971   6.455 -3.0147  1.4571  1.0418
 6746SOL    HW231872   2.281   2.873   6.375  0.3554  0.5463 -0.3423
 6747SOL     OW31873   1.954   4.157   0.222 -0.5278 -0.5489 -0.7503
 6747SOL    HW131874   1.978   4.128   0.134 -1.3605  0.1386 -1.2049
 6747SOL    HW231875   1.888   4.093   0.248 -0.3981  0.5720  2.4464
 6748SOL     OW31876   0.974   3.366  12.136 -0.1656 -0.3988 -0.6618
 6748SOL    HW131877   1.017   3.322  12.210 -0.5018  2.5130  1.2285
 6748SOL    HW231878   1.044   3.379  12.071  0.3929  0.0878  0.0405
 6749SOL     OW31879   2.013   3.037   2.851 -0.1436  0.2948 -0.0033
 6749SOL    HW131880   2.064   3.107   2.811  0.8038 -1.4415 -1.8773
 6749SOL    HW231881   1.926   3.077   2.850  1.3953  3.6650  2.3444
 6750SOL     OW31882   4.186   3.343  12.883  0.0227  0.4412  1.0521
 6750SOL    HW131883   4.254   3.285  12.850 -1.0449 -0.1483 -0.0963
 6750SOL    HW231884   4.227   3.392  12.955  0.3897 -1.3628  2.0754
 6751SOL     OW31885   2.200   0.438   1.356 -0.0625  0.0784  0.1500
 6751SOL    HW131886   2.259   0.505   1.320  1.0403 -1.8283 -1.5716
 6751SOL    HW231887   2.263   0.369   1.373  1.5914  1.6125  0.3084
 6752SOL     OW31888   3.467   2.721  10.625 -0.0690  0.1793 -0.0539
 6752SOL    HW131889   3.536   2.695  10.686 -0.4813 -0.5472  0.0953
 6752SOL    HW231890   3.498   2.804  10.590 -1.6438 -0.4967 -3.0702
 6753SOL     OW31891   0.074   4.337  15.919  0.0287  0.0702 -0.2268
 6753SOL    HW131892   0.025   4.419  15.913  0.3911  0.2517 -0.7121
 6753SOL    HW231893   0.011   4.282  15.872 -0.1271  1.1724 -1.3193
 6754SOL     OW31894   2.603   4.480   1.983  0.5581 -0.5501 -0.4624
 6754SOL    HW131895   2.674   4.417   1.972  0.7506 -0.1826 -1.2789
 6754SOL    HW231896   2.558   4.427   2.049  1.5797 -1.4800 -0.5084
 6755SOL     OW31897   3.053   0.797   6.529 -0.3853  0.4717  0.1600
 6755SOL    HW131898   2.963   0.830   6.540  0.1843  1.7213  1.0443
 6755SOL    HW231899   3.042   0.705   6.504 -0.0095  0.7574 -1.0128
 6756SOL     OW31900   4.086   2.449  12.554  0.0236 -1.0912 -0.4672
 6756SOL    HW131901   4.054   2.503  12.482 -1.6191  0.5287  1.4471
 6756SOL    HW231902   4.055   2.363  12.526 -1.0546 -0.9295  0.2377
 6757SOL     OW31903   0.008   3.517   2.529  0.6298  0.8460 -0.0328
 6757SOL    HW131904   4.663   3.483   2.494 -0.1786  1.3216  1.3889
 6757SOL    HW231905   0.064   3.480   2.461  2.0352  0.1992  1.4753
 6758SOL     OW31906   0.709   0.731   2.200 -0.1403  0.2888 -0.0140
 6758SOL    HW131907   0.711   0.780   2.117 -2.1145  1.3563  0.5677
 6758SOL    HW231908   0.640   0.778   2.246 -1.1208 -1.5889  0.4257
 6759SOL     OW31909   2.556   3.215   7.901  0.0147 -0.1174  0.7069
 6759SOL    HW131910   2.557   3.206   7.996  1.1165 -1.9238  0.5145
 6759SOL    HW231911   2.476   3.262   7.876 -0.8533  0.1803  4.0449
 6760SOL     OW31912   2.767   0.719   3.770  0.3491  0.2973  0.2391
 6760SOL    HW131913   2.719   0.797   3.742  0.1799  0.4207  0.8820
 6760SOL    HW231914   2.732   0.701   3.857 -0.4569  0.3995 -0.0674
 6761SOL     OW31915   1.593   2.152   3.045 -0.7075 -0.1413 -0.3015
 6761SOL    HW131916   1.595   2.099   2.965 -0.4332  0.2310 -0.5386
 6761SOL    HW231917   1.552   2.079   3.092  0.8793 -0.7178  0.1921
 6762SOL     OW31918   4.198   3.887  14.978 -0.4275 -0.0911 -0.1057
 6762SOL    HW131919   4.261   3.955  15.001  0.7761 -0.2832 -2.8050
 6762SOL    HW231920   4.161   3.872  15.065  0.2611 -1.1243  0.0173
 6763SOL     OW31921   3.977   2.571   8.729 -0.4335 -0.3668  0.0411
 6763SOL    HW131922   3.902   2.630   8.717 -1.3630 -1.8116 -1.3293
 6763SOL    HW231923   4.040   2.620   8.781  0.2981 -1.0250 -0.2326
 6764SOL     OW31924   0.268   1.171   4.966  0.2225 -0.2334  0.1590
 6764SOL    HW131925   0.210   1.099   4.945  0.2632 -0.4202  0.6909
 6764SOL    HW231926   0.309   1.133   5.044  0.4974  1.0594  0.6441
 6765SOL     OW31927   0.090   1.452   5.873  0.3446  0.7317  0.5748
 6765SOL    HW131928   0.077   1.545   5.853  1.3878  0.4906 -1.1682
 6765SOL    HW231929   0.170   1.426   5.827  0.2955  1.2193  0.2142
 6766SOL     OW31930   0.746   1.106   8.822  0.2486 -0.6178  0.7459
 6766SOL    HW131931   0.691   1.127   8.897 -2.1895 -1.5472 -0.7603
 6766SOL    HW231932   0.803   1.183   8.829 -0.0942 -0.4321  1.4452
 6767SOL     OW31933   0.017   3.447   1.174  0.3157  0.2714 -0.2907
 6767SOL    HW131934   4.701   3.380   1.132  0.6504 -0.1234 -0.0933
 6767SOL    HW231935   0.022   3.510   1.103 -0.0831 -1.3388 -1.7507
 6768SOL     OW31936   3.496   1.172   0.603  0.3291  0.0381  0.8480
 6768SOL    HW131937   3.582   1.206   0.580 -0.2093  1.0515  0.3629
 6768SOL    HW231938   3.500   1.078   0.583  0.0977 -0.2706  2.2299
 6769SOL     OW31939   4.465   1.168  12.172  0.7839 -0.2042  0.1418
 6769SOL    HW131940   4.547   1.145  12.215  0.8708 -1.3516 -0.6424
 6769SOL    HW231941   4.476   1.141  12.081  2.2893  3.1618 -0.6701
 6770SOL     OW31942   4.336   1.635   6.119 -0.1364  0.1653 -0.5661
 6770SOL    HW131943   4.264   1.654   6.059 -0.9885 -1.2738 -0.0121
 6770SOL    HW231944   4.346   1.725   6.148  0.5244  0.0974 -0.5833
 6771SOL     OW31945   1.090   3.885  16.294 -0.7379 -1.1079  0.2651
 6771SOL    HW131946   1.099   3.907  16.387  0.8539  0.9446 -0.3685
 6771SOL    HW231947   1.177   3.850  16.275 -0.9079 -0.6101 -1.3940
 6772SOL     OW31948   1.653   3.892   5.241 -0.4319 -0.1021 -0.4213
 6772SOL    HW131949   1.562   3.907   5.266 -0.5167 -1.1394 -0.1138
 6772SOL    HW231950   1.695   3.972   5.274  0.6582 -0.6183 -0.5789
 6773SOL     OW31951   4.231   0.236  10.059  0.2388  0.4577  0.1411
 6773SOL    HW131952   4.200   0.160  10.106  1.7234 -0.1315  0.1870
 6773SOL    HW231953   4.156   0.242  10.000  0.9359 -1.2301 -0.9142
 6774SOL     OW31954   2.863   1.970   6.770 -0.4134  0.0960  0.2253
 6774SOL    HW131955   2.822   2.056   6.780  0.5153  0.8229 -2.0734
 6774SOL    HW231956   2.819   1.919   6.702 -1.1534  1.4220 -0.3060
 6775SOL     OW31957   2.113   2.341   6.495  0.5248 -0.5154 -0.2991
 6775SOL    HW131958   2.189   2.377   6.449 -0.0875  0.1697 -0.7679
 6775SOL    HW231959   2.101   2.417   6.552  2.1905 -0.8612  0.5321
 6776SOL     OW31960   1.968   1.810   0.302  0.6424  0.4442  0.5814
 6776SOL    HW131961   2.024   1.756   0.359 -1.6162 -0.0150  2.3759
 6776SOL    HW231962   2.018   1.887   0.275 -1.0306  1.2034 -0.3047
 6777SOL     OW31963   4.611   0.508   7.768  1.0817 -0.0764 -0.2991
 6777SOL    HW131964   4.549   0.524   7.839  3.7118 -0.5018  2.1185
 6777SOL    HW231965   4.649   0.595   7.764  0.9441 -0.1050 -2.0636
 6778SOL     OW31966   3.226   1.798   4.808 -0.0622 -0.0586 -0.1224
 6778SOL    HW131967   3.149   1.853   4.791  1.3200  1.4760 -1.3773
 6778SOL    HW231968   3.294   1.820   4.745 -1.4162 -0.6479 -1.7707
 6779SOL     OW31969   3.321   1.843   8.101 -0.4960  0.0259 -0.3074
 6779SOL    HW131970   3.331   1.812   8.192  1.0895  0.1563 -0.4464
 6779SOL    HW231971   3.297   1.763   8.053  3.9091 -1.5487  0.0715
 6780SOL     OW31972   3.683   0.586   2.858  0.2080 -0.2318  0.1333
 6780SOL    HW131973   3.611   0.627   2.810  0.9485 -1.5763 -2.1136
 6780SOL    HW231974   3.752   0.651   2.841 -0.5386  0.1192 -1.5799
 6781SOL     OW31975   4.438   1.391   7.859  0.2701  0.0479 -0.6892
 6781SOL    HW131976   4.509   1.384   7.922 -2.6004 -0.7546  2.4761
 6781SOL    HW231977   4.465   1.471   7.814  0.5455 -0.2506 -1.0562
 6782SOL     OW31978   1.302   3.171   6.737  0.2335 -0.2153 -0.1928
 6782SOL    HW131979   1.370   3.193   6.673 -1.4729  0.0805 -1.8862
 6782SOL    HW231980   1.299   3.076   6.726 -0.0063 -0.1921 -0.3196
 6783SOL     OW31981   0.032   2.646   4.662  0.7805 -0.0164  0.3252
 6783SOL    HW131982   0.125   2.652   4.686  0.6638  1.3720  0.4562
 6783SOL    HW231983   4.733   2.607   4.742 -1.3603  2.7120  0.6918
 6784SOL     OW31984   2.896   1.412   4.740  0.1140 -0.7294 -0.4829
 6784SOL    HW131985   2.905   1.500   4.777 -2.2876 -1.3291  1.5067
 6784SOL    HW231986   2.857   1.379   4.821  0.0946  0.1620 -0.1172
 6785SOL     OW31987   2.362   0.405   4.898  1.0300  0.3920  0.1976
 6785SOL    HW131988   2.294   0.340   4.880  1.3193  0.7193 -1.9894
 6785SOL    HW231989   2.391   0.379   4.986 -1.1484 -0.9695  0.5186
 6786SOL     OW31990   1.561   0.287   1.587 -0.2035 -0.0976  0.3030
 6786SOL    HW131991   1.614   0.363   1.610  0.4154  0.3235 -2.6287
 6786SOL    HW231992   1.627   0.218   1.591  0.9753  1.1011  1.7758
 6787SOL     OW31993   1.073   1.544  16.614  0.5536  0.4346  0.3836
 6787SOL    HW131994   1.122   1.531  16.532  2.1307  2.4741  1.0083
 6787SOL    HW231995   0.980   1.538  16.592  0.0231 -0.6109  2.9327
 6788SOL     OW31996   1.774   2.019   5.706  0.7177 -0.2737  0.4089
 6788SOL    HW131997   1.750   1.980   5.790 -0.5436 -2.2890 -0.8735
 6788SOL    HW231998   1.693   2.050   5.666  0.0035 -0.7249  1.5100
 6789SOL     OW31999   0.519   0.756  11.969  0.4352 -0.2053 -0.0186
 6789SOL    HW132000   0.513   0.784  12.060 -0.0837 -3.2906  0.9122
 6789SOL    HW232001   0.497   0.838  11.926  0.1183  0.8486  2.1474
 6790SOL     OW32002   4.024   0.701   7.873  0.4604 -0.4455 -1.0827
 6790SOL    HW132003   3.960   0.756   7.918  0.3427 -1.8030  0.3773
 6790SOL    HW232004   4.101   0.698   7.930  1.3824  0.2107 -2.2778
 6791SOL     OW32005   4.402   2.754   2.615  0.2066  0.1359  0.7786
 6791SOL    HW132006   4.364   2.826   2.666  2.0301  0.1676  2.1271
 6791SOL    HW232007   4.382   2.780   2.525  0.4867  0.8290  0.9133
 6792SOL     OW32008   2.354   4.158   8.519 -0.4438  0.5099 -0.3464
 6792SOL    HW132009   2.335   4.066   8.540 -1.8588  0.7118 -0.6985
 6792SOL    HW232010   2.438   4.176   8.561 -0.2297  1.3342 -1.1407
 6793SOL     OW32011   2.993   3.438   4.497  0.5188 -0.4050  0.2608
 6793SOL    HW132012   2.998   3.463   4.405  0.4325  1.8190  0.8457
 6793SOL    HW232013   2.918   3.378   4.493 -2.9436  3.8985 -0.2127
 6794SOL     OW32014   1.307   4.340   5.013 -0.2894 -0.3920 -0.1923
 6794SOL    HW132015   1.318   4.413   4.951  0.3109 -1.7368 -1.6861
 6794SOL    HW232016   1.389   4.336   5.063  0.1882  0.5817 -0.8842
 6795SOL     OW32017   2.195   0.603   3.470 -0.1579  0.0565 -0.1366
 6795SOL    HW132018   2.231   0.611   3.558  1.2395  0.2921 -0.7291
 6795SOL    HW232019   2.270   0.591   3.411  0.7329  0.7898  0.8568
 6796SOL     OW32020   4.218   1.494   4.627  1.0396  0.1522  0.4481
 6796SOL    HW132021   4.199   1.489   4.721 -1.8502 -2.2763 -0.2416
 6796SOL    HW232022   4.241   1.585   4.612 -0.4081  0.5652  0.7288
 6797SOL     OW32023   0.418   4.497   7.320  0.2819  0.2438 -0.1221
 6797SOL    HW132024   0.482   4.427   7.312  1.6703  1.4346  0.5110
 6797SOL    HW232025   0.380   4.478   7.406  1.2739 -1.1068  0.0073
 6798SOL     OW32026   1.091   0.973   0.577  0.1064  0.6121 -0.2613
 6798SOL    HW132027   1.003   0.997   0.549 -0.5405  0.7986  1.8894
 6798SOL    HW232028   1.145   1.043   0.541 -0.9223  0.1340 -2.7439
 6799SOL     OW32029   0.230   0.990  12.316 -0.2045  0.2957 -0.6745
 6799SOL    HW132030   0.256   1.026  12.401  0.8609  0.1750 -0.9375
 6799SOL    HW232031   0.304   0.930  12.305 -0.1009  0.3873 -0.4838
 6800SOL     OW32032   0.474   2.495   5.445 -0.1259 -0.0322  0.4125
 6800SOL    HW132033   0.395   2.547   5.461  1.0177  1.6835  0.4314
 6800SOL    HW232034   0.504   2.488   5.535  0.3019  3.1505  0.5238
 6801SOL     OW32035   0.631   0.120   5.532 -0.4720  0.0053  0.4259
 6801SOL    HW132036   0.689   0.087   5.600  0.3349  0.4009 -0.0719
 6801SOL    HW232037   0.661   0.092   5.446 -0.0996 -0.7477  0.8037
 6802SOL     OW32038   3.863   3.380  13.202  0.2221  0.8301  0.2272
 6802SOL    HW132039   3.908   3.360  13.283  3.5249 -0.2717 -1.8941
 6802SOL    HW232040   3.803   3.452  13.224  0.0514  0.8266 -0.2103
 6803SOL     OW32041   0.866   2.650   9.197  0.0379  0.5828 -0.3111
 6803SOL    HW132042   0.931   2.707   9.239 -1.8606  2.4651  0.0514
 6803SOL    HW232043   0.835   2.608   9.277 -0.3915 -0.5758 -1.0916
 6804SOL     OW32044   0.592   0.980  14.255  0.5689  0.0063  0.0793
 6804SOL    HW132045   0.501   0.987  14.284  0.1264 -1.7671 -0.8752
 6804SOL    HW232046   0.593   0.940  14.168 -1.2367  1.7941 -0.7540
 6805SOL     OW32047   1.903   0.187   0.540 -0.1444  0.1079 -0.3858
 6805SOL    HW132048   1.897   0.276   0.576  0.4421  0.0710 -0.2087
 6805SOL    HW232049   1.841   0.142   0.598 -0.1728  3.3349  2.1312
 6806SOL     OW32050   1.436   1.318   5.374  0.3940  0.0729 -0.1570
 6806SOL    HW132051   1.478   1.286   5.454 -1.1633 -0.1000  0.5736
 6806SOL    HW232052   1.517   1.337   5.326 -0.7474  0.3069 -1.9933
 6807SOL     OW32053   3.838   3.858   4.445  0.2826  0.1994  0.0667
 6807SOL    HW132054   3.884   3.853   4.362  0.5243 -0.4836  0.2447
 6807SOL    HW232055   3.745   3.870   4.424  0.0895 -1.7762 -0.2432
 6808SOL     OW32056   4.264   4.072  17.198  0.0223  0.0039  0.3444
 6808SOL    HW132057   4.358   4.068  17.216 -0.1530  3.1716  2.0659
 6808SOL    HW232058   4.231   3.993  17.241 -0.7493  0.6894  1.0230
 6809SOL     OW32059   1.689   1.565   6.123  0.3067  0.4509  0.4024
 6809SOL    HW132060   1.611   1.513   6.104  0.3870  0.6073 -0.3666
 6809SOL    HW232061   1.741   1.519   6.057 -1.5709  0.4158 -1.0713
 6810SOL     OW32062   3.812   3.060  12.904 -0.3718  0.0359 -0.7965
 6810SOL    HW132063   3.883   3.069  12.841  0.1526 -0.5466 -0.2841
 6810SOL    HW232064   3.779   3.149  12.917  0.4071  0.2403 -0.2557
 6811SOL     OW32065   4.108   0.244   2.832 -0.1276 -0.7027  0.1603
 6811SOL    HW132066   4.049   0.190   2.778 -0.8118 -0.7604  0.9616
 6811SOL    HW232067   4.072   0.330   2.812 -1.8098 -1.9038 -1.9620
 6812SOL     OW32068   0.509   3.761   2.863 -0.1492 -1.1118 -0.2914
 6812SOL    HW132069   0.554   3.797   2.939 -2.1224  0.2402  0.2302
 6812SOL    HW232070   0.447   3.831   2.844  1.0558 -0.0584 -0.3817
 6813SOL     OW32071   4.445   1.838   8.828 -0.0649  0.5605  0.0695
 6813SOL    HW132072   4.369   1.887   8.861  1.1799  2.4468  0.1466
 6813SOL    HW232073   4.439   1.893   8.750  1.2227  1.2656  0.4765
 6814SOL     OW32074   3.346   1.070   2.653  0.2894  0.0642 -0.5084
 6814SOL    HW132075   3.329   1.164   2.656 -3.2886 -0.4988 -2.5717
 6814SOL    HW232076   3.267   1.050   2.602 -0.5081 -1.9682  1.5614
 6815SOL     OW32077   2.373   0.760   5.753  0.2686  0.3626 -0.0265
 6815SOL    HW132078   2.403   0.711   5.676  1.6346 -0.1439  0.8224
 6815SOL    HW232079   2.450   0.810   5.780  0.4699 -0.3308  0.6931
 6816SOL     OW32080   1.549   2.288   3.277  0.1811 -0.5015  0.2961
 6816SOL    HW132081   1.574   2.242   3.197  1.8015 -2.2170  1.8143
 6816SOL    HW232082   1.550   2.214   3.338  0.0141 -0.3695  0.4587
 6817SOL     OW32083   2.619   1.778  16.846 -0.0323  0.6128 -0.3412
 6817SOL    HW132084   2.590   1.781  16.755 -0.9923 -2.6404 -0.1463
 6817SOL    HW232085   2.624   1.873  16.856  2.4993  0.3707  0.5596
 6818SOL     OW32086   2.091   1.915  11.062 -0.5686 -0.1878  0.4201
 6818SOL    HW132087   2.037   1.836  11.062 -0.8183 -0.0224 -1.2024
 6818SOL    HW232088   2.178   1.877  11.076 -0.4640  0.5371  1.7194
 6819SOL     OW32089   2.748   1.814  10.680  0.6651  0.2566  0.2264
 6819SOL    HW132090   2.810   1.743  10.701  0.1138 -0.2490  0.1504
 6819SOL    HW232091   2.722   1.793  10.590 -1.0056 -1.3255  1.0802
 6820SOL     OW32092   4.678   3.303  11.765 -0.3982  0.0048 -0.3580
 6820SOL    HW132093   4.718   3.216  11.767  0.4261  0.3419 -1.8579
 6820SOL    HW232094   4.665   3.320  11.858  1.0799 -0.5412 -0.0431
 6821SOL     OW32095   3.945   1.297  12.641  0.1783  0.3419  0.8483
 6821SOL    HW132096   3.863   1.320  12.598  0.3702  0.3835  0.5035
 6821SOL    HW232097   4.005   1.316  12.568 -0.8652 -1.0824 -0.3707
 6822SOL     OW32098   3.039   2.077   4.542  0.6751  0.6464  0.1151
 6822SOL    HW132099   3.122   2.055   4.500  0.3517  0.5360 -0.4802
 6822SOL    HW232100   3.047   2.155   4.596  3.0847  0.5309 -0.0653
 6823SOL     OW32101   3.176   0.772   9.271 -0.0656  0.1420 -0.5180
 6823SOL    HW132102   3.267   0.774   9.243 -0.1048 -2.7745 -0.8189
 6823SOL    HW232103   3.137   0.856   9.246  0.5240  0.6170  0.1475
 6824SOL     OW32104   3.532   1.282   8.034 -0.3004 -0.6139  0.1817
 6824SOL    HW132105   3.551   1.248   8.121  1.1668 -0.7727 -0.2131
 6824SOL    HW232106   3.437   1.267   8.030 -0.8606  2.6574  0.9746
 6825SOL     OW32107   1.757   2.695   8.076 -0.2260  0.3211  0.3192
 6825SOL    HW132108   1.805   2.623   8.117 -0.9512 -0.4001 -0.0989
 6825SOL    HW232109   1.742   2.655   7.990 -1.0620  1.1272  0.0985
 6826SOL     OW32110   3.698   3.700   7.131  0.4464 -0.2094 -0.0398
 6826SOL    HW132111   3.767   3.718   7.067 -0.6920  1.2979 -0.8452
 6826SOL    HW232112   3.632   3.764   7.105  0.3837  1.0859  3.2256
 6827SOL     OW32113   4.337   2.027   5.224  0.1136 -0.1025 -0.0007
 6827SOL    HW132114   4.409   2.002   5.167  0.0057 -0.8454  0.1932
 6827SOL    HW232115   4.279   1.952   5.210 -0.3049  0.5450 -1.8051
 6828SOL     OW32116   4.552   1.620  11.172  0.0258 -0.0886  0.3943
 6828SOL    HW132117   4.572   1.600  11.264 -1.5372  0.2345  0.8104
 6828SOL    HW232118   4.612   1.567  11.120  0.4115  0.6054  0.1416
 6829SOL     OW32119   4.407   1.966   4.499 -0.0247  0.0857 -0.1927
 6829SOL    HW132120   4.420   1.993   4.408 -1.4095  0.1101 -0.3874
 6829SOL    HW232121   4.364   2.042   4.538  1.5839  0.8204  0.1435
 6830SOL     OW32122   3.353   0.966   8.955  0.1576  0.4595  0.0569
 6830SOL    HW132123   3.383   0.947   9.044  2.9186  0.7476 -0.8099
 6830SOL    HW232124   3.436   0.983   8.910 -0.2611  0.6553 -0.6317
 6831SOL     OW32125   1.891   4.177   5.890  0.4052 -0.1168 -0.4080
 6831SOL    HW132126   1.857   4.191   5.801 -2.0170  1.6121  0.8124
 6831SOL    HW232127   1.971   4.131   5.864  0.3424  0.0474 -0.8986
 6832SOL     OW32128   3.314   2.267  10.206 -0.1487  0.0739 -0.4942
 6832SOL    HW132129   3.319   2.361  10.222  2.1271  0.0213 -0.8562
 6832SOL    HW232130   3.293   2.261  10.113  0.6191  3.8187 -0.9133
 6833SOL     OW32131   2.697   0.323   1.217  0.1229 -0.0637  0.2178
 6833SOL    HW132132   2.670   0.232   1.204 -0.5717  0.2601 -0.5677
 6833SOL    HW232133   2.716   0.351   1.128 -1.7846 -1.8486 -0.7457
 6834SOL     OW32134   1.526   0.863   6.740  0.6763  0.4014  0.1957
 6834SOL    HW132135   1.587   0.935   6.722 -0.6318  0.7242 -2.9470
 6834SOL    HW232136   1.590   0.796   6.765 -1.0779 -0.9258  1.1178
 6835SOL     OW32137   3.250   0.034   5.117  0.4039 -1.0276 -0.4160
 6835SOL    HW132138   3.177   0.012   5.176  0.7032  0.5277  0.5306
 6835SOL    HW232139   3.212   0.117   5.087  0.7640 -1.2328 -1.4025
 6836SOL     OW32140   0.613   3.850  11.914  0.0930  0.0873 -0.5232
 6836SOL    HW132141   0.555   3.822  11.843 -1.2485 -1.2574  1.0898
 6836SOL    HW232142   0.576   3.811  11.994  0.3011  0.9786  0.0019
 6837SOL     OW32143   1.905   2.665   4.718  0.2751 -0.0893  0.1005
 6837SOL    HW132144   1.835   2.713   4.674 -0.7992 -0.8811  0.9320
 6837SOL    HW232145   1.869   2.686   4.804 -0.2982  0.8004 -0.3578
 6838SOL     OW32146   4.471   2.098  15.759  0.2441  0.0519  0.3858
 6838SOL    HW132147   4.437   2.129  15.843  0.4915  1.6299 -0.0929
 6838SOL    HW232148   4.387   2.081  15.716  0.2485 -0.9024  0.7560
 6839SOL     OW32149   0.520   2.268   4.221 -0.2215  0.2676  0.1230
 6839SOL    HW132150   0.528   2.239   4.130  2.7227 -1.0870  0.8030
 6839SOL    HW232151   0.599   2.320   4.234  0.5554 -0.9197  0.1377
 6840SOL     OW32152   4.728   0.707   8.359  0.1723  0.4199  1.0377
 6840SOL    HW132153   0.068   0.753   8.391  0.0123  1.1566  0.3792
 6840SOL    HW232154   4.655   0.767   8.372 -2.0947 -1.8652 -1.1139
 6841SOL     OW32155   1.963   0.341   6.703 -0.0486  0.0425 -0.0593
 6841SOL    HW132156   1.917   0.423   6.691 -1.5146 -1.1652 -2.6732
 6841SOL    HW232157   2.024   0.358   6.632  1.3097 -1.8889  0.6248
 6842SOL     OW32158   0.339   2.317  14.539 -0.2270  0.1168  0.0915
 6842SOL    HW132159   0.329   2.253  14.610  0.4652 -0.7544 -0.5878
 6842SOL    HW232160   0.425   2.289  14.508 -0.6785 -0.4163 -0.7023
 6843SOL     OW32161   4.534   0.571   1.090  0.1555  0.1643 -0.3065
 6843SOL    HW132162   4.555   0.610   1.175 -0.9937 -1.0097  0.4952
 6843SOL    HW232163   4.495   0.643   1.040  1.1546  1.2655  0.4838
 6844SOL     OW32164   2.933   4.684  14.603  0.7503 -0.3845  0.7478
 6844SOL    HW132165   2.869   4.655  14.538  1.5467  0.3709 -0.3769
 6844SOL    HW232166   2.903   0.034  14.626 -1.3767 -1.5331  2.3597
 6845SOL     OW32167   1.295   0.661   2.529 -0.0093  0.0139  0.0974
 6845SOL    HW132168   1.373   0.647   2.582 -0.3805  0.9709  0.9001
 6845SOL    HW232169   1.290   0.586   2.470 -0.7543  0.0496  0.1173
 6846SOL     OW32170   2.210   1.287   9.190  0.0109 -0.4611 -0.2206
 6846SOL    HW132171   2.300   1.284   9.157 -0.0251  0.3460 -0.3851
 6846SOL    HW232172   2.179   1.376   9.172  3.6960  1.3477  2.3551
 6847SOL     OW32173   0.006   2.536   0.187 -0.5162  0.5834 -0.8957
 6847SOL    HW132174   0.006   2.472   0.259 -0.0243 -0.1575 -1.5547
 6847SOL    HW232175   0.078   2.592   0.214 -1.0671  1.0857 -0.4658
 6848SOL     OW32176   3.131   1.444  15.868 -0.4864 -0.3244  0.3265
 6848SOL    HW132177   3.106   1.426  15.777  0.0684 -0.6819  0.2422
 6848SOL    HW232178   3.205   1.502  15.850 -1.2778  0.9532  1.2044
 6849SOL     OW32179   0.043   4.559  17.230 -0.0828 -0.3058  0.9434
 6849SOL    HW132180   4.689   4.542  17.211 -0.2942  2.8566 -0.8808
 6849SOL    HW232181   0.089   4.480  17.202  0.9335  0.8972 -0.7986
 6850SOL     OW32182   2.514   0.023  14.141 -0.1177  0.0684  0.4853
 6850SOL    HW132183   2.440   0.079  14.120  0.6068  0.7120 -0.3499
 6850SOL    HW232184   2.478   4.698  14.203  0.4599 -0.3711  0.3802
 6851SOL     OW32185   2.288   1.294   6.345 -0.6867  0.1171  0.1789
 6851SOL    HW132186   2.307   1.387   6.333  4.9683 -1.0480  0.1182
 6851SOL    HW232187   2.334   1.277   6.428  0.2518  0.3860 -0.2865
 6852SOL     OW32188   2.974   1.908   4.723  0.2628  0.1323  0.0408
 6852SOL    HW132189   2.882   1.916   4.748 -0.3322  2.2289 -2.8104
 6852SOL    HW232190   2.986   1.974   4.655  0.8612 -0.1573 -0.1394
 6853SOL     OW32191   0.665   0.086  15.095  0.6509 -0.0371  0.0667
 6853SOL    HW132192   0.582   0.106  15.140  1.4238 -1.7875  2.2892
 6853SOL    HW232193   0.646   4.735  15.064  0.6598  0.0896 -0.3065
 6854SOL     OW32194   1.084   2.816   3.159  0.5018 -0.6800  0.4316
 6854SOL    HW132195   1.148   2.876   3.121 -1.8301  1.5478 -0.0216
 6854SOL    HW232196   1.073   2.751   3.090 -0.2154 -1.6803  1.4944
 6855SOL     OW32197   1.790   2.268   3.536  0.0231 -0.2365  0.8217
 6855SOL    HW132198   1.803   2.198   3.472 -2.8313 -1.9626  2.1031
 6855SOL    HW232199   1.874   2.313   3.538 -0.5785  0.8212  2.1248
 6856SOL     OW32200   2.232   2.782   7.340  0.2431  0.2739  0.7022
 6856SOL    HW132201   2.271   2.710   7.291 -0.5344  1.9267 -2.3320
 6856SOL    HW232202   2.311   2.808   7.388  0.5157 -3.8142  2.4866
 6857SOL     OW32203   3.769   2.155   7.904  0.0562 -0.2583 -0.1596
 6857SOL    HW132204   3.846   2.102   7.882 -0.2009 -1.0238  0.7896
 6857SOL    HW232205   3.725   2.170   7.821  1.0237 -0.5653 -0.7299
 6858SOL     OW32206   0.108   2.356   9.590  0.0589 -0.0407  0.4972
 6858SOL    HW132207   0.043   2.354   9.519  0.4753  0.6583  0.0903
 6858SOL    HW232208   0.163   2.284   9.560 -1.1544 -0.0610 -1.7479
 6859SOL     OW32209   3.103   2.636  13.186 -0.0591  0.3662  0.3091
 6859SOL    HW132210   3.099   2.582  13.265 -0.0145 -1.8987 -1.2234
 6859SOL    HW232211   3.048   2.584  13.127  1.2125 -0.8099  0.1400
 6860SOL     OW32212   4.104   4.641   1.212  0.3800 -0.1048 -0.4935
 6860SOL    HW132213   4.191   4.650   1.173  1.5903  0.7138  2.4307
 6860SOL    HW232214   4.110   4.702   1.285 -0.1646 -2.3754  1.4222
 6861SOL     OW32215   3.218   4.231   8.903  0.3216  0.3161 -0.1911
 6861SOL    HW132216   3.128   4.219   8.932  1.1705 -2.8519  1.0622
 6861SOL    HW232217   3.221   4.327   8.911  0.7776  0.3123 -0.3091
 6862SOL     OW32218   0.706   2.321   7.500  0.2002  0.3784 -0.2761
 6862SOL    HW132219   0.629   2.294   7.451 -0.9070  2.8574  0.0633
 6862SOL    HW232220   0.720   2.250   7.562 -0.7207  1.0822  0.7411
 6863SOL     OW32221   3.586   3.176  13.134  0.3023 -0.2247  0.5390
 6863SOL    HW132222   3.572   3.103  13.194 -0.3568 -0.1413  0.4922
 6863SOL    HW232223   3.569   3.252  13.190  0.9981 -1.1671  2.0055
 6864SOL     OW32224   0.884   4.014   5.559  0.1213 -0.6759  0.0879
 6864SOL    HW132225   0.852   4.031   5.648  2.2512 -0.2984  0.7915
 6864SOL    HW232226   0.879   3.918   5.557  0.8563 -0.7584  1.6216
 6865SOL     OW32227   2.842   2.131   4.355 -0.8003  0.0341 -0.4758
 6865SOL    HW132228   2.903   2.101   4.422  1.8911  2.0257 -2.0667
 6865SOL    HW232229   2.830   2.225   4.365 -0.3213  0.3586 -3.0781
 6866SOL     OW32230   3.401   1.165  14.949 -0.0143  0.4759 -0.4378
 6866SOL    HW132231   3.386   1.191  14.858 -5.3822  0.7959  0.5365
 6866SOL    HW232232   3.360   1.235  15.001 -2.2511 -1.0602 -0.1250
 6867SOL     OW32233   2.724   0.256   7.978 -0.5250 -0.5099 -0.0813
 6867SOL    HW132234   2.638   0.292   7.958 -0.3422  0.1977  0.4193
 6867SOL    HW232235   2.729   0.171   7.933  0.6029 -0.4696 -0.0323
 6868SOL     OW32236   0.553   3.559   1.975  0.0989 -0.0413  0.5131
 6868SOL    HW132237   0.539   3.465   1.969 -0.0940  0.0134  0.1053
 6868SOL    HW232238   0.554   3.593   1.886 -1.9651 -0.9606  0.1550
 6869SOL     OW32239   1.848   4.286   6.188 -0.3549 -0.0325  0.1886
 6869SOL    HW132240   1.787   4.213   6.183  0.0188 -0.4798  2.0149
 6869SOL    HW232241   1.845   4.313   6.097 -3.8703 -0.7668  0.1111
 6870SOL     OW32242   0.079   4.264  12.862 -0.1948 -0.4777  0.3365
 6870SOL    HW132243   0.064   4.309  12.779  0.9149 -1.3296 -0.3314
 6870SOL    HW232244   0.173   4.279  12.873 -0.3926  0.0536  1.2458
 6871SOL     OW32245   0.190   2.974   5.541  0.1615  0.3706  0.1678
 6871SOL    HW132246   0.146   2.984   5.457  0.5598  0.6196 -0.0103
 6871SOL    HW232247   0.170   3.062   5.574 -0.7027  0.2143  0.0644
 6872SOL     OW32248   0.173   2.966   4.331 -0.1313  0.5002  0.1360
 6872SOL    HW132249   0.115   2.945   4.404 -0.3033  0.3063 -0.0578
 6872SOL    HW232250   0.141   3.053   4.306 -1.5607 -0.3074 -0.7595
 6873SOL     OW32251   2.705   0.398  17.637  0.7013  0.2648 -0.6313
 6873SOL    HW132252   2.790   0.381  17.676  0.6843 -0.3167 -0.8412
 6873SOL    HW232253   2.697   0.335  17.565 -2.1300 -0.4577  0.2908
 6874SOL     OW32254   1.810   0.864   6.337  0.6228 -0.0593  0.1819
 6874SOL    HW132255   1.828   0.910   6.255 -1.3608  1.2307  0.4666
 6874SOL    HW232256   1.808   0.771   6.316 -1.9052  0.0380  0.0430
 6875SOL     OW32257   2.840   0.198   1.936  0.1543 -0.5172 -0.1101
 6875SOL    HW132258   2.853   0.163   2.024 -2.3081 -1.6273 -0.2010
 6875SOL    HW232259   2.790   0.126   1.898  0.4742 -0.1358 -1.2595
 6876SOL     OW32260   2.109   3.521  16.706 -0.1270 -0.1161 -0.1338
 6876SOL    HW132261   2.151   3.601  16.737 -1.5705  0.7778 -0.4953
 6876SOL    HW232262   2.079   3.490  16.791  0.8290  1.8295  0.8887
 6877SOL     OW32263   4.137   0.203   7.460  0.2577  0.1653  0.0282
 6877SOL    HW132264   4.226   0.214   7.493 -0.6407  0.3865  2.3890
 6877SOL    HW232265   4.143   0.127   7.403  1.5501 -1.5657  2.4495
 6878SOL     OW32266   0.297   4.483  17.745  0.3261 -0.5779  0.1020
 6878SOL    HW132267   0.257   4.530  17.672  0.7690 -0.0908  0.1682
 6878SOL    HW232268   0.241   4.407   0.009  2.1523 -2.2057 -1.4555
 6879SOL     OW32269   4.416   0.345  12.298 -0.6121 -0.4777 -0.2457
 6879SOL    HW132270   4.449   0.263  12.332 -0.9490 -0.1850  0.7761
 6879SOL    HW232271   4.417   0.322  12.205  1.9260  0.7631 -0.5149
 6880SOL     OW32272   2.189   0.219   5.883  0.0417 -0.4938 -0.0758
 6880SOL    HW132273   2.247   0.167   5.829  3.1611  3.5689 -0.6437
 6880SOL    HW232274   2.198   0.169   5.964  0.7432  2.0158  1.4025
 6881SOL     OW32275   3.863   1.490  11.599 -0.1053 -0.3976 -0.5097
 6881SOL    HW132276   3.895   1.532  11.678 -1.2760  0.9718 -0.7496
 6881SOL    HW232277   3.816   1.566  11.564  0.7431  0.7545  0.8498
 6882SOL     OW32278   4.406   0.974  12.391 -0.2191 -0.0464  0.0105
 6882SOL    HW132279   4.398   0.880  12.379  0.2109  0.1616 -1.8962
 6882SOL    HW232280   4.392   1.010  12.303  0.8948  1.5331  0.4704
 6883SOL     OW32281   0.926   0.500   6.302  0.9399  0.2959 -0.5128
 6883SOL    HW132282   0.867   0.437   6.261  1.2086 -0.3991  0.1592
 6883SOL    HW232283   0.971   0.453   6.373  0.3600  1.8480  0.8845
 6884SOL     OW32284   2.829   1.599   6.726  0.4790  0.2605 -0.2671
 6884SOL    HW132285   2.814   1.672   6.666  0.6911 -0.4932 -1.2253
 6884SOL    HW232286   2.909   1.623   6.774  0.2518  0.7032 -0.1090
 6885SOL     OW32287   0.950   3.044   2.995  0.0417  0.2955 -0.1135
 6885SOL    HW132288   1.042   3.016   3.000  0.8021  2.8586  0.3777
 6885SOL    HW232289   0.958   3.133   2.961 -1.1879  0.1347 -0.8264
 6886SOL     OW32290   0.729   1.308   3.300 -0.9244  0.5027  0.3575
 6886SOL    HW132291   0.710   1.308   3.394 -2.1018  2.3401  0.1277
 6886SOL    HW232292   0.641   1.320   3.264 -1.4355  0.4856  1.5943
 6887SOL     OW32293   0.932   1.072   9.872  0.1952 -0.2574  0.0136
 6887SOL    HW132294   0.922   1.084   9.966 -1.1110 -0.2336 -0.1288
 6887SOL    HW232295   1.000   1.005   9.858  1.1767  0.2740  2.2922
 6888SOL     OW32296   1.867   3.783   2.287  0.0757 -0.4614 -0.4280
 6888SOL    HW132297   1.826   3.768   2.202 -1.1250 -2.2098  0.4356
 6888SOL    HW232298   1.797   3.778   2.353  1.3525 -2.9194  0.7496
 6889SOL     OW32299   2.351   1.268  15.202 -0.1742 -0.8237  0.0081
 6889SOL    HW132300   2.422   1.223  15.156  2.5559  2.5347  0.9539
 6889SOL    HW232301   2.287   1.270  15.131  0.7753  1.2260 -0.8028
 6890SOL     OW32302   3.986   2.056   3.707 -0.2962 -0.0131  0.1193
 6890SOL    HW132303   4.028   2.092   3.785 -0.9074 -0.0445  0.4592
 6890SOL    HW232304   3.934   2.137   3.698  0.0059  0.1127 -0.5197
 6891SOL     OW32305   0.313   2.269   7.647  0.0969  0.0491  0.0492
 6891SOL    HW132306   0.235   2.232   7.688 -0.2146  0.4830 -0.1552
 6891SOL    HW232307   0.371   2.214   7.699 -1.1357  0.0761  1.4525
 6892SOL     OW32308   2.299   0.554   1.680  0.0718  0.0882  0.1627
 6892SOL    HW132309   2.335   0.566   1.768 -0.2428 -0.1200  0.3174
 6892SOL    HW232310   2.380   0.543   1.630 -1.4675  0.3156 -2.3640
 6893SOL     OW32311   2.157   1.302  10.954 -0.0271  0.1300  0.2042
 6893SOL    HW132312   2.162   1.357  10.875  0.7421 -1.2428 -0.7066
 6893SOL    HW232313   2.067   1.314  10.983 -0.0258 -3.9558  1.8343
 6894SOL     OW32314   2.663   4.460   2.684 -0.4551 -0.4795  1.1667
 6894SOL    HW132315   2.650   4.554   2.678  0.4302 -0.3683  0.9513
 6894SOL    HW232316   2.733   4.450   2.619 -0.7279 -2.5193  1.1705
 6895SOL     OW32317   3.378   1.040   7.821 -0.4147  0.1474 -0.4267
 6895SOL    HW132318   3.310   1.030   7.887 -1.2208  0.7090 -1.1682
 6895SOL    HW232319   3.353   0.966   7.765 -0.3450 -0.5328  0.4390
 6896SOL     OW32320   4.627   0.307   1.091  0.3234  0.3492 -0.0703
 6896SOL    HW132321   4.595   0.396   1.078 -0.5067  0.0076 -0.3659
 6896SOL    HW232322   4.595   0.264   1.012 -2.9658  0.1950  1.3455
 6897SOL     OW32323   1.162   0.350   8.606 -0.0148  0.9885 -0.7702
 6897SOL    HW132324   1.177   0.399   8.686  0.6519 -2.4454  1.2152
 6897SOL    HW232325   1.113   0.273   8.636  0.3013  1.4083  0.7918
 6898SOL     OW32326   0.557   3.533   2.421 -0.4174 -0.0954  0.0256
 6898SOL    HW132327   0.524   3.460   2.368  0.1024 -0.7049  0.5427
 6898SOL    HW232328   0.614   3.572   2.355 -3.0759  0.3493 -2.0600
 6899SOL     OW32329   2.773   4.663   8.833  0.3501  0.6160  0.5092
 6899SOL    HW132330   2.825   4.609   8.773  0.0299 -2.3811  2.9251
 6899SOL    HW232331   2.799   0.009   8.795  1.1395  0.2749  0.3064
 6900SOL     OW32332   4.544   4.289   4.703 -0.6276 -0.8840 -0.0349
 6900SOL    HW132333   4.517   4.209   4.747  0.1040 -1.3720 -0.4875
 6900SOL    HW232334   4.593   4.257   4.628  1.0576  0.8330  0.3170
 6901SOL     OW32335   2.995   2.775   2.304  0.1276 -0.2069 -0.1711
 6901SOL    HW132336   2.944   2.843   2.348 -2.5220 -1.3928 -1.4101
 6901SOL    HW232337   2.943   2.722   2.244 -0.6940 -0.8257  1.0737
 6902SOL     OW32338   3.375   1.409   6.793 -0.2917  0.8940  0.0936
 6902SOL    HW132339   3.411   1.446   6.712 -1.5305  0.8490 -0.4860
 6902SOL    HW232340   3.455   1.394   6.842 -0.6789 -1.0185  0.1409
 6903SOL     OW32341   2.419   3.669   2.516  0.5008 -0.0548 -0.3337
 6903SOL    HW132342   2.496   3.721   2.539 -0.7431  1.6431 -0.0098
 6903SOL    HW232343   2.374   3.670   2.600  0.7135 -1.5666 -0.1987
 6904SOL     OW32344   1.430   1.041   6.192 -0.4678 -0.1569  0.0713
 6904SOL    HW132345   1.345   1.017   6.155 -0.8384  0.1048  0.7582
 6904SOL    HW232346   1.423   0.995   6.276  0.3355  2.8005  1.7554
 6905SOL     OW32347   2.870   4.260  10.024  0.2032 -0.1317 -0.1264
 6905SOL    HW132348   2.960   4.227  10.029  0.0681 -0.7081 -1.4768
 6905SOL    HW232349   2.881   4.355  10.027  1.3867 -0.3225  1.8101
 6906SOL     OW32350   0.845   1.747   3.384  0.3719 -0.0235 -0.0624
 6906SOL    HW132351   0.796   1.695   3.448  0.0402 -0.2170 -0.4676
 6906SOL    HW232352   0.874   1.676   3.326 -3.6704 -3.2209  1.7720
 6907SOL     OW32353   3.217   2.005  13.453 -0.8860  0.3260 -0.1699
 6907SOL    HW132354   3.266   1.977  13.376  0.0753  1.3109  0.0911
 6907SOL    HW232355   3.176   2.079  13.407 -1.5907  0.8512  1.3060
 6908SOL     OW32356   4.303   1.054  16.043  0.3241 -0.7112 -0.5363
 6908SOL    HW132357   4.250   0.975  16.028 -0.4812 -0.7721  2.7243
 6908SOL    HW232358   4.382   1.048  15.989  1.1736  1.0745  0.5266
 6909SOL     OW32359   2.414   1.212   1.893  0.2656 -0.3585  0.0155
 6909SOL    HW132360   2.461   1.130   1.879 -0.9041 -1.4771  2.5524
 6909SOL    HW232361   2.484   1.277   1.897 -0.3592  0.1207  3.0877
 6910SOL     OW32362   1.244   0.206   3.955  0.2144  0.9030  0.4228
 6910SOL    HW132363   1.244   0.291   4.001 -1.1077  3.2608 -3.9327
 6910SOL    HW232364   1.285   0.138   4.008 -0.1383  0.3914  0.0395
 6911SOL     OW32365   3.780   3.666   6.756 -0.5773 -1.2520 -0.6305
 6911SOL    HW132366   3.829   3.648   6.676  0.6442 -1.1298  0.0963
 6911SOL    HW232367   3.762   3.760   6.751  0.6048 -0.9662  0.5823
 6912SOL     OW32368   4.198   2.658   4.187 -0.0444 -0.1390  0.6996
 6912SOL    HW132369   4.125   2.635   4.244 -1.0743 -0.8180 -0.8852
 6912SOL    HW232370   4.269   2.598   4.211  0.3443  0.3185  0.6990
 6913SOL     OW32371   0.131   0.406   6.882  0.4852  0.1667  0.9164
 6913SOL    HW132372   0.213   0.455   6.873  0.3703 -0.2595 -2.6142
 6913SOL    HW232373   0.133   0.331   6.823 -1.1190  1.0002 -0.1963
 6914SOL     OW32374   0.258   0.334  12.946 -0.2303  0.3367  0.3425
 6914SOL    HW132375   0.334   0.288  12.913 -2.1271 -0.9113 -2.2841
 6914SOL    HW232376   0.210   0.340  12.863 -0.8480 -0.3303  0.6462
 6915SOL     OW32377   3.286   2.499  11.432 -0.8832 -0.3215 -0.2455
 6915SOL    HW132378   3.307   2.413  11.468  1.5849  0.2856 -0.2613
 6915SOL    HW232379   3.192   2.515  11.444 -0.5535 -0.1026  2.0421
 6916SOL     OW32380   2.702   1.626   2.769 -0.4951 -0.3500 -0.1332
 6916SOL    HW132381   2.622   1.575   2.752 -0.2951  0.1048 -2.3780
 6916SOL    HW232382   2.690   1.707   2.720  0.3616 -0.1546 -0.0106
 6917SOL     OW32383   4.320   2.810  17.638 -0.2502  0.0027  0.0356
 6917SOL    HW132384   4.370   2.865  17.698 -1.0293  0.7632 -0.0044
 6917SOL    HW232385   4.372   2.794  17.560 -1.2588  1.3055 -0.9099
 6918SOL     OW32386   3.355   1.313  15.658  0.0641  0.6599 -0.0851
 6918SOL    HW132387   3.346   1.390  15.714  2.0492 -0.3100  1.5944
 6918SOL    HW232388   3.447   1.311  15.631 -0.0457  0.1265 -0.4244
 6919SOL     OW32389   1.458   4.599   2.964  0.2553 -0.0963 -0.4976
 6919SOL    HW132390   1.384   4.601   2.903  0.5562  3.9220 -0.7502
 6919SOL    HW232391   1.463   4.694   2.978  1.1229 -0.0911 -0.7869
 6920SOL     OW32392   0.155   4.626   1.654 -0.8581  0.0709  0.4961
 6920SOL    HW132393   0.112   4.554   1.701 -2.3725  0.6696  0.0310
 6920SOL    HW232394   0.093   4.698   1.661  0.3531  1.3217 -1.6424
 6921SOL     OW32395   2.537   4.242   2.494 -0.1489  0.2289  0.1965
 6921SOL    HW132396   2.622   4.236   2.538 -0.5771 -0.5451  0.9084
 6921SOL    HW232397   2.497   4.322   2.529 -2.3625 -0.4529 -0.7816
 6922SOL     OW32398   2.909   2.428   5.264 -0.1284  0.3335  0.0579
 6922SOL    HW132399   2.969   2.364   5.224 -1.2485  0.8391 -2.4712
 6922SOL    HW232400   2.829   2.411   5.214  0.6114  0.3677 -1.1573
 6923SOL     OW32401   0.456   0.303  10.451 -0.0840 -0.3910 -0.2026
 6923SOL    HW132402   0.408   0.353  10.385 -0.5486 -1.5553 -0.7501
 6923SOL    HW232403   0.410   0.220  10.463 -1.2934  0.1452 -1.2067
 6924SOL     OW32404   4.233   0.597   7.335 -0.0626  0.0173  0.5456
 6924SOL    HW132405   4.326   0.599   7.355 -0.1462 -1.9776  1.0955
 6924SOL    HW232406   4.210   0.504   7.328 -0.0397 -0.1274  2.2558
 6925SOL     OW32407   4.467   1.343   2.413  0.1052  1.0855  0.4462
 6925SOL    HW132408   4.554   1.351   2.372 -0.4353  0.5547 -0.8113
 6925SOL    HW232409   4.435   1.432   2.397 -1.9660  0.1740 -0.4296
 6926SOL     OW32410   4.142   0.246   3.509 -0.1494 -0.4253 -0.1323
 6926SOL    HW132411   4.213   0.257   3.572 -0.4868  0.4542  0.0854
 6926SOL    HW232412   4.149   0.328   3.460 -0.9963 -0.4253 -0.2510
 6927SOL     OW32413   3.476   3.575   5.422 -0.5718  0.0335  0.1251
 6927SOL    HW132414   3.455   3.615   5.506 -2.0069  1.1644 -0.7628
 6927SOL    HW232415   3.395   3.611   5.385 -0.4377 -0.6020 -0.7897
 6928SOL     OW32416   1.079   3.041   4.667  0.1440  0.9126  0.8024
 6928SOL    HW132417   1.159   3.020   4.716 -0.1955 -1.7661  0.1788
 6928SOL    HW232418   1.087   2.974   4.599 -1.9281  0.5687  0.9189
 6929SOL     OW32419   4.256   3.545  10.098  0.2580  0.0555 -0.2912
 6929SOL    HW132420   4.162   3.562  10.111  0.0358 -1.1722 -0.2970
 6929SOL    HW232421   4.266   3.501  10.183 -1.5723  0.2970  0.0623
 6930SOL     OW32422   0.455   1.264   3.475 -0.0893  0.1682 -0.4138
 6930SOL    HW132423   0.433   1.173   3.496  0.5775 -0.2633 -1.5536
 6930SOL    HW232424   0.448   1.255   3.380  2.7977  0.0216 -0.6284
 6931SOL     OW32425   1.404   4.385   6.250 -0.7033  0.4012 -0.5451
 6931SOL    HW132426   1.480   4.355   6.300 -1.0523  0.5051  0.0569
 6931SOL    HW232427   1.332   4.365   6.310  1.5243 -1.4768  1.5302
 6932SOL     OW32428   1.547   3.358  15.304  0.2615  0.9229  0.0439
 6932SOL    HW132429   1.498   3.333  15.226  0.1875 -1.1827  0.7782
 6932SOL    HW232430   1.538   3.454  15.303  0.1726  0.8994 -2.0032
 6933SOL     OW32431   1.116   2.402   9.538  0.1823 -0.2798  0.3804
 6933SOL    HW132432   1.078   2.317   9.515  2.5614 -1.2747  0.0508
 6933SOL    HW232433   1.055   2.443   9.599  0.2748 -2.2373  1.8054
 6934SOL     OW32434   2.998   3.158   7.182  0.1825 -0.4481 -0.4477
 6934SOL    HW132435   3.026   3.236   7.231 -0.6815  0.0469 -0.7434
 6934SOL    HW232436   3.032   3.088   7.238 -0.2607 -1.9413 -2.0596
 6935SOL     OW32437   0.837   1.399   2.607 -0.0295 -0.5339  0.2713
 6935SOL    HW132438   0.743   1.402   2.585  0.4300  2.3089 -1.2692
 6935SOL    HW232439   0.874   1.379   2.521 -0.8261 -1.9445  0.2563
 6936SOL     OW32440   3.342   0.369   6.674  0.9849 -0.3992  0.0630
 6936SOL    HW132441   3.295   0.420   6.739 -1.1327 -1.8636 -0.2877
 6936SOL    HW232442   3.403   0.318   6.728 -1.0068 -2.9863 -0.0825
 6937SOL     OW32443   2.844   2.226   9.337  0.1623 -0.1398 -0.2037
 6937SOL    HW132444   2.867   2.274   9.258 -0.4704  1.4017  0.5461
 6937SOL    HW232445   2.796   2.293   9.387  0.3535 -1.3957  1.6552
 6938SOL     OW32446   4.168   0.769  12.484  0.0596 -0.5123 -0.1948
 6938SOL    HW132447   4.243   0.774  12.425  0.0195 -1.6668 -0.3451
 6938SOL    HW232448   4.150   0.675  12.484  0.3448 -0.5692 -1.8209
 6939SOL     OW32449   3.803   2.138  11.410 -0.6089  0.6315  0.0858
 6939SOL    HW132450   3.762   2.196  11.475 -1.4905  0.0754  0.0299
 6939SOL    HW232451   3.747   2.060  11.417  0.2477  0.0617  0.6149
 6940SOL     OW32452   1.608   3.955   3.325  0.0164 -0.6782  0.4929
 6940SOL    HW132453   1.531   3.911   3.360 -0.5613  1.5622  2.0039
 6940SOL    HW232454   1.573   4.043   3.314  2.1499  0.5543  3.4502
 6941SOL     OW32455   2.071   3.232   8.154 -0.5553 -0.0524  0.3343
 6941SOL    HW132456   2.076   3.149   8.106  3.1429  0.6795 -0.5354
 6941SOL    HW232457   2.010   3.210   8.224 -0.2540  0.9579  0.9229
 6942SOL     OW32458   1.592   2.922   7.990 -0.0201 -0.5452  0.0884
 6942SOL    HW132459   1.634   2.843   8.022 -2.0452 -1.2058  1.1085
 6942SOL    HW232460   1.500   2.918   8.015  0.0914 -0.3561  0.5311
 6943SOL     OW32461   4.383   4.495   5.522  0.2683  0.2527 -0.4273
 6943SOL    HW132462   4.340   4.575   5.490 -0.8836  0.0481  0.6262
 6943SOL    HW232463   4.299   4.462   5.555 -0.2531  1.7237 -0.2564
 6944SOL     OW32464   0.007   1.381   7.735  0.7096  0.3304  0.3328
 6944SOL    HW132465   4.725   1.376   7.828  0.1971  0.0152  0.2065
 6944SOL    HW232466   0.068   1.452   7.717 -0.1381  0.7690 -0.8396
 6945SOL     OW32467   1.856   3.835  13.702 -0.3236 -0.3108  0.7178
 6945SOL    HW132468   1.795   3.772  13.740  0.9198 -0.0145  3.1812
 6945SOL    HW232469   1.796   3.896  13.658 -0.5904 -0.2724  1.1334
 6946SOL     OW32470   2.996   0.537   0.958 -0.8195  0.3931  0.8027
 6946SOL    HW132471   3.067   0.538   0.894 -1.0379  0.4344  0.5633
 6946SOL    HW232472   2.949   0.619   0.949 -1.3159 -0.1671 -1.5758
 6947SOL     OW32473   0.362   2.733   6.727  0.0589  0.1734  0.4748
 6947SOL    HW132474   0.381   2.639   6.725 -0.8206  0.0518 -1.9526
 6947SOL    HW232475   0.331   2.733   6.818 -1.9009 -1.4280 -0.1815
 6948SOL     OW32476   4.623   2.399  13.071 -0.4533  0.2323  0.0936
 6948SOL    HW132477   4.603   2.489  13.043  2.0364  0.1130 -2.1101
 6948SOL    HW232478   4.715   2.395  13.045 -0.8177  0.1100 -1.1450
 6949SOL     OW32479   1.791   2.546   4.065  0.6116  0.1300  0.0973
 6949SOL    HW132480   1.774   2.478   4.129 -1.9716 -0.0001 -0.7443
 6949SOL    HW232481   1.717   2.606   4.065  1.0477  0.6732  2.1412
 6950SOL     OW32482   1.356   3.488   6.576  0.6240 -0.0669 -0.6771
 6950SOL    HW132483   1.319   3.549   6.640 -1.2862 -0.4962 -1.3947
 6950SOL    HW232484   1.287   3.425   6.561  0.0197  0.3181  0.4846
 6951SOL     OW32485   1.062   1.396   5.159  0.6263  0.3935 -0.0363
 6951SOL    HW132486   0.993   1.425   5.218 -0.1721 -2.4607  0.4303
 6951SOL    HW232487   1.010   1.407   5.079  1.8073 -0.5089 -0.9207
 6952SOL     OW32488   3.121   1.310  15.344 -0.5553  0.2472 -1.1657
 6952SOL    HW132489   3.141   1.361  15.265 -2.8951  1.2307 -1.1041
 6952SOL    HW232490   3.034   1.296  15.306 -0.7090  1.7861 -1.3514
 6953SOL     OW32491   1.310   1.585   3.226 -0.0879  0.0023  0.0617
 6953SOL    HW132492   1.259   1.507   3.247  1.2608 -1.3975 -1.8782
 6953SOL    HW232493   1.353   1.602   3.310 -1.8894 -1.0777  1.1908
 6954SOL     OW32494   0.167   0.699  12.132  0.3165  0.3286  0.3811
 6954SOL    HW132495   0.216   0.719  12.053 -0.7393 -1.0026 -0.6016
 6954SOL    HW232496   0.102   0.770  12.133 -4.2553 -3.9059  1.3467
 6955SOL     OW32497   2.003   1.598   7.963  0.4024  0.2322 -0.8770
 6955SOL    HW132498   1.982   1.683   7.926 -1.3754  0.8007  1.4340
 6955SOL    HW232499   1.982   1.535   7.895 -2.0185  1.2062 -1.0237
 6956SOL     OW32500   2.235   1.661   4.736 -0.0482  0.0181  0.3628
 6956SOL    HW132501   2.192   1.584   4.773  3.4266 -1.5454  1.2007
 6956SOL    HW232502   2.308   1.619   4.690  0.0746  1.2716 -0.5673
 6957SOL     OW32503   0.560   1.349  14.324  0.3801  0.2125 -0.1191
 6957SOL    HW132504   0.510   1.293  14.383  0.2013 -0.1381 -0.6134
 6957SOL    HW232505   0.557   1.431  14.375  0.0277  0.7128 -0.9462
 6958SOL     OW32506   2.569   0.350   8.379  0.2433  0.3580 -0.0499
 6958SOL    HW132507   2.571   0.369   8.472  0.3118 -0.0167  0.0250
 6958SOL    HW232508   2.478   0.320   8.377 -0.5777  2.7904  0.6545
 6959SOL     OW32509   2.842   1.202   2.379  0.1713 -0.2344 -0.1576
 6959SOL    HW132510   2.868   1.141   2.448  0.0442 -0.8211 -0.6269
 6959SOL    HW232511   2.855   1.285   2.426 -0.3006  0.0646 -0.5524
 6960SOL     OW32512   0.634   0.261   2.056 -0.1299 -0.3327  0.7346
 6960SOL    HW132513   0.591   0.247   1.971 -0.3897  0.1850  0.7808
 6960SOL    HW232514   0.652   0.355   2.049  0.7587 -0.4728  1.2227
 6961SOL     OW32515   1.191   3.017   2.218  0.4848  0.1076  0.2336
 6961SOL    HW132516   1.243   3.037   2.296  1.5595 -0.1968 -0.4164
 6961SOL    HW232517   1.141   2.938   2.241  0.7319  0.4071  1.7858
 6962SOL     OW32518   0.941   4.493   1.814  0.2032  0.2903 -0.0289
 6962SOL    HW132519   0.909   4.463   1.899 -0.0280 -1.6465 -0.8183
 6962SOL    HW232520   0.918   4.586   1.824  1.4613  0.7282 -1.1796
 6963SOL     OW32521   4.590   3.901   3.442 -0.7329  0.3608 -0.2605
 6963SOL    HW132522   4.560   3.961   3.373 -0.7444  0.2832 -0.3230
 6963SOL    HW232523   4.550   3.945   3.517  0.7402 -1.9460  1.8743
 6964SOL     OW32524   1.244   2.156   6.916  0.1800 -0.6663 -0.8564
 6964SOL    HW132525   1.191   2.220   6.965  0.1890 -0.2328 -1.4041
 6964SOL    HW232526   1.325   2.207   6.907  1.4360 -2.5372 -0.0310
 6965SOL     OW32527   2.914   0.010   4.679 -0.0995  0.0533  0.0882
 6965SOL    HW132528   2.932   0.083   4.739 -1.3991 -0.3237  0.9208
 6965SOL    HW232529   2.851   4.697   4.730  0.1051 -0.6138 -0.3187
 6966SOL     OW32530   2.950   4.125   3.930 -0.0621  0.1105 -0.1616
 6966SOL    HW132531   2.927   4.033   3.946 -0.0021  0.1294  0.0283
 6966SOL    HW232532   2.871   4.172   3.958 -0.0521 -0.2776  0.5121
 6967SOL     OW32533   0.441   2.105   0.822 -0.3789 -0.1179  0.1936
 6967SOL    HW132534   0.535   2.116   0.815 -0.4357 -0.3294 -0.8325
 6967SOL    HW232535   0.416   2.179   0.879  2.2368  2.0466 -1.5037
 6968SOL     OW32536   2.346   2.386  13.703 -0.2653 -0.3670  0.0373
 6968SOL    HW132537   2.271   2.442  13.727  0.5764  0.6648  0.2776
 6968SOL    HW232538   2.373   2.425  13.619 -1.4624 -0.6937 -0.5025
 6969SOL     OW32539   4.393   3.589   2.813  0.3275  0.1837 -0.0537
 6969SOL    HW132540   4.442   3.587   2.896 -1.0602 -0.1730  0.7560
 6969SOL    HW232541   4.456   3.548   2.754  1.1945  1.7565 -0.2316
 6970SOL     OW32542   3.864   0.275  11.134  0.2175  0.1976  0.7062
 6970SOL    HW132543   3.939   0.332  11.122 -0.3645  0.4993 -1.6208
 6970SOL    HW232544   3.904   0.193  11.164  0.8475 -0.2731 -1.4212
 6971SOL     OW32545   3.977   2.755   5.731 -0.2410  0.8232  0.2111
 6971SOL    HW132546   3.949   2.772   5.821  0.3786  0.2251  0.5257
 6971SOL    HW232547   4.010   2.842   5.708 -0.8841  0.7743 -0.8539
 6972SOL     OW32548   0.974   1.743   2.982 -0.5756  0.1392 -0.3642
 6972SOL    HW132549   0.944   1.690   2.908 -0.5044  0.2621 -0.4814
 6972SOL    HW232550   1.068   1.754   2.963  0.0831 -1.6272  1.9420
 6973SOL     OW32551   4.736   4.326   7.751  0.1410  0.0389 -0.3506
 6973SOL    HW132552   4.680   4.273   7.808  0.1306  1.1026  0.6165
 6973SOL    HW232553   4.725   4.292   7.662  1.6253  0.5520 -0.7262
 6974SOL     OW32554   1.372   1.100  10.370  0.1411  0.0525 -0.6450
 6974SOL    HW132555   1.345   1.181  10.328  0.5826  1.9257  2.6510
 6974SOL    HW232556   1.450   1.093  10.316  1.0299  0.6965  0.5368
 6975SOL     OW32557   0.097   1.812  15.776  0.1124  0.1969 -0.3481
 6975SOL    HW132558   0.076   1.719  15.764 -1.6952  0.5880 -0.1630
 6975SOL    HW232559   0.009   1.850  15.778  0.2303  0.4605 -0.0209
 6976SOL     OW32560   0.852   2.944   5.233 -0.0648  0.6209  0.2502
 6976SOL    HW132561   0.813   3.031   5.243 -1.2707  0.2799 -1.5680
 6976SOL    HW232562   0.772   2.902   5.204 -0.8770  2.6804 -0.5517
 6977SOL     OW32563   0.464   4.118  16.773 -0.2306  0.4451  0.7806
 6977SOL    HW132564   0.509   4.158  16.698 -0.0100  0.2312  0.7991
 6977SOL    HW232565   0.378   4.149  16.746 -1.6831 -3.6966  0.6801
 6978SOL     OW32566   2.407   2.888  14.846  0.4712  0.1248  0.3492
 6978SOL    HW132567   2.461   2.933  14.782  1.7510 -1.1013  0.5452
 6978SOL    HW232568   2.448   2.804  14.822 -1.6455 -1.2037  1.3810
 6979SOL     OW32569   2.637   0.984   4.392 -0.2933  0.1353  0.6971
 6979SOL    HW132570   2.599   0.971   4.306  2.2895  3.2918 -0.9400
 6979SOL    HW232571   2.569   0.954   4.452 -0.7550  1.9217  1.0736
 6980SOL     OW32572   1.652   4.174   1.588 -0.3405 -0.2379  0.4584
 6980SOL    HW132573   1.582   4.116   1.559  0.5566 -2.5275  2.8289
 6980SOL    HW232574   1.616   4.260   1.566 -2.2050 -0.8617  1.1118
 6981SOL     OW32575   2.718   4.087   2.316 -0.3553  0.2003 -0.1825
 6981SOL    HW132576   2.654   4.056   2.252 -2.1397 -0.3358  1.8711
 6981SOL    HW232577   2.682   4.059   2.400  4.4015 -0.8936  1.4801
 6982SOL     OW32578   4.701   0.083   1.701  0.2459  0.1630  0.0088
 6982SOL    HW132579   4.660   0.071   1.615  0.8515  1.0046 -0.3987
 6982SOL    HW232580   4.652   0.154   1.741  1.8649  1.3486 -0.1472
 6983SOL     OW32581   2.270   3.384   9.397 -0.4342 -0.0450  0.1457
 6983SOL    HW132582   2.310   3.442   9.462 -2.8649  0.9825  0.7268
 6983SOL    HW232583   2.346   3.327   9.400  0.2023  0.7226 -1.2777
 6984SOL     OW32584   0.384   4.706   3.026 -0.4999  0.4165 -0.0223
 6984SOL    HW132585   0.336   0.000   3.102 -0.1225  4.9627 -1.6533
 6984SOL    HW232586   0.343   4.621   3.011 -0.2606  0.3027 -0.0322
 6985SOL     OW32587   3.515   2.664  12.829 -0.5784 -0.0214  0.1297
 6985SOL    HW132588   3.572   2.728  12.871  0.9763 -1.5842  0.4109
 6985SOL    HW232589   3.501   2.606  12.904  0.8060 -2.8494 -1.8215
 6986SOL     OW32590   0.192   2.005  17.569  0.3253 -0.3965  0.6230
 6986SOL    HW132591   0.163   1.922  17.532 -0.8044 -0.9809  2.8636
 6986SOL    HW232592   0.201   1.981  17.661 -1.3616  2.3049  1.4997
 6987SOL     OW32593   2.225   3.606  15.915  0.1713  0.2645  0.1789
 6987SOL    HW132594   2.226   3.517  15.949  0.3439  1.2055  2.7272
 6987SOL    HW232595   2.308   3.641  15.950  0.2782 -0.1053  0.2901
 6988SOL     OW32596   2.664   0.815  13.415 -0.3764  0.8511 -0.0370
 6988SOL    HW132597   2.691   0.828  13.506  1.8851 -1.9589 -0.3084
 6988SOL    HW232598   2.654   0.721  13.398 -1.4812  0.8313  0.7599
 6989SOL     OW32599   2.624   1.259  16.799  0.0345 -0.0575 -0.2531
 6989SOL    HW132600   2.708   1.229  16.765 -0.8069 -3.9415  1.0893
 6989SOL    HW232601   2.636   1.353  16.785  0.0763 -0.2215 -1.3349
 6990SOL     OW32602   2.061   0.689   4.673  0.2743 -0.1043  0.1249
 6990SOL    HW132603   2.019   0.623   4.620  1.4937 -0.9623  0.2183
 6990SOL    HW232604   2.042   0.646   4.757  1.7459 -2.8904 -0.9819
 6991SOL     OW32605   1.718   2.623   6.595  0.2066  0.0825  0.5815
 6991SOL    HW132606   1.735   2.628   6.689 -0.8842 -2.0183  0.8872
 6991SOL    HW232607   1.748   2.535   6.572 -1.2347 -0.2366 -0.0548
 6992SOL     OW32608   4.165   4.585  13.641 -0.3727  0.1178  0.3300
 6992SOL    HW132609   4.072   4.560  13.637 -0.2448  0.3309 -3.1736
 6992SOL    HW232610   4.157   4.673  13.678 -2.8034  0.7314 -1.6359
 6993SOL     OW32611   3.122   4.271   4.352 -0.3485 -0.0810 -0.4823
 6993SOL    HW132612   3.209   4.274   4.313  0.5643 -0.6110  1.4834
 6993SOL    HW232613   3.073   4.325   4.290  0.8874  2.1397  0.4626
 6994SOL     OW32614   3.954   3.613   5.008 -0.2243  0.1034  0.3534
 6994SOL    HW132615   3.954   3.624   4.913  0.4867  1.4480  0.5106
 6994SOL    HW232616   4.028   3.670   5.030 -0.0493 -0.6842  1.8216
 6995SOL     OW32617   4.537   3.626   4.749 -0.3966 -0.3328  0.2958
 6995SOL    HW132618   4.557   3.668   4.833  0.0751 -0.0373  0.0388
 6995SOL    HW232619   4.579   3.684   4.685  0.5602 -1.3355  0.0144
 6996SOL     OW32620   2.358   2.212  11.866 -0.0969 -0.3071  0.4831
 6996SOL    HW132621   2.437   2.207  11.921  1.4831 -1.0505 -1.8769
 6996SOL    HW232622   2.399   2.285  11.820 -4.1093  0.7876 -1.3374
 6997SOL     OW32623   0.667   0.424  10.090 -0.3413  0.4563  0.4493
 6997SOL    HW132624   0.578   0.453  10.111 -0.2317  1.2822 -0.1992
 6997SOL    HW232625   0.652   0.332  10.066 -1.7484  1.0714 -1.0963
 6998SOL     OW32626   4.521   0.096   2.000  0.5958 -0.3189  0.1750
 6998SOL    HW132627   4.563   0.179   2.025 -2.0260  0.9127  0.4702
 6998SOL    HW232628   4.444   0.127   1.953 -0.1402 -0.7071  1.1281
 6999SOL     OW32629   0.367   1.000  10.542 -0.0342  0.2032  0.3710
 6999SOL    HW132630   0.462   0.997  10.545  0.0094 -1.1581 -2.7271
 6999SOL    HW232631   0.347   0.916  10.500 -2.6302  1.2807 -0.5590
 7000SOL     OW32632   3.010   1.158  16.277  0.2954  0.7018 -0.0866
 7000SOL    HW132633   3.086   1.188  16.326  0.8517 -0.8395 -0.0109
 7000SOL    HW232634   3.017   1.217  16.202  0.9252  2.1161  1.0840
 7001SOL     OW32635   3.920   2.205   8.367 -0.1006 -0.0241  0.0406
 7001SOL    HW132636   3.843   2.201   8.424 -1.1966 -0.7172 -1.4789
 7001SOL    HW232637   3.897   2.149   8.293  0.2653 -0.6114  0.3709
 7002SOL     OW32638   3.544   0.483  12.192 -0.2243 -0.6201  0.1238
 7002SOL    HW132639   3.461   0.492  12.146 -1.2376  0.6158  2.1680
 7002SOL    HW232640   3.513   0.526  12.272  1.3149  0.4270  0.1613
 7003SOL     OW32641   2.208   4.332   3.594 -0.6357 -0.0280  0.1227
 7003SOL    HW132642   2.255   4.318   3.676  1.4627  1.0829 -0.8822
 7003SOL    HW232643   2.186   4.423   3.611  0.0616  0.1303  0.1848
 7004SOL     OW32644   3.822   2.290  16.983 -0.0869 -0.1682  0.2430
 7004SOL    HW132645   3.878   2.367  16.969 -0.4159  0.1098  0.4587
 7004SOL    HW232646   3.826   2.282  17.078 -0.8822  1.3068  0.4055
 7005SOL     OW32647   1.870   1.726   6.231  0.4931  0.0035 -0.0577
 7005SOL    HW132648   1.799   1.673   6.196  1.2016 -0.1803 -1.1976
 7005SOL    HW232649   1.949   1.676   6.212 -0.8854 -2.7921  1.6395
 7006SOL     OW32650   4.002   3.130  12.146 -0.1331  0.1954 -0.2623
 7006SOL    HW132651   4.056   3.052  12.133 -1.8810 -0.6264 -2.6918
 7006SOL    HW232652   3.919   3.084  12.156  0.8424 -0.9561  2.4732
 7007SOL     OW32653   1.559   3.787   4.247 -0.2578  0.5239 -0.5013
 7007SOL    HW132654   1.586   3.864   4.297  0.8154 -0.7572  0.9207
 7007SOL    HW232655   1.638   3.776   4.195 -0.3126  0.3317 -0.5456
 7008SOL     OW32656   4.280   0.850  13.092 -0.3677  0.1458 -0.0528
 7008SOL    HW132657   4.368   0.819  13.114  0.0819  1.3671 -0.1209
 7008SOL    HW232658   4.242   0.771  13.053  2.1817 -2.0855  1.9322
 7009SOL     OW32659   3.964   1.704  14.048 -0.3864 -0.1863  0.4014
 7009SOL    HW132660   3.988   1.797  14.047  1.4611 -0.6407  2.1092
 7009SOL    HW232661   4.047   1.664  14.073  0.9783  1.7085 -1.1287
 7010SOL     OW32662   4.309   0.202  13.111 -0.3423 -0.2294 -0.5419
 7010SOL    HW132663   4.388   0.252  13.128  0.8009 -2.1861 -0.0533
 7010SOL    HW232664   4.327   0.167  13.023 -1.1077 -2.2890  0.1031
 7011SOL     OW32665   4.255   4.339   3.792  0.0959  0.0138 -0.3519
 7011SOL    HW132666   4.288   4.318   3.879  2.9397  0.6060 -1.3198
 7011SOL    HW232667   4.166   4.301   3.788 -0.0012  0.2297 -0.2064
 7012SOL     OW32668   4.484   3.409   4.048  0.6783  0.3663 -0.0986
 7012SOL    HW132669   4.553   3.428   4.112  0.8651  0.8267 -0.4333
 7012SOL    HW232670   4.440   3.494   4.050 -1.0118 -0.5225  0.2232
 7013SOL     OW32671   1.985   2.816  11.196 -0.1367 -0.1728  0.1820
 7013SOL    HW132672   1.998   2.910  11.204 -1.2245 -0.0340  0.3293
 7013SOL    HW232673   2.024   2.782  11.277  1.4086  0.9949 -0.0708
 7014SOL     OW32674   0.572   0.684   7.996  0.5099 -0.5113 -0.3697
 7014SOL    HW132675   0.543   0.695   7.905 -0.9718  0.6658  0.2408
 7014SOL    HW232676   0.500   0.739   8.027  1.1652 -0.1415  0.4704
 7015SOL     OW32677   2.247   1.862   2.320  0.6710 -0.3373  0.0725
 7015SOL    HW132678   2.325   1.905   2.283  0.7059  0.5460  1.1766
 7015SOL    HW232679   2.179   1.928   2.307 -0.2855 -1.0279  1.6754
 7016SOL     OW32680   4.030   2.272   1.440  0.8484  0.1125 -0.2108
 7016SOL    HW132681   4.017   2.240   1.529 -2.7518 -0.7292 -1.0185
 7016SOL    HW232682   4.049   2.195   1.385 -0.5477  0.7971 -1.6598
 7017SOL     OW32683   4.109   4.162   7.914 -0.4507 -0.5766  0.1620
 7017SOL    HW132684   4.078   4.217   7.985  0.9643 -2.8818  2.5391
 7017SOL    HW232685   4.111   4.077   7.957 -0.0702  0.0344  1.3223
 7018SOL     OW32686   2.472   3.229   3.352  0.4146 -0.0853 -0.0602
 7018SOL    HW132687   2.530   3.305   3.359  0.2577  0.1863 -1.8437
 7018SOL    HW232688   2.501   3.175   3.426  1.2473 -2.5466 -2.1590
 7019SOL     OW32689   3.933   2.976  17.363  0.5124  0.6722 -0.0718
 7019SOL    HW132690   3.990   2.901  17.382 -1.6421 -0.8402  0.3759
 7019SOL    HW232691   3.997   3.020  17.306  0.7485  0.2580 -0.1310
 7020SOL     OW32692   0.205   3.638   3.636 -0.1488  0.4854  0.4593
 7020SOL    HW132693   0.138   3.616   3.572  1.0041  1.4687 -1.1034
 7020SOL    HW232694   0.276   3.673   3.580  0.0497 -1.7796 -0.6804
 7021SOL     OW32695   3.360   0.423   4.609 -0.6783 -0.1400 -0.2057
 7021SOL    HW132696   3.333   0.411   4.518 -0.4739  0.6779 -0.3740
 7021SOL    HW232697   3.451   0.443   4.589 -0.7945 -0.3510 -0.9321
 7022SOL     OW32698   3.044   0.035   9.011 -0.3724 -0.5431  0.3018
 7022SOL    HW132699   3.053   0.077   8.926  0.3935 -0.4842  0.4118
 7022SOL    HW232700   3.136   0.013   9.029 -0.3293 -1.6657 -1.3465
 7023SOL     OW32701   1.573   3.544   2.623  0.0244 -0.7589  0.1375
 7023SOL    HW132702   1.628   3.588   2.558  0.8467  1.3782  2.2664
 7023SOL    HW232703   1.528   3.616   2.668  0.4606 -0.9725  0.9157
 7024SOL     OW32704   0.786   3.118   8.807  0.0317 -0.4449 -0.0806
 7024SOL    HW132705   0.874   3.086   8.829 -0.0486 -1.1717 -0.8146
 7024SOL    HW232706   0.736   3.040   8.784 -2.1628  1.1821 -0.8716
 7025SOL     OW32707   0.205   4.073   7.247  0.1165  0.2125  0.0216
 7025SOL    HW132708   0.157   4.001   7.289 -1.6955  0.8322 -1.0078
 7025SOL    HW232709   0.222   4.119   7.330 -1.2478 -1.7943  1.4333
 7026SOL     OW32710   2.294   4.226   4.380  0.1295  0.5904  0.1034
 7026SOL    HW132711   2.235   4.176   4.323 -3.1807  2.5622  1.7357
 7026SOL    HW232712   2.281   4.307   4.330  0.4464 -0.6577 -1.9929
 7027SOL     OW32713   3.401   0.868   2.093  0.0117  0.0008  0.1832
 7027SOL    HW132714   3.483   0.916   2.108 -0.0303 -0.3471  1.5207
 7027SOL    HW232715   3.421   0.814   2.169  0.1156  0.0906  0.2213
 7028SOL     OW32716   4.348   2.652   6.343 -0.4847 -0.3990  0.0174
 7028SOL    HW132717   4.258   2.618   6.336 -0.7650  0.2129  0.6351
 7028SOL    HW232718   4.366   2.675   6.251  2.0037 -2.9283 -0.1290
 7029SOL     OW32719   0.056   1.668   8.104 -0.7622 -0.0712 -0.3543
 7029SOL    HW132720   0.122   1.717   8.055 -1.6074  0.8731 -0.5619
 7029SOL    HW232721   0.096   1.586   8.076  0.5354  0.4701 -0.0949
 7030SOL     OW32722   0.212   3.292   6.330 -0.2536  0.6279  0.0874
 7030SOL    HW132723   0.191   3.323   6.418  1.5138  1.6928  0.1201
 7030SOL    HW232724   0.264   3.214   6.348 -0.1150  0.3519 -1.4988
 7031SOL     OW32725   0.304   2.050   4.032 -0.0270  0.0512 -0.3170
 7031SOL    HW132726   0.221   2.033   3.988  0.0781  0.4902 -0.6835
 7031SOL    HW232727   0.350   2.092   3.960  0.3085  0.1108 -0.0729
 7032SOL     OW32728   3.919   2.544   5.572  0.2199  0.0725 -0.2142
 7032SOL    HW132729   3.978   2.557   5.497  1.9363 -0.6162  1.0421
 7032SOL    HW232730   3.955   2.610   5.631  0.7821  1.2154 -1.8044
 7033SOL     OW32731   3.344   0.548   1.585  0.1122 -0.0307  0.0942
 7033SOL    HW132732   3.253   0.543   1.558 -0.6574  1.7193  2.3757
 7033SOL    HW232733   3.357   0.642   1.593 -1.4376  0.1402  0.5143
 7034SOL     OW32734   0.222   0.117   2.574  0.4244  0.3867 -0.1072
 7034SOL    HW132735   0.221   0.091   2.482 -0.6854 -1.2083  0.3638
 7034SOL    HW232736   0.239   0.211   2.582 -2.1151  0.7723  0.8171
 7035SOL     OW32737   0.138   0.054   0.957  0.3016 -0.1055  0.4647
 7035SOL    HW132738   0.233   0.044   0.962  0.2975 -0.9031 -1.1191
 7035SOL    HW232739   0.108   4.706   0.986  1.6024  0.2328  2.8434
 7036SOL     OW32740   4.389   3.373  10.908 -0.6409  0.4176 -0.0454
 7036SOL    HW132741   4.353   3.310  10.846 -0.0931  0.2530 -0.1897
 7036SOL    HW232742   4.324   3.444  10.906 -0.5617  0.4964  0.2864
 7037SOL     OW32743   3.040   2.832  11.962  0.0954 -0.1460 -0.4877
 7037SOL    HW132744   3.013   2.787  12.042 -0.3512 -0.2343 -0.6843
 7037SOL    HW232745   3.066   2.920  11.990  0.0939 -0.1682 -0.4159
 7038SOL     OW32746   2.515   2.583  17.292 -0.6040  0.5803 -0.2956
 7038SOL    HW132747   2.556   2.663  17.326 -2.0364  2.1070 -2.1075
 7038SOL    HW232748   2.528   2.590  17.197  2.1473 -0.9423 -0.0226
 7039SOL     OW32749   0.270   1.536  11.059  0.1473 -0.7558 -0.0741
 7039SOL    HW132750   0.321   1.599  11.110  0.6955 -1.4522  0.2336
 7039SOL    HW232751   0.251   1.582  10.977 -0.1118  1.6106  1.3103
 7040SOL     OW32752   1.093   4.042  17.097 -0.2801 -0.1127 -0.3948
 7040SOL    HW132753   1.178   4.043  17.140 -0.7091  0.2400  0.4412
 7040SOL    HW232754   1.125   4.083  17.017  0.6561  0.7580  0.4355
 7041SOL     OW32755   0.940   1.224   5.940  0.4681 -0.3605 -0.1366
 7041SOL    HW132756   0.964   1.159   5.874 -1.0703 -0.6875 -0.3787
 7041SOL    HW232757   0.869   1.179   5.985  1.8936 -0.9878  1.4921
 7042SOL     OW32758   3.198   1.332   8.775 -0.1194  0.1405 -0.2639
 7042SOL    HW132759   3.168   1.400   8.715  1.5100  0.1601 -1.0502
 7042SOL    HW232760   3.185   1.258   8.715 -0.3071  2.0621 -2.5788
 7043SOL     OW32761   0.315   0.904   6.721 -0.1300  0.0130 -0.9258
 7043SOL    HW132762   0.312   0.865   6.808  0.1617  3.3572  0.5831
 7043SOL    HW232763   0.303   0.997   6.741 -0.3632  0.0388 -1.1847
 7044SOL     OW32764   0.172   1.680  15.340 -0.4794 -0.1019 -0.3063
 7044SOL    HW132765   0.222   1.752  15.301 -1.1209  0.4430 -0.1314
 7044SOL    HW232766   0.097   1.733  15.367  0.0496  1.5667 -2.1488
 7045SOL     OW32767   3.419   0.366   7.465 -0.3456  0.0590 -0.4979
 7045SOL    HW132768   3.375   0.368   7.550 -0.9675 -2.1558 -0.7737
 7045SOL    HW232769   3.506   0.392   7.496  0.1253 -0.1838 -1.6230
 7046SOL     OW32770   1.288   1.639   7.739 -1.0479 -0.3799 -0.4172
 7046SOL    HW132771   1.275   1.681   7.654  0.0504 -1.4256 -1.1006
 7046SOL    HW232772   1.383   1.645   7.748 -1.1625  0.9345 -0.1230
 7047SOL     OW32773   4.024   4.196   8.212  0.5881  0.4958  0.0386
 7047SOL    HW132774   4.041   4.125   8.274 -1.2657  3.4331  3.9179
 7047SOL    HW232775   3.943   4.170   8.168  2.0347 -0.1900 -2.2466
 7048SOL     OW32776   3.947   3.529   2.416 -0.3496  0.4375 -0.2214
 7048SOL    HW132777   3.896   3.580   2.479 -0.2926  0.7694 -0.4459
 7048SOL    HW232778   3.891   3.516   2.340  0.8195 -0.8599 -0.8725
 7049SOL     OW32779   3.190   2.571   5.642  0.4319 -0.4472 -0.2716
 7049SOL    HW132780   3.115   2.522   5.608  0.0904  1.0927 -1.7253
 7049SOL    HW232781   3.232   2.498   5.688 -0.5456 -0.6082  0.3799
 7050SOL     OW32782   3.831   3.629   5.562 -0.0455  0.7993  0.1475
 7050SOL    HW132783   3.778   3.693   5.609 -2.1116  0.6379 -1.9175
 7050SOL    HW232784   3.778   3.576   5.503  0.0186  1.1690 -0.2488
 7051SOL     OW32785   4.535   1.891  16.588 -0.3300 -0.5404 -0.3486
 7051SOL    HW132786   4.586   1.832  16.533 -1.8446 -0.7504 -1.5278
 7051SOL    HW232787   4.477   1.940  16.530  0.8818  1.3067 -0.0082
 7052SOL     OW32788   2.441   3.315  16.451  0.1866  0.0351 -0.2296
 7052SOL    HW132789   2.444   3.240  16.510 -0.4318  0.7050  0.6462
 7052SOL    HW232790   2.348   3.336  16.455  0.4664  1.6142 -1.9430
 7053SOL     OW32791   1.240   2.251   1.735 -0.0494  0.2605  0.3252
 7053SOL    HW132792   1.217   2.344   1.737  0.4231  0.3558  1.3104
 7053SOL    HW232793   1.330   2.256   1.705 -0.7910 -0.2575 -1.9325
 7054SOL     OW32794   4.189   1.002  12.094 -0.4089 -0.0282 -0.3517
 7054SOL    HW132795   4.199   1.066  12.164 -1.7931  0.3458 -0.4850
 7054SOL    HW232796   4.098   0.973  12.098 -0.4350  0.4082  2.5661
 7055SOL     OW32797   2.990   0.090   7.505 -0.3377  0.2597  0.3811
 7055SOL    HW132798   3.034   0.137   7.576 -0.1221  2.4802 -1.2251
 7055SOL    HW232799   2.925   0.158   7.488  1.0170  0.9634 -1.9183
 7056SOL     OW32800   0.754   1.739   4.247 -0.1259  0.0969  0.0545
 7056SOL    HW132801   0.806   1.717   4.169  0.5726 -0.2916  0.6288
 7056SOL    HW232802   0.754   1.835   4.250 -1.0063  0.0184  2.2820
 7057SOL     OW32803   0.458   2.421   9.134 -0.5794 -0.2490 -0.0190
 7057SOL    HW132804   0.482   2.453   9.221 -2.9159  0.7801  0.2607
 7057SOL    HW232805   0.511   2.342   9.138  0.9700  0.6959 -1.8947
 7058SOL     OW32806   2.088   1.665   5.480  0.0273 -0.0637 -0.4195
 7058SOL    HW132807   2.052   1.754   5.474 -0.6187 -0.2402  1.0030
 7058SOL    HW232808   2.012   1.619   5.514 -1.1225  0.5953 -2.0966
 7059SOL     OW32809   0.941   1.274   5.551 -0.2404  0.0740  0.7731
 7059SOL    HW132810   0.917   1.183   5.531  0.7075  0.2552 -1.1859
 7059SOL    HW232811   0.991   1.289   5.471 -1.2305 -4.3605 -0.7187
 7060SOL     OW32812   2.429   3.842   4.392  0.9372 -0.0089  0.1606
 7060SOL    HW132813   2.446   3.795   4.311  0.7245  0.8792 -0.4030
 7060SOL    HW232814   2.472   3.784   4.454  2.0669  0.0728 -0.5473
 7061SOL     OW32815   3.479   4.003   7.218 -0.1084 -0.1368  0.1042
 7061SOL    HW132816   3.541   3.995   7.146  3.3633  1.6984  2.9126
 7061SOL    HW232817   3.452   3.916   7.248 -0.5009 -0.7482 -2.0108
 7062SOL     OW32818   4.123   0.745   4.150 -0.4582  0.0460  0.1562
 7062SOL    HW132819   4.182   0.818   4.135 -0.8739  0.0633 -1.4832
 7062SOL    HW232820   4.046   0.781   4.194 -1.0879 -1.7041  0.4882
 7063SOL     OW32821   0.701   2.356   3.316  0.3739  0.4256  0.5954
 7063SOL    HW132822   0.693   2.451   3.323 -2.3358  0.2849 -0.5493
 7063SOL    HW232823   0.616   2.349   3.272 -0.7848  0.5997  2.7766
 7064SOL     OW32824   2.954   2.510   3.883 -0.4733 -0.6911  0.5051
 7064SOL    HW132825   2.978   2.553   3.801  2.2801 -1.2769  0.9920
 7064SOL    HW232826   2.873   2.465   3.859 -1.8195  2.7091 -1.3117
 7065SOL     OW32827   2.403   1.842   2.725  0.0660 -0.0135 -0.3072
 7065SOL    HW132828   2.321   1.800   2.701  0.5485 -0.4524 -1.2071
 7065SOL    HW232829   2.453   1.820   2.646 -0.3366  0.9331 -0.8314
 7066SOL     OW32830   2.568   4.006  16.290 -0.0413  0.4522  0.4946
 7066SOL    HW132831   2.564   4.100  16.272 -2.7104  0.1386 -0.5276
 7066SOL    HW232832   2.635   3.975  16.229  1.1937  0.6982  1.7244
 7067SOL     OW32833   1.139   1.689  11.093 -0.4727  0.0269 -0.2120
 7067SOL    HW132834   1.197   1.733  11.155  1.0543  0.8514 -2.1868
 7067SOL    HW232835   1.105   1.619  11.147  0.4151  0.1076  0.4554
 7068SOL     OW32836   0.693   0.947   9.802 -0.3879 -0.4809  0.5491
 7068SOL    HW132837   0.768   0.999   9.832 -0.5599 -1.3511  2.5177
 7068SOL    HW232838   0.633   0.983   9.869  0.0010 -0.8749  1.1094
 7069SOL     OW32839   4.647   0.875   0.019  0.2971  0.2521 -0.0836
 7069SOL    HW132840   4.594   0.902   0.094 -1.0897  0.9973 -1.3299
 7069SOL    HW232841   4.648   0.960  17.725  0.9893 -0.1189 -0.7788
 7070SOL     OW32842   4.357   4.202   5.775 -0.1215 -0.3921 -0.3571
 7070SOL    HW132843   4.337   4.194   5.682  0.9698  0.2937 -0.6427
 7070SOL    HW232844   4.383   4.294   5.776  2.1863 -1.0640  0.9953
 7071SOL     OW32845   4.159   0.101   6.163 -0.2169  0.2658 -0.3347
 7071SOL    HW132846   4.088   0.039   6.181  0.8493 -0.5561  1.0247
 7071SOL    HW232847   4.114   0.160   6.103 -2.1521 -0.6648  0.1883
 7072SOL     OW32848   2.697   2.363   4.593  0.2041  0.1179 -0.0810
 7072SOL    HW132849   2.790   2.373   4.614  0.5475 -0.3687 -1.3895
 7072SOL    HW232850   2.665   2.453   4.596 -1.1272 -0.4368  2.8031
 7073SOL     OW32851   2.776   4.573   4.861  0.2444  0.1224 -0.6310
 7073SOL    HW132852   2.855   4.546   4.909 -0.7912 -2.4790 -0.3484
 7073SOL    HW232853   2.737   4.486   4.848  1.6344 -0.5233 -0.4244
 7074SOL     OW32854   3.230   4.206   2.725  0.5320 -0.4722  0.1236
 7074SOL    HW132855   3.206   4.298   2.718 -0.1493 -0.7818 -1.7085
 7074SOL    HW232856   3.261   4.197   2.815  1.4180  0.3610 -0.0895
 7075SOL     OW32857   4.195   1.626  14.126 -0.0643  0.3829  0.1876
 7075SOL    HW132858   4.258   1.695  14.103  0.3224 -0.3968 -1.0893
 7075SOL    HW232859   4.251   1.550  14.142  1.8553  1.9151  0.8844
 7076SOL     OW32860   2.817   2.172   9.727 -0.1549  0.1373 -0.3067
 7076SOL    HW132861   2.896   2.151   9.677  1.2941  1.9707  1.2307
 7076SOL    HW232862   2.792   2.248   9.675 -1.1184  0.5907  0.8335
 7077SOL     OW32863   0.293   1.727   0.268 -0.0107 -0.6625  0.5461
 7077SOL    HW132864   0.298   1.723   0.364  0.6777 -0.3940  0.5154
 7077SOL    HW232865   0.333   1.646   0.236  2.5210 -0.2673  2.7358
 7078SOL     OW32866   2.583   4.706   3.757 -0.2590 -0.0851 -0.0449
 7078SOL    HW132867   2.589   4.612   3.770  0.1435 -0.0449  0.0633
 7078SOL    HW232868   2.591   0.000   3.847 -0.0462 -3.0139  0.9742
 7079SOL     OW32869   4.493   4.281   1.322  0.1064 -0.1500 -0.3233
 7079SOL    HW132870   4.512   4.243   1.408 -0.7392 -0.8936 -0.4690
 7079SOL    HW232871   4.467   4.208   1.267  0.6129  0.8366 -1.8682
 7080SOL     OW32872   4.471   3.090  10.214 -0.4124 -0.4793  0.0273
 7080SOL    HW132873   4.452   3.083  10.120 -1.2207  0.4481  0.1233
 7080SOL    HW232874   4.563   3.064  10.220 -0.6144 -1.3362 -0.5562
 7081SOL     OW32875   2.281   2.918   2.821 -0.4009  0.2472  0.3635
 7081SOL    HW132876   2.277   2.994   2.879 -1.3577  1.1580 -0.8975
 7081SOL    HW232877   2.236   2.940   2.740 -0.6682 -1.0876  0.1594
 7082SOL     OW32878   2.309   1.629   2.210 -0.1598 -0.1509 -0.1124
 7082SOL    HW132879   2.281   1.567   2.277 -0.0724 -1.0929 -0.9448
 7082SOL    HW232880   2.276   1.711   2.248  1.5045 -0.2473  1.5157
 7083SOL     OW32881   2.310   1.421   3.055  0.2369 -0.4489  0.1544
 7083SOL    HW132882   2.223   1.456   3.074  0.1091 -0.4890 -0.3638
 7083SOL    HW232883   2.360   1.452   3.131 -0.0940  1.0916 -0.2667
 7084SOL     OW32884   2.417   1.326   6.588 -0.0190 -0.1158 -0.1833
 7084SOL    HW132885   2.511   1.306   6.592 -0.2218 -0.7790  1.1386
 7084SOL    HW232886   2.392   1.304   6.677  1.4640  1.0582  0.5180
 7085SOL     OW32887   2.172   0.225   4.560 -0.6362 -0.0999 -0.2031
 7085SOL    HW132888   2.097   0.279   4.536 -2.1562 -2.2368 -0.2659
 7085SOL    HW232889   2.147   0.215   4.652  0.9745 -0.8453  0.1506
 7086SOL     OW32890   3.183   3.427   9.020 -0.1870  0.2444  0.1219
 7086SOL    HW132891   3.103   3.431   8.968 -0.8277  1.4291  1.2328
 7086SOL    HW232892   3.176   3.350   9.076  0.5973 -1.5212 -2.2060
 7087SOL     OW32893   1.432   2.183   8.287 -0.0159  0.6633  0.0783
 7087SOL    HW132894   1.343   2.167   8.258  0.2810 -1.4692  0.2862
 7087SOL    HW232895   1.484   2.202   8.209 -0.8948  1.4453 -0.3093
 7088SOL     OW32896   1.761   1.362   2.283 -0.0219  0.4822  0.2152
 7088SOL    HW132897   1.692   1.363   2.349  0.0399  1.9285  0.2487
 7088SOL    HW232898   1.722   1.306   2.216 -0.6790  1.2853 -0.0680
 7089SOL     OW32899   2.846   4.103  12.619 -0.4158 -0.4731  0.0315
 7089SOL    HW132900   2.832   4.152  12.700  0.7016 -0.6404  0.3239
 7089SOL    HW232901   2.848   4.011  12.646  2.6162 -0.1801  0.7702
 7090SOL     OW32902   4.173   0.148   0.836  0.5191 -0.3456 -0.1943
 7090SOL    HW132903   4.094   0.093   0.838 -0.4269  1.0691  0.8600
 7090SOL    HW232904   4.137   0.235   0.853 -0.1527 -0.8339  0.8214
 7091SOL     OW32905   4.509   1.259  17.598 -0.5100  0.4337  0.6554
 7091SOL    HW132906   4.470   1.269  17.685 -1.3013  2.0236  0.1103
 7091SOL    HW232907   4.481   1.340  17.555 -2.4050  0.0576  1.1925
 7092SOL     OW32908   4.373   0.538   5.424  0.6740 -0.1273  0.2241
 7092SOL    HW132909   4.424   0.533   5.343  0.0989  0.6890 -0.1806
 7092SOL    HW232910   4.289   0.492   5.413  1.5752 -1.6872 -0.0958
 7093SOL     OW32911   4.417   2.827   3.830 -0.5377 -0.0821  0.3954
 7093SOL    HW132912   4.459   2.761   3.885 -0.9451 -0.6875 -0.0269
 7093SOL    HW232913   4.488   2.890   3.835 -1.0783  0.5681 -0.0336
 7094SOL     OW32914   1.820   3.120   8.686  0.0111  0.0579  0.7485
 7094SOL    HW132915   1.744   3.150   8.636  1.9445  1.7680 -1.1634
 7094SOL    HW232916   1.810   3.192   8.749 -2.8420 -0.0322  0.3945
 7095SOL     OW32917   4.135   1.438   6.138  0.2057 -0.5653 -0.4477
 7095SOL    HW132918   4.206   1.495   6.110  1.3147 -2.5554 -1.6072
 7095SOL    HW232919   4.099   1.419   6.052 -0.9615 -1.1694  0.1617
 7096SOL     OW32920   0.300   3.203  15.233 -0.1249  0.4036  0.5760
 7096SOL    HW132921   0.318   3.137  15.300  4.4617  0.3774 -0.6555
 7096SOL    HW232922   0.222   3.237  15.276  0.1362  1.9947 -0.2000
 7097SOL     OW32923   0.158   3.358  11.444 -0.2801 -0.6082 -0.5044
 7097SOL    HW132924   0.190   3.354  11.354  1.5426 -0.5684  0.1255
 7097SOL    HW232925   0.185   3.270  11.472  0.4364 -0.2844 -0.1787
 7098SOL     OW32926   2.359   4.304   7.281  0.3150  0.2040 -0.2953
 7098SOL    HW132927   2.432   4.360   7.254  0.3971 -1.6386 -3.8886
 7098SOL    HW232928   2.285   4.344   7.235  1.5253  1.9379 -0.7456
 7099SOL     OW32929   2.680   0.059  14.399 -0.2994 -0.1367 -0.1492
 7099SOL    HW132930   2.748   0.027  14.339 -0.4107 -0.5438 -0.0595
 7099SOL    HW232931   2.612   0.004  14.360  0.3855 -0.3054 -1.1028
 7100SOL     OW32932   3.011   2.810   6.808 -0.0209 -0.0302 -0.8987
 7100SOL    HW132933   3.085   2.808   6.868 -0.7005 -1.2916 -0.1188
 7100SOL    HW232934   3.033   2.890   6.760 -0.1117  0.9617  0.7067
 7101SOL     OW32935   4.079   1.138   7.191  0.1546  0.3274 -0.4303
 7101SOL    HW132936   4.141   1.134   7.264 -0.9593 -1.5546  0.4189
 7101SOL    HW232937   4.006   1.085   7.223  1.4623 -1.8223 -1.0148
 7102SOL     OW32938   1.834   3.486  16.667  0.4270  0.0622  0.3819
 7102SOL    HW132939   1.929   3.498  16.659  0.8705 -2.4705  1.8420
 7102SOL    HW232940   1.802   3.541  16.595  0.8866  0.9919  0.8795
 7103SOL     OW32941   1.796   2.302   6.648  0.1650  0.1347 -0.6310
 7103SOL    HW132942   1.881   2.302   6.692 -0.2143 -1.2878  0.0896
 7103SOL    HW232943   1.830   2.256   6.571  2.0928 -0.7943  0.7741
 7104SOL     OW32944   0.340   2.494  11.412 -0.5540 -0.4908 -0.5390
 7104SOL    HW132945   0.378   2.485  11.499 -1.2866 -0.8497 -0.2627
 7104SOL    HW232946   0.249   2.465  11.416 -0.6547 -0.1764 -0.5239
 7105SOL     OW32947   0.758   1.993   8.131 -0.1864 -0.2311  0.4308
 7105SOL    HW132948   0.740   2.073   8.180  2.7528 -0.5898  2.1223
 7105SOL    HW232949   0.849   1.977   8.157 -0.2947 -2.4045 -0.5415
 7106SOL     OW32950   2.082   0.385   7.042 -0.1283  0.4285 -0.0117
 7106SOL    HW132951   2.076   0.291   7.057  1.9265  0.7836  2.9337
 7106SOL    HW232952   2.156   0.381   6.980 -0.2487  0.4694 -0.1589
 7107SOL     OW32953   2.354   4.415   6.992  0.1674 -0.2080 -0.1504
 7107SOL    HW132954   2.401   4.408   6.909  0.1002 -1.1203 -0.1190
 7107SOL    HW232955   2.297   4.490   6.975  0.9901  0.4440  0.0021
 7108SOL     OW32956   0.331   3.728  13.806  0.5307 -0.0885 -0.1626
 7108SOL    HW132957   0.310   3.736  13.899  1.4720  3.6968 -0.2907
 7108SOL    HW232958   0.247   3.707  13.765 -0.1708  1.8859  0.2796
 7109SOL     OW32959   0.028   4.058   2.564 -0.4594  0.2177 -0.0238
 7109SOL    HW132960   0.028   3.964   2.547 -1.3632  0.4087 -1.1444
 7109SOL    HW232961   4.698   4.078   2.629 -0.9254 -1.6524  0.0650
 7110SOL     OW32962   0.891   4.062   4.286 -0.4740 -0.4286  1.0490
 7110SOL    HW132963   0.851   4.071   4.372  1.6021 -0.0847  1.9964
 7110SOL    HW232964   0.963   4.124   4.300  0.0462 -0.7760 -0.0576
 7111SOL     OW32965   1.455   1.442   6.136  0.3515 -0.1304  0.7297
 7111SOL    HW132966   1.389   1.384   6.099  1.0984  0.0899 -0.9344
 7111SOL    HW232967   1.433   1.424   6.228 -0.0852 -0.1291  0.6236
 7112SOL     OW32968   3.120   2.058   9.750  0.3047  0.3019  0.7968
 7112SOL    HW132969   3.081   1.972   9.738  1.6577 -0.0792 -0.7788
 7112SOL    HW232970   3.093   2.093   9.666  2.7348 -0.2453 -0.2002
 7113SOL     OW32971   1.300   3.204   8.813  0.7726 -0.4185  0.5002
 7113SOL    HW132972   1.368   3.244   8.758  1.1303  0.5001  1.6132
 7113SOL    HW232973   1.319   3.111   8.810  0.5989 -0.4422  0.0930
 7114SOL     OW32974   4.129   0.262  16.845  0.2572  0.1329  0.2431
 7114SOL    HW132975   4.101   0.323  16.913  0.2883  1.3505 -0.8392
 7114SOL    HW232976   4.090   0.314  16.775 -2.3315 -0.0483  1.5420
 7115SOL     OW32977   0.211   0.612  16.009 -0.1240 -0.2330 -0.2102
 7115SOL    HW132978   0.228   0.532  16.060 -0.6900 -0.2812 -0.0994
 7115SOL    HW232979   0.266   0.602  15.932 -0.7947  0.5621 -0.7868
 7116SOL     OW32980   2.428   1.388   7.116 -0.1051  0.1899  0.4762
 7116SOL    HW132981   2.334   1.369   7.107 -0.2752  1.7399 -0.8986
 7116SOL    HW232982   2.455   1.331   7.188  0.4612 -0.0616  0.0643
 7117SOL     OW32983   1.752   4.443   5.445 -0.2410  0.8560 -0.0884
 7117SOL    HW132984   1.780   4.489   5.525  0.7766 -0.2247  0.1726
 7117SOL    HW232985   1.661   4.471   5.443 -0.3131  0.5525 -0.8531
 7118SOL     OW32986   3.852   3.511   0.295  0.5104 -0.3465 -0.4426
 7118SOL    HW132987   3.936   3.479   0.328  0.4165  0.7494  0.8544
 7118SOL    HW232988   3.873   3.528   0.204 -2.6563 -0.9068 -1.2611
 7119SOL     OW32989   2.309   0.376   7.352  0.6059  0.1578 -0.2319
 7119SOL    HW132990   2.326   0.334   7.268  0.1630  0.8596 -0.6729
 7119SOL    HW232991   2.221   0.355   7.382 -0.0781  1.1544 -1.5783
 7120SOL     OW32992   2.097   2.159   2.942  0.4452 -0.5335 -0.6092
 7120SOL    HW132993   2.188   2.187   2.948  0.2048  0.2431 -0.6322
 7120SOL    HW232994   2.076   2.147   2.849 -1.0741  0.7257 -0.4225
 7121SOL     OW32995   3.473   1.147  12.912  0.1774  0.8661  0.4131
 7121SOL    HW132996   3.435   1.074  12.863 -1.5214  2.0483 -0.0755
 7121SOL    HW232997   3.427   1.139  12.996  2.2224  1.6321  1.6084
 7122SOL     OW32998   0.706   2.107   0.799  0.3377  0.2461  0.0484
 7122SOL    HW132999   0.745   2.104   0.887  1.2222 -2.1424 -0.4180
 7122SOL    HW233000   0.777   2.124   0.737  0.5310  2.3562  0.8336
 7123SOL     OW33001   3.879   1.966  13.345  0.7034 -0.3849 -0.5932
 7123SOL    HW133002   3.873   1.879  13.385 -0.0202 -1.2564 -2.6081
 7123SOL    HW233003   3.795   1.982  13.303 -0.4611 -2.8994  0.8009
 7124SOL     OW33004   3.209   3.633   3.850  0.0208 -0.4134 -0.0659
 7124SOL    HW133005   3.244   3.671   3.931 -1.0752  1.1789 -0.3423
 7124SOL    HW233006   3.115   3.648   3.860 -0.1968 -1.7764  0.0351
 7125SOL     OW33007   4.030   2.352   4.817  0.1477  0.5546  0.0254
 7125SOL    HW133008   4.056   2.435   4.777  0.6016 -0.6818 -2.2974
 7125SOL    HW233009   4.083   2.346   4.896 -3.3238  1.4585  2.3757
 7126SOL     OW33010   2.915   0.975  14.212  0.5328  0.1561  0.0635
 7126SOL    HW133011   2.938   0.931  14.130 -1.1440  2.9886 -1.8903
 7126SOL    HW233012   2.955   1.059  14.190 -3.0081  1.1524 -2.5826
 7127SOL     OW33013   3.639   3.332   0.226 -0.2187 -0.5693  0.1982
 7127SOL    HW133014   3.718   3.384   0.239  0.4560 -1.4635 -0.3478
 7127SOL    HW233015   3.649   3.314   0.132  0.5160 -1.3866  0.4416
 7128SOL     OW33016   0.980   1.022   4.953 -0.1624 -0.1284 -0.0142
 7128SOL    HW133017   1.021   1.040   5.038 -1.3745 -0.6605  0.6878
 7128SOL    HW233018   1.031   1.083   4.900 -1.7189 -0.0226 -1.3881
 7129SOL     OW33019   1.666   0.372   4.485 -0.9029 -0.2839  1.2081
 7129SOL    HW133020   1.607   0.347   4.415 -0.6067 -0.8037  1.1412
 7129SOL    HW233021   1.636   0.463   4.488 -1.4654 -0.4590  0.8377
 7130SOL     OW33022   2.225   2.572  14.719  0.4672  0.2131  0.3063
 7130SOL    HW133023   2.180   2.505  14.667  0.6828  0.1296  0.2309
 7130SOL    HW233024   2.277   2.625  14.659  1.9627  0.7493  2.1056
 7131SOL     OW33025   3.706   2.279   4.925  0.3222 -0.1994 -0.4039
 7131SOL    HW133026   3.696   2.281   5.020 -1.6834  2.2577 -0.6872
 7131SOL    HW233027   3.747   2.192   4.920  1.5033  0.4245 -1.6894
 7132SOL     OW33028   0.613   2.441  11.088 -0.0218  0.1999 -0.1434
 7132SOL    HW133029   0.700   2.425  11.051 -0.7746  2.8357 -3.1215
 7132SOL    HW233030   0.576   2.354  11.074  2.8802 -1.1102  0.3050
 7133SOL     OW33031   2.534   1.731   6.877 -0.1760 -0.3606  0.1440
 7133SOL    HW133032   2.539   1.794   6.806 -1.4522  0.7474  1.0327
 7133SOL    HW233033   2.579   1.792   6.934 -2.5001  0.6261  0.9259
 7134SOL     OW33034   4.162   0.700  16.181  0.2029  0.6521 -0.4183
 7134SOL    HW133035   4.187   0.770  16.242  1.2004 -0.4253  0.4085
 7134SOL    HW233036   4.171   0.740  16.095 -1.9930 -1.5429 -1.6621
 7135SOL     OW33037   0.857   3.372   3.453  0.0672 -0.2541 -0.0362
 7135SOL    HW133038   0.835   3.279   3.456  1.4008 -0.5975 -1.2960
 7135SOL    HW233039   0.934   3.372   3.397  0.9607 -1.8658  1.1996
 7136SOL     OW33040   4.322   4.041   2.376 -0.0007  0.1599  0.2283
 7136SOL    HW133041   4.348   4.053   2.468 -4.4161  1.5907  1.2549
 7136SOL    HW233042   4.361   3.953   2.369 -0.9414 -0.3459  1.3019
 7137SOL     OW33043   1.400   4.417  16.053 -0.5928  0.0754  0.2698
 7137SOL    HW133044   1.326   4.429  15.993 -2.3413 -1.6691  2.0354
 7137SOL    HW233045   1.426   4.505  16.078  1.5287 -0.8047  1.1806
 7138SOL     OW33046   3.984   3.552  13.432 -0.1028 -0.4147 -0.2005
 7138SOL    HW133047   4.038   3.538  13.510  1.7657 -1.2955 -1.6543
 7138SOL    HW233048   4.037   3.550  13.353 -0.0082  1.1601 -0.1802
 7139SOL     OW33049   1.997   0.694   7.447  0.0751 -0.0185 -0.8522
 7139SOL    HW133050   1.916   0.706   7.397  0.1358  1.6242 -0.5540
 7139SOL    HW233051   2.049   0.689   7.366 -0.0857 -0.5063 -0.9242
 7140SOL     OW33052   0.380   2.877   4.637 -0.8268 -0.3476  0.4741
 7140SOL    HW133053   0.380   2.786   4.605 -2.0673 -0.5428  1.0391
 7140SOL    HW233054   0.348   2.920   4.557 -0.0771 -2.1159 -0.7815
 7141SOL     OW33055   1.845   0.639   4.463  0.3721  0.0577 -0.2805
 7141SOL    HW133056   1.827   0.662   4.372  0.6415  0.4108 -0.2440
 7141SOL    HW233057   1.768   0.676   4.505 -1.0012 -1.5120 -1.4172
 7142SOL     OW33058   2.153   0.226   4.851 -0.6017  0.3040  0.3980
 7142SOL    HW133059   2.058   0.227   4.862 -0.5482 -1.8396  1.0112
 7142SOL    HW233060   2.173   0.179   4.932  0.4115 -1.3999 -0.8320
 7143SOL     OW33061   1.575   0.598  16.268 -0.2362 -0.2279 -0.3525
 7143SOL    HW133062   1.484   0.605  16.240 -0.7061  0.4116  1.3123
 7143SOL    HW233063   1.606   0.528  16.211  0.0599 -0.2312 -0.1853
 7144SOL     OW33064   3.574   1.319   1.611  0.1507 -0.1260  0.9017
 7144SOL    HW133065   3.565   1.414   1.619 -1.6228 -0.0493 -2.1964
 7144SOL    HW233066   3.485   1.296   1.583  0.0203  0.2816  0.9709
 7145SOL     OW33067   3.316   1.440   1.553  0.3308 -0.0361  0.4182
 7145SOL    HW133068   3.341   1.525   1.517  0.6792 -0.6413 -0.7612
 7145SOL    HW233069   3.258   1.474   1.621  0.0807 -2.0630  1.2162
 7146SOL     OW33070   4.602   3.980  17.262 -0.4716  0.4096 -0.2548
 7146SOL    HW133071   4.687   3.949  17.295 -0.5691  1.6891  1.1913
 7146SOL    HW233072   4.557   3.984  17.346 -4.6394  2.2187 -2.6299
 7147SOL     OW33073   0.110   0.572   2.123  0.1033 -0.6020  0.3410
 7147SOL    HW133074   0.070   0.530   2.200 -1.1360  0.4128  0.2464
 7147SOL    HW233075   0.193   0.526   2.119  0.6461  0.3624  0.4401
 7148SOL     OW33076   4.184   3.481  16.209  0.0136 -0.1180  0.1248
 7148SOL    HW133077   4.147   3.490  16.121 -0.4781  0.6295  0.4030
 7148SOL    HW233078   4.202   3.574  16.225 -0.4996  0.1099 -0.6126
 7149SOL     OW33079   1.750   0.865   2.059  0.2124 -0.6137  0.3748
 7149SOL    HW133080   1.840   0.837   2.076 -0.5902 -2.6452  1.2322
 7149SOL    HW233081   1.702   0.815   2.125  1.2124  0.5525  1.9892
 7150SOL     OW33082   1.192   4.293   3.317  0.5762  0.5111  0.2198
 7150SOL    HW133083   1.200   4.388   3.327 -1.3170  0.5550  1.3079
 7150SOL    HW233084   1.172   4.273   3.408  3.4572 -1.5407  0.4051
 7151SOL     OW33085   0.040   2.330   8.919 -0.0052 -0.0116  0.3162
 7151SOL    HW133086   0.120   2.306   8.873 -1.0874 -2.1970 -0.4074
 7151SOL    HW233087   0.068   2.333   9.011 -0.4117 -2.1085  0.5109
 7152SOL     OW33088   1.713   3.533   1.486 -0.5632  0.5778  0.0877
 7152SOL    HW133089   1.647   3.552   1.419 -0.7025 -1.0852 -0.2389
 7152SOL    HW233090   1.732   3.441   1.466  0.8611  0.9648 -0.3706
 7153SOL     OW33091   2.536   2.258   2.191 -0.0617 -0.2077  0.1404
 7153SOL    HW133092   2.540   2.315   2.267 -0.4210 -0.3665  0.2812
 7153SOL    HW233093   2.462   2.293   2.141 -1.6606  0.1306  2.7740
 7154SOL     OW33094   4.085   4.026   8.685  0.0571 -0.2059  0.3840
 7154SOL    HW133095   4.141   4.000   8.758  0.0102 -0.2812  0.3930
 7154SOL    HW233096   4.133   3.982   8.615 -0.5649  1.1721 -0.8983
 7155SOL     OW33097   3.258   1.731  13.529  0.3069 -0.3273 -0.1462
 7155SOL    HW133098   3.186   1.740  13.592 -0.1865 -3.9183 -0.2200
 7155SOL    HW233099   3.280   1.823  13.513  2.0295 -0.7810 -0.4503
 7156SOL     OW33100   4.599   3.082  10.718 -0.0284  0.0841  0.1661
 7156SOL    HW133101   4.552   3.091  10.801  0.1252  0.2269  0.2361
 7156SOL    HW233102   4.548   3.148  10.671  0.3500  0.7601  0.7003
 7157SOL     OW33103   3.057   1.543   7.693 -0.1037  0.1987  0.5598
 7157SOL    HW133104   3.044   1.487   7.616  0.1114 -1.1766  1.5379
 7157SOL    HW233105   2.968   1.534   7.727 -0.5042  0.0735 -0.5151
 7158SOL     OW33106   2.988   4.074   7.912 -0.1726 -0.4084 -0.9223
 7158SOL    HW133107   3.012   4.077   7.819 -0.8938 -1.3524 -1.1473
 7158SOL    HW233108   2.949   4.161   7.921  0.6192 -0.3783  2.2750
 7159SOL     OW33109   2.858   4.173   8.245  0.4497  0.5119  0.3263
 7159SOL    HW133110   2.893   4.127   8.321 -0.5199 -1.3821 -0.3680
 7159SOL    HW233111   2.899   4.132   8.169 -0.3689  0.0436  0.1342
 7160SOL     OW33112   1.508   4.400   1.562  0.0498  0.0974  0.1639
 7160SOL    HW133113   1.484   4.480   1.609  2.0319  0.3619  0.7043
 7160SOL    HW233114   1.428   4.375   1.516  0.6552  0.0098 -0.8350
 7161SOL     OW33115   3.222   2.979   6.144  0.7284  0.4694 -0.1077
 7161SOL    HW133116   3.290   3.045   6.158  0.8314  0.3923 -0.2392
 7161SOL    HW233117   3.201   3.007   6.055 -0.6940 -0.4179 -0.0389
 7162SOL     OW33118   2.094   0.298   3.488 -0.0982  0.3638  0.3485
 7162SOL    HW133119   2.189   0.290   3.488 -0.0654  0.7867 -1.2483
 7162SOL    HW233120   2.090   0.393   3.474 -0.1910  0.4331  0.8479
 7163SOL     OW33121   1.913   3.521  13.921 -0.6490 -0.2066  0.7181
 7163SOL    HW133122   1.912   3.483  13.833 -1.5493  0.8789  0.2526
 7163SOL    HW233123   1.871   3.453  13.973 -2.7997  0.5938  0.0150
 7164SOL     OW33124   2.893   1.853   2.124 -0.4491 -0.9664 -0.4393
 7164SOL    HW133125   2.845   1.876   2.045 -0.5417  2.8151  0.7263
 7164SOL    HW233126   2.869   1.918   2.191  1.1210  0.4966 -1.2960
 7165SOL     OW33127   1.634   1.794   2.040 -0.0563 -0.0090  0.2568
 7165SOL    HW133128   1.720   1.769   2.007 -1.2811 -0.4657 -2.6039
 7165SOL    HW233129   1.599   1.707   2.061 -1.3271  0.6818  0.9926
 7166SOL     OW33130   1.902   1.724   1.991  0.3464 -0.4098 -0.5128
 7166SOL    HW133131   1.926   1.631   1.997 -0.2609 -0.7083 -2.8751
 7166SOL    HW233132   1.966   1.759   1.929  0.8231 -2.4392 -1.1909
 7167SOL     OW33133   0.838   4.684   9.236 -0.4848  0.2018 -0.7353
 7167SOL    HW133134   0.812   4.623   9.167 -0.0472 -2.6025  1.6017
 7167SOL    HW233135   0.793   4.644   9.310 -0.6539  0.8595 -0.4874
 7168SOL     OW33136   4.067   2.594   3.634  0.2866  0.3481 -0.1489
 7168SOL    HW133137   4.126   2.663   3.604 -1.7763  1.2508 -2.1372
 7168SOL    HW233138   4.007   2.642   3.691 -2.1094  0.2203 -2.5638
 7169SOL     OW33139   1.900   2.644  17.496  0.4305  0.1748 -0.1514
 7169SOL    HW133140   1.965   2.713  17.482 -0.2065  0.9236  0.5749
 7169SOL    HW233141   1.956   2.590  17.552  2.0497  1.3272 -0.6263
 7170SOL     OW33142   1.368   2.071   4.453 -0.0092 -0.7884 -0.0738
 7170SOL    HW133143   1.387   2.157   4.490 -1.5593 -0.4396 -0.0520
 7170SOL    HW233144   1.453   2.055   4.413  0.7853  0.7325  1.0425
 7171SOL     OW33145   0.370   0.850   6.421  0.3496  0.1060  0.3396
 7171SOL    HW133146   0.349   0.933   6.377 -0.2920  1.4401  3.1981
 7171SOL    HW233147   0.367   0.870   6.514  2.3915 -0.5383  0.5513
 7172SOL     OW33148   1.341   0.514   5.851  0.5686 -0.2397 -0.3284
 7172SOL    HW133149   1.387   0.565   5.918  0.5315 -3.4849  2.1816
 7172SOL    HW233150   1.258   0.561   5.853  0.7353  0.0560 -0.3941
 7173SOL     OW33151   4.607   0.671   1.347 -0.7282 -0.5311 -0.4167
 7173SOL    HW133152   4.572   0.700   1.431 -1.1547  0.5360 -0.9692
 7173SOL    HW233153   4.683   0.624   1.382  0.8883  0.9046 -2.0018
 7174SOL     OW33154   3.685   4.230  15.938  0.2770  0.2836  0.3867
 7174SOL    HW133155   3.690   4.315  15.895 -1.1985  0.8087  1.2432
 7174SOL    HW233156   3.595   4.201  15.920  1.5991 -2.5947 -1.6162
 7175SOL     OW33157   1.965   4.342   7.808  0.4527  0.5524  0.3477
 7175SOL    HW133158   2.017   4.333   7.888  0.3487  0.8866  0.4554
 7175SOL    HW233159   1.962   4.254   7.771 -3.0596  1.0117 -0.4584
 7176SOL     OW33160   1.769   3.731   6.774 -0.6072 -0.1434 -0.5574
 7176SOL    HW133161   1.822   3.759   6.699  0.0062 -0.5129 -0.2575
 7176SOL    HW233162   1.718   3.808   6.800 -0.1591 -0.4012  1.0735
 7177SOL     OW33163   4.025   0.236  15.744  0.2739  0.3205  0.5744
 7177SOL    HW133164   4.004   0.148  15.774  0.5290  0.3885  0.9421
 7177SOL    HW233165   3.947   0.291  15.736 -0.0673  0.1605  2.7573
 7178SOL     OW33166   0.121   3.536   6.252 -0.2479  0.1745  0.2621
 7178SOL    HW133167   0.043   3.483   6.269 -0.7770  0.7900 -0.2145
 7178SOL    HW233168   0.182   3.477   6.297  0.0118 -0.5406 -1.0392
 7179SOL     OW33169   0.630   0.178   9.615 -0.2196  0.1379 -0.2030
 7179SOL    HW133170   0.683   0.140   9.545 -0.8633 -1.9292  0.4370
 7179SOL    HW233171   0.648   0.271   9.607 -0.3903  0.3049  1.2608
 7180SOL     OW33172   3.527   4.506  12.913 -0.5286  0.0806  0.0617
 7180SOL    HW133173   3.589   4.467  12.974  0.2039  1.0558 -0.0660
 7180SOL    HW233174   3.539   4.600  12.924  2.6506 -0.0682 -2.1300
 7181SOL     OW33175   2.668   2.958  14.330 -0.1494 -0.2784  0.0158
 7181SOL    HW133176   2.737   3.021  14.309  3.1312 -3.1458  1.9834
 7181SOL    HW233177   2.726   2.888  14.362  2.2633  1.1012 -1.3794
 7182SOL     OW33178   1.865   1.991   6.121 -0.0981  0.3593 -0.1154
 7182SOL    HW133179   1.835   1.945   6.200 -1.0494 -2.0261 -1.8479
 7182SOL    HW233180   1.935   1.930   6.095 -0.8200 -0.2921 -0.5532
 7183SOL     OW33181   4.438   1.837  11.062 -0.7588  0.2300  0.2251
 7183SOL    HW133182   4.495   1.872  10.993  1.0594  0.3153  1.7518
 7183SOL    HW233183   4.494   1.775  11.109 -1.6901 -0.4143  0.4829
 7184SOL     OW33184   4.344   0.562   2.046  0.8961  0.1705 -0.1580
 7184SOL    HW133185   4.391   0.645   2.038  2.2997 -0.3215  2.9277
 7184SOL    HW233186   4.314   0.548   1.957 -0.5376 -2.3248  0.7140
 7185SOL     OW33187   0.850   1.881   7.189  0.0364 -0.5242  0.1099
 7185SOL    HW133188   0.859   1.831   7.270 -2.3352 -3.1212 -1.2374
 7185SOL    HW233189   0.784   1.828   7.144  0.3771  0.3613 -1.4380
 7186SOL     OW33190   3.678   4.592   7.453 -0.1812  0.4020 -0.1362
 7186SOL    HW133191   3.586   4.589   7.430  0.4343 -1.1026 -2.4034
 7186SOL    HW233192   3.678   4.681   7.487 -0.9228 -0.7923  2.9212
 7187SOL     OW33193   1.543   0.935   5.678 -0.0147  0.3644 -0.3660
 7187SOL    HW133194   1.575   0.863   5.732 -0.4425  0.6400  0.2464
 7187SOL    HW233195   1.455   0.900   5.660 -0.8867  2.9081 -0.9667
 7188SOL     OW33196   0.995   0.240   4.642 -0.2496  0.3383  0.2830
 7188SOL    HW133197   0.969   0.303   4.575  1.3250  1.1963  0.4747
 7188SOL    HW233198   0.954   0.286   4.715 -3.8504 -0.6288 -1.1420
 7189SOL     OW33199   2.281   3.976  10.145 -0.4713 -0.1149  0.2161
 7189SOL    HW133200   2.291   3.973  10.050  1.0936  3.1935  0.2782
 7189SOL    HW233201   2.186   3.975  10.147 -0.4748  0.3995  0.3330
 7190SOL     OW33202   1.556   0.337   3.274  0.2217 -0.1281 -0.5742
 7190SOL    HW133203   1.651   0.350   3.278 -0.1000  2.1389 -0.0775
 7190SOL    HW233204   1.532   0.429   3.282 -1.9042 -0.6949 -0.4738
 7191SOL     OW33205   2.112   2.382  14.538 -0.8633  0.2333 -0.2622
 7191SOL    HW133206   2.074   2.294  14.533 -0.3409  0.1733 -3.3392
 7191SOL    HW233207   2.174   2.382  14.464  0.6075 -1.2890  0.9639
 7192SOL     OW33208   0.944   0.070   8.535  0.1163 -0.1817 -0.0442
 7192SOL    HW133209   0.986   0.042   8.616 -2.0106 -1.6489  0.5657
 7192SOL    HW233210   0.867   0.114   8.572  1.3686  0.6664  1.5688
 7193SOL     OW33211   3.226   2.726  13.860 -0.4509 -0.7172 -0.5212
 7193SOL    HW133212   3.322   2.722  13.858 -0.3965 -0.0856  0.6465
 7193SOL    HW233213   3.200   2.656  13.800  5.1235 -2.3874 -1.0194
 7194SOL     OW33214   0.789   2.101   5.149 -0.2344 -0.5909  0.0695
 7194SOL    HW133215   0.774   2.072   5.059 -0.9413  1.9579 -0.6249
 7194SOL    HW233216   0.710   2.153   5.162  1.7928  2.6725 -0.8027
 7195SOL     OW33217   4.303   2.820  13.276 -0.4402  0.4618 -0.0020
 7195SOL    HW133218   4.246   2.895  13.261 -1.0484 -0.3676 -1.8707
 7195SOL    HW233219   4.291   2.775  13.192 -3.1002 -0.0691  0.6790
 7196SOL     OW33220   2.169   4.615   3.625  0.0277  0.2249 -0.3460
 7196SOL    HW133221   2.210   4.661   3.698 -1.0967 -1.7972  1.5753
 7196SOL    HW233222   2.185   4.672   3.549  0.0364 -0.3395 -0.7697
 7197SOL     OW33223   3.367   3.147  12.952 -0.1302  0.1031  0.9203
 7197SOL    HW133224   3.448   3.164  12.999 -0.0012  0.4276  0.5793
 7197SOL    HW233225   3.306   3.185  13.016  2.3135  2.4980  1.8230
 7198SOL     OW33226   3.198   4.278   1.017  0.3331  0.0168  0.4399
 7198SOL    HW133227   3.272   4.329   0.984 -0.3928  1.0178  0.3917
 7198SOL    HW233228   3.180   4.321   1.101  1.2434  0.6931  0.2944
 7199SOL     OW33229   1.227   2.117  11.346 -0.1876  0.6456 -0.1918
 7199SOL    HW133230   1.288   2.136  11.274  0.7343 -1.0079  0.1660
 7199SOL    HW233231   1.148   2.156  11.307 -0.0145  0.2200 -0.9794
 7200SOL     OW33232   0.969   0.431   3.586  0.3188  0.0310  0.1436
 7200SOL    HW133233   0.909   0.400   3.519  1.6442 -0.2145 -0.9196
 7200SOL    HW233234   1.017   0.496   3.535 -1.1494  1.2649  0.3365
 7201SOL     OW33235   3.597   1.543   3.085  0.2637  0.2892 -0.5508
 7201SOL    HW133236   3.596   1.631   3.122 -0.4002  0.8392 -1.9206
 7201SOL    HW233237   3.660   1.554   3.014 -0.7184  0.5287 -1.3846
 7202SOL     OW33238   0.989   2.888   1.575 -0.3118 -0.1523  0.0816
 7202SOL    HW133239   0.926   2.872   1.504 -1.4182 -0.7405  1.1900
 7202SOL    HW233240   0.997   2.983   1.567  2.0956 -0.4624 -1.1929
 7203SOL     OW33241   4.326   2.351   5.263  0.1352 -0.4264  0.5966
 7203SOL    HW133242   4.398   2.377   5.319  0.1100  0.1408  0.3616
 7203SOL    HW233243   4.280   2.292   5.322  1.0125 -1.2742  0.4391
 7204SOL     OW33244   2.338   1.243   5.583  0.5439  0.0560 -0.1276
 7204SOL    HW133245   2.379   1.311   5.636  0.4783 -0.7113  0.8990
 7204SOL    HW233246   2.369   1.170   5.636  0.6227  1.0620  1.2164
 7205SOL     OW33247   1.058   1.650   4.482  0.4912  0.6162 -0.5994
 7205SOL    HW133248   1.085   1.656   4.390  0.2656 -1.2928 -0.7975
 7205SOL    HW233249   0.964   1.644   4.462 -0.3700  1.2822  3.2273
 7206SOL     OW33250   2.525   1.155   8.461 -0.6393  0.0639 -0.0121
 7206SOL    HW133251   2.599   1.106   8.497 -1.4496 -0.4970  0.8928
 7206SOL    HW233252   2.484   1.089   8.406 -2.3397  1.4867 -0.4416
 7207SOL     OW33253   4.257   2.909   5.697  0.7080  0.6881  0.0690
 7207SOL    HW133254   4.281   2.997   5.668  0.2191  1.0752  0.8685
 7207SOL    HW233255   4.195   2.938   5.764  1.8031 -1.5360  2.0468
 7208SOL     OW33256   3.333   0.861   7.597 -0.0841  0.0906 -0.1728
 7208SOL    HW133257   3.428   0.875   7.590 -0.1807  0.8689  0.0743
 7208SOL    HW233258   3.301   0.837   7.510  0.1504 -0.0995 -0.2090
 7209SOL     OW33259   2.839   3.444   0.940 -0.0779 -0.0255  0.4927
 7209SOL    HW133260   2.746   3.453   0.919  0.2168 -1.5251 -1.4010
 7209SOL    HW233261   2.870   3.534   0.932  1.2893 -0.3442  2.1306
 7210SOL     OW33262   3.818   4.123   7.215  0.0839  0.0749 -0.1205
 7210SOL    HW133263   3.798   4.072   7.294 -0.6662  1.4441  0.5649
 7210SOL    HW233264   3.869   4.059   7.165 -0.0803 -0.2227  0.0855
 7211SOL     OW33265   3.858   0.977   8.897 -0.4938 -0.1529  0.4723
 7211SOL    HW133266   3.854   0.952   8.990  0.6267 -3.0097 -0.2333
 7211SOL    HW233267   3.861   0.888   8.862 -3.2419  0.3226 -0.9371
 7212SOL     OW33268   0.602   1.940   6.124 -0.3807  0.1709 -0.6046
 7212SOL    HW133269   0.605   2.004   6.052  1.8110 -1.5426 -2.0261
 7212SOL    HW233270   0.692   1.954   6.152 -0.8984  0.9196  0.6555
 7213SOL     OW33271   3.609   3.767   7.682  0.1230 -0.6246  0.1496
 7213SOL    HW133272   3.697   3.739   7.658  0.3309 -1.1891  1.5459
 7213SOL    HW233273   3.606   3.859   7.654  2.6896 -0.5738  0.0729
 7214SOL     OW33274   4.564   2.572   3.814  0.4778 -0.3916  0.4922
 7214SOL    HW133275   4.593   2.574   3.723 -1.5314  2.2745 -0.0638
 7214SOL    HW233276   4.628   2.628   3.858 -0.2236  2.3478 -1.9938
 7215SOL     OW33277   4.326   1.275  16.635  0.7347  0.0993  0.5822
 7215SOL    HW133278   4.366   1.209  16.578 -2.2269 -1.3646  0.1873
 7215SOL    HW233279   4.270   1.218  16.688 -1.8304  1.3701 -0.7487
 7216SOL     OW33280   1.494   4.574  13.911 -0.4691  0.5593  0.6647
 7216SOL    HW133281   1.466   4.625  13.835 -0.2186 -0.4942 -0.1356
 7216SOL    HW233282   1.496   4.485  13.877 -2.6595  0.9824 -0.5513
 7217SOL     OW33283   0.962   3.532   9.361  0.3709 -0.2244  0.0413
 7217SOL    HW133284   0.997   3.607   9.409 -1.4745  0.5877  0.0787
 7217SOL    HW233285   1.034   3.498   9.307  2.0635  0.3683  1.9380
 7218SOL     OW33286   2.624   2.916   3.007  0.1997  0.0120 -0.3363
 7218SOL    HW133287   2.588   2.844   2.956 -0.9462  0.2589  0.1343
 7218SOL    HW233288   2.545   2.925   3.059  0.1761 -0.1322 -0.3494
 7219SOL     OW33289   2.710   0.880  17.000 -0.1926 -0.3854 -0.3983
 7219SOL    HW133290   2.736   0.875  16.907  2.1828 -0.6953  0.2779
 7219SOL    HW233291   2.741   0.968  17.022 -3.1119  0.0149  2.0388
 7220SOL     OW33292   4.521   1.611  13.543 -0.2713 -0.2483 -0.1777
 7220SOL    HW133293   4.600   1.570  13.508  0.1968  0.4696  0.0376
 7220SOL    HW233294   4.479   1.646  13.464 -0.3744 -1.5392 -0.6958
 7221SOL     OW33295   1.833   1.891   3.489 -0.9765  0.1941  0.3611
 7221SOL    HW133296   1.808   1.953   3.421  2.4114  0.6783 -0.4544
 7221SOL    HW233297   1.923   1.868   3.465 -0.7373 -0.3769  1.8059
 7222SOL     OW33298   1.773   4.412   2.825  0.1851 -0.4146  0.1928
 7222SOL    HW133299   1.771   4.376   2.913  0.0465 -3.3254 -1.0221
 7222SOL    HW233300   1.686   4.452   2.822  0.4408  0.1789  0.5342
 7223SOL     OW33301   0.014   0.436   8.445 -0.2467 -0.2813 -0.3603
 7223SOL    HW133302   0.024   0.470   8.534 -0.4701 -0.6173 -0.2088
 7223SOL    HW233303   0.009   0.521   8.400  1.7384  1.4971  2.7944
 7224SOL     OW33304   2.522   2.421   2.393 -0.3104  0.1883  0.0565
 7224SOL    HW133305   2.442   2.455   2.433  0.8633  2.2626  0.6685
 7224SOL    HW233306   2.571   2.503   2.399  0.0727 -0.0245 -0.2281
 7225SOL     OW33307   0.542   3.713  12.135  0.6080  0.1209  0.0357
 7225SOL    HW133308   0.595   3.745  12.209  1.8290  1.6893 -1.5049
 7225SOL    HW233309   0.581   3.628  12.111  2.6553  1.2196 -0.5440
 7226SOL     OW33310   0.078   2.214   0.143 -0.0833  0.4004 -0.6000
 7226SOL    HW133311   0.019   2.248   0.210 -0.1690 -0.2502 -0.3405
 7226SOL    HW233312   0.119   2.146   0.196  1.2858  2.3145  0.7918
 7227SOL     OW33313   1.569   3.589   8.995  1.2465  0.0001  0.3600
 7227SOL    HW133314   1.573   3.533   8.917  0.1623 -0.5972  0.7325
 7227SOL    HW233315   1.631   3.660   8.976 -0.3733  0.7277 -2.2018
 7228SOL     OW33316   1.139   0.768   7.200 -0.6447  0.1368  0.1856
 7228SOL    HW133317   1.061   0.715   7.218 -1.1248  1.4226  1.8788
 7228SOL    HW233318   1.139   0.831   7.272 -0.6299  0.2357  0.0989
 7229SOL     OW33319   0.221   4.305   4.107 -0.2984 -0.3907  0.3928
 7229SOL    HW133320   0.131   4.335   4.119 -0.0844  0.6454 -0.6352
 7229SOL    HW233321   0.211   4.210   4.112  1.0254 -0.4922  1.3664
 7230SOL     OW33322   0.798   2.981   4.464 -0.2001  1.0584 -0.2365
 7230SOL    HW133323   0.855   2.932   4.523  0.7554  1.9219 -0.4556
 7230SOL    HW233324   0.768   2.913   4.403  0.2984  0.4326  0.2088
 7231SOL     OW33325   4.190   3.999   2.113 -0.7306 -0.5408  0.2481
 7231SOL    HW133326   4.152   4.077   2.074  1.2186 -0.2460 -1.0947
 7231SOL    HW233327   4.176   4.010   2.207  0.3914  2.3552  0.1028
 7232SOL     OW33328   1.482   0.977   7.748  0.6158  0.2950 -0.2690
 7232SOL    HW133329   1.507   1.001   7.838  1.8397  1.1172 -0.8235
 7232SOL    HW233330   1.499   0.883   7.753  0.3546  0.3607  2.1211
 7233SOL     OW33331   3.460   1.860   3.434  0.1262  0.5948  0.4324
 7233SOL    HW133332   3.384   1.823   3.390  1.0948 -2.2602  1.1514
 7233SOL    HW233333   3.436   1.839   3.525  2.0679 -3.4284  0.0123
 7234SOL     OW33334   3.349   3.152   4.757 -0.1418 -0.3099  0.2370
 7234SOL    HW133335   3.309   3.185   4.677 -0.9501 -2.1233 -0.0913
 7234SOL    HW233336   3.434   3.122   4.723 -0.2280  0.4082 -0.6186
 7235SOL     OW33337   1.572   0.454  11.359 -0.2948 -0.4235  0.6387
 7235SOL    HW133338   1.570   0.497  11.445 -0.6664  1.4445 -0.3076
 7235SOL    HW233339   1.531   0.371  11.382 -1.9326  0.0432 -0.5776
 7236SOL     OW33340   2.863   3.160  15.928 -0.0654  0.3688  0.0938
 7236SOL    HW133341   2.806   3.090  15.896  0.4678  0.2585 -0.6118
 7236SOL    HW233342   2.799   3.228  15.949  1.3547  1.8132 -0.2705
 7237SOL     OW33343   2.302   2.871  12.302  0.5437  0.1098  0.6635
 7237SOL    HW133344   2.231   2.934  12.295  0.8756  0.3292 -0.7495
 7237SOL    HW233345   2.371   2.896  12.239  2.4543 -1.4697  2.1303
 7238SOL     OW33346   3.001   1.482   1.348 -0.0798 -0.1345  0.6169
 7238SOL    HW133347   2.957   1.435   1.419 -1.3971 -1.1385 -0.8682
 7238SOL    HW233348   2.992   1.425   1.272  1.9372  0.6445 -0.1777
 7239SOL     OW33349   3.472   1.998   0.279  0.7434  0.0344  0.1020
 7239SOL    HW133350   3.447   1.956   0.196 -0.3640 -0.7487  0.8337
 7239SOL    HW233351   3.385   2.022   0.312  0.7300 -1.9185  1.4805
 7240SOL     OW33352   2.270   0.052  17.697  0.2977 -0.6263 -0.0117
 7240SOL    HW133353   2.255   0.087   0.036  0.5637  2.2195 -1.1045
 7240SOL    HW233354   2.350   0.002  17.716  0.6997 -0.9228 -2.5679
 7241SOL     OW33355   3.862   1.830   8.351 -0.2972  0.1460 -0.1246
 7241SOL    HW133356   3.890   1.777   8.277 -1.7308  1.6353 -1.7144
 7241SOL    HW233357   3.855   1.916   8.310 -2.0326  0.2246  0.3093
 7242SOL     OW33358   0.697   3.189   7.620  0.4493  0.5545  0.0869
 7242SOL    HW133359   0.642   3.170   7.696 -1.6096 -0.1245 -1.5765
 7242SOL    HW233360   0.685   3.283   7.610  0.6750  0.6973  1.2354
 7243SOL     OW33361   3.337   4.655   3.732  0.4951  0.1049 -0.2095
 7243SOL    HW133362   3.331   4.572   3.779 -1.2891  1.1341  1.3550
 7243SOL    HW233363   3.283   4.629   3.658 -0.7703  0.2785  0.6533
 7244SOL     OW33364   0.511   4.091   8.192  0.5129 -0.0310 -0.1569
 7244SOL    HW133365   0.477   4.131   8.112 -0.1189 -1.0102 -0.3866
 7244SOL    HW233366   0.558   4.165   8.228 -0.4427 -0.5496  2.1287
 7245SOL     OW33367   2.554   0.980   7.780 -0.2256 -0.2456  0.5562
 7245SOL    HW133368   2.599   0.910   7.732 -0.2522 -0.7052  1.1977
 7245SOL    HW233369   2.625   1.039   7.805 -1.1312  0.6122  1.0746
 7246SOL     OW33370   0.158   1.745   9.085 -0.0481  0.1757  0.1800
 7246SOL    HW133371   0.114   1.829   9.095  2.9680  1.6311  1.2812
 7246SOL    HW233372   0.159   1.726   8.991  0.2378 -0.5604  0.3325
 7247SOL     OW33373   0.591   3.825   6.491  0.2389  0.3998 -0.3176
 7247SOL    HW133374   0.658   3.766   6.526 -1.2349 -0.3509  1.2500
 7247SOL    HW233375   0.632   3.889   6.433  0.8793 -1.1302 -1.5400
 7248SOL     OW33376   2.426   2.361   3.447 -0.3815  0.0729 -0.3431
 7248SOL    HW133377   2.519   2.378   3.434 -0.7843  1.8471 -0.9236
 7248SOL    HW233378   2.412   2.376   3.541  0.2932 -1.3986 -0.0070
 7249SOL     OW33379   1.161   0.794  16.329 -0.5233 -0.0456 -0.0677
 7249SOL    HW133380   1.197   0.709  16.302 -0.2441  1.1145 -3.2468
 7249SOL    HW233381   1.103   0.766  16.400 -0.7655  0.1510 -0.1908
 7250SOL     OW33382   2.149   4.130   6.726 -0.6388 -0.5383 -0.5524
 7250SOL    HW133383   2.196   4.137   6.810 -1.3471 -0.4749 -0.1588
 7250SOL    HW233384   2.153   4.036   6.710  0.0641 -0.4569 -0.8298
 7251SOL     OW33385   0.508   0.968   3.167 -0.8167 -0.5449  0.0220
 7251SOL    HW133386   0.572   0.966   3.238  1.0765  4.4800 -1.5514
 7251SOL    HW233387   0.425   0.949   3.211  0.0040 -0.3980  1.6660
 7252SOL     OW33388   4.537   3.418  10.248 -0.5272  0.0649 -0.5736
 7252SOL    HW133389   4.596   3.432  10.174  0.2815  0.0459  0.0621
 7252SOL    HW233390   4.598   3.389  10.316  0.3227  0.4418 -1.1797
 7253SOL     OW33391   1.249   0.483   4.003 -0.4644 -0.0678  0.0390
 7253SOL    HW133392   1.243   0.475   3.908  0.8960  1.6451 -0.1983
 7253SOL    HW233393   1.299   0.565   4.003 -1.1287  0.3376  2.4732
 7254SOL     OW33394   3.600   0.206   9.173 -1.2850  0.2173 -0.3356
 7254SOL    HW133395   3.590   0.288   9.222 -0.6505 -0.7456  1.3730
 7254SOL    HW233396   3.674   0.162   9.215 -0.2315 -0.2576 -2.6573
 7255SOL     OW33397   0.060   1.361   5.181 -0.1301  0.3780 -0.0405
 7255SOL    HW133398   0.133   1.303   5.160  0.0421  0.4627  0.3204
 7255SOL    HW233399   4.729   1.305   5.215 -0.7827 -0.3168 -2.5158
 7256SOL     OW33400   3.542   0.654  14.709 -0.6082  0.4907  0.3105
 7256SOL    HW133401   3.467   0.680  14.656 -1.5070 -1.7348  0.4780
 7256SOL    HW233402   3.589   0.601  14.645  1.4749  2.4627  0.1873
 7257SOL     OW33403   0.296   1.216   4.566 -0.3406 -0.2496  0.3168
 7257SOL    HW133404   0.383   1.194   4.600 -1.3575 -2.1531  1.6764
 7257SOL    HW233405   0.255   1.231   4.651 -2.4893  0.4073 -0.8486
 7258SOL     OW33406   1.089   4.412   3.081 -0.1053 -0.3786 -0.0872
 7258SOL    HW133407   1.120   4.344   3.141  0.1835  0.1448  0.3576
 7258SOL    HW233408   1.089   4.492   3.133 -0.0142 -1.5579  1.7281
 7259SOL     OW33409   3.942   4.594   9.704 -0.2855 -0.1309  0.4546
 7259SOL    HW133410   4.035   4.574   9.713 -0.4486 -1.0426  0.1503
 7259SOL    HW233411   3.924   4.643   9.784  3.5130  2.3230 -0.1926
 7260SOL     OW33412   2.907   0.414  13.585 -0.0179  0.6140 -0.0331
 7260SOL    HW133413   2.820   0.396  13.549 -1.1730 -1.2925  3.6711
 7260SOL    HW233414   2.931   0.324  13.605  0.9079  1.3754  2.2536
 7261SOL     OW33415   3.764   1.291  15.181 -0.4182  0.6503 -0.1514
 7261SOL    HW133416   3.840   1.239  15.209 -0.1994  0.6039 -0.8215
 7261SOL    HW233417   3.714   1.212  15.159  1.8508 -0.0324 -2.9097
 7262SOL     OW33418   1.212   1.084   2.729  0.5809  0.5387 -0.4160
 7262SOL    HW133419   1.160   1.030   2.670  0.4084  1.5056 -1.1462
 7262SOL    HW233420   1.249   1.017   2.787 -0.6553  1.5859  1.5718
 7263SOL     OW33421   1.791   1.244   8.625  0.1305  0.0501 -0.1901
 7263SOL    HW133422   1.811   1.211   8.538 -2.9870 -0.5936 -0.6298
 7263SOL    HW233423   1.696   1.241   8.625  0.2894 -4.4803 -2.5370
 7264SOL     OW33424   0.123   3.238   5.620 -0.2152 -0.0989  0.0754
 7264SOL    HW133425   0.193   3.284   5.665  0.0161  1.1144 -1.5042
 7264SOL    HW233426   0.123   3.286   5.537  0.0883 -1.7858 -0.9210
 7265SOL     OW33427   4.576   1.847   5.960 -0.5811  0.1565 -0.4940
 7265SOL    HW133428   4.511   1.862   6.028 -0.8923  0.3419 -0.8322
 7265SOL    HW233429   4.635   1.923   5.962 -0.1573 -0.1098 -2.8424
 7266SOL     OW33430   1.700   3.199   5.102 -0.3555 -0.4132 -0.2916
 7266SOL    HW133431   1.622   3.151   5.126 -1.3357  0.4337 -1.7797
 7266SOL    HW233432   1.759   3.176   5.174  0.2607  0.3354 -0.5529
 7267SOL     OW33433   1.841   2.536   2.602 -0.0326  0.8117 -0.0399
 7267SOL    HW133434   1.908   2.559   2.667 -0.0499  1.9270 -0.4280
 7267SOL    HW233435   1.811   2.450   2.633 -0.0353  0.7239 -0.2846
 7268SOL     OW33436   2.188   4.637   6.955  0.3376  0.3606 -0.6303
 7268SOL    HW133437   2.153   4.716   6.994  0.1793  0.5194 -1.1008
 7268SOL    HW233438   2.204   4.669   6.866 -0.0293  0.5546 -0.6244
 7269SOL     OW33439   0.756   1.263   7.673 -0.2914  0.7998  0.1771
 7269SOL    HW133440   0.821   1.215   7.624  2.3753  1.6899  2.8228
 7269SOL    HW233441   0.751   1.340   7.616  0.2227 -0.1664 -1.1633
 7270SOL     OW33442   4.484   1.762  11.833 -0.1931 -0.3475 -0.8435
 7270SOL    HW133443   4.430   1.822  11.781 -0.9429 -0.2876  0.0056
 7270SOL    HW233444   4.569   1.784  11.794  0.2478 -2.0708 -0.8695
 7271SOL     OW33445   3.901   3.296   3.733  0.8207 -0.0195 -0.0606
 7271SOL    HW133446   3.886   3.204   3.710 -3.2771  1.2861 -2.6717
 7271SOL    HW233447   3.938   3.277   3.818 -0.2968 -0.5272  0.3118
 7272SOL     OW33448   1.063   3.834  13.221 -0.6323  0.2926 -0.1484
 7272SOL    HW133449   1.112   3.761  13.184  1.1259  0.5926  1.6220
 7272SOL    HW233450   0.977   3.820  13.181 -1.1623  0.9496  0.7707
 7273SOL     OW33451   3.446   2.158  13.268  0.0845  0.3231 -0.2123
 7273SOL    HW133452   3.461   2.154  13.363 -2.5542  2.1634  0.2660
 7273SOL    HW233453   3.526   2.116  13.237  0.6128  1.3132 -0.1877
 7274SOL     OW33454   0.069   0.944   5.772 -0.1530 -0.0937 -0.0054
 7274SOL    HW133455   0.141   0.902   5.818 -0.1487  0.0578  0.1264
 7274SOL    HW233456   0.122   0.993   5.708 -0.2768  0.1633  0.0873
 7275SOL     OW33457   4.107   0.945   4.657 -0.6598  0.3147  0.3438
 7275SOL    HW133458   4.109   1.031   4.697 -0.3926  0.4193  0.1054
 7275SOL    HW233459   4.014   0.936   4.633 -1.1059  0.2409  2.0996
 7276SOL     OW33460   3.875   4.043  17.214  0.4662  0.4049  0.3826
 7276SOL    HW133461   3.850   3.950  17.216  2.8888 -0.2886 -0.9641
 7276SOL    HW233462   3.887   4.045  17.308 -2.2849  0.0168  0.7546
 7277SOL     OW33463   1.369   1.019   3.195  0.2097 -0.0554 -0.1663
 7277SOL    HW133464   1.285   1.020   3.148 -1.8544  0.8948  3.5486
 7277SOL    HW233465   1.421   1.044   3.119  1.2269 -0.4950  0.3925
 7278SOL     OW33466   3.144   1.774   9.026  0.0880  0.4097 -0.1755
 7278SOL    HW133467   3.220   1.803   9.076 -1.3000  2.4695  0.7133
 7278SOL    HW233468   3.167   1.681   9.020  0.0165  0.3324  0.9134
 7279SOL     OW33469   2.620   2.458   9.250 -0.0661  0.1131 -0.7120
 7279SOL    HW133470   2.608   2.363   9.253  1.1206 -0.0572 -1.0832
 7279SOL    HW233471   2.555   2.484   9.315  2.0259  0.8595  1.0736
 7280SOL     OW33472   4.070   1.480  16.884 -0.5734 -0.0686 -0.6811
 7280SOL    HW133473   4.026   1.557  16.919  1.0612 -0.5746  2.4933
 7280SOL    HW233474   4.162   1.504  16.877 -0.3750 -0.7101 -0.3108
 7281SOL     OW33475   3.207   1.479   8.517 -0.2761 -0.0202  0.7247
 7281SOL    HW133476   3.116   1.469   8.491 -0.0610  2.1040 -0.9191
 7281SOL    HW233477   3.253   1.476   8.434 -1.4666  0.4200  0.0519
 7282SOL     OW33478   0.475   1.792   3.751  0.1100 -0.4763  0.0211
 7282SOL    HW133479   0.491   1.886   3.739 -0.6814 -0.2687  0.6494
 7282SOL    HW233480   0.417   1.775   3.676  1.5290  1.3989 -1.5262
 7283SOL     OW33481   4.609   3.054   5.103  0.3564 -0.4266  0.5107
 7283SOL    HW133482   4.570   2.969   5.124  1.4493 -0.7315  1.2841
 7283SOL    HW233483   4.529   3.090   5.063  1.6354  0.1112 -1.5704
 7284SOL     OW33484   4.314   0.923   4.120 -0.7068 -0.2906  0.2822
 7284SOL    HW133485   4.341   0.981   4.049  0.9681 -1.6455 -0.1966
 7284SOL    HW233486   4.366   0.960   4.191  1.8710 -0.5245 -1.4800
 7285SOL     OW33487   2.862   3.929   5.906  0.4463 -0.0753  0.6421
 7285SOL    HW133488   2.769   3.944   5.918  1.0132  2.5451  1.8390
 7285SOL    HW233489   2.846   3.860   5.843 -1.7271  0.2306  0.8538
 7286SOL     OW33490   3.239   1.248   0.997 -0.0552  0.5225  0.0955
 7286SOL    HW133491   3.310   1.216   0.941 -0.1965  0.9079 -0.3004
 7286SOL    HW233492   3.292   1.306   1.052 -0.2482  2.8237 -2.1717
 7287SOL     OW33493   1.468   2.632   2.513  0.3137  0.2519  0.5309
 7287SOL    HW133494   1.453   2.555   2.569  2.0865 -0.6795 -0.2457
 7287SOL    HW233495   1.549   2.665   2.552  0.4271  0.2701  0.2813
 7288SOL     OW33496   4.594   2.295   4.354  0.0878  0.7885 -0.8442
 7288SOL    HW133497   4.550   2.210   4.352  0.0575  0.8020 -0.7516
 7288SOL    HW233498   4.685   2.272   4.333  0.2857  0.1142  0.7121
 7289SOL     OW33499   2.774   2.035   6.436 -0.0721 -0.8848 -0.1357
 7289SOL    HW133500   2.731   2.019   6.351  1.2384  3.2207 -1.5850
 7289SOL    HW233501   2.700   2.062   6.490  0.8043  1.0929  0.0668
 7290SOL     OW33502   1.668   2.055   8.387  0.4381 -0.0665 -0.0925
 7290SOL    HW133503   1.581   2.095   8.383  0.0557 -0.8702  0.1478
 7290SOL    HW233504   1.685   1.995   8.314 -0.3054 -0.1326 -0.2118
 7291SOL     OW33505   0.090   2.070   3.225 -0.1942 -0.0752  0.0516
 7291SOL    HW133506   0.082   1.975   3.224 -0.5607 -0.0421  0.0016
 7291SOL    HW233507   0.028   2.096   3.158  0.2601 -0.0284 -0.3498
 7292SOL     OW33508   0.514   1.208  10.173  0.2059 -0.2093  0.3456
 7292SOL    HW133509   0.595   1.252  10.147 -0.4158  0.9413  0.3906
 7292SOL    HW233510   0.526   1.125  10.125 -0.4691 -1.1587  1.8374
 7293SOL     OW33511   2.664   0.856   2.810 -0.0346  0.0015 -0.3241
 7293SOL    HW133512   2.594   0.793   2.827 -1.9958  2.4245  0.4333
 7293SOL    HW233513   2.619   0.939   2.794 -1.6832 -0.9420 -0.5947
 7294SOL     OW33514   3.044   0.887   2.947 -0.0950 -0.4879  0.2468
 7294SOL    HW133515   2.971   0.845   2.990 -1.6493 -2.0207 -3.8470
 7294SOL    HW233516   3.012   0.890   2.856 -0.4629  1.6286  0.4495
 7295SOL     OW33517   2.785   2.954   0.077  0.3895  0.4623  0.2903
 7295SOL    HW133518   2.814   2.892   0.143  2.1379 -0.4859 -1.3885
 7295SOL    HW233519   2.865   3.005   0.064  1.0629 -0.5690  0.3706
 7296SOL     OW33520   3.024   2.542   4.622 -0.9896 -0.1120 -0.2717
 7296SOL    HW133521   3.032   2.583   4.708 -1.9685 -0.2110 -0.1249
 7296SOL    HW233522   3.001   2.610   4.559  0.6401 -1.1686 -1.9909
 7297SOL     OW33523   2.178   0.018  15.612  0.2179  0.6736 -0.2340
 7297SOL    HW133524   2.240   0.076  15.569 -0.5764  2.5358  1.1165
 7297SOL    HW233525   2.100   0.039  15.561  0.0039  2.6738  0.9531
 7298SOL     OW33526   1.977   1.531   1.570 -0.4912  0.6173 -0.1133
 7298SOL    HW133527   1.971   1.463   1.638  0.6362  0.4166 -0.2163
 7298SOL    HW233528   2.008   1.476   1.498 -2.1148  1.1870 -1.2432
 7299SOL     OW33529   1.823   2.580   7.549 -0.2289 -0.3709  0.3073
 7299SOL    HW133530   1.865   2.663   7.527 -0.2304 -0.5145 -0.2303
 7299SOL    HW233531   1.853   2.534   7.471 -1.3781  0.7703 -0.8101
 7300SOL     OW33532   1.160   3.949   7.590 -0.1829 -0.3402  0.2460
 7300SOL    HW133533   1.195   3.984   7.672 -1.3461 -0.9652  1.0062
 7300SOL    HW233534   1.093   3.890   7.623 -0.5365  0.5961  1.1999
 7301SOL     OW33535   3.532   0.106  12.490  0.0350  0.1539  0.1081
 7301SOL    HW133536   3.520   0.184  12.545  0.6628 -0.2866  0.8728
 7301SOL    HW233537   3.563   0.158  12.416 -0.0192 -0.9627 -0.6992
 7302SOL     OW33538   2.434   3.795   5.166 -0.4154 -0.8144 -0.0297
 7302SOL    HW133539   2.376   3.788   5.091  0.5827 -1.9265 -0.6906
 7302SOL    HW233540   2.503   3.732   5.147  1.2853  1.1493 -0.4440
 7303SOL     OW33541   4.156   1.207  16.881  0.6330  0.0368 -0.0653
 7303SOL    HW133542   4.226   1.225  16.945  1.1593 -0.0914 -0.6022
 7303SOL    HW233543   4.118   1.294  16.873  1.6613  0.5799  0.9217
 7304SOL     OW33544   0.022   4.035   3.101  0.3587  0.2689 -0.3606
 7304SOL    HW133545   4.679   4.086   3.099 -0.8406 -1.6532 -0.4804
 7304SOL    HW233546   0.068   4.070   3.178  1.0833 -1.6523  0.0722
 7305SOL     OW33547   3.872   2.532   4.065 -0.0239  0.4794 -0.6354
 7305SOL    HW133548   3.900   2.497   3.980 -0.7215  2.3531 -1.6314
 7305SOL    HW233549   3.786   2.568   4.045  0.8475  2.5575 -0.5965
 7306SOL     OW33550   2.913   3.369   9.126 -0.6748 -0.2273  0.9486
 7306SOL    HW133551   2.917   3.275   9.142  1.2114 -0.5951 -1.9401
 7306SOL    HW233552   2.922   3.372   9.031  1.3971  0.9603  1.1769
 7307SOL     OW33553   1.732   2.339   1.506  0.3547  1.1621 -0.7108
 7307SOL    HW133554   1.691   2.284   1.438  3.2029 -1.8042  0.0021
 7307SOL    HW233555   1.686   2.304   1.582  1.1952  2.3391  0.3358
 7308SOL     OW33556   0.708   1.856   1.581  0.2965  0.3600  0.7735
 7308SOL    HW133557   0.719   1.914   1.505  1.0940 -0.7393  0.0441
 7308SOL    HW233558   0.755   1.783   1.541 -3.0553 -2.4039  1.8938
 7309SOL     OW33559   1.862   0.965   7.585  0.4020  0.6810 -0.0404
 7309SOL    HW133560   1.949   1.002   7.568  0.4796 -0.7882 -2.7392
 7309SOL    HW233561   1.813   1.047   7.600  1.5620  1.2713  0.4958
 7310SOL     OW33562   2.553   0.191  13.155  0.0566  0.3560 -0.7684
 7310SOL    HW133563   2.467   0.152  13.140  0.1435  0.0199 -0.3925
 7310SOL    HW233564   2.537   0.281  13.126 -2.4358 -0.2306 -1.2490
 7311SOL     OW33565   2.588   4.207   6.986  0.1687  0.2887 -0.6764
 7311SOL    HW133566   2.605   4.257   7.066 -0.7563  1.7383 -1.3866
 7311SOL    HW233567   2.672   4.178   6.951  1.1616  0.9542  1.1483
 7312SOL     OW33568   4.173   4.729   3.204  0.0538  0.4475 -0.1959
 7312SOL    HW133569   4.125   4.664   3.153  1.2825  1.4443 -2.5884
 7312SOL    HW233570   4.156   4.708   3.296  2.8470  2.5568  0.8072
 7313SOL     OW33571   2.208   2.560  17.189 -0.0141  1.0115 -0.8542
 7313SOL    HW133572   2.228   2.469  17.212 -1.4021  1.1027  0.7562
 7313SOL    HW233573   2.279   2.582  17.130 -0.7857  0.4728 -1.9837
 7314SOL     OW33574   0.552   4.002   4.548  0.5199  0.3373 -0.6648
 7314SOL    HW133575   0.510   3.964   4.625  1.9362 -0.0249 -0.0638
 7314SOL    HW233576   0.511   3.944   4.484  0.5517  0.3233 -0.6728
 7315SOL     OW33577   2.690   0.469  13.792  0.4019  0.5407 -0.1568
 7315SOL    HW133578   2.632   0.394  13.805  1.3657  0.0560  1.3206
 7315SOL    HW233579   2.733   0.444  13.710  2.4641  0.6629  0.8836
 7316SOL     OW33580   2.039   0.836   2.101  0.1588 -0.1688 -0.6628
 7316SOL    HW133581   2.096   0.759   2.095  0.1039 -0.2413 -0.2392
 7316SOL    HW233582   2.109   0.896   2.076  0.2222 -0.3335 -0.8835
 7317SOL     OW33583   3.240   2.928   3.432 -0.4453  0.6299 -0.0192
 7317SOL    HW133584   3.307   2.987   3.396  0.2074 -0.5282 -0.6973
 7317SOL    HW233585   3.238   2.850   3.376  1.4950 -0.1250  0.9861
 7318SOL     OW33586   1.156   1.262   5.353  0.0590  0.2816  0.0983
 7318SOL    HW133587   1.250   1.276   5.357 -0.0215  0.7366  0.3881
 7318SOL    HW233588   1.132   1.328   5.289  0.7251 -1.2832 -1.7542
 7319SOL     OW33589   1.431   0.590   3.205  0.0667  0.1551  0.2015
 7319SOL    HW133590   1.358   0.550   3.158  0.2407 -0.0314  0.0863
 7319SOL    HW233591   1.456   0.660   3.144  1.2669  1.0135  1.6712
 7320SOL     OW33592   3.189   0.580   7.626  0.1290 -0.0088  0.2617
 7320SOL    HW133593   3.249   0.508   7.648  1.7974  1.0908 -0.6906
 7320SOL    HW233594   3.145   0.602   7.708  1.1525 -1.2293  1.1576
 7321SOL     OW33595   1.521   2.883   4.867 -0.1202  0.1641 -0.0739
 7321SOL    HW133596   1.604   2.928   4.852 -0.0869  0.2359  0.3361
 7321SOL    HW233597   1.533   2.798   4.823 -1.6770  0.3740 -0.9083
 7322SOL     OW33598   1.448   2.901   3.555  0.4251  0.3074 -0.0077
 7322SOL    HW133599   1.494   2.818   3.572  0.6459  0.7623  1.6183
 7322SOL    HW233600   1.524   2.959   3.544  1.4968 -0.8394  1.3166
 7323SOL     OW33601   1.799   0.458   5.695 -0.0881 -0.8279 -0.2381
 7323SOL    HW133602   1.891   0.434   5.683 -0.0387  0.2778 -2.0683
 7323SOL    HW233603   1.755   0.373   5.690  2.0462 -1.8833 -1.2389
 7324SOL     OW33604   3.008   4.474   6.891  0.1256  0.8567  0.0895
 7324SOL    HW133605   2.991   4.545   6.829  1.0605  3.1462  2.4716
 7324SOL    HW233606   3.081   4.517   6.936  0.4771 -0.6671  0.9790
 7325SOL     OW33607   0.407   0.118  11.200  0.4543 -0.0131  0.1328
 7325SOL    HW133608   0.444   0.032  11.221 -1.4692 -1.6754 -3.3664
 7325SOL    HW233609   0.492   0.154  11.172  0.4054  0.4046  0.5224
 7326SOL     OW33610   4.534   4.645   3.324  0.0261 -0.4045 -0.5214
 7326SOL    HW133611   4.546   4.663   3.231  0.4331 -3.1327 -1.0090
 7326SOL    HW233612   4.453   4.595   3.316 -1.5068  1.9865  0.0373
 7327SOL     OW33613   2.136   1.746  10.624  1.0037  0.6854  0.3428
 7327SOL    HW133614   2.146   1.841  10.615 -0.8034  0.8858  0.3156
 7327SOL    HW233615   2.058   1.733  10.569  0.8294 -0.9620  0.9624
 7328SOL     OW33616   4.194   2.961  10.088 -0.1476  0.1325 -0.0786
 7328SOL    HW133617   4.263   3.027  10.077  0.6091 -1.1323 -2.9853
 7328SOL    HW233618   4.113   3.007  10.066  0.0555 -0.7530 -2.6444
 7329SOL     OW33619   1.168   2.825  11.656 -0.0593  0.1300 -0.6151
 7329SOL    HW133620   1.201   2.789  11.738  1.1178 -1.1070 -1.6311
 7329SOL    HW233621   1.244   2.868  11.616 -0.3811  0.9169 -0.3824
 7330SOL     OW33622   4.030   1.422  10.741 -0.7703 -0.6640 -0.2279
 7330SOL    HW133623   4.083   1.371  10.802  0.1369  1.9771  1.1917
 7330SOL    HW233624   4.024   1.376  10.657 -1.1493  1.1118 -1.1716
 7331SOL     OW33625   3.758   2.442   9.202 -0.0112  0.1713  0.7566
 7331SOL    HW133626   3.688   2.400   9.151 -0.2839  0.4231  0.9227
 7331SOL    HW233627   3.834   2.408   9.155 -1.8639 -0.5452 -1.6919
 7332SOL     OW33628   3.426   1.403   4.917 -0.0258  0.3317 -0.3599
 7332SOL    HW133629   3.346   1.373   4.873  0.5223  0.2699 -1.3240
 7332SOL    HW233630   3.402   1.474   4.976  1.4344 -1.5392  2.4389
 7333SOL     OW33631   3.288   3.421   5.580 -0.2882  0.0032 -0.0901
 7333SOL    HW133632   3.240   3.503   5.574 -0.5841  0.0091  2.5498
 7333SOL    HW233633   3.252   3.365   5.510  1.5806  2.4163 -2.9739
 7334SOL     OW33634   1.325   2.507   5.009 -0.0598  0.0417 -0.2710
 7334SOL    HW133635   1.301   2.521   4.917  1.4136 -1.8709 -0.9522
 7334SOL    HW233636   1.371   2.586   5.035  0.5961 -0.6943  0.8186
 7335SOL     OW33637   3.227   2.623  12.766 -0.2303  0.3808  0.2254
 7335SOL    HW133638   3.302   2.644  12.822  0.8523 -2.3143 -0.2322
 7335SOL    HW233639   3.182   2.576  12.836 -1.2795 -1.0360 -1.4131
 7336SOL     OW33640   0.112   3.705   7.174  0.9940 -0.1431 -0.1884
 7336SOL    HW133641   0.109   3.775   7.239 -0.2079 -1.3118  0.9951
 7336SOL    HW233642   0.098   3.629   7.231  0.7567  0.6865  0.8451
 7337SOL     OW33643   1.035   3.869   4.150 -0.1407  0.1824  0.1162
 7337SOL    HW133644   0.978   3.932   4.194 -1.3524  1.0982 -2.7642
 7337SOL    HW233645   1.070   3.818   4.222  3.0932  2.4637  0.1556
 7338SOL     OW33646   0.519   1.631  12.801 -0.4225 -0.3182  0.3672
 7338SOL    HW133647   0.580   1.689  12.845 -0.1410  0.1298 -0.6202
 7338SOL    HW233648   0.571   1.585  12.735  1.3664 -0.8447  2.1416
 7339SOL     OW33649   3.923   0.938  15.986  0.4686 -0.0860 -0.1365
 7339SOL    HW133650   3.895   0.847  15.982 -1.1820  0.4217 -0.0502
 7339SOL    HW233651   3.960   0.953  15.898  2.2550  1.7569  0.9232
 7340SOL     OW33652   2.222   1.091  14.307  0.4649  0.3514  0.0902
 7340SOL    HW133653   2.140   1.107  14.353  0.1340 -2.7135  0.5840
 7340SOL    HW233654   2.251   1.181  14.315  1.6158  0.0010 -0.1218
 7341SOL     OW33655   0.455   0.981   9.173 -0.6810  0.4251 -0.2876
 7341SOL    HW133656   0.381   1.043   9.175 -2.7435 -2.0532 -0.2213
 7341SOL    HW233657   0.408   0.913   9.220  0.1469 -1.3760 -2.0816
 7342SOL     OW33658   1.338   3.363   1.259 -0.1282 -0.2799  0.4689
 7342SOL    HW133659   1.324   3.392   1.169 -1.4344  3.1553  1.7847
 7342SOL    HW233660   1.391   3.433   1.295  1.0052 -0.7895 -0.2350
 7343SOL     OW33661   0.440   3.444  12.301 -0.0584 -0.2841  0.0261
 7343SOL    HW133662   0.482   3.407  12.223  0.9551  0.5135  0.1964
 7343SOL    HW233663   0.491   3.391  12.362  2.4193  0.3492 -1.4838
 7344SOL     OW33664   0.007   0.774  12.709 -0.0075  0.6110 -0.3241
 7344SOL    HW133665   4.677   0.707  12.722  1.3727 -0.2074  2.6915
 7344SOL    HW233666   0.074   0.769  12.778  0.4019 -0.2963 -0.7796
 7345SOL     OW33667   0.336   3.259   3.975  0.0775  0.0723  0.9820
 7345SOL    HW133668   0.358   3.262   4.069  0.8012 -1.9390  0.8798
 7345SOL    HW233669   0.408   3.311   3.939 -1.7272  0.2129 -2.3683
 7346SOL     OW33670   3.373   1.952   8.730  0.1207 -0.4812  0.1773
 7346SOL    HW133671   3.457   1.929   8.768  0.1444  0.3904  0.6538
 7346SOL    HW233672   3.360   1.880   8.668  0.3549  0.7230 -1.2907
 7347SOL     OW33673   2.628   2.021  11.692  0.1013  0.5224  0.6473
 7347SOL    HW133674   2.547   2.058  11.657  1.2397  1.7470 -0.6314
 7347SOL    HW233675   2.692   2.035  11.623 -0.2517  2.7457  0.7818
 7348SOL     OW33676   3.606   2.037   4.771  0.2903 -0.2394 -0.1602
 7348SOL    HW133677   3.626   2.087   4.692  1.7905  0.4950  0.7061
 7348SOL    HW233678   3.691   2.042   4.814  0.0260 -1.8602  0.5626
 7349SOL     OW33679   4.084   2.958  13.050 -0.5398  0.3161 -0.4460
 7349SOL    HW133680   4.177   2.965  13.071 -0.4737  0.1374 -0.6864
 7349SOL    HW233681   4.077   2.998  12.964 -0.4742  0.1884 -0.5107
 7350SOL     OW33682   3.324   3.066   5.913 -1.0410 -0.0621 -0.2435
 7350SOL    HW133683   3.331   3.136   5.848  0.6128  0.6134  0.6866
 7350SOL    HW233684   3.384   2.997   5.884  0.7110  1.0425  0.7649
 7351SOL     OW33685   4.164   1.462   9.015 -0.2512  0.5653 -0.3733
 7351SOL    HW133686   4.125   1.377   8.995 -0.7386  0.5482  0.6691
 7351SOL    HW233687   4.213   1.468   8.933  1.0182 -0.4572  0.3040
 7352SOL     OW33688   3.406   1.275   8.942 -0.1913  0.3924 -0.3620
 7352SOL    HW133689   3.387   1.316   8.857  2.9433  2.2578 -0.1444
 7352SOL    HW233690   3.449   1.193   8.917  1.8119  1.2498  0.2638
 7353SOL     OW33691   2.083   2.554   6.198  0.4231 -0.1513  0.2231
 7353SOL    HW133692   2.082   2.599   6.113  1.1747 -1.0064 -0.2514
 7353SOL    HW233693   2.127   2.471   6.179  2.3609  1.5540 -2.9077
 7354SOL     OW33694   4.470   1.659   3.679 -0.3453  0.0692  0.4414
 7354SOL    HW133695   4.507   1.699   3.758  1.1005 -2.7176  1.1787
 7354SOL    HW233696   4.550   1.623   3.640  1.2846  3.4277  0.6637
 7355SOL     OW33697   3.298   2.190   2.601 -0.0054  0.7822 -0.3187
 7355SOL    HW133698   3.286   2.240   2.682  3.0835  2.3350 -0.8334
 7355SOL    HW233699   3.337   2.257   2.545  1.1357  0.0884 -0.3634
 7356SOL     OW33700   3.657   4.381  13.123 -0.0449  0.6219 -0.4505
 7356SOL    HW133701   3.719   4.351  13.058  0.0001 -1.3361  0.4864
 7356SOL    HW233702   3.712   4.426  13.187 -1.9639  0.0460  1.6299
 7357SOL     OW33703   3.307   1.114   6.983 -0.1943  0.3913 -0.4703
 7357SOL    HW133704   3.346   1.116   6.896  0.0474  0.1046 -0.3725
 7357SOL    HW233705   3.389   1.135   7.029 -1.2563  2.3537  0.5111
 7358SOL     OW33706   2.020   3.690   9.845  0.1578  0.3651  0.2358
 7358SOL    HW133707   2.045   3.722   9.758  0.3513  0.7243  0.4195
 7358SOL    HW233708   2.054   3.759   9.903 -1.6747 -1.0705  2.9824
 7359SOL     OW33709   2.760   1.926   6.129  0.0565 -0.0928 -0.5505
 7359SOL    HW133710   2.793   1.930   6.040  1.9632  1.4163  0.2222
 7359SOL    HW233711   2.829   1.872   6.169  1.9414  1.5071 -1.6470
 7360SOL     OW33712   3.222   3.574   3.045  0.3721  0.8664 -0.4524
 7360SOL    HW133713   3.209   3.668   3.046  0.9114  0.9679 -2.9050
 7360SOL    HW233714   3.271   3.558   2.964  1.1035  0.0883  0.1487
 7361SOL     OW33715   0.939   1.731   8.041  0.4029 -0.2385  0.5366
 7361SOL    HW133716   0.963   1.679   7.964  0.6161 -1.2411  1.2802
 7361SOL    HW233717   0.981   1.815   8.024 -0.8125  0.2311 -0.1162
 7362SOL     OW33718   1.361   1.665   4.765 -0.0582 -0.0130  0.2949
 7362SOL    HW133719   1.301   1.736   4.789 -0.7260 -1.0420  1.6210
 7362SOL    HW233720   1.348   1.603   4.836  2.9511 -0.0513  0.7971
 7363SOL     OW33721   3.510   2.342   4.687 -0.4990  0.3000  0.6242
 7363SOL    HW133722   3.503   2.382   4.600 -1.9640 -1.4039 -0.0522
 7363SOL    HW233723   3.589   2.289   4.683 -0.7275  0.0946 -1.0840
 7364SOL     OW33724   1.130   2.380   8.424 -0.2874  0.7639 -0.3271
 7364SOL    HW133725   1.211   2.329   8.426 -1.3048 -0.7505  1.9986
 7364SOL    HW233726   1.136   2.441   8.350  0.0233  0.6926 -0.3581
 7365SOL     OW33727   0.012   0.890  16.464  0.4574 -0.3297  0.1459
 7365SOL    HW133728   0.096   0.856  16.433  0.8074  0.0676  0.6307
 7365SOL    HW233729   0.037   0.956  16.529  3.0679  0.0684 -1.2581
 7366SOL     OW33730   2.538   1.677   5.528  0.0586  0.0704 -0.0161
 7366SOL    HW133731   2.589   1.657   5.449 -1.4066  2.1774 -1.4851
 7366SOL    HW233732   2.520   1.588   5.559 -0.6783 -0.3360 -1.6178
 7367SOL     OW33733   2.991   0.073   9.855  0.0398  0.1958  0.2432
 7367SOL    HW133734   2.999   4.723   9.819 -0.7080 -1.0659  3.1921
 7367SOL    HW233735   3.042   0.054   9.933  0.9400 -0.4505 -0.5114
 7368SOL     OW33736   1.602   2.403   3.682 -0.2113 -0.5498 -0.0492
 7368SOL    HW133737   1.680   2.356   3.654  0.3248 -0.2100  0.8842
 7368SOL    HW233738   1.549   2.387   3.603  0.5001 -1.0657 -0.4221
 7369SOL     OW33739   0.133   0.362   9.896  0.5584  0.4965  0.7985
 7369SOL    HW133740   0.147   0.432   9.832 -0.9517 -1.2287 -1.4483
 7369SOL    HW233741   0.222   0.351   9.930  0.7241 -1.1629 -0.1689
 7370SOL     OW33742   3.233   0.120  16.841  0.1547 -0.0310 -0.3197
 7370SOL    HW133743   3.199   0.049  16.895 -0.5396 -0.9913 -2.0101
 7370SOL    HW233744   3.278   0.060  16.782 -1.1610 -2.4717  1.1837
 7371SOL     OW33745   3.826   1.442   6.801 -0.1015 -0.2325  0.5350
 7371SOL    HW133746   3.903   1.385   6.807  0.8790  1.0572  0.0767
 7371SOL    HW233747   3.857   1.525   6.838 -1.4614  0.3586  0.3423
 7372SOL     OW33748   2.801   2.981   7.267  0.4881  0.1238 -0.1502
 7372SOL    HW133749   2.824   3.073   7.278 -1.9833  0.5915  1.0533
 7372SOL    HW233750   2.747   2.989   7.188 -0.5716 -0.3446  0.5374
 7373SOL     OW33751   0.109   4.363   9.050 -0.1418  0.5038 -0.4292
 7373SOL    HW133752   0.160   4.350   8.970  3.1493  0.3252  1.6997
 7373SOL    HW233753   0.081   4.455   9.045 -1.4680 -0.0121 -2.1601
 7374SOL     OW33754   3.117   4.629   7.926  0.3304 -0.6460 -0.6161
 7374SOL    HW133755   3.211   4.618   7.939  0.1242  0.1485  1.5416
 7374SOL    HW233756   3.087   4.582   8.003  0.0592 -0.7443 -0.7812
 7375SOL     OW33757   3.643   0.712  16.132 -0.0830 -0.2142  0.1110
 7375SOL    HW133758   3.730   0.705  16.173  0.7724 -1.7562 -1.9455
 7375SOL    HW233759   3.589   0.696  16.210 -1.8215  1.0363 -0.8635
 7376SOL     OW33760   0.338   2.990   3.552 -0.7663  0.5772  0.1828
 7376SOL    HW133761   0.271   3.014   3.489  0.5349 -0.0404 -1.4219
 7376SOL    HW233762   0.370   3.075   3.584 -0.5099  0.3850  0.4392
 7377SOL     OW33763   1.012   2.719  14.761 -0.3081 -0.0345  0.0020
 7377SOL    HW133764   0.935   2.771  14.782 -0.9168 -0.2918 -1.6318
 7377SOL    HW233765   1.066   2.755  14.832 -1.1638  0.4873  0.3928
 7378SOL     OW33766   1.737   2.386   0.443 -0.0977 -0.0598  0.0632
 7378SOL    HW133767   1.793   2.451   0.485  0.6972  0.2083 -1.4385
 7378SOL    HW233768   1.743   2.401   0.349 -3.8764  1.4292  0.0207
 7379SOL     OW33769   3.114   3.335   2.686 -0.7551 -0.1504  0.1700
 7379SOL    HW133770   3.038   3.278   2.677 -0.5538  0.1333 -3.5068
 7379SOL    HW233771   3.118   3.343   2.781 -0.1245 -2.0596  0.3050
 7380SOL     OW33772   1.511   3.118   2.565 -0.5286 -0.0947 -0.1383
 7380SOL    HW133773   1.571   3.192   2.569  2.8971 -2.8315 -0.9266
 7380SOL    HW233774   1.572   3.049   2.538 -1.0106 -0.2022 -0.9434
 7381SOL     OW33775   1.790   0.142  14.602  0.3558 -0.2717  0.4889
 7381SOL    HW133776   1.827   0.208  14.661 -0.2110  0.8178 -0.3829
 7381SOL    HW233777   1.846   0.143  14.524 -0.0859 -1.5758  0.1563
 7382SOL     OW33778   2.404   1.289  13.813  0.0365  0.0022 -0.0984
 7382SOL    HW133779   2.327   1.335  13.777 -0.8672  0.6457  2.6247
 7382SOL    HW233780   2.405   1.311  13.906 -3.0149  3.0211 -0.7650
 7383SOL     OW33781   1.686   0.641   3.820 -0.0114  0.1312  0.0731
 7383SOL    HW133782   1.613   0.610   3.873  0.1180  0.7589  0.6114
 7383SOL    HW233783   1.691   0.731   3.851  0.5682  0.0502  0.2186
 7384SOL     OW33784   1.953   1.298   8.851  0.4256  0.2430 -0.2851
 7384SOL    HW133785   1.897   1.268   8.780  2.1655 -1.9296 -0.7441
 7384SOL    HW233786   1.899   1.330   8.923  0.2099  1.6048 -1.0590
 7385SOL     OW33787   3.881   1.576   9.103 -0.2066  0.4403 -0.2168
 7385SOL    HW133788   3.967   1.568   9.062  0.2038  1.3145  0.4623
 7385SOL    HW233789   3.835   1.499   9.070 -0.2246 -0.7945  2.6543
 7386SOL     OW33790   2.120   0.038   7.720  0.3127  0.0471 -0.0416
 7386SOL    HW133791   2.197   0.054   7.665 -0.8996  0.4127 -1.6282
 7386SOL    HW233792   2.113   4.682   7.700  1.9719 -0.3949  1.4996
 7387SOL     OW33793   3.992   4.158   6.733 -0.6700  0.4796 -0.0546
 7387SOL    HW133794   4.014   4.204   6.814 -4.0018 -1.3961  1.8990
 7387SOL    HW233795   3.994   4.067   6.762  0.5594  0.1362 -1.1990
 7388SOL     OW33796   1.355   0.721   9.406 -0.6036 -0.1045  0.2304
 7388SOL    HW133797   1.323   0.811   9.413  0.6813  0.5583 -2.4534
 7388SOL    HW233798   1.275   0.673   9.385 -2.0824  0.1409  5.2888
 7389SOL     OW33799   2.041   4.251   2.534  0.6413  0.4218  0.1538
 7389SOL    HW133800   2.106   4.322   2.533  1.6830 -0.5236  0.1538
 7389SOL    HW233801   2.055   4.243   2.628 -0.8882  0.8502  0.4174
 7390SOL     OW33802   1.014   2.763   9.641 -0.0773  0.6471  0.0028
 7390SOL    HW133803   1.084   2.827   9.654  1.5619 -0.9227 -1.0239
 7390SOL    HW233804   0.942   2.786   9.700 -0.0411 -1.2120  0.7835
 7391SOL     OW33805   0.298   0.370  12.386 -0.3581  0.0405  0.0818
 7391SOL    HW133806   0.342   0.291  12.356  2.1179  0.4379  2.6907
 7391SOL    HW233807   0.347   0.420  12.452  0.3899  1.4376 -1.5314
 7392SOL     OW33808   0.967   1.271   8.094 -0.1818 -0.3785  0.3931
 7392SOL    HW133809   0.896   1.254   8.032  2.5295  0.5305 -2.9000
 7392SOL    HW233810   1.009   1.185   8.091  1.4709  0.6010 -3.8082
 7393SOL     OW33811   4.050   1.098  14.585 -0.1695 -0.7282 -0.6934
 7393SOL    HW133812   3.959   1.118  14.565 -0.1808  1.5893  1.6962
 7393SOL    HW233813   4.039   1.089  14.680  1.5359  0.4540 -0.3827
 7394SOL     OW33814   1.848   1.349   4.570  0.2289 -0.1183 -0.1155
 7394SOL    HW133815   1.897   1.411   4.624  1.6937 -0.9688 -0.4833
 7394SOL    HW233816   1.850   1.385   4.482  2.6913  0.9891  0.3993
 7395SOL     OW33817   3.680   4.039   3.229  0.1026 -0.7389 -0.7145
 7395SOL    HW133818   3.758   4.036   3.283  0.8806 -0.8684 -1.8502
 7395SOL    HW233819   3.650   3.948   3.222 -0.1790 -1.0566  4.7319
 7396SOL     OW33820   2.252   2.092   6.598  0.1179 -0.1618  0.6813
 7396SOL    HW133821   2.252   2.139   6.515 -1.7978  2.0835  1.9408
 7396SOL    HW233822   2.179   2.136   6.643 -0.1183  0.0505  0.0829
 7397SOL     OW33823   3.213   3.124   2.434 -0.2513 -0.0045  0.3731
 7397SOL    HW133824   3.119   3.139   2.426 -0.0248  0.5051 -1.2671
 7397SOL    HW233825   3.252   3.184   2.370  0.8785  1.5008  2.4776
 7398SOL     OW33826   2.859   4.440   7.545  0.4934  0.1218  0.3069
 7398SOL    HW133827   2.914   4.495   7.601 -0.4433  0.3944  0.9642
 7398SOL    HW233828   2.826   4.501   7.479  2.5356  0.7444 -0.1565
 7399SOL     OW33829   1.306   3.024   5.698 -0.4540 -0.1079  0.5318
 7399SOL    HW133830   1.252   3.087   5.650 -0.1643  0.6327  1.1795
 7399SOL    HW233831   1.241   2.968   5.740 -0.2928 -0.0968  0.7952
 7400SOL     OW33832   2.174   3.689   4.333 -0.4482  0.1598 -0.5928
 7400SOL    HW133833   2.264   3.720   4.345 -1.1302  1.1602  1.8760
 7400SOL    HW233834   2.147   3.704   4.424 -0.5589 -2.2832 -0.2267
 7401SOL     OW33835   4.275   1.333  10.906 -0.2643 -0.4783  0.1224
 7401SOL    HW133836   4.252   1.302  10.994  1.2842 -0.8000  0.4160
 7401SOL    HW233837   4.296   1.424  10.928 -0.7685 -0.1402 -0.8286
 7402SOL     OW33838   3.973   2.242   2.324  0.7038  0.0853 -0.4935
 7402SOL    HW133839   4.033   2.175   2.290 -0.7720 -1.3441 -0.2537
 7402SOL    HW233840   3.954   2.284   2.240 -2.8064  0.4970  0.5251
 7403SOL     OW33841   3.181   0.969   8.314 -0.1219  0.0121 -0.3671
 7403SOL    HW133842   3.204   0.925   8.396 -1.0293 -0.7956 -0.5306
 7403SOL    HW233843   3.094   1.001   8.338  0.3157  0.7269  0.2607
 7404SOL     OW33844   1.897   3.451  16.028 -0.0905 -0.0341 -0.6854
 7404SOL    HW133845   1.985   3.487  16.041 -0.1297 -0.1672 -0.0762
 7404SOL    HW233846   1.860   3.538  16.015 -0.2919  0.3548  2.5288
 7405SOL     OW33847   3.899   3.240   8.683 -0.5637  0.0576 -0.2165
 7405SOL    HW133848   3.887   3.145   8.687 -0.1068  0.0025 -0.1266
 7405SOL    HW233849   3.815   3.262   8.724  1.2472  2.4634  2.1417
 7406SOL     OW33850   2.718   2.683  15.037 -0.0925 -0.2332 -0.4434
 7406SOL    HW133851   2.770   2.745  15.089 -0.1166 -0.9670  0.4488
 7406SOL    HW233852   2.716   2.605  15.092  0.0305  1.4640  1.9671
 7407SOL     OW33853   2.721   2.725  13.146 -0.4576  0.4286 -0.6507
 7407SOL    HW133854   2.687   2.718  13.057  0.2916 -1.7298 -0.7696
 7407SOL    HW233855   2.689   2.813  13.166 -1.2373 -0.0455  0.1892
 7408SOL     OW33856   4.592   3.782   7.988 -0.2625  0.0906 -0.0748
 7408SOL    HW133857   4.516   3.825   8.027  0.4821 -1.7707  3.4209
 7408SOL    HW233858   4.586   3.694   8.024  0.7063  1.8014  4.2585
 7409SOL     OW33859   3.067   1.815  10.690 -0.0321  0.4067  0.3957
 7409SOL    HW133860   3.039   1.843  10.603  2.0823 -0.4509 -0.5640
 7409SOL    HW233861   3.155   1.784  10.669 -0.2901  1.6954 -2.5025
 7410SOL     OW33862   4.364   3.936   8.748  0.0697 -0.4280  0.7951
 7410SOL    HW133863   4.346   4.001   8.816  1.8764 -0.4460  1.2808
 7410SOL    HW233864   4.383   3.861   8.804 -1.6685 -2.0329 -0.7745
 7411SOL     OW33865   4.612   1.467  12.013  0.4703 -0.3018  0.6238
 7411SOL    HW133866   4.561   1.418  12.077 -0.3692 -2.0728 -1.4265
 7411SOL    HW233867   4.693   1.416  12.018  0.0987 -0.8549  0.9744
 7412SOL     OW33868   3.107   0.324  15.467  0.4010  0.4329  0.1766
 7412SOL    HW133869   3.067   0.301  15.551  1.3078 -0.4259  0.3742
 7412SOL    HW233870   3.063   0.408  15.454  0.0936  0.1761 -0.3999
 7413SOL     OW33871   0.511   3.438   5.225 -0.0257 -0.3359 -0.0515
 7413SOL    HW133872   0.520   3.533   5.232 -1.2038  0.0287 -3.1835
 7413SOL    HW233873   0.533   3.439   5.131  0.3177  1.3238  0.0453
 7414SOL     OW33874   1.817   4.150  11.267 -0.0946  0.2567 -0.3273
 7414SOL    HW133875   1.777   4.135  11.353  0.5922 -1.6677 -0.3653
 7414SOL    HW233876   1.889   4.206  11.294  1.7077 -1.3957 -1.7682
 7415SOL     OW33877   1.498   3.533   1.968  0.0704 -0.0707 -0.1550
 7415SOL    HW133878   1.520   3.586   2.045  1.2086 -1.2467  0.3131
 7415SOL    HW233879   1.529   3.590   1.897 -0.0506 -1.9543 -1.7177
 7416SOL     OW33880   3.945   3.984   3.372 -0.0590 -0.4443 -0.6807
 7416SOL    HW133881   3.992   4.067   3.382  0.3826 -0.9440  1.5182
 7416SOL    HW233882   3.959   3.954   3.462 -0.1589  1.1554 -0.1412
 7417SOL     OW33883   1.721   3.488   3.052  0.5018 -0.5263  0.2986
 7417SOL    HW133884   1.704   3.506   2.959  1.8871 -0.2697  0.0946
 7417SOL    HW233885   1.728   3.569   3.103  0.4959  0.3827 -1.1403
 7418SOL     OW33886   3.239   1.550   9.287  0.3455 -0.1695 -0.2430
 7418SOL    HW133887   3.202   1.547   9.198 -1.9431 -0.3969  0.7161
 7418SOL    HW233888   3.277   1.462   9.299  1.0171  0.1530 -0.0062
 7419SOL     OW33889   3.337   0.465  11.725  0.5503 -0.3567 -0.4661
 7419SOL    HW133890   3.314   0.537  11.667 -0.2514  2.4534  3.3104
 7419SOL    HW233891   3.417   0.427  11.690  1.3017 -0.5542  1.4745
 7420SOL     OW33892   1.917   3.960   8.837  0.0754 -0.6078 -0.0514
 7420SOL    HW133893   1.903   4.036   8.781  1.1204  0.4629  1.1331
 7420SOL    HW233894   1.995   3.997   8.877 -0.6942  2.0219 -0.9887
 7421SOL     OW33895   2.482   3.157   5.498  0.2161  0.0403 -0.0643
 7421SOL    HW133896   2.533   3.165   5.417 -0.8539 -1.3327 -0.8745
 7421SOL    HW233897   2.452   3.245   5.520 -0.2633  0.0817 -0.8710
 7422SOL     OW33898   0.845   3.917   8.340  0.3359  0.0001  0.6319
 7422SOL    HW133899   0.882   3.894   8.255 -0.7184 -0.3129  0.2691
 7422SOL    HW233900   0.827   3.830   8.375 -1.1264 -0.6893 -1.8993
 7423SOL     OW33901   4.164   2.972   5.256 -0.1935  0.4379  0.2945
 7423SOL    HW133902   4.182   3.037   5.324 -2.4565 -1.1170  2.3406
 7423SOL    HW233903   4.074   3.000   5.242 -0.6722 -2.4431 -2.3450
 7424SOL     OW33904   3.563   1.065   8.842 -0.0489  0.2524 -0.2062
 7424SOL    HW133905   3.639   1.053   8.899 -1.0687 -1.4370  0.8058
 7424SOL    HW233906   3.595   1.048   8.753  0.4064  2.2356 -0.4235
 7425SOL     OW33907   3.647   3.501   3.317  0.0786  0.0137 -0.3519
 7425SOL    HW133908   3.718   3.475   3.258 -0.1775  1.0821 -1.1418
 7425SOL    HW233909   3.571   3.497   3.259 -0.2041  1.4360 -0.0711
 7426SOL     OW33910   3.621   0.922   7.868  0.5629  0.3310 -0.1335
 7426SOL    HW133911   3.658   0.991   7.923 -1.1884  0.7379  0.5253
 7426SOL    HW233912   3.528   0.945   7.873 -0.3805 -3.8155  1.1289
 7427SOL     OW33913   0.985   3.139   2.700 -0.2186 -0.3479 -0.4938
 7427SOL    HW133914   1.011   3.056   2.741 -2.4193 -0.9879 -0.3945
 7427SOL    HW233915   1.064   3.147   2.646 -0.0329 -1.2232 -0.3503
 7428SOL     OW33916   4.370   0.441   9.943  0.2697  0.2506  0.5370
 7428SOL    HW133917   4.458   0.405   9.957  0.2707  0.7342  1.8303
 7428SOL    HW233918   4.316   0.388  10.003 -1.0637  2.9620  1.7449
 7429SOL     OW33919   4.609   3.354  12.841 -0.0017  0.4464  0.4054
 7429SOL    HW133920   4.682   3.388  12.789 -1.2497  0.8253 -1.1057
 7429SOL    HW233921   4.591   3.440  12.880 -3.1607 -0.9157  1.9967
 7430SOL     OW33922   3.966   2.541   1.878  0.0678  0.0119 -0.3085
 7430SOL    HW133923   3.894   2.516   1.820  0.9186 -1.4652 -0.7339
 7430SOL    HW233924   4.008   2.613   1.831 -1.6003  0.8485 -0.5205
 7431SOL     OW33925   3.393   4.275   7.157 -0.7786 -0.5740  0.0132
 7431SOL    HW133926   3.398   4.200   7.216 -0.4993 -0.1627  0.5124
 7431SOL    HW233927   3.479   4.267   7.117  0.0259  1.8481  1.2111
 7432SOL     OW33928   2.834   3.736   5.460  0.0910  0.1717 -0.2482
 7432SOL    HW133929   2.828   3.713   5.553 -1.1513 -3.8110 -1.3134
 7432SOL    HW233930   2.746   3.773   5.456 -0.1298 -0.4883 -1.6087
 7433SOL     OW33931   3.930   0.898  10.452  0.5024 -0.0986 -0.1756
 7433SOL    HW133932   3.898   0.815  10.416 -0.0135 -0.3019  0.7624
 7433SOL    HW233933   3.950   0.877  10.543  1.5676 -0.8402 -0.5756
 7434SOL     OW33934   2.669   1.050  14.500 -0.0116  0.0498 -0.2829
 7434SOL    HW133935   2.616   1.042  14.421  0.3130 -2.3695 -0.2661
 7434SOL    HW233936   2.677   0.961  14.535 -1.6901  0.3224  0.8006
 7435SOL     OW33937   2.783   2.411  15.470  0.5485  0.6021  0.3074
 7435SOL    HW133938   2.854   2.433  15.530  2.1742 -0.6995 -1.1647
 7435SOL    HW233939   2.710   2.448  15.521 -0.6012 -1.9320  0.5056
 7436SOL     OW33940   2.058   1.465   0.110 -0.4829 -0.1878 -0.5334
 7436SOL    HW133941   2.088   1.413   0.035 -0.1758 -0.5895 -0.1300
 7436SOL    HW233942   2.023   1.398   0.169 -2.1202  0.9074 -0.2699
 7437SOL     OW33943   0.202   3.641   4.724 -0.6400  0.0507  0.3222
 7437SOL    HW133944   0.271   3.653   4.659  0.2937  2.0436  1.6917
 7437SOL    HW233945   0.194   3.545   4.724 -0.4667  0.0287 -1.0916
 7438SOL     OW33946   0.774   0.141   1.512 -0.1585  0.1827  0.5545
 7438SOL    HW133947   0.692   0.107   1.547  1.0847 -1.9105  1.4470
 7438SOL    HW233948   0.831   0.110   1.583 -0.6451 -0.8549  0.4741
 7439SOL     OW33949   3.017   2.183   0.591 -0.7354  0.7311  0.1454
 7439SOL    HW133950   2.986   2.098   0.562  1.3665 -0.1496  0.4786
 7439SOL    HW233951   3.098   2.143   0.624 -0.2067  0.8591 -0.9927
 7440SOL     OW33952   1.791   0.332   2.940  0.1204  0.0667  0.5428
 7440SOL    HW133953   1.716   0.344   2.882 -1.4954  2.2218  3.0431
 7440SOL    HW233954   1.757   0.269   3.004 -0.4712  0.3565  0.5130
 7441SOL     OW33955   2.030   2.270   2.478 -0.5473 -0.7025  0.3250
 7441SOL    HW133956   2.074   2.192   2.512 -1.2275 -0.6587  1.3241
 7441SOL    HW233957   1.962   2.276   2.546  0.2808  1.1662  0.9602
 7442SOL     OW33958   2.276   0.426   5.458 -0.1187  0.5417 -0.6400
 7442SOL    HW133959   2.300   0.349   5.407  1.0215  1.6573 -1.7866
 7442SOL    HW233960   2.284   0.488   5.386  0.2927  0.9334 -0.2575
 7443SOL     OW33961   3.186   1.817   2.467  0.5669  0.2328 -0.2615
 7443SOL    HW133962   3.174   1.763   2.544 -1.4369 -0.9603 -1.4025
 7443SOL    HW233963   3.280   1.807   2.454  0.6644 -0.6703  1.1914
 7444SOL     OW33964   3.823   1.401   4.759 -0.3027 -0.4501  0.0297
 7444SOL    HW133965   3.793   1.423   4.671  0.7675 -3.8243 -1.1709
 7444SOL    HW233966   3.814   1.306   4.752 -5.6651  0.2853 -2.4517
 7445SOL     OW33967   0.383   2.513   5.147  0.0677  0.0459 -0.6624
 7445SOL    HW133968   0.338   2.597   5.163  1.7384  0.6702  0.7073
 7445SOL    HW233969   0.448   2.521   5.217 -2.0629  0.5020  1.2699
 7446SOL     OW33970   3.758   4.620   2.663  0.4479  0.1983 -0.0625
 7446SOL    HW133971   3.733   4.675   2.737 -1.4512 -2.3594  1.1979
 7446SOL    HW233972   3.673   4.600   2.623 -0.2378  1.0137  0.9972
 7447SOL     OW33973   2.767   3.988  16.536  0.1010 -0.8130  0.1220
 7447SOL    HW133974   2.843   4.044  16.546 -0.0753 -0.7201  0.9819
 7447SOL    HW233975   2.788   3.945  16.453  0.2934 -3.0951  1.3658
 7448SOL     OW33976   2.924   2.528   3.609  0.5348 -0.5784  0.1637
 7448SOL    HW133977   2.897   2.471   3.537 -1.4439  0.4590  0.0922
 7448SOL    HW233978   2.893   2.617   3.593 -0.2582 -0.8019  0.4543
 7449SOL     OW33979   0.592   1.705   8.760 -0.0421  0.1083  0.1639
 7449SOL    HW133980   0.653   1.684   8.688  0.7708 -0.0744  0.9044
 7449SOL    HW233981   0.506   1.687   8.723 -0.1100 -2.4671  1.5870
 7450SOL     OW33982   1.680   0.801   4.636  1.1332  0.6055 -0.8302
 7450SOL    HW133983   1.671   0.887   4.595 -2.3948  0.8864  0.4949
 7450SOL    HW233984   1.723   0.815   4.720 -0.6556 -2.0529  0.4983
 7451SOL     OW33985   2.030   1.432   2.769 -0.4381 -0.7794 -0.1445
 7451SOL    HW133986   1.989   1.376   2.835 -2.3331  1.8834  0.9323
 7451SOL    HW233987   1.962   1.440   2.702  0.3103  3.2381 -0.4141
 7452SOL     OW33988   2.176   1.515   5.762 -0.4099  0.4313 -0.1780
 7452SOL    HW133989   2.103   1.483   5.709 -3.3463  1.2035  3.4138
 7452SOL    HW233990   2.235   1.550   5.695  0.0272 -1.8292 -1.0022
 7453SOL     OW33991   2.937   4.047  15.116  0.3364  0.2618  0.2349
 7453SOL    HW133992   3.006   4.012  15.060 -1.5501  0.7968 -2.3960
 7453SOL    HW233993   2.854   4.016  15.080  1.5306 -1.5233 -0.9869
 7454SOL     OW33994   3.563   3.898  17.023 -0.2556 -0.2462 -0.2897
 7454SOL    HW133995   3.478   3.918  16.983 -1.2098 -1.5401  1.0986
 7454SOL    HW233996   3.607   3.980  17.003 -0.9109  0.2528  0.3307
 7455SOL     OW33997   1.263   3.994   3.458  0.1416 -0.2617 -0.2865
 7455SOL    HW133998   1.305   3.925   3.406 -1.9640 -1.0539 -0.9242
 7455SOL    HW233999   1.168   3.979   3.457 -0.0330  0.8502 -0.7049
 7456SOL     OW34000   0.124   3.893  17.348  0.3072  0.4097  0.0336
 7456SOL    HW134001   0.147   3.974  17.395  0.5464  0.3209  0.0656
 7456SOL    HW234002   0.212   3.856  17.347  0.2009  0.0885  2.5676
 7457SOL     OW34003   4.106   4.358  11.651  0.4284 -0.5565 -0.0164
 7457SOL    HW134004   4.195   4.334  11.626  0.7677 -0.2420  0.9158
 7457SOL    HW234005   4.087   4.421  11.582  2.8962  1.6917  1.3901
 7458SOL     OW34006   3.504   0.186  11.904  0.4119 -0.5399  0.6620
 7458SOL    HW134007   3.451   0.266  11.908  0.4802 -0.3945 -1.1124
 7458SOL    HW234008   3.462   0.147  11.981  0.1225 -1.6719 -0.0740
 7459SOL     OW34009   0.759   3.502   6.786 -0.3727 -0.6579 -0.3878
 7459SOL    HW134010   0.758   3.407   6.793 -2.0488 -0.5754  0.7046
 7459SOL    HW234011   0.679   3.513   6.838  1.0939 -0.1582  1.7560
 7460SOL     OW34012   4.354   0.388   1.472  0.2046 -0.4560 -0.2504
 7460SOL    HW134013   4.391   0.449   1.536 -2.5823 -0.0031  0.9038
 7460SOL    HW234014   4.383   0.305   1.509  0.7658 -0.1540 -0.0089
 7461SOL     OW34015   4.583   3.088   5.895  0.3032 -0.0676 -0.5196
 7461SOL    HW134016   4.636   3.042   5.960 -0.9813 -1.3557 -0.3628
 7461SOL    HW234017   4.625   3.056   5.815 -2.8097 -2.2106 -1.3347
 7462SOL     OW34018   4.639   0.882   2.557 -0.0709  1.0660  0.0925
 7462SOL    HW134019   4.590   0.958   2.589 -0.8356 -0.4100  2.4834
 7462SOL    HW234020   4.705   0.928   2.505  0.6872 -0.8801 -0.6512
 7463SOL     OW34021   4.591   2.186   5.516 -0.3832 -0.0923 -0.2391
 7463SOL    HW134022   4.663   2.237   5.479 -0.7495  1.2185  0.8606
 7463SOL    HW234023   4.614   2.094   5.502  1.6065  0.5021 -0.8627
 7464SOL     OW34024   0.867   0.928   3.173 -0.1660 -0.7485 -0.4987
 7464SOL    HW134025   0.856   0.839   3.206 -0.3127 -0.1135  1.1371
 7464SOL    HW234026   0.815   0.971   3.241  1.3856 -1.4169  1.1003
 7465SOL     OW34027   0.060   1.686  14.561 -0.1058  0.2001 -0.1820
 7465SOL    HW134028   4.711   1.646  14.569  0.2816 -0.3558  1.1393
 7465SOL    HW234029   0.088   1.649  14.477 -0.4485  0.4662 -0.4157
 7466SOL     OW34030   1.057   2.776   5.174 -0.2694 -0.7539  0.2083
 7466SOL    HW134031   0.980   2.824   5.203  0.1182  1.0387 -1.7767
 7466SOL    HW234032   1.129   2.838   5.170  0.1118 -1.1977  0.1823
 7467SOL     OW34033   4.536   2.772  16.510 -0.0768  0.5969 -0.6102
 7467SOL    HW134034   4.570   2.833  16.445  2.3887  1.0574  1.0896
 7467SOL    HW234035   4.604   2.707  16.529 -0.2323  0.1935 -1.4303
 7468SOL     OW34036   4.594   0.300  13.089  0.5309  0.0844 -0.1529
 7468SOL    HW134037   4.688   0.291  13.072  0.3360 -1.1903 -0.5701
 7468SOL    HW234038   4.593   0.355  13.168 -0.8846 -1.7598  1.1091
 7469SOL     OW34039   4.329   1.339   4.117  0.0461  0.0009  0.2088
 7469SOL    HW134040   4.396   1.334   4.186 -0.4155  1.9109  0.7944
 7469SOL    HW234041   4.292   1.426   4.130  1.2889  0.3641  1.4036
 7470SOL     OW34042   4.685   1.034   7.813 -0.4799 -0.1685  0.0740
 7470SOL    HW134043   4.595   1.061   7.795 -0.1730  1.3815  0.8763
 7470SOL    HW234044   4.683   0.955   7.866 -1.8333 -0.0115  0.2488
 7471SOL     OW34045   1.215   2.508  15.169  0.1334 -0.5012 -0.2293
 7471SOL    HW134046   1.266   2.576  15.125 -0.2777 -0.0118  0.0501
 7471SOL    HW234047   1.147   2.486  15.105  0.1678  0.5304 -0.6256
 7472SOL     OW34048   0.426   0.192   0.962 -0.1249 -0.0049  0.1135
 7472SOL    HW134049   0.382   0.212   1.044 -1.4141  0.8727 -0.7874
 7472SOL    HW234050   0.434   0.281   0.929 -1.4367  0.8497  2.1083
 7473SOL     OW34051   3.163   0.369   2.982 -0.7563 -0.0162  0.5790
 7473SOL    HW134052   3.257   0.378   2.965 -0.5191 -1.2304  1.2162
 7473SOL    HW234053   3.161   0.429   3.057 -1.4615  0.0326  0.5206
 7474SOL     OW34054   2.342   3.791   3.231  0.1690  0.4027 -0.1267
 7474SOL    HW134055   2.391   3.749   3.301 -0.5153 -0.5883 -0.2459
 7474SOL    HW234056   2.363   3.883   3.244 -1.6376  0.8613 -0.4236
 7475SOL     OW34057   4.252   1.702   9.533  0.4800 -0.1175  0.5472
 7475SOL    HW134058   4.318   1.755   9.488 -1.4090  1.6332 -0.1486
 7475SOL    HW234059   4.180   1.698   9.470  0.1654  1.1157  0.8304
 7476SOL     OW34060   0.067   0.543   1.512 -0.6174 -0.4976  0.6919
 7476SOL    HW134061   0.106   0.581   1.591  2.2237 -3.0505  0.5554
 7476SOL    HW234062   0.133   0.480   1.482  1.4856  3.1472 -2.3285
 7477SOL     OW34063   1.016   3.839   2.765  0.2123  0.6368 -0.2924
 7477SOL    HW134064   1.021   3.878   2.853  2.5990  0.0299 -0.1785
 7477SOL    HW234065   0.999   3.919   2.714 -0.3008  1.3881  1.0309
 7478SOL     OW34066   4.131   0.719   5.231 -0.7142  0.4176  0.5887
 7478SOL    HW134067   4.226   0.722   5.218 -0.6439 -2.2969  0.5980
 7478SOL    HW234068   4.113   0.653   5.164 -3.4748  1.0408  0.7382
 7479SOL     OW34069   2.234   3.794   7.518 -0.0838  0.8069 -0.0876
 7479SOL    HW134070   2.186   3.734   7.575  0.4199  1.1526  0.7023
 7479SOL    HW234071   2.247   3.727   7.450 -1.2555 -1.3969  1.8680
 7480SOL     OW34072   4.427   4.659   2.837  0.5960 -0.6548  0.1468
 7480SOL    HW134073   4.350   4.670   2.782  0.2842 -2.1529  0.2815
 7480SOL    HW234074   4.494   4.632   2.774  0.5337  0.9415 -0.5933
 7481SOL     OW34075   3.363   3.672   5.092  0.7545 -0.3137  0.2593
 7481SOL    HW134076   3.272   3.674   5.062  0.7641  0.1371  0.2657
 7481SOL    HW234077   3.413   3.647   5.014 -1.2320  0.0893 -1.1402
 7482SOL     OW34078   0.937   3.261   9.591 -0.1196 -0.2324 -0.0029
 7482SOL    HW134079   0.998   3.334   9.607  0.3426 -0.8962  1.2172
 7482SOL    HW234080   0.976   3.228   9.510  1.9023  0.0722  0.8431
 7483SOL     OW34081   0.331   2.030   2.738 -0.0014 -0.6742  0.0660
 7483SOL    HW134082   0.278   1.983   2.802 -0.9797  0.0350 -0.2142
 7483SOL    HW234083   0.401   2.068   2.790  1.2621 -1.3162 -1.1700
 7484SOL     OW34084   3.496   1.834   3.737 -0.0275  0.3027 -0.4403
 7484SOL    HW134085   3.417   1.815   3.787  0.5425  0.1461  0.4052
 7484SOL    HW234086   3.511   1.746   3.700 -1.8637 -0.1142 -0.1672
 7485SOL     OW34087   1.185   2.126   3.329 -0.3718 -0.6797 -0.0283
 7485SOL    HW134088   1.096   2.126   3.293 -0.9600  0.0316  1.4374
 7485SOL    HW234089   1.211   2.037   3.304  1.4924 -1.0338  3.2275
 7486SOL     OW34090   1.362   2.538   6.286 -0.3037 -0.2815 -0.0430
 7486SOL    HW134091   1.453   2.542   6.258  1.0199 -1.6795  4.0966
 7486SOL    HW234092   1.329   2.611   6.234  0.2012 -0.0637 -0.0561
 7487SOL     OW34093   1.041   2.747   9.385  0.1781 -0.1446  0.4317
 7487SOL    HW134094   1.132   2.717   9.385 -0.4571 -2.0809 -2.1983
 7487SOL    HW234095   1.019   2.744   9.478 -1.5665  0.2642  0.0392
 7488SOL     OW34096   2.929   1.350   2.112 -0.0083 -0.2590  0.1674
 7488SOL    HW134097   2.948   1.309   2.197  0.5136  1.6001  0.9465
 7488SOL    HW234098   2.891   1.434   2.137  1.3597  0.5705 -0.5335
 7489SOL     OW34099   4.427   4.172  13.665  0.2703 -0.5771  0.8062
 7489SOL    HW134100   4.445   4.146  13.755  2.7196  0.3615  0.5980
 7489SOL    HW234101   4.334   4.188  13.680  0.0259  0.3712 -1.8063
 7490SOL     OW34102   0.834   4.151  16.627  0.1031 -0.2559  0.2516
 7490SOL    HW134103   0.812   4.070  16.673 -2.4503  1.2551  1.6694
 7490SOL    HW234104   0.848   4.212  16.700  2.1384  0.6619 -0.9197
 7491SOL     OW34105   0.612   1.935   0.586  0.7228  0.4285 -0.4961
 7491SOL    HW134106   0.605   2.026   0.555  2.7238  0.8961  0.4620
 7491SOL    HW234107   0.642   1.944   0.677 -2.1206 -1.5797  0.6450
 7492SOL     OW34108   1.275   3.569   6.201  0.0794  0.2023 -0.1683
 7492SOL    HW134109   1.337   3.507   6.239 -1.2192 -1.2095 -0.3423
 7492SOL    HW234110   1.286   3.537   6.111  1.2995 -0.0485  0.0714
 7493SOL     OW34111   2.187   1.442   1.323 -0.1628  0.0257 -0.1910
 7493SOL    HW134112   2.219   1.375   1.262  0.8974  1.6015 -1.3685
 7493SOL    HW234113   2.268   1.476   1.361  0.4921 -0.0107 -1.5581
 7494SOL     OW34114   3.891   4.584   4.831 -0.3891  0.2683  0.3409
 7494SOL    HW134115   3.805   4.544   4.839  0.0506 -0.8533 -0.4983
 7494SOL    HW234116   3.871   4.677   4.835  2.2230  0.9482 -2.0279
 7495SOL     OW34117   2.478   3.115   6.791 -0.4177  0.1203 -0.1987
 7495SOL    HW134118   2.562   3.159   6.798 -1.1002  1.9074 -3.2555
 7495SOL    HW234119   2.431   3.185   6.836  0.9692  0.0407  1.3523
 7496SOL     OW34120   1.793   2.154  14.956 -0.1673  0.4543  0.7816
 7496SOL    HW134121   1.754   2.136  14.870  0.8240 -1.7523  0.8062
 7496SOL    HW234122   1.753   2.081  15.002  0.5059  0.0465  0.7256
 7497SOL     OW34123   1.903   0.503   5.985  0.9783 -0.2630 -0.3353
 7497SOL    HW134124   1.991   0.494   5.950  1.3083  1.0724  0.1188
 7497SOL    HW234125   1.867   0.427   5.939  0.1848 -0.5936  0.8250
 7498SOL     OW34126   0.454   2.694   6.086  0.1461 -0.5866  0.7950
 7498SOL    HW134127   0.444   2.772   6.140  1.8117  0.7041 -0.7893
 7498SOL    HW234128   0.519   2.646   6.137 -0.3491 -1.6636  0.4322
 7499SOL     OW34129   4.278   0.302  13.464 -0.5984  0.7752 -0.6682
 7499SOL    HW134130   4.293   0.213  13.434  0.8564  0.6463  0.4365
 7499SOL    HW234131   4.190   0.306  13.501 -0.2037 -0.0452  0.3570
 7500SOL     OW34132   2.809   0.371  14.862  1.0599  0.3302 -0.5483
 7500SOL    HW134133   2.857   0.449  14.833 -0.9107  1.7769  0.0926
 7500SOL    HW234134   2.726   0.404  14.896  0.5021 -0.5999 -1.0036
 7501SOL     OW34135   2.343   1.675  13.861  0.4639  0.1808  0.3437
 7501SOL    HW134136   2.313   1.586  13.844 -1.3933  0.7318  0.7606
 7501SOL    HW234137   2.310   1.687  13.950  1.6966 -2.9296  1.1876
 7502SOL     OW34138   0.438   2.443   0.243  0.3324  0.3681  0.4224
 7502SOL    HW134139   0.388   2.441   0.161 -0.3450 -0.4044  0.8583
 7502SOL    HW234140   0.502   2.372   0.236 -0.5218 -0.5391  1.9487
 7503SOL     OW34141   0.321   2.174   7.236  0.0142 -0.2003 -0.2727
 7503SOL    HW134142   0.382   2.202   7.305  1.4985  0.9542 -2.0634
 7503SOL    HW234143   0.383   2.146   7.169 -0.0015 -0.1584 -0.3044
 7504SOL     OW34144   3.546   2.968  10.594  0.4606  0.1016  0.2138
 7504SOL    HW134145   3.579   3.011  10.673  1.2189  0.3745 -0.2503
 7504SOL    HW234146   3.473   3.025  10.569 -0.3867 -1.5586 -1.1065
 7505SOL     OW34147   3.952   1.083   3.147 -0.2692  0.4956 -0.5268
 7505SOL    HW134148   3.873   1.112   3.101 -0.7564 -0.1070 -0.0572
 7505SOL    HW234149   3.947   1.123   3.233 -0.6531 -1.0644  0.1787
 7506SOL     OW34150   2.814   0.271  10.146 -0.2986  0.1282 -0.1564
 7506SOL    HW134151   2.844   0.298  10.059 -0.0512  0.5608  0.0570
 7506SOL    HW234152   2.769   0.353  10.167 -0.6384 -0.8100  2.8366
 7507SOL     OW34153   2.951   0.799   8.096 -0.3932  0.5289 -0.0332
 7507SOL    HW134154   2.859   0.773   8.088  0.0612 -1.0212 -0.3122
 7507SOL    HW234155   2.972   0.755   8.178  1.5982  2.8106  0.6637
 7508SOL     OW34156   4.601   0.100  16.955 -1.1167 -0.2573  0.2076
 7508SOL    HW134157   4.582   0.089  16.862  3.0488  0.3441 -0.7159
 7508SOL    HW234158   4.512   0.085  16.987 -1.1180  0.0309  0.3387
 7509SOL     OW34159   1.995   1.653   8.807  0.0370  0.0078  0.3625
 7509SOL    HW134160   1.934   1.610   8.747 -0.0751 -1.2851  1.4108
 7509SOL    HW234161   1.946   1.734   8.820  2.6015  1.5430  0.3914
 7510SOL     OW34162   4.306   4.608   2.258 -0.0466  0.0465  0.1803
 7510SOL    HW134163   4.253   4.680   2.293  0.7958  0.1289  1.2669
 7510SOL    HW234164   4.257   4.535   2.296 -0.1528 -0.6425 -1.2971
 7511SOL     OW34165   2.440   2.434  14.477  0.1316  0.6199 -0.0122
 7511SOL    HW134166   2.492   2.357  14.500 -2.2767 -1.3025 -0.9725
 7511SOL    HW234167   2.448   2.424  14.382 -0.5160  2.1973 -0.2359
 7512SOL     OW34168   1.960   1.699   2.305  0.6015 -0.6596  0.6688
 7512SOL    HW134169   1.878   1.699   2.256 -0.1744  2.1859  1.9230
 7512SOL    HW234170   1.994   1.611   2.292 -1.4103 -1.2932 -0.4015
 7513SOL     OW34171   0.157   4.516   7.187 -0.3620 -0.0813 -0.0144
 7513SOL    HW134172   0.171   4.605   7.156 -1.3876 -0.0358 -0.3579
 7513SOL    HW234173   0.247   4.483   7.189  0.0555  1.2099  2.4341
 7514SOL     OW34174   1.978   3.565  10.077 -0.1944  0.0927 -0.4445
 7514SOL    HW134175   1.988   3.609   9.993  2.2852  0.4680  0.0503
 7514SOL    HW234176   1.906   3.506  10.057  0.4105 -0.1795 -1.7818
 7515SOL     OW34177   3.733   2.113  14.895 -0.1773  0.5456  0.5666
 7515SOL    HW134178   3.764   2.133  14.806  2.2246 -0.5319  1.1559
 7515SOL    HW234179   3.651   2.162  14.904 -0.1905  0.5538  0.4151
 7516SOL     OW34180   2.463   2.517   5.970  0.3736 -0.0557 -0.5968
 7516SOL    HW134181   2.414   2.594   6.002 -0.1204 -1.0144  0.9764
 7516SOL    HW234182   2.520   2.568   5.912  1.2362  0.2318  0.4959
 7517SOL     OW34183   0.878   0.158   1.254  0.5760  0.5841 -0.7214
 7517SOL    HW134184   0.841   0.175   1.341 -1.5000 -1.2055 -1.2372
 7517SOL    HW234185   0.968   0.177   1.280  0.6322  1.4610 -1.5616
 7518SOL     OW34186   1.515   0.230   4.275 -0.2892  0.1676  0.2017
 7518SOL    HW134187   1.432   0.236   4.322 -0.4916  3.0868 -0.5028
 7518SOL    HW234188   1.532   0.136   4.272  0.5945  0.3556 -0.5817
 7519SOL     OW34189   4.402   2.489   4.043  0.2390  0.2403  0.4320
 7519SOL    HW134190   4.313   2.488   4.007  0.7511  1.0405 -0.8711
 7519SOL    HW234191   4.456   2.487   3.964 -1.2095 -3.4943 -0.4548
 7520SOL     OW34192   1.685   3.858  10.827 -0.0579  0.2080  0.1012
 7520SOL    HW134193   1.742   3.860  10.904  0.2867  0.8203 -0.1749
 7520SOL    HW234194   1.756   3.841  10.766 -0.5210  3.4800 -1.3822
 7521SOL     OW34195   4.642   1.111  13.072  0.1589  0.1567 -0.7437
 7521SOL    HW134196   4.704   1.121  13.000 -1.3389  2.0987 -1.7261
 7521SOL    HW234197   4.567   1.163  13.045 -0.5349 -0.5742 -0.2145
 7522SOL     OW34198   0.402   1.797  15.527 -0.0902  0.2888 -0.1621
 7522SOL    HW134199   0.321   1.749  15.509 -0.2776  0.9649 -1.1451
 7522SOL    HW234200   0.471   1.751  15.481  0.5061 -0.8413  1.8738
 7523SOL     OW34201   4.152   1.544   7.624  0.0137  0.0648  0.6177
 7523SOL    HW134202   4.163   1.535   7.719  0.8576  1.0893  0.6123
 7523SOL    HW234203   4.200   1.625   7.607 -0.9849  0.4196 -0.4717
 7524SOL     OW34204   4.409   1.975  12.182  0.1497  0.1053 -0.3472
 7524SOL    HW134205   4.373   1.991  12.095  1.2207 -0.3698 -0.8694
 7524SOL    HW234206   4.441   1.885  12.177  0.9680  0.3250  0.9440
 7525SOL     OW34207   0.254   1.599   2.688  0.2134  0.4902  0.3178
 7525SOL    HW134208   0.282   1.580   2.778  1.4903 -0.9860 -0.3905
 7525SOL    HW234209   0.159   1.606   2.693  0.2486  0.8743  0.4444
 7526SOL     OW34210   4.170   1.353   7.932 -0.1621  0.8712  0.2458
 7526SOL    HW134211   4.255   1.386   7.903  0.5751  0.2456  1.7018
 7526SOL    HW234212   4.164   1.263   7.899  1.5732  0.4499  1.0876
 7527SOL     OW34213   2.219   2.704   8.521 -0.0165  0.1019  0.9201
 7527SOL    HW134214   2.188   2.617   8.495  1.4335  0.1978 -1.1085
 7527SOL    HW234215   2.143   2.757   8.499 -1.2710 -2.3084 -0.5838
 7528SOL     OW34216   1.140   4.377   8.375 -0.0904 -0.3716 -0.3635
 7528SOL    HW134217   1.201   4.314   8.415  1.0483 -0.1287 -1.7102
 7528SOL    HW234218   1.121   4.435   8.448 -0.5553 -2.1468  0.9416
 7529SOL     OW34219   1.534   1.619   1.419 -0.4088 -0.1866 -0.1697
 7529SOL    HW134220   1.612   1.639   1.469 -0.3098 -2.9281  0.7901
 7529SOL    HW234221   1.532   1.524   1.405 -0.8681 -0.1637 -0.2698
 7530SOL     OW34222   1.776   2.230  13.697  0.0434  0.5219  0.0467
 7530SOL    HW134223   1.689   2.244  13.659 -1.6316 -1.3439  3.2713
 7530SOL    HW234224   1.818   2.315  13.682  0.4907 -0.1874 -2.7460
 7531SOL     OW34225   1.475   1.279   6.887  0.4158 -0.0510  0.5226
 7531SOL    HW134226   1.546   1.330   6.927  0.8226 -0.0934 -0.1417
 7531SOL    HW234227   1.396   1.320   6.922 -0.2979 -0.6097 -0.4559
 7532SOL     OW34228   0.606   4.666   3.816  0.1772 -0.1497 -0.0401
 7532SOL    HW134229   0.558   4.723   3.756  3.1930  0.4372 -1.8943
 7532SOL    HW234230   0.596   4.577   3.783 -0.2059 -0.7036  1.5505
 7533SOL     OW34231   1.468   1.954   8.612  0.0754  0.0470 -0.6102
 7533SOL    HW134232   1.563   1.965   8.613 -0.0056  0.8009 -1.2824
 7533SOL    HW234233   1.464   1.885   8.678 -0.0076 -0.1336 -0.8051
 7534SOL     OW34234   2.198   2.113   8.897  0.0558  0.0559  0.4304
 7534SOL    HW134235   2.282   2.132   8.854  0.5119 -1.5185  0.6139
 7534SOL    HW234236   2.220   2.112   8.990 -0.7590  0.4248  0.6278
 7535SOL     OW34237   2.762   0.286   2.934 -0.0307 -0.2309  0.6965
 7535SOL    HW134238   2.831   0.222   2.954 -0.1420 -0.3368  0.7441
 7535SOL    HW234239   2.673   0.250   2.934  0.0419 -0.4111  0.2700
 7536SOL     OW34240   2.658   4.716   1.875  0.0257  0.4058 -0.1381
 7536SOL    HW134241   2.657   4.627   1.909 -0.2127  0.2327 -0.5936
 7536SOL    HW234242   2.659   4.693   1.782 -1.4039 -0.4360  0.0477
 7537SOL     OW34243   2.956   1.176   5.251 -0.2064 -0.2355  0.0261
 7537SOL    HW134244   2.919   1.244   5.194  2.4614  0.5621 -0.7786
 7537SOL    HW234245   2.886   1.173   5.316  1.0669  0.7732  1.4235
 7538SOL     OW34246   3.919   2.794   4.902  0.0458  0.8072  0.1945
 7538SOL    HW134247   3.849   2.846   4.941 -0.6305 -0.6546  0.9322
 7538SOL    HW234248   3.862   2.721   4.878  0.9064  0.4543 -0.7516
 7539SOL     OW34249   4.116   1.092  16.265 -0.4300  0.8950  0.1737
 7539SOL    HW134250   4.063   1.142  16.203  2.4750  1.2628 -1.9659
 7539SOL    HW234251   4.182   1.066  16.201  0.5045  1.3817  0.9389
 7540SOL     OW34252   2.177   3.358  16.488  0.3354 -0.7158 -0.4659
 7540SOL    HW134253   2.152   3.271  16.518  0.4599 -0.1865  1.1747
 7540SOL    HW234254   2.178   3.410  16.569 -2.2357  0.1602 -0.9900
 7541SOL     OW34255   0.587   0.180   8.002  0.0915  0.1892  0.5135
 7541SOL    HW134256   0.537   0.209   7.926 -0.5960  0.3773  1.0349
 7541SOL    HW234257   0.546   0.218   8.080 -2.9936  0.4926 -1.2527
 7542SOL     OW34258   4.136   2.589   6.558 -1.3504  0.1167  0.1438
 7542SOL    HW134259   4.120   2.554   6.646  1.0073  0.5688  0.7540
 7542SOL    HW234260   4.102   2.509   6.516 -0.0553 -1.3839  1.9395
 7543SOL     OW34261   2.293   1.878   3.662  0.3698 -0.2129  0.2479
 7543SOL    HW134262   2.207   1.839   3.676  0.0865 -0.5046 -2.2969
 7543SOL    HW234263   2.280   1.964   3.702 -0.1615 -0.7806  1.3025
 7544SOL     OW34264   0.354   0.360  10.198 -0.6104 -0.1168 -0.0579
 7544SOL    HW134265   0.293   0.431  10.175  0.9039  2.3500  3.5832
 7544SOL    HW234266   0.304   0.279  10.192 -2.3212  0.8228  1.4726
 7545SOL     OW34267   4.562   3.629  11.617  0.1425  0.0561 -0.9324
 7545SOL    HW134268   4.540   3.536  11.620  0.7580 -0.0158  1.2164
 7545SOL    HW234269   4.477   3.668  11.597 -0.9342 -1.6205  0.4170
 7546SOL     OW34270   3.623   1.979  10.879  0.2884  0.0512  0.5651
 7546SOL    HW134271   3.683   2.044  10.916 -1.8285  2.1687  0.2253
 7546SOL    HW234272   3.670   1.902  10.913 -0.2352 -1.2789 -1.7581
 7547SOL     OW34273   1.767   1.027   8.392 -0.1825 -0.0830  0.1924
 7547SOL    HW134274   1.854   1.008   8.427 -0.0921  0.0835  0.0541
 7547SOL    HW234275   1.708   0.982   8.453 -0.4936  2.4479  1.7830
 7548SOL     OW34276   1.117   2.692   0.017  0.2019  0.1645  0.4075
 7548SOL    HW134277   1.026   2.703   0.043 -0.0578 -1.6644  0.2167
 7548SOL    HW234278   1.126   2.771  17.712 -0.3187 -0.5757 -0.7546
 7549SOL     OW34279   4.127   3.125   4.879  0.1983 -0.1605 -0.2109
 7549SOL    HW134280   4.068   3.056   4.909 -0.6549  1.0216  0.8661
 7549SOL    HW234281   4.140   3.104   4.786  1.2475 -0.0580 -0.0877
 7550SOL     OW34282   2.645   0.653  16.282 -0.3429  0.1509  0.0068
 7550SOL    HW134283   2.573   0.602  16.245  1.4411 -0.5101 -2.6015
 7550SOL    HW234284   2.614   0.742  16.264 -0.9233 -0.1003 -0.2263
 7551SOL     OW34285   1.949   0.161  14.977  0.1665 -0.1593  0.5283
 7551SOL    HW134286   1.909   0.165  15.063 -1.4650 -0.6735 -0.2099
 7551SOL    HW234287   2.031   0.206  15.000  0.7468 -1.2835  0.6675
 7552SOL     OW34288   0.861   0.105   3.557 -0.3012  0.2290  0.4282
 7552SOL    HW134289   0.846   0.198   3.575  0.8296  0.8409 -1.7358
 7552SOL    HW234290   0.927   0.080   3.621  1.7645  0.6071 -1.5822
 7553SOL     OW34291   1.999   0.467   2.003 -0.5606  0.4016  0.2031
 7553SOL    HW134292   2.045   0.448   1.922 -1.0923  0.7448 -0.1827
 7553SOL    HW234293   2.050   0.537   2.043  0.3708  0.7601 -1.6219
 7554SOL     OW34294   0.411   1.202  14.535  0.4115  0.0573 -0.3812
 7554SOL    HW134295   0.318   1.226  14.541  0.0400 -1.1854 -1.0750
 7554SOL    HW234296   0.402   1.108  14.516  0.1622  0.2024 -1.0033
 7555SOL     OW34297   4.714   2.934   2.241 -0.0851 -0.1482  0.5319
 7555SOL    HW134298   4.658   2.859   2.224  0.1514 -0.0066 -0.8730
 7555SOL    HW234299   0.061   2.916   2.200  0.9054  0.6116  2.2085
 7556SOL     OW34300   3.416   4.030  16.844  0.2668  0.1673 -0.3997
 7556SOL    HW134301   3.474   4.047  16.770  0.0140  1.6392 -0.2668
 7556SOL    HW234302   3.342   3.989  16.800 -0.2307 -1.3492  1.8165
 7557SOL     OW34303   4.138   2.248   3.070 -0.0481  0.3569  0.0603
 7557SOL    HW134304   4.211   2.299   3.105 -0.5655 -0.8348  2.9036
 7557SOL    HW234305   4.121   2.298   2.990  0.0111  1.2117  0.5836
 7558SOL     OW34306   3.972   0.996   2.627  0.1082 -0.2664 -0.2468
 7558SOL    HW134307   3.957   1.055   2.553 -0.6414  0.5464  0.5509
 7558SOL    HW234308   4.045   1.035   2.675  0.3755 -0.2847 -0.6417
 7559SOL     OW34309   1.689   3.496  11.570 -0.2205  0.5145 -0.1131
 7559SOL    HW134310   1.782   3.486  11.553 -0.3443  0.6593 -0.8947
 7559SOL    HW234311   1.657   3.407  11.584  1.5534 -0.4722 -2.3504
 7560SOL     OW34312   1.253   2.942   4.236  0.4254  0.1958  0.4002
 7560SOL    HW134313   1.181   2.929   4.174  0.9899 -1.1528  0.0274
 7560SOL    HW234314   1.206   2.932   4.319 -1.1395  0.0833 -0.5048
 7561SOL     OW34315   3.443   2.624   3.025  0.0879 -0.1620 -0.0791
 7561SOL    HW134316   3.494   2.704   3.039  0.6675 -0.7355  1.1631
 7561SOL    HW234317   3.403   2.614   3.112 -0.7937  2.4166 -0.2008
 7562SOL     OW34318   1.892   1.031   5.798 -0.4108  0.1697 -0.0014
 7562SOL    HW134319   1.909   0.943   5.831  0.1348 -0.8561 -3.0081
 7562SOL    HW234320   1.971   1.070   5.761 -0.9336  0.6616 -0.6013
 7563SOL     OW34321   2.684   0.625   9.807 -0.0019  0.7782  0.1088
 7563SOL    HW134322   2.757   0.685   9.824 -0.4783  1.3648  0.0745
 7563SOL    HW234323   2.660   0.599   9.895  1.6501 -3.3305 -0.6475
 7564SOL     OW34324   0.372   0.629   9.498 -0.1621 -0.2497 -0.1280
 7564SOL    HW134325   0.365   0.724   9.488 -1.0652 -0.2699  0.3956
 7564SOL    HW234326   0.376   0.597   9.407 -0.9670 -1.6253  0.3285
 7565SOL     OW34327   3.272   0.957   3.046  0.0856  0.3173  0.3466
 7565SOL    HW134328   3.195   0.931   2.995  0.0364 -1.4518  1.3089
 7565SOL    HW234329   3.329   0.944   2.970 -0.0775  0.4508  0.2000
 7566SOL     OW34330   2.779   2.738   3.455  0.7355 -0.0629 -0.3299
 7566SOL    HW134331   2.822   2.823   3.441 -1.7122  1.1829 -0.3342
 7566SOL    HW234332   2.690   2.768   3.476  0.4186 -0.7010 -0.7671
 7567SOL     OW34333   0.550   0.658   2.590 -0.0669 -0.0298 -0.7990
 7567SOL    HW134334   0.636   0.697   2.605  0.8530 -1.0662 -3.3987
 7567SOL    HW234335   0.541   0.599   2.665  0.6824 -0.2122 -0.8556
 7568SOL     OW34336   2.557   0.537   4.160  0.0250  0.1738 -0.1426
 7568SOL    HW134337   2.625   0.496   4.214 -1.5065 -2.2918 -0.1034
 7568SOL    HW234338   2.497   0.463   4.163  1.5936 -1.2040 -2.0969
 7569SOL     OW34339   4.339   3.612   3.418  1.0667 -0.3095  0.5961
 7569SOL    HW134340   4.248   3.596   3.393  0.4940  2.5965  0.8545
 7569SOL    HW234341   4.356   3.696   3.375 -2.4839  0.4864  0.7090
 7570SOL     OW34342   1.790   0.340   7.346 -0.8111 -0.8685 -0.4714
 7570SOL    HW134343   1.733   0.267   7.322 -1.9718  0.4751 -1.8080
 7570SOL    HW234344   1.725   0.388   7.399  1.9656  2.1006  0.2200
 7571SOL     OW34345   1.300   4.310   2.922  0.2076 -0.2988  0.6556
 7571SOL    HW134346   1.335   4.395   2.895  0.3692 -0.2558  1.0024
 7571SOL    HW234347   1.216   4.333   2.963 -0.7573  0.1929 -1.6193
 7572SOL     OW34348   4.337   3.066  13.162 -0.1751 -0.1375 -0.1942
 7572SOL    HW134349   4.407   3.029  13.215  0.6936  1.6770 -0.0607
 7572SOL    HW234350   4.357   3.019  13.081 -1.2203  0.1346 -0.6152
 7573SOL     OW34351   0.789   4.292   4.883  0.5112  0.4451  0.0369
 7573SOL    HW134352   0.804   4.229   4.953 -0.5793 -1.0363 -1.0775
 7573SOL    HW234353   0.871   4.287   4.834 -0.6016 -0.4220 -1.7181
 7574SOL     OW34354   0.922   2.277   3.100 -0.1795  0.7417 -0.6866
 7574SOL    HW134355   0.934   2.191   3.139 -1.2708  0.5235 -0.8298
 7574SOL    HW234356   0.939   2.329   3.178  3.8249 -0.1751 -0.9285
 7575SOL     OW34357   1.861   2.172   3.928  0.0440 -0.3390  0.3727
 7575SOL    HW134358   1.791   2.110   3.948 -2.4121  0.7888 -4.8051
 7575SOL    HW234359   1.892   2.194   4.016 -0.8819 -0.2362  0.6669
 7576SOL     OW34360   1.693   4.384   6.855 -0.3978  0.0451  0.2221
 7576SOL    HW134361   1.705   4.465   6.806  0.9216 -0.4216 -0.2293
 7576SOL    HW234362   1.763   4.337   6.811  0.5328  0.2826  1.4399
 7577SOL     OW34363   1.276   4.158   8.466  0.0551  0.1047  0.3430
 7577SOL    HW134364   1.212   4.088   8.482 -0.0414 -0.1071 -0.9918
 7577SOL    HW234365   1.325   4.143   8.547 -1.6974  0.5999  1.5062
 7578SOL     OW34366   0.282   0.193   4.185  0.0592 -0.5162 -0.3062
 7578SOL    HW134367   0.365   0.213   4.228 -0.8766  0.4437  1.0201
 7578SOL    HW234368   0.304   0.153   4.101  1.3901  0.8085 -0.5748
 7579SOL     OW34369   0.039   3.761  11.746  0.4342  0.0426 -0.0023
 7579SOL    HW134370   4.686   3.744  11.722 -0.0135  1.8317  0.3943
 7579SOL    HW234371   0.086   3.683  11.716  3.3531  1.6314  0.4126
 7580SOL     OW34372   2.331   4.122   1.941 -0.1885  0.0577 -0.2105
 7580SOL    HW134373   2.363   4.138   2.030 -0.7444  0.5948 -0.1090
 7580SOL    HW234374   2.243   4.158   1.936 -0.7636 -1.2888  0.2516
 7581SOL     OW34375   0.976   3.993   8.089  0.2377  0.3238  0.6231
 7581SOL    HW134376   1.004   4.084   8.099 -1.0666  0.8474 -0.6393
 7581SOL    HW234377   0.895   3.999   8.038  1.2559 -3.1169 -1.3335
 7582SOL     OW34378   1.788   3.745   7.644 -0.2220  0.2052 -0.3872
 7582SOL    HW134379   1.799   3.810   7.576 -1.3033  0.9272  0.1239
 7582SOL    HW234380   1.779   3.659   7.603 -0.2103 -0.8213  1.7063
 7583SOL     OW34381   0.896   0.332  13.249 -0.7180 -0.5363  0.3227
 7583SOL    HW134382   0.975   0.338  13.197 -0.7206 -2.7613  0.0614
 7583SOL    HW234383   0.863   0.247  13.221 -0.9028  0.5732 -2.8937
 7584SOL     OW34384   2.956   1.183   4.609 -0.1588 -0.1282  0.1190
 7584SOL    HW134385   2.955   1.274   4.641  0.3282  0.2424 -0.9172
 7584SOL    HW234386   3.023   1.170   4.676 -0.8991  0.9972  1.0956
 7585SOL     OW34387   3.732   0.759   0.144 -0.1941  0.1941 -0.0785
 7585SOL    HW134388   3.737   0.744   0.050 -0.9801  2.4016 -0.4603
 7585SOL    HW234389   3.743   0.854   0.147  3.5557 -0.2097 -0.4048
 7586SOL     OW34390   0.064   0.196   8.542 -0.2298 -0.0352  0.3875
 7586SOL    HW134391   0.006   0.261   8.501  1.3282  0.5737 -0.8333
 7586SOL    HW234392   0.031   0.113   8.507 -0.5541  0.2066  0.1092
 7587SOL     OW34393   1.762   2.100  16.433 -1.2003 -0.2851  0.2281
 7587SOL    HW134394   1.690   2.137  16.382 -1.7420  0.2240  1.3744
 7587SOL    HW234395   1.752   2.008  16.407 -2.6980 -0.2315  0.6047
 7588SOL     OW34396   3.309   2.032   4.405  1.1775 -0.0815  0.0546
 7588SOL    HW134397   3.336   2.039   4.496 -0.4226  1.7364  0.3579
 7588SOL    HW234398   3.374   2.091   4.366  0.1332 -0.2868 -1.9724
 7589SOL     OW34399   2.541   2.118   6.564 -0.3436 -0.2633  0.2882
 7589SOL    HW134400   2.502   2.062   6.631  1.2240 -1.2371  0.3722
 7589SOL    HW234401   2.539   2.205   6.605  0.3679 -0.9915  1.8786
 7590SOL     OW34402   2.332   3.961   2.366 -0.1539 -0.2562 -0.1572
 7590SOL    HW134403   2.248   3.915   2.355 -0.2673 -0.3501  1.0347
 7590SOL    HW234404   2.352   3.945   2.458 -0.1948 -1.3062 -0.3279
 7591SOL     OW34405   0.620   1.656  10.638  0.6275  0.2835  0.1297
 7591SOL    HW134406   0.583   1.736  10.601  1.0737  0.9023  0.9997
 7591SOL    HW234407   0.692   1.632  10.579 -0.4519 -1.0327 -0.6426
 7592SOL     OW34408   3.521   2.105   3.740  0.4650  0.6179 -0.4646
 7592SOL    HW134409   3.477   2.024   3.713  1.9441  0.3539 -2.0457
 7592SOL    HW234410   3.586   2.107   3.670 -0.6441 -1.6082 -1.5718
 7593SOL     OW34411   3.168   4.083   7.284  0.0682 -0.1430 -0.3318
 7593SOL    HW134412   3.170   4.142   7.209 -0.7395  0.8414  0.4167
 7593SOL    HW234413   3.131   4.007   7.239  1.4651  0.9314 -3.2650
 7594SOL     OW34414   4.539   0.112   3.644 -0.4273 -0.3925 -0.1318
 7594SOL    HW134415   4.491   0.159   3.575 -0.9234 -0.7496 -0.0325
 7594SOL    HW234416   4.550   0.182   3.709  2.2794 -1.1057  0.1794
 7595SOL     OW34417   1.934   0.964   6.547 -0.0747  0.4315  0.1055
 7595SOL    HW134418   1.904   0.903   6.479 -1.2450 -1.4766  2.3488
 7595SOL    HW234419   1.969   1.039   6.500  0.9842  0.2066  0.5169
 7596SOL     OW34420   2.106   0.147  10.797 -0.2095 -0.1032 -0.3241
 7596SOL    HW134421   2.120   0.169  10.705  0.8043 -3.7019 -1.0182
 7596SOL    HW234422   2.118   0.233  10.837  0.6616 -0.7638  0.8224
 7597SOL     OW34423   1.977   3.298   6.884  0.8468  0.1090 -0.2184
 7597SOL    HW134424   1.959   3.244   6.961 -2.2979  1.0435 -0.2958
 7597SOL    HW234425   1.897   3.284   6.833  0.2933  2.6451 -0.0436
 7598SOL     OW34426   0.183   3.753  15.681 -0.3153 -0.0185 -0.7589
 7598SOL    HW134427   0.266   3.786  15.718  0.1934 -0.3883 -1.5668
 7598SOL    HW234428   0.198   3.762  15.587  2.6850  0.3899 -0.2663
 7599SOL     OW34429   0.891   0.237   3.890  0.5120  0.3444 -0.0731
 7599SOL    HW134430   0.960   0.207   3.832 -1.0117  2.3283 -2.9220
 7599SOL    HW234431   0.905   0.190   3.973  1.3945 -1.5914 -1.3339
 7600SOL     OW34432   0.778   1.747   4.670  0.5681 -0.8266  0.0202
 7600SOL    HW134433   0.867   1.775   4.691  0.2279 -0.2181  0.6509
 7600SOL    HW234434   0.806   1.678   4.610 -0.1639 -0.5314 -0.6711
 7601SOL     OW34435   3.421   1.792   8.347 -0.1459 -0.1460  0.1749
 7601SOL    HW134436   3.494   1.814   8.405  0.1979 -2.3279  0.5740
 7601SOL    HW234437   3.456   1.712   8.309 -2.1074 -1.3189  0.8326
 7602SOL     OW34438   1.333   0.600   3.462 -0.3054 -0.1285 -0.3473
 7602SOL    HW134439   1.365   0.571   3.377  1.0913 -0.6321  0.3591
 7602SOL    HW234440   1.384   0.542   3.518 -1.1683 -1.4771 -0.9514
 7603SOL     OW34441   3.788   1.106   4.752 -0.3659 -0.3899 -0.0972
 7603SOL    HW134442   3.778   1.039   4.820 -1.3629 -0.2806 -0.1344
 7603SOL    HW234443   3.760   1.059   4.673  3.0873 -3.0034  0.2696
 7604SOL     OW34444   3.304   4.391   3.790  0.3469  0.4023  0.4700
 7604SOL    HW134445   3.269   4.369   3.876 -0.8975  0.2605 -0.0689
 7604SOL    HW234446   3.394   4.361   3.803  0.0084 -0.5318  0.6302
 7605SOL     OW34447   1.912   1.372   6.658 -0.0392 -0.2664  0.7035
 7605SOL    HW134448   1.870   1.355   6.742  1.4726  0.5457  1.6283
 7605SOL    HW234449   1.956   1.287   6.646  0.4048 -0.1794  1.6578
 7606SOL     OW34450   2.995   0.256   0.952 -0.2301  0.4737  0.2931
 7606SOL    HW134451   3.064   0.224   0.893 -0.5581  0.6933 -0.2071
 7606SOL    HW234452   3.038   0.327   0.999 -0.4326  0.1151  1.0161
 7607SOL     OW34453   2.482   2.431  11.736  0.5026 -0.1055 -0.1772
 7607SOL    HW134454   2.541   2.504  11.755 -0.2680  0.4237  0.1716
 7607SOL    HW234455   2.531   2.395  11.662  1.6586  0.5095  0.2850
 7608SOL     OW34456   3.836   1.039  12.697 -0.0864 -0.0706 -0.0015
 7608SOL    HW134457   3.922   1.011  12.731 -0.0018 -0.6419 -0.6687
 7608SOL    HW234458   3.854   1.123  12.656  1.8087 -0.1623  0.6361
 7609SOL     OW34459   3.315   1.897   7.158 -0.1019 -0.3454  0.4445
 7609SOL    HW134460   3.407   1.871   7.150  0.4392  0.8565  2.8706
 7609SOL    HW234461   3.268   1.815   7.172 -1.1967 -0.2530 -2.6571
 7610SOL     OW34462   0.768   1.254   7.056 -0.0400  0.0097 -0.2337
 7610SOL    HW134463   0.812   1.293   7.132  1.2412 -0.6926 -0.6059
 7610SOL    HW234464   0.744   1.171   7.098 -1.7348  0.7234  0.2043
 7611SOL     OW34465   1.955   2.314   0.033  0.2222 -0.0322  0.0174
 7611SOL    HW134466   1.929   2.397  17.743 -1.0602 -0.2946  0.3328
 7611SOL    HW234467   1.872   2.270   0.049  0.2414  0.4125  1.3447
 7612SOL     OW34468   0.235   4.183   5.483  0.0151 -0.2118 -0.0304
 7612SOL    HW134469   0.177   4.245   5.440  1.0420  1.2451  0.6930
 7612SOL    HW234470   0.212   4.093   5.460  1.0554 -0.7102  0.8239
 7613SOL     OW34471   4.070   2.720   7.587  0.3343 -0.3150  0.1834
 7613SOL    HW134472   4.017   2.654   7.632 -0.4739 -0.5635 -1.1323
 7613SOL    HW234473   4.040   2.714   7.496  0.5929 -0.7403  0.1243
 7614SOL     OW34474   3.468   3.741   4.846 -0.0950  0.1243  0.0843
 7614SOL    HW134475   3.404   3.744   4.775 -0.7451 -0.6785  0.6350
 7614SOL    HW234476   3.510   3.826   4.836 -1.1890  0.4318 -1.8528
 7615SOL     OW34477   2.617   0.608   3.043  0.3926  0.2971  0.0936
 7615SOL    HW134478   2.530   0.627   3.007 -0.9681 -0.7092  2.8425
 7615SOL    HW234479   2.607   0.514   3.060  0.0430 -0.0257 -1.8354
 7616SOL     OW34480   4.617   2.063   5.150  0.1507 -0.2772  0.2857
 7616SOL    HW134481   4.576   2.149   5.136  4.3408  1.5530 -0.7709
 7616SOL    HW234482   4.701   2.078   5.107  0.4323 -0.1497  0.8819
 7617SOL     OW34483   3.571   3.264  10.486 -0.3022  0.4556  0.3937
 7617SOL    HW134484   3.561   3.313  10.568 -0.4094 -2.6924  2.2643
 7617SOL    HW234485   3.479   3.240  10.470 -0.0775 -0.6552  0.8183
 7618SOL     OW34486   4.435   0.176   8.547 -0.1067 -0.1379  0.4236
 7618SOL    HW134487   4.504   0.198   8.485 -2.3017  3.2988 -0.8165
 7618SOL    HW234488   4.443   0.080   8.550  0.6049 -0.0239  2.5341
 7619SOL     OW34489   4.425   3.136   3.479  0.5486 -0.2807 -0.2132
 7619SOL    HW134490   4.340   3.180   3.485 -0.1492 -1.7850  1.2271
 7619SOL    HW234491   4.483   3.201   3.517 -1.5980  2.1546 -1.1048
 7620SOL     OW34492   2.498   0.316   7.560  0.0141  0.3341 -0.3035
 7620SOL    HW134493   2.434   0.327   7.490 -1.5277 -2.2383  0.7065
 7620SOL    HW234494   2.521   0.408   7.573 -2.0905  0.6242  1.6029
 7621SOL     OW34495   1.445   1.189  17.566  0.0669  0.4509 -0.2335
 7621SOL    HW134496   1.397   1.270  17.581  1.8626  1.5914 -0.6362
 7621SOL    HW234497   1.391   1.123  17.610 -0.8522  2.8581  2.2666
 7622SOL     OW34498   4.038   4.523   2.420  0.4549  0.3037  0.5669
 7622SOL    HW134499   4.059   4.437   2.384  0.0415 -0.0137  1.0869
 7622SOL    HW234500   3.955   4.541   2.377  0.4082  1.6974  1.2194
 7623SOL     OW34501   4.092   0.911   5.411  0.6466  0.4189 -0.4723
 7623SOL    HW134502   4.096   0.840   5.347  0.6630  1.1491 -1.2907
 7623SOL    HW234503   4.102   0.864   5.494 -0.5761 -1.7764 -1.5824
 7624SOL     OW34504   0.421   2.825   2.675 -0.6879 -0.0121 -0.2716
 7624SOL    HW134505   0.356   2.884   2.713 -1.3584  0.5852 -2.3385
 7624SOL    HW234506   0.420   2.740   2.719  0.5539 -0.1780 -0.5444
 7625SOL     OW34507   0.607   2.180   0.486  0.4591 -0.5890 -0.6581
 7625SOL    HW134508   0.655   2.252   0.527  1.6023 -1.4374 -0.5341
 7625SOL    HW234509   0.631   2.200   0.395 -1.0398  0.4610 -0.8374
 7626SOL     OW34510   3.034   1.623   6.448 -0.3219  0.0845 -0.6607
 7626SOL    HW134511   3.041   1.590   6.537 -0.3894  2.5599  0.2747
 7626SOL    HW234512   3.123   1.600   6.421 -0.2077 -0.1906 -0.0398
 7627SOL     OW34513   2.869   4.225   6.900 -0.0857 -0.2694  0.8396
 7627SOL    HW134514   2.891   4.317   6.916  1.2733 -0.3929 -0.3080
 7627SOL    HW234515   2.948   4.194   6.856 -0.5458 -0.2275 -0.0196
 7628SOL     OW34516   3.710   1.934  16.617  0.1303 -0.1798  0.2362
 7628SOL    HW134517   3.793   1.897  16.648  0.3066 -0.8743 -1.0607
 7628SOL    HW234518   3.694   1.977  16.701  1.0786 -0.8533  0.7666
 7629SOL     OW34519   1.685   2.609   7.815  0.1746 -0.4799 -0.3955
 7629SOL    HW134520   1.708   2.570   7.731  2.6089  0.6832 -0.2689
 7629SOL    HW234521   1.689   2.703   7.795 -0.1362 -0.3208  0.2696
 7630SOL     OW34522   3.719   1.134   2.998  0.1369 -0.4598  0.5027
 7630SOL    HW134523   3.637   1.180   2.979  0.4169 -0.9526 -1.8462
 7630SOL    HW234524   3.781   1.163   2.932 -0.9818 -1.1079 -0.8177
 7631SOL     OW34525   1.371   3.386   8.240 -0.5509  0.1557  0.0914
 7631SOL    HW134526   1.370   3.328   8.164  1.2637 -1.3137  1.1788
 7631SOL    HW234527   1.344   3.468   8.198  0.0610 -0.3726 -1.3431
 7632SOL     OW34528   2.239   3.012   7.631 -0.3027  0.0472 -0.5546
 7632SOL    HW134529   2.286   2.933   7.604 -0.0188 -0.1015  0.3784
 7632SOL    HW234530   2.155   2.977   7.660 -1.0561  1.0890 -1.4885
 7633SOL     OW34531   2.556   2.198   9.164  0.2320 -0.0030 -0.2141
 7633SOL    HW134532   2.594   2.169   9.081  0.5477 -0.0581 -0.0506
 7633SOL    HW234533   2.462   2.190   9.148  0.2961  0.7753 -0.9856
 7634SOL     OW34534   2.978   2.156   4.122 -0.7980 -0.2600 -0.5734
 7634SOL    HW134535   2.953   2.086   4.063 -1.2219  0.4105 -1.1895
 7634SOL    HW234536   2.926   2.141   4.200  0.2515  0.6737  0.3084
 7635SOL     OW34537   1.490   0.789   3.021  0.2052  0.1717  0.2762
 7635SOL    HW134538   1.527   0.817   2.938  1.9125  0.3281  1.0778
 7635SOL    HW234539   1.401   0.813   2.997  1.1375  0.8720 -2.4075
 7636SOL     OW34540   0.213   0.943  10.758  0.0699 -0.2574 -0.4545
 7636SOL    HW134541   0.279   0.963  10.692  0.7548 -0.5395  0.1521
 7636SOL    HW234542   0.263   0.896  10.825  2.1377  1.3167 -0.9151
 7637SOL     OW34543   0.407   3.254   3.649 -0.2759 -0.4053  0.6307
 7637SOL    HW134544   0.419   3.337   3.601 -1.9314  0.2776  1.4088
 7637SOL    HW234545   0.451   3.282   3.730  0.4089 -1.1437  0.5168
 7638SOL     OW34546   1.500   4.397   0.329  0.0136  0.4717  0.2279
 7638SOL    HW134547   1.459   4.330   0.275  0.4691  0.5590 -0.2261
 7638SOL    HW234548   1.592   4.396   0.301  0.0230 -3.8631  0.4220
 7639SOL     OW34549   2.040   2.052   1.307  0.3292  0.2064 -0.9027
 7639SOL    HW134550   1.973   2.118   1.289 -0.4576 -0.0304  1.0894
 7639SOL    HW234551   1.988   1.972   1.313  0.6812  0.1385  1.2503
 7640SOL     OW34552   3.597   2.331   3.351 -0.0128  0.4527 -0.0082
 7640SOL    HW134553   3.544   2.387   3.407 -0.9440 -0.6851  0.2454
 7640SOL    HW234554   3.537   2.256   3.347  0.8857 -0.4153  2.5419
 7641SOL     OW34555   2.526   1.657   8.851 -0.3760 -0.3889  0.1671
 7641SOL    HW134556   2.451   1.682   8.797 -0.6029  0.2649  0.7904
 7641SOL    HW234557   2.493   1.607   8.925  0.4020  0.0101  0.7891
 7642SOL     OW34558   4.449   1.418   3.546 -0.4503 -0.1030 -0.6235
 7642SOL    HW134559   4.448   1.502   3.592  0.7876 -1.3287  1.6119
 7642SOL    HW234560   4.453   1.353   3.616 -3.6796 -0.5511 -0.8810
 7643SOL     OW34561   1.792   3.221   4.483  0.1162 -0.0004 -0.1455
 7643SOL    HW134562   1.786   3.225   4.388 -0.9581 -2.8551 -0.1763
 7643SOL    HW234563   1.756   3.308   4.501 -0.6945  0.3576 -3.4909
 7644SOL     OW34564   0.782   2.267   3.738  0.0882 -0.2706  0.1354
 7644SOL    HW134565   0.706   2.228   3.695 -0.6909  1.7177 -0.3124
 7644SOL    HW234566   0.795   2.337   3.674  2.1519  0.2188  1.1072
 7645SOL     OW34567   3.944   1.277   5.629  0.0355 -0.2654 -0.0832
 7645SOL    HW134568   3.881   1.259   5.699 -0.5232  2.5010  0.1325
 7645SOL    HW234569   3.890   1.330   5.571 -0.0221  0.4331  0.6115
 7646SOL     OW34570   3.696   4.212   5.103  0.1921  0.2829 -0.4226
 7646SOL    HW134571   3.771   4.270   5.114  0.4385 -0.2562  0.8022
 7646SOL    HW234572   3.734   4.161   5.032 -1.4653 -0.1157 -1.0329
 7647SOL     OW34573   2.362   3.133   8.999 -0.1163 -0.2352  0.0108
 7647SOL    HW134574   2.422   3.132   8.924 -0.9313  1.4248 -0.6587
 7647SOL    HW234575   2.424   3.166   9.064 -1.9288 -0.4653  1.8802
 7648SOL     OW34576   1.628   3.488  15.818 -0.2275 -0.0390 -0.2185
 7648SOL    HW134577   1.619   3.525  15.730  1.7247 -0.0684 -0.4374
 7648SOL    HW234578   1.681   3.557  15.858 -0.0274  0.2322 -0.9500
 7649SOL     OW34579   4.679   1.589   3.168 -0.2771 -0.2481  0.3281
 7649SOL    HW134580   4.656   1.538   3.091 -1.4608 -0.1499  0.6093
 7649SOL    HW234581   4.719   1.523   3.224  1.6260  2.2359  1.9253
 7650SOL     OW34582   0.221   2.754   6.953 -0.5395  0.2369  0.3794
 7650SOL    HW134583   0.174   2.834   6.974 -1.0395 -0.1012  0.5574
 7650SOL    HW234584   0.284   2.756   7.025  0.0251  2.4598 -0.1997
 7651SOL     OW34585   0.383   0.990   3.506  0.3214  0.0064 -0.6312
 7651SOL    HW134586   0.300   0.990   3.554  0.6839  2.0271  0.0121
 7651SOL    HW234587   0.445   0.972   3.577  0.4341 -0.0614 -0.7476
 7652SOL     OW34588   2.527   3.059   5.761 -0.4354  0.5597  0.3562
 7652SOL    HW134589   2.561   3.138   5.803  1.5430  0.0383 -0.2810
 7652SOL    HW234590   2.508   3.082   5.670  0.5290  1.8302  0.4833
 7653SOL     OW34591   0.521   4.675   5.104  0.1626 -0.4994 -0.3270
 7653SOL    HW134592   0.508   4.670   5.010 -0.0374 -1.5525 -0.2426
 7653SOL    HW234593   0.517   4.583   5.129 -0.6660 -0.5385 -0.5812
 7654SOL     OW34594   2.119   1.134   6.012 -0.0498  0.3324  0.4108
 7654SOL    HW134595   2.130   1.221   6.050 -0.9186  0.1548  1.0606
 7654SOL    HW234596   2.089   1.158   5.924 -2.0384 -1.1937  0.6703
 7655SOL     OW34597   2.797   0.162  14.721  0.2860 -0.0809 -0.4663
 7655SOL    HW134598   2.725   0.198  14.668  0.5026  1.8665  0.5684
 7655SOL    HW234599   2.809   0.231  14.786  1.7314  0.4687 -1.3047
 7656SOL     OW34600   0.481   2.144   1.237  0.0538 -0.1366  0.3691
 7656SOL    HW134601   0.493   2.218   1.297 -2.8053 -0.2518  1.0544
 7656SOL    HW234602   0.386   2.142   1.235  0.0735 -1.2551  0.8350
 7657SOL     OW34603   3.571   3.821  12.594 -0.2355 -0.3332  0.3813
 7657SOL    HW134604   3.649   3.835  12.648  0.9874  0.7314 -1.6649
 7657SOL    HW234605   3.504   3.772  12.642  0.2709 -0.6006  0.8088
 7658SOL     OW34606   0.053   0.525   3.000 -0.0873  0.1406  0.1463
 7658SOL    HW134607   0.048   0.602   2.943  0.6865  2.4842  3.2004
 7658SOL    HW234608   0.131   0.485   2.962 -0.8470 -1.4806  0.2961
 7659SOL     OW34609   0.113   3.376  13.905 -0.2694 -0.1808  0.4956
 7659SOL    HW134610   0.055   3.304  13.931  1.0943 -1.6113 -0.4392
 7659SOL    HW234611   0.072   3.457  13.938  1.5645  1.7478 -2.0105
 7660SOL     OW34612   3.022   3.048   0.066 -0.2235 -0.8100 -0.5398
 7660SOL    HW134613   3.059   3.135   0.048  1.0702 -1.0712  0.8371
 7660SOL    HW234614   3.067   3.035   0.150 -2.3210  0.3324  0.7726
 7661SOL     OW34615   2.989   0.764   3.556  0.0932  0.4102  0.1189
 7661SOL    HW134616   2.951   0.814   3.484 -0.9877 -0.1304  0.3269
 7661SOL    HW234617   2.916   0.720   3.600 -0.6816  0.8258 -0.7736
 7662SOL     OW34618   4.090   0.533   4.719 -0.1867 -0.4904  0.2579
 7662SOL    HW134619   4.000   0.535   4.685  0.0320  1.7373 -0.1854
 7662SOL    HW234620   4.128   0.487   4.643 -0.0470  0.2665 -0.1267
 7663SOL     OW34621   4.393   1.891   9.394  0.3480 -0.2187 -0.5315
 7663SOL    HW134622   4.329   1.900   9.324 -1.0842  1.9568  1.0645
 7663SOL    HW234623   4.405   1.985   9.406 -0.7320 -0.1752  0.2181
 7664SOL     OW34624   0.454   0.930   6.089  0.3980  0.5648 -0.0521
 7664SOL    HW134625   0.499   0.990   6.029  1.5091  1.2759  1.4658
 7664SOL    HW234626   0.486   0.969   6.171 -2.6488 -0.1520  1.4585
 7665SOL     OW34627   0.147   2.053  13.723  0.7504 -0.4848 -0.1917
 7665SOL    HW134628   0.208   1.989  13.760  2.0305  1.0268  0.2619
 7665SOL    HW234629   0.073   2.044  13.783  0.6634  2.5972  0.1333
 7666SOL     OW34630   0.089   0.764   3.726 -0.1748  0.1278 -0.0777
 7666SOL    HW134631   0.034   0.688   3.745  0.5413 -0.1012  1.1352
 7666SOL    HW234632   0.153   0.750   3.796  0.8156 -3.5679 -1.7246
 7667SOL     OW34633   1.966   2.024   7.384 -0.1935 -0.1126 -0.3129
 7667SOL    HW134634   2.042   2.073   7.352  0.0397  1.2456  2.2963
 7667SOL    HW234635   1.897   2.091   7.379  0.7621  0.8404 -0.7380
 7668SOL     OW34636   0.355   1.605   7.435  0.3813  0.3461 -0.3885
 7668SOL    HW134637   0.427   1.645   7.386  0.7201  1.8735  1.3604
 7668SOL    HW234638   0.386   1.541   7.499 -2.8058 -1.8875 -1.0178
 7669SOL     OW34639   3.570   0.050  16.669  0.1109 -0.7606  0.0266
 7669SOL    HW134640   3.588   0.055  16.762  0.9989 -1.0516 -0.1281
 7669SOL    HW234641   3.501   4.724  16.688 -0.1185 -1.2348 -2.3195
 7670SOL     OW34642   0.967   3.422   4.201  0.5141  0.4570  0.4707
 7670SOL    HW134643   1.048   3.472   4.189  0.5439  0.5232  0.9294
 7670SOL    HW234644   0.988   3.343   4.251  0.7435  0.3602  0.2237
 7671SOL     OW34645   2.760   1.056   9.189 -0.2017 -0.0198 -0.3348
 7671SOL    HW134646   2.692   1.102   9.238  0.3477  0.1096  0.2924
 7671SOL    HW234647   2.706   1.022   9.118 -0.6006 -0.7184  0.3063
 7672SOL     OW34648   4.178   2.529  10.916  0.4237 -0.4903 -0.2654
 7672SOL    HW134649   4.223   2.491  10.992  3.1865  1.1552 -1.0914
 7672SOL    HW234650   4.245   2.587  10.881 -1.1749  1.4249 -0.1523
 7673SOL     OW34651   0.527   4.667   4.835 -0.5539  0.4991 -0.0049
 7673SOL    HW134652   0.550   0.014   4.798  0.3276  0.7037  1.0243
 7673SOL    HW234653   0.564   4.598   4.780  0.3047  0.2531  0.8859
 7674SOL     OW34654   1.548   0.664   6.009  0.2038  0.0613  0.4821
 7674SOL    HW134655   1.590   0.662   5.923 -2.8698 -0.7867 -0.9984
 7674SOL    HW234656   1.564   0.755   6.034 -0.8657  0.5132 -0.4713
 7675SOL     OW34657   2.962   2.355  11.722 -0.1718 -0.4587 -0.1536
 7675SOL    HW134658   3.008   2.414  11.662  1.1231 -2.8694 -1.5504
 7675SOL    HW234659   2.964   2.409  11.802  1.0980 -0.7196 -0.0062
 7676SOL     OW34660   0.759   4.710   6.677  0.0470 -0.0741  0.4884
 7676SOL    HW134661   0.674   0.002   6.707  0.2327  0.3983  0.5451
 7676SOL    HW234662   0.722   4.661   6.603 -0.4946 -1.1974  1.5124
 7677SOL     OW34663   0.604   3.115   4.739  0.6349 -0.0651  0.0872
 7677SOL    HW134664   0.596   3.025   4.769 -2.1470 -0.3452 -1.5038
 7677SOL    HW234665   0.591   3.170   4.817 -1.8404 -0.5766  0.0395
 7678SOL     OW34666   2.290   1.991   1.699 -0.4037  0.1371  0.2031
 7678SOL    HW134667   2.294   1.947   1.614 -0.0685 -1.3934  1.0146
 7678SOL    HW234668   2.284   2.079   1.661 -1.1151 -0.7621 -1.7921
 7679SOL     OW34669   3.452   2.734   2.080  0.6296  0.7047 -0.4648
 7679SOL    HW134670   3.431   2.654   2.128 -1.7396  0.5469 -1.8028
 7679SOL    HW234671   3.371   2.782   2.097  2.0567  2.4985  1.2642
 7680SOL     OW34672   2.380   0.079  11.975 -0.6695  0.1828  0.1523
 7680SOL    HW134673   2.309   0.134  11.941  0.9632  4.3295  3.5070
 7680SOL    HW234674   2.451   0.140  11.954 -0.5651 -0.6962 -2.0501
 7681SOL     OW34675   2.943   1.928   0.494  0.1720 -0.0844 -0.1365
 7681SOL    HW134676   2.875   1.925   0.426  0.5193  0.0098 -0.4880
 7681SOL    HW234677   2.957   1.839   0.526 -0.1088 -0.0318  0.1377
 7682SOL     OW34678   2.731   2.211   5.595  0.2623  0.7595 -0.0085
 7682SOL    HW134679   2.678   2.280   5.555 -1.2119 -0.6115 -0.4097
 7682SOL    HW234680   2.748   2.156   5.518  0.9258 -0.0660  0.7293
 7683SOL     OW34681   3.360   0.393   0.737  0.0950  0.2953  0.4099
 7683SOL    HW134682   3.283   0.442   0.764 -0.0046 -1.0660  2.5896
 7683SOL    HW234683   3.382   0.426   0.650  0.6520  1.8937  1.1638
 7684SOL     OW34684   1.215   1.457  13.304  0.7305  0.5762 -0.1400
 7684SOL    HW134685   1.273   1.533  13.294  0.7055  0.7408  0.9641
 7684SOL    HW234686   1.275   1.385  13.282 -1.1334 -0.8675 -0.5031
 7685SOL     OW34687   2.360   2.805   4.715  0.9575 -0.6940  0.3701
 7685SOL    HW134688   2.296   2.751   4.669  3.1587 -1.7680 -1.4346
 7685SOL    HW234689   2.321   2.890   4.698  0.3342 -0.8839  0.8695
 7686SOL     OW34690   3.681   3.150   7.941  0.1238  0.2910 -0.6428
 7686SOL    HW134691   3.686   3.206   8.018 -3.9585  0.8344 -0.7778
 7686SOL    HW234692   3.772   3.119   7.938 -0.1351 -0.4251 -0.9626
 7687SOL     OW34693   1.267   3.228   6.379  0.6146 -0.2371 -0.1259
 7687SOL    HW134694   1.299   3.140   6.400 -2.9214 -1.7778 -1.2124
 7687SOL    HW234695   1.337   3.244   6.316  1.0124  0.7963  0.5753
 7688SOL     OW34696   4.311   3.461   3.100  0.4466 -0.7147  0.0156
 7688SOL    HW134697   4.306   3.456   3.195  1.9879  0.7088  0.1635
 7688SOL    HW234698   4.248   3.532   3.090 -0.8415 -1.5140  2.2887
 7689SOL     OW34699   2.131   1.280   2.145  0.4609 -0.3018 -0.4175
 7689SOL    HW134700   2.202   1.325   2.190 -0.9414 -1.3777  2.8184
 7689SOL    HW234701   2.143   1.191   2.178 -1.3143 -0.1075  0.7458
 7690SOL     OW34702   1.107   0.029   4.966  0.1098  0.3289  0.2840
 7690SOL    HW134703   1.062   0.102   4.924  0.9092 -0.1775 -1.4724
 7690SOL    HW234704   1.036   4.703   4.979 -1.7722  2.4950  0.7714
 7691SOL     OW34705   1.817   1.546   4.004 -0.1342  1.1882  0.0254
 7691SOL    HW134706   1.858   1.618   3.956  0.7806  0.2892 -0.5325
 7691SOL    HW234707   1.750   1.527   3.939 -0.0863  0.6917  0.1274
 7692SOL     OW34708   3.634   1.794   0.369 -0.6149  0.1976 -0.2999
 7692SOL    HW134709   3.567   1.856   0.340  0.0552  1.7646  1.5152
 7692SOL    HW234710   3.577   1.720   0.389  0.6963 -0.8435 -0.4278
 7693SOL     OW34711   4.289   0.741   6.750 -0.2679 -0.4294  0.2212
 7693SOL    HW134712   4.197   0.731   6.773 -0.1146 -0.7424  0.7095
 7693SOL    HW234713   4.337   0.732   6.833 -0.8644 -0.5855  0.5503
 7694SOL     OW34714   1.450   3.816   3.663 -0.1301 -0.0761  0.6302
 7694SOL    HW134715   1.481   3.905   3.642  3.2555 -1.7333 -1.3360
 7694SOL    HW234716   1.358   3.819   3.636 -0.3342 -1.7582  1.1432
 7695SOL     OW34717   1.851   1.211  14.774 -0.0100  0.7542  0.0579
 7695SOL    HW134718   1.923   1.188  14.833 -0.3111 -0.1777  0.0652
 7695SOL    HW234719   1.817   1.125  14.749 -0.1086  1.3178 -1.7127
 7696SOL     OW34720   0.174   1.931  16.519  0.5495 -0.0261 -0.9199
 7696SOL    HW134721   0.203   2.018  16.546 -0.6166  0.2802 -0.6587
 7696SOL    HW234722   0.201   1.924  16.427  1.2889  0.9598 -0.7784
 7697SOL     OW34723   2.974   2.411  14.759 -0.9376 -0.6622 -0.6277
 7697SOL    HW134724   2.901   2.423  14.820 -0.1908 -0.1389  0.1637
 7697SOL    HW234725   2.956   2.322  14.728 -1.5207 -0.6234 -0.3951
 7698SOL     OW34726   2.930   2.933   6.478 -0.6155 -0.5778 -0.2305
 7698SOL    HW134727   2.845   2.894   6.499  0.2081 -1.9777  0.4326
 7698SOL    HW234728   2.913   3.027   6.490  1.1471 -0.0532 -1.7588
 7699SOL     OW34729   1.073   1.782   4.715  0.4450 -0.8306 -0.2174
 7699SOL    HW134730   1.144   1.843   4.696  0.1354  0.4383  2.6896
 7699SOL    HW234731   1.074   1.731   4.634  0.3651  0.0480 -0.7681
 7700SOL     OW34732   0.565   0.702   5.615  0.4682 -0.2270 -0.0446
 7700SOL    HW134733   0.495   0.659   5.567 -0.0560  0.2687  0.2742
 7700SOL    HW234734   0.639   0.677   5.560 -0.6042 -0.3939 -1.3988
 7701SOL     OW34735   1.849   0.574   6.677  0.7407 -0.3236  0.2197
 7701SOL    HW134736   1.891   0.659   6.663  1.0042 -0.6260 -0.7882
 7701SOL    HW234737   1.807   0.566   6.592 -1.6703 -1.1419  1.4709
 7702SOL     OW34738   2.722   4.689   2.480 -0.4226 -0.3231 -0.3193
 7702SOL    HW134739   2.685   4.670   2.394  1.4061 -2.2130 -0.6849
 7702SOL    HW234740   2.642   4.733   2.509  0.6586  1.4289 -0.0317
 7703SOL     OW34741   0.830   1.653   1.787 -0.0021 -0.6222  0.1387
 7703SOL    HW134742   0.785   1.656   1.702  0.6039 -1.4407 -0.2114
 7703SOL    HW234743   0.883   1.733   1.782 -0.0489 -0.5635  0.5857
 7704SOL     OW34744   0.506   0.477   7.072 -0.1944 -0.2639 -0.0607
 7704SOL    HW134745   0.595   0.456   7.101  0.9630  0.7911 -2.8480
 7704SOL    HW234746   0.489   0.560   7.115  2.1127  0.8309 -1.2379
 7705SOL     OW34747   2.775   1.542   2.245  0.1907  0.1458 -0.1412
 7705SOL    HW134748   2.707   1.608   2.229  0.4033  0.1058 -1.1948
 7705SOL    HW234749   2.850   1.601   2.258  1.2870 -1.2507 -0.1474
 7706SOL     OW34750   0.321   2.596   3.319  0.0205 -0.2254  1.0320
 7706SOL    HW134751   0.369   2.548   3.252 -1.0038  0.8589 -0.4518
 7706SOL    HW234752   0.353   2.684   3.301 -1.4047  0.5442  2.2306
 7707SOL     OW34753   2.003   1.297   7.368  0.0390 -0.3095  0.1759
 7707SOL    HW134754   1.966   1.379   7.336 -0.4547 -0.6234 -0.0707
 7707SOL    HW234755   1.928   1.251   7.407 -1.6155 -1.0499 -3.8374
 7708SOL     OW34756   0.491   2.001   0.033 -0.2828 -0.0025  0.4140
 7708SOL    HW134757   0.586   2.000   0.036 -0.2621 -0.3563 -0.3203
 7708SOL    HW234758   0.484   1.917  17.738  2.1302 -0.5423  1.0813
 7709SOL     OW34759   2.732   3.375   3.542  0.1189 -0.0565 -0.1884
 7709SOL    HW134760   2.728   3.446   3.607 -0.8091 -2.0947  1.9589
 7709SOL    HW234761   2.672   3.314   3.584  1.7612  0.8574  3.5096
 7710SOL     OW34762   1.280   2.414  14.549  0.3127  0.0264 -0.1867
 7710SOL    HW134763   1.369   2.439  14.525 -0.1682  2.4103  0.5879
 7710SOL    HW234764   1.299   2.373  14.633  0.1853 -2.1240 -1.1869
 7711SOL     OW34765   2.715   4.345   8.553  0.4433  0.0387  0.7076
 7711SOL    HW134766   2.649   4.326   8.620  0.8224 -0.6355  0.8803
 7711SOL    HW234767   2.657   4.347   8.476 -1.3005  0.3199  2.0230
 7712SOL     OW34768   3.517   1.343   8.566  0.0281 -0.0525  0.3493
 7712SOL    HW134769   3.472   1.390   8.495 -1.5831 -0.3474  1.1785
 7712SOL    HW234770   3.436   1.305   8.599  0.0410  1.0120  1.6265
 7713SOL     OW34771   0.312   4.398  14.632  0.2515 -0.5070 -0.0306
 7713SOL    HW134772   0.247   4.388  14.701 -0.1507 -2.2528 -0.6556
 7713SOL    HW234773   0.273   4.476  14.593  2.3874  1.9283  2.7060
 7714SOL     OW34774   1.741   2.680  13.780 -0.2827  1.0327  0.2110
 7714SOL    HW134775   1.653   2.685  13.742  0.6665  0.2519 -2.0912
 7714SOL    HW234776   1.745   2.595  13.824  1.2886  1.1062  0.2089
 7715SOL     OW34777   0.965   1.434   5.775 -0.2260 -0.6090 -0.1750
 7715SOL    HW134778   0.965   1.370   5.704 -1.2777  0.8798 -1.5071
 7715SOL    HW234779   0.964   1.378   5.852  1.5572 -1.0439 -0.4490
 7716SOL     OW34780   3.428   3.640   6.583  0.5167 -0.0871 -0.0738
 7716SOL    HW134781   3.495   3.573   6.591  0.0427 -0.6587 -0.8723
 7716SOL    HW234782   3.469   3.706   6.527  0.9523  0.2941  0.6976
 7717SOL     OW34783   0.696   3.359   5.512  0.0360 -0.0384  0.0725
 7717SOL    HW134784   0.701   3.444   5.557 -0.5991  1.3434 -2.4527
 7717SOL    HW234785   0.777   3.370   5.463 -0.8789  2.4792 -0.8735
 7718SOL     OW34786   0.854   2.451   4.952 -0.8766 -0.0918 -0.2200
 7718SOL    HW134787   0.795   2.466   5.026 -1.4628  1.0625 -0.9179
 7718SOL    HW234788   0.804   2.477   4.874 -1.2187  0.3404  0.1399
 7719SOL     OW34789   4.505   2.245   7.888 -0.4804  0.2676 -0.0185
 7719SOL    HW134790   4.441   2.220   7.955 -1.0360 -1.3786 -1.1674
 7719SOL    HW234791   4.478   2.336   7.871  0.0979  0.9952  2.8053
 7720SOL     OW34792   1.482   0.382   6.684  0.1871 -0.3098 -0.0141
 7720SOL    HW134793   1.468   0.456   6.744 -1.0117 -2.1060  1.8951
 7720SOL    HW234794   1.510   0.309   6.738  0.9438  1.1839  1.6302
 7721SOL     OW34795   4.552   3.359  11.535  0.4669 -0.2308 -0.4204
 7721SOL    HW134796   4.503   3.277  11.527 -1.1217  0.4782  2.1751
 7721SOL    HW234797   4.627   3.321  11.581  0.6884  0.5696 -0.1127
 7722SOL     OW34798   3.802   2.771   2.554  0.0089  0.0352 -0.2213
 7722SOL    HW134799   3.829   2.784   2.645  1.2873 -2.2570 -0.2738
 7722SOL    HW234800   3.878   2.808   2.508  0.4742 -1.4233 -0.6253
 7723SOL     OW34801   1.377   4.426   8.646 -0.7125 -0.2774 -0.1358
 7723SOL    HW134802   1.430   4.492   8.602 -0.1716  0.5140  1.6806
 7723SOL    HW234803   1.290   4.465   8.639 -1.3349 -1.4900  0.7516
 7724SOL     OW34804   1.665   4.174  10.795  0.4666 -0.1015  0.0065
 7724SOL    HW134805   1.695   4.133  10.876 -1.1432 -1.7346 -0.2209
 7724SOL    HW234806   1.667   4.100  10.735 -2.2523 -0.3364  0.1759
 7725SOL     OW34807   3.669   0.210   4.227 -0.8589  0.5242 -0.1236
 7725SOL    HW134808   3.697   0.279   4.166 -0.3142  0.9071  0.5651
 7725SOL    HW234809   3.577   0.206   4.198 -0.8095 -2.0687  0.1546
 7726SOL     OW34810   3.545   1.123   7.174 -0.0241  0.3557 -0.2627
 7726SOL    HW134811   3.544   1.188   7.244 -0.4858  1.5596 -1.3952
 7726SOL    HW234812   3.594   1.054   7.218 -1.8004  0.0518  1.2231
 7727SOL     OW34813   2.615   1.536  15.125  0.0838 -0.0609 -0.0062
 7727SOL    HW134814   2.703   1.502  15.109 -0.0595 -0.5805  0.2766
 7727SOL    HW234815   2.627   1.567  15.214 -1.3130 -0.7443  0.4368
 7728SOL     OW34816   2.037   0.412   5.583  0.3413 -0.2925  0.3064
 7728SOL    HW134817   2.127   0.413   5.549 -0.5713  1.2816 -2.0295
 7728SOL    HW234818   2.019   0.318   5.577  3.1542 -1.0328  3.3912
 7729SOL     OW34819   4.617   0.294  10.875  0.5740  0.1943 -0.4816
 7729SOL    HW134820   4.578   0.208  10.866  1.1672 -0.2304  1.0276
 7729SOL    HW234821   4.556   0.344  10.929  1.6410  1.6891 -0.6452
 7730SOL     OW34822   2.058   4.010  14.668  0.0315 -0.5558 -0.0496
 7730SOL    HW134823   1.978   4.051  14.636  0.5250  0.0429 -0.5045
 7730SOL    HW234824   2.072   4.042  14.757 -1.9493 -1.4647  0.5898
 7731SOL     OW34825   4.212   3.225  16.116 -0.7043 -0.3017 -0.4737
 7731SOL    HW134826   4.140   3.250  16.058 -0.3594 -0.9276 -1.1685
 7731SOL    HW234827   4.226   3.306  16.166 -1.3472 -0.1140 -0.5961
 7732SOL     OW34828   0.088   0.057  17.093 -0.4701  0.1741 -0.1981
 7732SOL    HW134829   0.097   4.726  17.159  2.6773  0.3458 -0.4242
 7732SOL    HW234830   0.002   0.041  17.054 -0.4201 -0.2531 -0.1256
 7733SOL     OW34831   2.249   2.480   7.410  0.1139 -0.4191 -0.2201
 7733SOL    HW134832   2.268   2.485   7.316 -0.1577 -1.3550 -0.3347
 7733SOL    HW234833   2.305   2.549   7.445  0.2761 -1.3165  1.2828
 7734SOL     OW34834   2.684   1.894   0.762 -0.0071 -0.3499 -0.2742
 7734SOL    HW134835   2.767   1.867   0.803  0.1921 -1.0012 -1.1133
 7734SOL    HW234836   2.646   1.814   0.727 -0.7717  0.0157 -0.2614
 7735SOL     OW34837   1.232   2.664  11.872  0.0377  0.0465 -0.1021
 7735SOL    HW134838   1.175   2.590  11.850 -1.0007  1.0020 -0.5916
 7735SOL    HW234839   1.315   2.618  11.854 -1.2594 -3.5421  3.0978
 7736SOL     OW34840   2.731   0.128   6.198 -0.0473  0.5319  0.4875
 7736SOL    HW134841   2.795   0.059   6.181 -2.5147 -1.1226 -2.0525
 7736SOL    HW234842   2.792   0.197   6.172  0.1855  1.1154  2.6021
 7737SOL     OW34843   2.452   2.447  12.173 -0.0436  0.5385 -0.2775
 7737SOL    HW134844   2.446   2.388  12.249  4.7134  0.7267  0.2677
 7737SOL    HW234845   2.504   2.393  12.114  0.1915  1.0938 -0.5705
 7738SOL     OW34846   0.127   1.334   1.350 -0.2267 -0.0147  0.1770
 7738SOL    HW134847   0.132   1.239   1.363  1.9702  0.3447  2.0431
 7738SOL    HW234848   0.116   1.341   1.255 -0.4354  3.1261  0.4253
 7739SOL     OW34849   0.433   0.100  15.216  0.6169 -0.5200  0.2339
 7739SOL    HW134850   0.370   0.107  15.144  0.2787 -0.1550  0.5661
 7739SOL    HW234851   0.384   0.146  15.285 -1.2960 -0.8918 -0.8723
 7740SOL     OW34852   0.252   2.421  10.020 -0.2704 -0.5698 -0.2672
 7740SOL    HW134853   0.292   2.499  10.058 -1.4915  1.0419 -2.2658
 7740SOL    HW234854   0.329   2.375   9.987  1.0639  1.2096  0.3511
 7741SOL     OW34855   2.912   3.274  13.466  0.2411 -0.1556  0.4607
 7741SOL    HW134856   2.916   3.362  13.429  1.4283 -0.4433 -0.1009
 7741SOL    HW234857   2.828   3.277  13.511 -0.3914  2.3508 -0.8847
 7742SOL     OW34858   2.487   3.755   1.990 -1.0884  0.6729 -0.0528
 7742SOL    HW134859   2.571   3.735   1.949  0.0620  1.2814  2.0187
 7742SOL    HW234860   2.428   3.693   1.948 -1.2879  0.8037  0.0356
 7743SOL     OW34861   3.450   2.006   2.389 -0.0287  0.2684  0.6725
 7743SOL    HW134862   3.422   2.062   2.461 -2.9599  1.3500 -1.2938
 7743SOL    HW234863   3.517   2.060   2.346 -0.4575 -0.3556 -0.8063
 7744SOL     OW34864   3.083   4.062   4.502  0.0370  0.4328  0.4396
 7744SOL    HW134865   3.066   4.149   4.465  2.0469  0.6224 -0.0476
 7744SOL    HW234866   2.995   4.038   4.531  0.9502  0.3706  3.1736
 7745SOL     OW34867   4.196   4.343   2.285 -0.1018  0.2809  0.1405
 7745SOL    HW134868   4.228   4.259   2.315 -1.0812 -0.6842 -1.5063
 7745SOL    HW234869   4.168   4.325   2.195  0.5549 -1.3281  0.2626
 7746SOL     OW34870   1.603   1.306   2.528 -0.4885 -0.5045 -0.0437
 7746SOL    HW134871   1.661   1.234   2.551 -1.5265 -2.3490 -3.1445
 7746SOL    HW234872   1.516   1.266   2.519 -1.2388  1.5393 -1.9625
 7747SOL     OW34873   3.636   0.227   7.024 -0.2372 -0.5370 -0.5178
 7747SOL    HW134874   3.630   0.283   7.101  0.0561 -1.9819  0.5719
 7747SOL    HW234875   3.725   0.243   6.991  0.2178  2.1933  2.0707
 7748SOL     OW34876   4.644   2.965   7.738 -0.5366  0.0993  0.2466
 7748SOL    HW134877   4.697   2.980   7.661  0.9778 -0.1510  1.2418
 7748SOL    HW234878   4.638   2.870   7.748 -1.2291 -0.0526 -1.6297
 7749SOL     OW34879   3.259   1.724  12.250 -0.1943 -0.2592  0.7205
 7749SOL    HW134880   3.353   1.742  12.241 -0.7064  0.9261 -2.2859
 7749SOL    HW234881   3.219   1.811  12.252 -0.8080 -0.5496  1.0077
 7750SOL     OW34882   1.780   1.545  17.287 -0.3210 -0.4740  0.1563
 7750SOL    HW134883   1.816   1.456  17.289  0.0046 -0.3527 -0.1923
 7750SOL    HW234884   1.785   1.561  17.193  2.9748 -0.2719  0.3750
 7751SOL     OW34885   4.522   4.610   3.761 -0.1005 -0.8628 -0.0801
 7751SOL    HW134886   4.487   4.559   3.688 -0.3668  0.9319 -1.2007
 7751SOL    HW234887   4.535   4.697   3.723 -3.0954 -0.7045 -0.7214
 7752SOL     OW34888   2.376   2.588   7.211  0.8086 -0.2997  0.2273
 7752SOL    HW134889   2.364   2.617   7.121  1.9870  2.1218  0.8522
 7752SOL    HW234890   2.466   2.554   7.213  1.0539  0.2943 -0.6873
 7753SOL     OW34891   2.510   4.237   9.057  0.6933  0.3434 -0.0944
 7753SOL    HW134892   2.512   4.333   9.046 -1.1754  0.4038  0.2017
 7753SOL    HW234893   2.593   4.228   9.104 -0.4287  0.0062  1.8026
 7754SOL     OW34894   2.858   0.466  14.021 -0.4549  0.1631 -0.1820
 7754SOL    HW134895   2.826   0.377  14.037 -1.0443 -0.0138 -2.3962
 7754SOL    HW234896   2.816   0.467  13.935  0.4055  1.8501 -0.5966
 7755SOL     OW34897   1.999   3.051   8.953  0.5995 -0.3132  0.1515
 7755SOL    HW134898   1.989   3.113   9.025  0.7586  1.7925 -1.6319
 7755SOL    HW234899   2.054   3.106   8.897  0.9011  0.6392  1.3853
 7756SOL     OW34900   0.348   3.380  14.055 -0.3260 -0.1211  0.0757
 7756SOL    HW134901   0.269   3.391  14.001 -0.2024 -1.4413 -0.3617
 7756SOL    HW234902   0.399   3.316  14.005  0.5987 -0.3953  1.3786
 7757SOL     OW34903   4.094   3.705   8.929 -0.7160  0.0716  0.2723
 7757SOL    HW134904   4.001   3.718   8.914 -1.2722 -2.5912  1.2819
 7757SOL    HW234905   4.113   3.764   9.002  1.3852 -1.2177  0.7713
 7758SOL     OW34906   4.533   1.217   3.326 -0.0379 -0.0236  0.5520
 7758SOL    HW134907   4.475   1.190   3.397  0.4330 -0.4251  0.7824
 7758SOL    HW234908   4.607   1.261   3.367 -0.5686 -0.6852  2.1991
 7759SOL     OW34909   1.716   4.383   3.688 -0.5167  0.5525 -0.4451
 7759SOL    HW134910   1.758   4.468   3.675  2.6028 -0.6342  1.9533
 7759SOL    HW234911   1.794   4.329   3.679 -0.4798  0.3900  0.8648
 7760SOL     OW34912   2.795   3.022   1.832 -0.0373 -0.7357  0.0808
 7760SOL    HW134913   2.710   2.981   1.816 -0.6749 -0.0391  1.7280
 7760SOL    HW234914   2.854   2.994   1.761  0.9425  0.4596  0.4246
 7761SOL     OW34915   4.678   0.456   4.568 -0.2592  0.1333 -0.3510
 7761SOL    HW134916   4.687   0.468   4.474 -0.3258 -2.1129 -0.6281
 7761SOL    HW234917   0.030   0.472   4.597 -0.4079 -2.8804  1.7625
 7762SOL     OW34918   1.042   3.344   1.045  0.5610 -0.2202  0.8721
 7762SOL    HW134919   0.952   3.372   1.062  0.1516 -0.3355 -1.0962
 7762SOL    HW234920   1.093   3.416   1.082 -0.1721  2.1443 -2.7251
 7763SOL     OW34921   2.976   1.106  16.899 -0.1578  0.1761 -0.1281
 7763SOL    HW134922   2.912   1.041  16.868 -0.8388  0.7039  0.1882
 7763SOL    HW234923   2.958   1.186  16.849 -0.7119  1.2436  1.7857
 7764SOL     OW34924   4.594   1.860   8.114 -0.0129 -0.6948 -0.0526
 7764SOL    HW134925   4.650   1.784   8.098  0.9448  0.2558 -1.1104
 7764SOL    HW234926   4.522   1.813   8.157 -0.8531  2.1012  1.6097
 7765SOL     OW34927   0.224   1.511   6.198 -0.7447  0.0271 -0.0325
 7765SOL    HW134928   0.153   1.550   6.146  0.9067  0.0187 -2.2848
 7765SOL    HW234929   0.300   1.545   6.151  0.3049 -1.3625  0.6655
 7766SOL     OW34930   2.615   3.931   3.895  0.8872 -0.7344  0.0038
 7766SOL    HW134931   2.557   3.941   3.820 -1.0576 -2.5924  1.2507
 7766SOL    HW234932   2.552   3.972   3.955  1.1224 -0.7487  0.2617
 7767SOL     OW34933   4.386   0.257   7.525 -0.0816 -0.4047 -0.2499
 7767SOL    HW134934   4.406   0.350   7.513  0.3964 -0.2577  1.6754
 7767SOL    HW234935   4.471   0.213   7.518 -0.1574 -0.6538  0.4254
 7768SOL     OW34936   0.379   1.852  15.826 -0.4992 -0.1439 -0.5147
 7768SOL    HW134937   0.393   1.785  15.760 -0.3377 -0.2499 -0.3721
 7768SOL    HW234938   0.288   1.880  15.812 -0.2218  1.6529  1.2555
 7769SOL     OW34939   1.270   3.114   7.776  0.2166 -0.1703  0.4063
 7769SOL    HW134940   1.334   3.082   7.713  0.8922  0.2474  0.8700
 7769SOL    HW234941   1.240   3.033   7.818  0.4197 -0.6156 -0.3039
 7770SOL     OW34942   0.246   2.542   4.002 -0.0410 -0.4062  0.1144
 7770SOL    HW134943   0.339   2.542   4.023  0.0260  0.9061 -0.1669
 7770SOL    HW234944   0.214   2.474   4.062 -0.2026 -1.3021 -0.9805
 7771SOL     OW34945   4.533   0.643  12.066  0.1670 -0.6640 -0.7725
 7771SOL    HW134946   4.453   0.681  12.029 -0.4024  0.4288  1.5510
 7771SOL    HW234947   4.574   0.729  12.078 -0.3290 -0.5872  0.3782
 7772SOL     OW34948   1.222   3.622   6.967  0.1192  0.3126  0.3169
 7772SOL    HW134949   1.255   3.532   6.975  2.0101  0.6714 -3.5788
 7772SOL    HW234950   1.307   3.665   6.961  1.2561 -2.3672 -2.4195
 7773SOL     OW34951   0.523   2.056  12.989  0.2989  0.1703  0.6765
 7773SOL    HW134952   0.452   2.037  12.927  0.2493 -1.8690  1.3720
 7773SOL    HW234953   0.597   2.003  12.959 -0.3742 -1.8621  2.6522
 7774SOL     OW34954   1.981   4.171   3.037  0.0965  0.7221 -0.1888
 7774SOL    HW134955   2.011   4.259   3.057  1.6582 -0.5407  3.0230
 7774SOL    HW234956   2.039   4.148   2.964 -2.1410 -0.1263 -1.7149
 7775SOL     OW34957   2.380   1.336  17.314 -0.2501 -0.1158  0.3301
 7775SOL    HW134958   2.434   1.328  17.235  0.3669 -1.7182  0.9197
 7775SOL    HW234959   2.367   1.247  17.345  1.1378 -0.1092  0.9029
 7776SOL     OW34960   1.735   4.218  14.757 -0.1103 -0.0536  0.1824
 7776SOL    HW134961   1.814   4.265  14.783 -0.7129  1.7769 -1.3191
 7776SOL    HW234962   1.689   4.282  14.703  1.7135  0.3981 -0.8140
 7777SOL     OW34963   4.413   3.113   9.955 -0.4105 -0.0774  0.7381
 7777SOL    HW134964   4.332   3.156   9.928 -0.4424 -0.8275 -0.3958
 7777SOL    HW234965   4.423   3.038   9.896 -1.1424 -0.6320  1.2983
 7778SOL     OW34966   2.132   3.063  11.172 -0.3625  1.1546 -0.1675
 7778SOL    HW134967   2.155   3.110  11.253 -2.8808  1.0895  0.5797
 7778SOL    HW234968   2.220   3.035  11.147 -1.6165 -0.9544 -2.2375
 7779SOL     OW34969   3.767   1.391   5.430 -0.2366  0.0691  0.5052
 7779SOL    HW134970   3.705   1.430   5.369  1.9094  1.4342 -0.7893
 7779SOL    HW234971   3.767   1.299   5.401  1.4669  0.0873  0.4391
 7780SOL     OW34972   2.312   0.210  14.070  0.4070 -0.4452 -0.0000
 7780SOL    HW134973   2.308   0.305  14.069  3.0129 -0.3537 -2.1028
 7780SOL    HW234974   2.308   0.193  13.976 -2.1923 -0.0536  0.0301
 7781SOL     OW34975   3.883   3.983   2.724 -0.0933 -0.0671 -0.6413
 7781SOL    HW134976   3.838   4.018   2.801 -0.4669  0.6233 -1.1774
 7781SOL    HW234977   3.840   4.040   2.661 -0.1849  0.7348  0.1430
 7782SOL     OW34978   0.028   2.584   1.610 -0.0836  0.0736  0.1093
 7782SOL    HW134979   4.689   2.636   1.586  0.1703  1.0286  1.3917
 7782SOL    HW234980   4.738   2.493   1.601 -1.6759  0.3382  2.4634
 7783SOL     OW34981   2.598   3.236   4.754 -0.8201 -0.1247  0.2282
 7783SOL    HW134982   2.512   3.271   4.776  0.5591  1.4612  3.0970
 7783SOL    HW234983   2.567   3.165   4.698 -0.3214 -0.6895  0.6627
 7784SOL     OW34984   1.352   2.895   2.471  0.0465 -0.6124  0.2719
 7784SOL    HW134985   1.402   2.813   2.475  0.6721 -0.2015  0.9637
 7784SOL    HW234986   1.419   2.963   2.474 -0.0138 -0.5771  0.9042
 7785SOL     OW34987   1.370   3.920   6.112  0.2099 -0.0746  0.8838
 7785SOL    HW134988   1.303   3.860   6.080  1.5335 -0.8977 -0.2974
 7785SOL    HW234989   1.330   4.006   6.099 -0.1485 -0.4006 -0.1342
 7786SOL     OW34990   1.643   0.086   0.309  0.8957  0.1512 -0.6732
 7786SOL    HW134991   1.640   0.175   0.344  1.3662 -0.0633 -0.0919
 7786SOL    HW234992   1.676   0.102   0.221 -0.5519  0.9575 -1.0723
 7787SOL     OW34993   0.980   4.113   3.782  0.8527  0.2630  0.2412
 7787SOL    HW134994   0.924   4.178   3.738 -1.1054 -1.0469  0.7686
 7787SOL    HW234995   0.936   4.035   3.749  1.9997 -0.6179  0.8241
 7788SOL     OW34996   0.895   0.888  15.618  0.2200 -0.1890 -0.5439
 7788SOL    HW134997   0.821   0.877  15.678  1.5214 -2.4236  0.6715
 7788SOL    HW234998   0.843   0.905  15.540  3.1961  2.4325 -1.9490
 7789SOL     OW34999   0.637   4.042   1.316  0.3335  0.1846 -0.6074
 7789SOL    HW135000   0.698   4.035   1.390  0.9485  1.9009 -0.9423
 7789SOL    HW235001   0.586   3.965   1.340  1.4082 -0.6565 -1.0485
 7790SOL     OW35002   0.185   2.709   5.722  0.1938 -0.4996  0.2330
 7790SOL    HW135003   0.173   2.723   5.816 -0.3695 -0.1468  0.1115
 7790SOL    HW235004   0.257   2.768   5.699 -0.6095  0.3203 -0.1669
 7791SOL     OW35005   0.249   3.904   6.822 -0.1692  0.2980 -0.5867
 7791SOL    HW135006   0.343   3.924   6.814  0.3142 -1.5951  0.2810
 7791SOL    HW235007   0.221   3.982   6.870 -0.3086  1.0464 -1.8636
 7792SOL     OW35008   0.386   4.031   6.575 -0.3459 -0.0212 -0.1832
 7792SOL    HW135009   0.448   3.959   6.565 -1.6679 -0.9834 -1.5777
 7792SOL    HW235010   0.302   3.984   6.575  0.3706 -1.2963 -0.3542
 7793SOL     OW35011   3.114   3.787   3.203 -0.0624 -0.3628 -0.3149
 7793SOL    HW135012   3.053   3.844   3.249  1.3956  0.9092  0.0641
 7793SOL    HW235013   3.094   3.701   3.239  1.8941 -1.5290 -2.0009
 7794SOL     OW35014   3.189   4.705   2.863  0.4959  0.0729  0.3558
 7794SOL    HW135015   3.110   0.011   2.893 -1.2944 -2.6380 -0.4334
 7794SOL    HW235016   3.250   4.734   2.931  3.6358 -0.9283 -2.0377
 7795SOL     OW35017   4.182   1.791   3.986  0.1676 -0.0950  0.3626
 7795SOL    HW135018   4.128   1.768   3.910  0.4875  0.5737 -0.0734
 7795SOL    HW235019   4.188   1.710   4.036  1.6800 -0.1120  0.1369
 7796SOL     OW35020   2.317   4.007   7.664  0.1397  0.4884 -0.3552
 7796SOL    HW135021   2.231   4.016   7.704 -0.5920  1.5340 -2.1490
 7796SOL    HW235022   2.314   3.919   7.626  2.6903 -0.4988  1.7444
 7797SOL     OW35023   3.405   2.236   4.961 -0.0451 -0.1219 -0.0508
 7797SOL    HW135024   3.479   2.266   4.908  2.3427 -3.1485  1.6027
 7797SOL    HW235025   3.431   2.152   4.998 -1.0859 -1.9057 -3.3689
 7798SOL     OW35026   2.309   4.118   4.646 -0.2255 -0.1549 -0.4826
 7798SOL    HW135027   2.327   4.156   4.560  3.9527  0.5346  0.7218
 7798SOL    HW235028   2.221   4.081   4.639 -0.2615 -0.6377  2.3736
 7799SOL     OW35029   1.948   1.157   4.200 -0.2034  0.0340  0.1596
 7799SOL    HW135030   2.019   1.146   4.263 -0.2339  0.0236  0.1921
 7799SOL    HW235031   1.937   1.251   4.210 -2.5053 -0.1347 -0.7956
 7800SOL     OW35032   4.409   3.914   0.708 -0.1197  0.0917  0.0668
 7800SOL    HW135033   4.344   3.984   0.713 -1.5029 -1.2973  1.5442
 7800SOL    HW235034   4.477   3.942   0.647 -0.5268  2.1562  0.5729
 7801SOL     OW35035   2.455   1.374   0.621  0.3529  0.0978  0.0065
 7801SOL    HW135036   2.522   1.424   0.574  1.2434 -0.1811  0.9667
 7801SOL    HW235037   2.394   1.347   0.553  2.4339  0.6540 -2.0859
 7802SOL     OW35038   0.759   4.656  16.651  0.1164 -0.4939  0.8316
 7802SOL    HW135039   0.826   4.594  16.681  1.6579  0.3485 -0.8324
 7802SOL    HW235040   0.746   4.697  16.737  0.4103  0.0881  0.6005
 7803SOL     OW35041   1.792   2.238   5.000  0.4408  0.1599 -0.2260
 7803SOL    HW135042   1.721   2.277   5.051  1.3296 -0.7319  1.6800
 7803SOL    HW235043   1.796   2.312   4.939  1.1523 -1.9581 -2.7420
 7804SOL     OW35044   0.994   0.542  17.562 -0.1738  0.2142  0.4430
 7804SOL    HW135045   1.010   0.461  17.610  0.8116  0.5759  0.7373
 7804SOL    HW235046   0.901   0.545  17.586 -0.4803  0.6678 -0.8030
 7805SOL     OW35047   3.179   1.867   9.460 -0.2415  0.0666  0.1684
 7805SOL    HW135048   3.121   1.918   9.516  0.5990 -0.8792  1.9134
 7805SOL    HW235049   3.115   1.814   9.414 -1.3836  3.3410 -1.9852
 7806SOL     OW35050   1.429   4.554  12.044  0.4547  0.0215 -0.2085
 7806SOL    HW135051   1.480   4.487  11.999  2.4413  0.6637  1.0398
 7806SOL    HW235052   1.501   4.615  12.060  1.8064 -2.4944  3.4905
 7807SOL     OW35053   2.243   0.307  11.284  0.1652  0.1433 -0.2214
 7807SOL    HW135054   2.298   0.230  11.301  2.3629  1.1990 -2.4377
 7807SOL    HW235055   2.187   0.314  11.361  1.0129 -1.5260  0.5525
 7808SOL     OW35056   2.891   2.578   6.707 -0.1146 -0.2571  0.4326
 7808SOL    HW135057   2.979   2.564   6.673 -0.1422  1.5927 -0.4246
 7808SOL    HW235058   2.905   2.657   6.760 -0.1770  0.6460 -0.8949
 7809SOL     OW35059   2.460   0.584  17.283  0.2197 -0.1197 -0.5431
 7809SOL    HW135060   2.476   0.663  17.231  1.7500  1.9557  3.0768
 7809SOL    HW235061   2.543   0.567  17.328 -0.2303  1.7119  0.9687
 7810SOL     OW35062   3.574   4.615   9.101 -0.3035 -0.5020 -0.0852
 7810SOL    HW135063   3.651   4.662   9.069 -0.9507  0.4414 -0.2464
 7810SOL    HW235064   3.600   4.593   9.191  0.8334 -1.9130 -0.7582
 7811SOL     OW35065   0.688   2.988  12.498 -0.4272  0.1572 -0.4045
 7811SOL    HW135066   0.689   2.927  12.424  2.3603 -0.2899 -0.0099
 7811SOL    HW235067   0.771   2.966  12.541 -0.4462 -2.0774 -1.5038
 7812SOL     OW35068   3.482   0.472   2.255 -0.0814 -0.0434 -0.0716
 7812SOL    HW135069   3.408   0.532   2.260  0.6296  0.8059  0.3519
 7812SOL    HW235070   3.548   0.526   2.300  0.6020  1.0101 -2.3425
 7813SOL     OW35071   0.366   2.942  17.117  0.3795 -0.2021  0.5516
 7813SOL    HW135072   0.405   3.028  17.102 -0.3991  0.2588  1.1500
 7813SOL    HW235073   0.277   2.962  17.089  0.6271  0.2194  0.0608
 7814SOL     OW35074   1.423   0.623   1.288 -0.1770  0.3185 -0.4774
 7814SOL    HW135075   1.372   0.552   1.327  0.0774 -0.6391 -1.8872
 7814SOL    HW235076   1.515   0.599   1.300 -0.1577  1.0807  0.8691
 7815SOL     OW35077   1.792   2.831   5.993 -0.1432 -0.4736 -0.4268
 7815SOL    HW135078   1.809   2.887   5.918  2.5950 -1.0639 -0.2754
 7815SOL    HW235079   1.734   2.767   5.952 -0.7875 -0.3324  0.2768
 7816SOL     OW35080   1.827   4.477   4.930  0.2495  0.1859  0.3049
 7816SOL    HW135081   1.808   4.566   4.898  1.3120  0.7170  1.1629
 7816SOL    HW235082   1.865   4.496   5.015 -0.4148 -1.7336  1.0258
 7817SOL     OW35083   1.138   2.437   5.714 -0.2029 -0.2744  0.0152
 7817SOL    HW135084   1.170   2.357   5.757  1.4690  1.3458  1.7472
 7817SOL    HW235085   1.213   2.459   5.659 -0.7436 -1.9145 -1.4112
 7818SOL     OW35086   2.547   0.996   5.335 -0.4859 -0.0478 -0.0827
 7818SOL    HW135087   2.581   1.046   5.410 -1.2978  0.2617  0.0763
 7818SOL    HW235088   2.628   0.962   5.298 -1.4836 -1.7905 -0.6323
 7819SOL     OW35089   2.634   4.360   4.767  0.0204 -0.0673  0.7905
 7819SOL    HW135090   2.659   4.310   4.690 -3.6700  3.0971 -2.4184
 7819SOL    HW235091   2.539   4.360   4.763  0.1340  1.1454 -1.9057
 7820SOL     OW35092   3.462   1.385   3.371 -0.1885  0.3985  0.6408
 7820SOL    HW135093   3.389   1.433   3.411  0.1115  0.6269  0.9075
 7820SOL    HW235094   3.464   1.414   3.279 -1.1765 -0.1429  0.4431
 7821SOL     OW35095   3.965   0.713   2.494  0.0377 -0.3071 -0.4891
 7821SOL    HW135096   3.909   0.753   2.561 -1.6358 -0.7782 -1.5907
 7821SOL    HW235097   3.936   0.770   2.422 -1.6527 -2.0687 -1.2257
 7822SOL     OW35098   0.988   1.510   9.982 -0.4839 -0.1681 -0.1987
 7822SOL    HW135099   1.006   1.603   9.993 -0.6524 -0.1028 -0.4777
 7822SOL    HW235100   1.051   1.483  10.049  2.7973  0.9973 -2.7648
 7823SOL     OW35101   2.518   4.555   5.714 -0.3325  0.4347  0.1472
 7823SOL    HW135102   2.505   4.524   5.804  0.9705  1.5913  0.7297
 7823SOL    HW235103   2.516   4.471   5.667  0.1952  1.4119 -1.6197
 7824SOL     OW35104   3.208   3.763   6.408 -0.3941 -0.3462 -0.1343
 7824SOL    HW135105   3.196   3.858   6.404  2.7134  0.0840  0.5240
 7824SOL    HW235106   3.282   3.760   6.470 -1.4189 -1.1954  1.0411
 7825SOL     OW35107   1.387   4.493   8.129 -0.4797  0.2320  0.6992
 7825SOL    HW135108   1.318   4.554   8.155 -0.0564 -0.3452  3.2192
 7825SOL    HW235109   1.389   4.433   8.204  0.7706 -2.1462 -1.2418
 7826SOL     OW35110   3.847   0.639   5.622  0.4248 -0.0440 -0.2425
 7826SOL    HW135111   3.866   0.690   5.701 -1.3503  0.8458 -0.3888
 7826SOL    HW235112   3.932   0.646   5.578  0.5096 -1.5847 -0.3248
 7827SOL     OW35113   0.688   4.201   5.436 -0.3337 -0.4495 -0.1617
 7827SOL    HW135114   0.700   4.110   5.464  2.7831 -0.4373 -1.5441
 7827SOL    HW235115   0.776   4.237   5.435 -0.8620  0.8050 -0.6683
 7828SOL     OW35116   1.626   2.732   1.199 -0.1095  0.1839  0.4361
 7828SOL    HW135117   1.691   2.710   1.266  0.7140 -1.5133 -0.9347
 7828SOL    HW235118   1.548   2.689   1.235  1.0786 -2.2077  0.1653
 7829SOL     OW35119   0.340   2.519   0.483 -0.5959  0.2143 -0.3570
 7829SOL    HW135120   0.328   2.613   0.491  0.0723  0.0716  2.3049
 7829SOL    HW235121   0.394   2.517   0.404 -0.9399  1.1883 -0.6051
 7830SOL     OW35122   4.582   3.551   0.985  0.8301  0.1240 -0.2579
 7830SOL    HW135123   4.496   3.514   1.003  1.2677 -0.1650  1.2524
 7830SOL    HW235124   4.546   3.640   0.988 -1.0352 -0.6267 -1.0973
 7831SOL     OW35125   1.197   2.622  11.440  0.7605 -0.2528  0.2076
 7831SOL    HW135126   1.145   2.641  11.362 -0.8201 -1.8117  0.8740
 7831SOL    HW235127   1.193   2.707  11.484  2.2521  0.4778 -1.0745
 7832SOL     OW35128   4.362   3.144   5.664  0.1243  0.0905 -0.3715
 7832SOL    HW135129   4.365   3.210   5.733 -2.0954  1.7513 -1.8667
 7832SOL    HW235130   4.456   3.143   5.645 -0.2004 -3.1547 -1.8729
 7833SOL     OW35131   2.888   3.610   2.790 -0.3939  0.5470  0.2567
 7833SOL    HW135132   2.957   3.631   2.726 -1.7749 -0.5605 -1.6150
 7833SOL    HW235133   2.878   3.516   2.778  0.3094  0.4137  0.6940
 7834SOL     OW35134   3.599   4.147  17.295 -0.0128  0.3239 -0.3543
 7834SOL    HW135135   3.586   4.180  17.206  2.3442 -0.4542 -0.9892
 7834SOL    HW235136   3.681   4.099  17.284 -1.0663 -1.6523  0.2531
 7835SOL     OW35137   0.948   3.974   7.283  0.1304 -0.1471 -0.2222
 7835SOL    HW135138   1.004   3.904   7.250  0.3249  0.1180 -0.4645
 7835SOL    HW235139   0.999   4.016   7.352 -2.4081  1.0057  0.9372
 7836SOL     OW35140   1.596   4.137   4.439 -0.3472  0.3003  0.0502
 7836SOL    HW135141   1.605   4.227   4.470  0.2090 -0.3131  1.6493
 7836SOL    HW235142   1.526   4.101   4.493  1.2879 -0.2500  1.7816
 7837SOL     OW35143   3.428   1.691   2.246  0.1537 -0.7151 -0.2553
 7837SOL    HW135144   3.481   1.744   2.187 -0.0538  2.8739  2.7676
 7837SOL    HW235145   3.463   1.708   2.334 -0.5012 -0.3690 -0.0562
 7838SOL     OW35146   3.863   2.149  12.118  0.0181  0.0081  0.5099
 7838SOL    HW135147   3.768   2.140  12.122  0.0468 -0.2918  0.5183
 7838SOL    HW235148   3.892   2.188  12.201  0.8380 -0.9422  0.6732
 7839SOL     OW35149   4.522   0.801   7.635  0.0769 -0.3496  0.6788
 7839SOL    HW135150   4.440   0.816   7.683 -0.2953 -1.2994  0.3324
 7839SOL    HW235151   4.508   0.850   7.554  1.9421  0.4083  0.8119
 7840SOL     OW35152   2.751   0.036   0.235  0.6685  0.6706 -0.0269
 7840SOL    HW135153   2.786   0.091   0.304 -0.9544  1.5161  0.1252
 7840SOL    HW235154   2.677   0.093   0.215  1.5925  2.0333  0.4908
 7841SOL     OW35155   0.733   0.641   9.003  0.3586  0.0206  0.1564
 7841SOL    HW135156   0.695   0.555   8.983 -1.0063  0.9140 -1.0915
 7841SOL    HW235157   0.696   0.649   9.090  0.4198  0.4965  0.1404
 7842SOL     OW35158   0.770   1.819   2.464  0.5795 -0.2425 -0.4055
 7842SOL    HW135159   0.689   1.814   2.412  0.7693  1.9850 -0.9096
 7842SOL    HW235160   0.744   1.884   2.530  1.4805 -0.8622  0.5549
 7843SOL     OW35161   3.105   0.120   7.764 -0.2568 -0.0619  0.1047
 7843SOL    HW135162   3.082   0.047   7.821 -0.6884 -0.2114 -0.2553
 7843SOL    HW235163   3.123   0.185   7.832 -0.4884  1.4026 -1.2328
 7844SOL     OW35164   1.097   3.412   5.760  0.7075 -0.3907 -0.6281
 7844SOL    HW135165   1.108   3.353   5.685  0.4309  0.5096 -1.3826
 7844SOL    HW235166   1.012   3.385   5.793  1.2192 -0.3453  0.7377
 7845SOL     OW35167   0.051   2.049   3.920 -0.3430 -0.2879  0.3615
 7845SOL    HW135168   0.007   2.027   4.002 -0.8303  1.0349  0.4709
 7845SOL    HW235169   0.026   2.142   3.923  1.4686  0.3293 -3.7828
 7846SOL     OW35170   2.557   0.904   6.342 -0.2674  0.6699  0.6227
 7846SOL    HW135171   2.500   0.828   6.333  3.8638 -2.5330  1.6566
 7846SOL    HW235172   2.505   0.970   6.296 -0.5355 -0.1581 -0.2614
 7847SOL     OW35173   2.501   4.264   8.724 -0.0844  0.3145  0.7786
 7847SOL    HW135174   2.473   4.355   8.739  0.4064  0.9714 -2.3256
 7847SOL    HW235175   2.452   4.201   8.776 -2.3777  1.0926 -0.4110
 7848SOL     OW35176   3.265   1.712   7.734 -0.2442 -0.3258 -0.0435
 7848SOL    HW135177   3.199   1.647   7.712 -0.9698  0.0581  0.9913
 7848SOL    HW235178   3.318   1.657   7.791  1.6892  0.9690 -0.5765
 7849SOL     OW35179   4.618   2.958   8.228 -0.2427 -0.2696 -0.0576
 7849SOL    HW135180   4.689   3.004   8.273 -1.4645  1.3686  0.2045
 7849SOL    HW235181   4.633   2.972   8.135 -2.3362 -2.7010 -0.7691
 7850SOL     OW35182   2.869   1.281  14.563  0.1745  0.4836 -0.3979
 7850SOL    HW135183   2.816   1.203  14.546  0.1732 -0.0688  2.1992
 7850SOL    HW235184   2.945   1.279  14.505  0.7242  1.1343  0.3074
 7851SOL     OW35185   4.631   0.034   5.894  0.2625  0.3630  0.6755
 7851SOL    HW135186   4.700   0.005   5.835  0.9479  0.3653  1.4811
 7851SOL    HW235187   4.683   0.030   5.974 -1.0569  0.8516  1.5480
 7852SOL     OW35188   0.976   4.151   1.758  0.2904  0.2335 -0.5989
 7852SOL    HW135189   0.933   4.097   1.692  0.1819  0.5643 -0.8028
 7852SOL    HW235190   0.921   4.141   1.835 -0.7994  3.5732 -0.9528
 7853SOL     OW35191   0.383   0.504  12.714  0.0630  0.1608 -0.2597
 7853SOL    HW135192   0.396   0.410  12.701 -1.6305 -0.2607  1.1677
 7853SOL    HW235193   0.410   0.517  12.805  0.6087  3.4732 -0.9061
 7854SOL     OW35194   3.947   2.846   5.992 -0.4152 -0.1433 -0.0884
 7854SOL    HW135195   4.021   2.808   6.039 -1.4802 -1.3033  0.6380
 7854SOL    HW235196   3.898   2.886   6.064 -0.9686  0.3443 -0.7338
 7855SOL     OW35197   1.788   3.668   3.425  0.5373 -0.6977  0.0849
 7855SOL    HW135198   1.845   3.600   3.390  0.9181 -0.0359 -0.5598
 7855SOL    HW235199   1.761   3.706   3.341 -1.4952  1.7938  1.8918
 7856SOL     OW35200   3.584   3.433   7.795  0.6806 -0.5241  0.1130
 7856SOL    HW135201   3.596   3.465   7.885 -0.2818 -0.3980  0.1942
 7856SOL    HW235202   3.492   3.453   7.775  0.2567 -1.3758  1.2592
 7857SOL     OW35203   1.028   3.220   7.895  0.5350 -0.1192  0.0672
 7857SOL    HW135204   0.999   3.142   7.941 -0.4581 -0.4793 -1.1831
 7857SOL    HW235205   1.084   3.187   7.825  0.2395 -0.4844  0.0092
 7858SOL     OW35206   4.204   4.245   9.311 -0.0591  0.1642 -0.0396
 7858SOL    HW135207   4.174   4.215   9.224  0.2719 -0.3296  0.0178
 7858SOL    HW235208   4.292   4.207   9.316  0.6061  1.9908  1.8919
 7859SOL     OW35209   1.735   4.700   4.593  0.3185  0.0549  0.3505
 7859SOL    HW135210   1.656   4.677   4.641  0.1258  0.5380  0.2660
 7859SOL    HW235211   1.774   4.614   4.576 -1.3351 -0.3560 -1.3724
 7860SOL     OW35212   2.134   0.478   5.851 -0.0743  0.2531  0.2425
 7860SOL    HW135213   2.153   0.506   5.761  0.0426  0.4904  0.3410
 7860SOL    HW235214   2.145   0.383   5.843 -1.8486 -0.0664  1.6967
 7861SOL     OW35215   1.957   2.202   5.617  0.7731  0.1511 -0.1817
 7861SOL    HW135216   1.888   2.263   5.589  1.4867  2.3263  2.7316
 7861SOL    HW235217   1.903   2.128   5.646  1.2794  0.3345  1.2383
 7862SOL     OW35218   2.802   2.696   8.530  0.3811 -0.0191 -0.6885
 7862SOL    HW135219   2.709   2.705   8.508  0.1126 -1.4498 -0.1012
 7862SOL    HW235220   2.832   2.627   8.472  1.2502 -1.3947  1.4078
 7863SOL     OW35221   0.377   0.149   5.622 -0.4656 -0.0046 -0.6890
 7863SOL    HW135222   0.312   0.128   5.554 -2.5288  1.7894  0.7063
 7863SOL    HW235223   0.462   0.123   5.588  0.1521  0.8964  0.1768
 7864SOL     OW35224   3.514   1.322   2.944 -0.1262 -0.2471  0.1251
 7864SOL    HW135225   3.560   1.385   3.000 -2.6836 -0.9420  2.9876
 7864SOL    HW235226   3.435   1.317   2.997 -0.1275  0.2985  0.1778
 7865SOL     OW35227   1.907   2.427   3.812  0.1734  0.0153 -0.1225
 7865SOL    HW135228   1.848   2.454   3.883 -0.3644  0.0278 -0.5737
 7865SOL    HW235229   1.892   2.333   3.822  1.1262 -0.0632  0.5041
 7866SOL     OW35230   1.546   2.901   5.707 -0.1611 -0.8441  0.2245
 7866SOL    HW135231   1.450   2.904   5.704 -0.1139  0.6677  0.4059
 7866SOL    HW235232   1.568   2.907   5.614 -0.6039 -1.8543  0.0535
 7867SOL     OW35233   0.258   4.020   9.091  0.1820  0.0365  0.2753
 7867SOL    HW135234   0.346   3.983   9.096 -0.4431 -1.5483 -0.6150
 7867SOL    HW235235   0.248   4.041   8.999  0.4753  0.7800  0.4151
 7868SOL     OW35236   3.325   3.733   9.574 -0.7869  0.7214 -0.4777
 7868SOL    HW135237   3.385   3.719   9.500  0.1742  0.8279  0.2729
 7868SOL    HW235238   3.349   3.823   9.597 -0.1523  0.3236  0.4479
 7869SOL     OW35239   0.468   0.385   8.676  0.7192  0.0260 -0.9312
 7869SOL    HW135240   0.496   0.386   8.585  0.6890 -1.9592 -0.9756
 7869SOL    HW235241   0.374   0.371   8.664  0.5894 -0.2100  0.3136
 7870SOL     OW35242   1.070   4.170   4.032 -0.0505 -0.3390  0.4265
 7870SOL    HW135243   1.068   4.091   4.087 -1.1262  0.3537  1.3751
 7870SOL    HW235244   1.012   4.145   3.961  0.0417 -0.5127  0.4122
 7871SOL     OW35245   2.629   1.123   3.090 -0.5155 -0.8515 -0.1483
 7871SOL    HW135246   2.638   1.208   3.045 -2.1400 -1.3575 -1.4547
 7871SOL    HW235247   2.716   1.087   3.101  0.4437  0.8619 -2.0480
 7872SOL     OW35248   1.424   4.383   2.307  0.3325  0.5568  0.2749
 7872SOL    HW135249   1.498   4.365   2.249  0.4620 -1.1344  0.9573
 7872SOL    HW235250   1.457   4.470   2.330  2.3762 -0.6056  1.7470
 7873SOL     OW35251   0.090   1.284   3.599  0.3052 -0.3083 -0.3281
 7873SOL    HW135252   0.151   1.308   3.669  1.5250 -1.1737 -1.1016
 7873SOL    HW235253   0.101   1.189   3.596  3.4279 -0.0278  2.2418
 7874SOL     OW35254   4.135   3.498   7.713 -0.0500 -0.3699  0.8616
 7874SOL    HW135255   4.115   3.431   7.647  0.8664 -0.4261  0.6401
 7874SOL    HW235256   4.133   3.568   7.648 -1.0991 -0.6726  0.5622
 7875SOL     OW35257   0.551   3.733   1.753  0.5957 -1.0662 -0.4131
 7875SOL    HW135258   0.476   3.793   1.756  1.1474 -0.3174 -1.4619
 7875SOL    HW235259   0.532   3.686   1.672  0.1841  0.0074 -0.9518
 7876SOL     OW35260   1.360   3.779   3.343 -0.3666  0.1118  0.1728
 7876SOL    HW135261   1.364   3.744   3.254 -2.1822  0.4045 -0.0143
 7876SOL    HW235262   1.319   3.708   3.392  0.8341 -0.6420  0.0874
 7877SOL     OW35263   2.548   2.198  14.367  0.1915 -0.2340  0.2223
 7877SOL    HW135264   2.629   2.173  14.413 -1.1124 -1.3494  1.9087
 7877SOL    HW235265   2.568   2.147  14.288  1.3286 -0.2355  0.5103
 7878SOL     OW35266   3.328   1.702   1.481 -0.4647 -0.0406  0.3832
 7878SOL    HW135267   3.247   1.687   1.432 -0.4525 -0.2135  0.4185
 7878SOL    HW235268   3.373   1.764   1.424 -3.4836  2.0419  0.2483
 7879SOL     OW35269   4.650   4.200  15.717 -0.4794  0.2509  0.0208
 7879SOL    HW135270   4.677   4.211  15.626  1.5034  0.4285  0.6202
 7879SOL    HW235271   4.669   4.108  15.735  0.7560  0.1374 -1.8872
 7880SOL     OW35272   3.059   0.328   5.764 -0.2725 -0.1884 -0.1048
 7880SOL    HW135273   2.990   0.307   5.701  0.4106 -0.7215 -0.6851
 7880SOL    HW235274   3.118   0.253   5.755 -0.8066 -0.4774 -1.1944
 7881SOL     OW35275   2.442   1.196   9.017 -0.7382 -0.7419  0.0951
 7881SOL    HW135276   2.434   1.103   9.034 -0.5392 -0.7810 -0.0246
 7881SOL    HW235277   2.530   1.198   8.979 -0.5007  0.2773  0.6905
 7882SOL     OW35278   4.096   4.334   4.526  0.6208 -0.2952  0.0011
 7882SOL    HW135279   4.144   4.375   4.598  2.1077 -2.2079  0.0944
 7882SOL    HW235280   4.006   4.363   4.544  0.6757  0.6017 -1.2112
 7883SOL     OW35281   2.335   1.833  14.156 -0.1512  0.0790 -0.3763
 7883SOL    HW135282   2.255   1.795  14.121 -0.6755  0.4075  0.4652
 7883SOL    HW235283   2.368   1.871  14.075 -2.1919 -2.8802 -2.5834
 7884SOL     OW35284   3.950   2.546   1.243 -0.1609 -0.1985  0.4174
 7884SOL    HW135285   3.977   2.469   1.292  0.3345 -1.0604 -1.2059
 7884SOL    HW235286   3.962   2.504   1.158 -2.5160  0.1969 -0.1142
 7885SOL     OW35287   3.905   3.793   1.991 -0.2027  0.1788  0.0272
 7885SOL    HW135288   3.858   3.859   2.042  0.4043 -1.2949  2.4794
 7885SOL    HW235289   3.853   3.780   1.911 -0.2699  0.0082  0.0991
 7886SOL     OW35290   0.362   4.219   7.998  0.8667 -0.3093  0.1721
 7886SOL    HW135291   0.326   4.132   7.982  1.5835 -0.6803  0.5520
 7886SOL    HW235292   0.328   4.260   7.918  0.7516 -0.9437 -0.0970
 7887SOL     OW35293   3.941   3.054   7.966 -0.6387  0.7661 -0.1190
 7887SOL    HW135294   3.934   2.964   7.998 -0.6311  1.1622  0.9941
 7887SOL    HW235295   4.009   3.042   7.899 -0.4450  0.0079  0.2071
 7888SOL     OW35296   2.093   3.855   1.402  0.1042  0.3815 -0.4606
 7888SOL    HW135297   2.042   3.876   1.480  0.0669 -1.8115  0.1275
 7888SOL    HW235298   2.138   3.938   1.386 -0.7436  0.5782 -1.8199
 7889SOL     OW35299   4.537   3.316   6.019  0.3041 -0.1972  0.0585
 7889SOL    HW135300   4.590   3.381   5.973 -0.5525  1.5353  1.4736
 7889SOL    HW235301   4.543   3.239   5.964 -0.8256 -0.8141  0.7914
 7890SOL     OW35302   0.372   1.718   5.478 -0.2568  0.3292  0.2990
 7890SOL    HW135303   0.359   1.623   5.469  0.5610  0.2119  0.3137
 7890SOL    HW235304   0.307   1.760   5.422 -1.5982 -0.6660  1.0882
 7891SOL     OW35305   2.113   4.680   5.547 -0.2367  0.2800  0.3313
 7891SOL    HW135306   2.199   4.692   5.506 -0.2432  0.9904  0.5306
 7891SOL    HW235307   2.103   4.585   5.547  0.4808  0.1946 -1.4534
 7892SOL     OW35308   4.589   1.185   6.251  0.3725 -0.2344 -0.9726
 7892SOL    HW135309   4.559   1.275   6.261 -1.8645 -0.8471 -2.1406
 7892SOL    HW235310   4.577   1.180   6.157  3.0768 -0.2449 -1.3297
 7893SOL     OW35311   2.500   4.627  10.472 -0.3098  0.5110 -0.4319
 7893SOL    HW135312   2.409   4.617  10.498 -0.5300  0.1532 -1.3252
 7893SOL    HW235313   2.522   4.709  10.516  0.7938 -0.3105  0.5387
 7894SOL     OW35314   2.884   0.228   6.599 -0.6266 -0.3322  0.3806
 7894SOL    HW135315   2.802   0.215   6.551  0.1512  1.1890 -1.3569
 7894SOL    HW235316   2.842   0.237   6.685  1.2841  1.9095  1.0895
 7895SOL     OW35317   2.687   1.211   8.892  0.7373  0.0935 -0.0551
 7895SOL    HW135318   2.725   1.137   8.844  1.8979  0.6301  0.0193
 7895SOL    HW235319   2.633   1.254   8.826  0.1320  0.6424  0.8043
 7896SOL     OW35320   2.354   1.527   1.039  0.5731  0.1684  0.2174
 7896SOL    HW135321   2.388   1.593   0.978  3.8239 -0.8368  0.9122
 7896SOL    HW235322   2.262   1.552   1.041  0.4777 -0.2234  0.4811
 7897SOL     OW35323   2.629   3.195  10.642  0.5197 -0.5119 -0.6205
 7897SOL    HW135324   2.666   3.264  10.587  0.1069  0.3625  0.1895
 7897SOL    HW235325   2.672   3.212  10.726 -0.7287  0.4154 -0.1608
 7898SOL     OW35326   2.529   3.805   0.461 -0.1056  0.3036  0.0990
 7898SOL    HW135327   2.555   3.897   0.465  0.5548  0.1147  0.1228
 7898SOL    HW235328   2.547   3.780   0.551 -0.0349 -0.4789 -0.1376
 7899SOL     OW35329   4.707   1.075   1.969  0.6667  0.5190  0.3540
 7899SOL    HW135330   4.707   1.166   1.938  0.2678  0.4851  0.2542
 7899SOL    HW235331   0.038   1.040   1.913 -1.8536 -1.8665 -1.2147
 7900SOL     OW35332   1.681   1.577   1.113  0.0952 -0.2634 -0.1954
 7900SOL    HW135333   1.743   1.536   1.173  0.9443  0.9326 -0.2452
 7900SOL    HW235334   1.624   1.633   1.165  1.5161  0.0038  1.0951
 7901SOL     OW35335   0.430   2.228   5.531  0.0912 -0.0877  0.3177
 7901SOL    HW135336   0.456   2.282   5.457 -0.8226  0.6885  0.5592
 7901SOL    HW235337   0.493   2.256   5.597  1.1990 -0.3299 -0.6370
 7902SOL     OW35338   3.897   4.328   9.086  0.5957 -0.3562 -0.1122
 7902SOL    HW135339   3.954   4.252   9.070 -0.7290 -1.0424 -1.5521
 7902SOL    HW235340   3.961   4.399   9.085 -0.3359  0.4994  1.1239
 7903SOL     OW35341   1.981   4.568   8.637  0.1243  0.0685  0.1500
 7903SOL    HW135342   2.044   4.506   8.601  0.2325 -0.1423  0.6928
 7903SOL    HW235343   1.904   4.555   8.581 -0.3271  0.5508  0.6477
 7904SOL     OW35344   2.195   2.710   3.627  0.2193 -0.4436 -0.8291
 7904SOL    HW135345   2.101   2.697   3.614  0.1756 -0.8352 -0.1688
 7904SOL    HW235346   2.230   2.671   3.548 -0.7672 -1.7311 -0.6412
 7905SOL     OW35347   3.064   2.318   3.255 -0.3620 -0.3325  0.0299
 7905SOL    HW135348   3.102   2.308   3.342 -1.6314 -0.5870  0.5639
 7905SOL    HW235349   3.144   2.312   3.203 -1.5871 -0.5611 -1.8287
 7906SOL     OW35350   0.853   2.321   0.149 -0.2073 -0.1638 -0.2660
 7906SOL    HW135351   0.817   2.375   0.079  2.4123  2.0377  0.0469
 7906SOL    HW235352   0.773   2.299   0.196  0.6760 -1.7304  0.5056
 7907SOL     OW35353   3.879   2.200   7.388 -0.1762  0.4099 -0.2882
 7907SOL    HW135354   3.820   2.172   7.458 -0.4197 -0.6297 -0.9204
 7907SOL    HW235355   3.818   2.189   7.315 -1.1040  0.5743  0.4554
 7908SOL     OW35356   3.432   4.000  12.437  0.2458  0.1414 -0.2408
 7908SOL    HW135357   3.415   4.076  12.493  0.0545  0.4497 -0.7117
 7908SOL    HW235358   3.485   3.942  12.491 -1.4451 -0.9977  0.1771
 7909SOL     OW35359   4.486   3.503   0.473 -0.1918  0.5375  0.3119
 7909SOL    HW135360   4.406   3.549   0.498 -0.5980  0.8950 -1.6883
 7909SOL    HW235361   4.549   3.558   0.520 -1.1474  3.4553 -1.8530
 7910SOL     OW35362   4.039   2.641  12.341 -0.6944 -0.8983  0.1657
 7910SOL    HW135363   3.997   2.720  12.376 -0.6195 -1.0234  0.5379
 7910SOL    HW235364   4.027   2.645  12.246  0.4861  1.7577  0.1049
 7911SOL     OW35365   4.519   0.796  16.405 -0.4896  0.0200  0.2999
 7911SOL    HW135366   4.603   0.832  16.432  0.6267 -1.6947 -0.9067
 7911SOL    HW235367   4.543   0.715  16.360  1.3358  0.5299  0.3858
 7912SOL     OW35368   2.842   3.735   5.032  0.0481  0.3634 -0.1700
 7912SOL    HW135369   2.842   3.640   5.047 -1.9491  0.4671  0.3919
 7912SOL    HW235370   2.781   3.745   4.959 -0.1368  0.8410  0.0542
 7913SOL     OW35371   4.417   0.720  12.348  0.5602 -0.0709 -0.6723
 7913SOL    HW135372   4.451   0.693  12.263  0.7407  1.2184 -1.0040
 7913SOL    HW235373   4.450   0.653  12.408 -0.4523 -0.0996 -0.1289
 7914SOL     OW35374   2.634   3.899  11.229 -0.2204  0.0533 -0.1916
 7914SOL    HW135375   2.575   3.825  11.217 -0.9692  0.7532 -0.8049
 7914SOL    HW235376   2.701   3.846  11.272  0.1738 -0.2686 -1.2031
 7915SOL     OW35377   2.171   1.868   3.080 -0.1291  0.1187 -0.2433
 7915SOL    HW135378   2.096   1.861   3.022 -0.4368 -1.4123  0.3318
 7915SOL    HW235379   2.234   1.812   3.035 -1.0534  0.3179 -1.7713
 7916SOL     OW35380   0.466   2.746   3.579  0.3106  0.4084  0.2454
 7916SOL    HW135381   0.500   2.797   3.652  1.2020 -0.2665  0.3095
 7916SOL    HW235382   0.410   2.815   3.544  0.5588  0.0709 -0.8189
 7917SOL     OW35383   2.902   3.433  13.214  0.6337 -0.4105  0.5883
 7917SOL    HW135384   2.908   3.368  13.144 -2.7815 -0.7084  0.5667
 7917SOL    HW235385   2.819   3.478  13.196  1.2378  1.1003  1.5221
 7918SOL     OW35386   1.831   4.199   3.433  0.4184 -0.3014 -0.6773
 7918SOL    HW135387   1.740   4.227   3.421  1.2184  1.1376 -3.1882
 7918SOL    HW235388   1.832   4.185   3.528  0.8487 -0.2740 -0.6778
 7919SOL     OW35389   3.315   2.659  16.208 -0.3656 -0.3197  0.3748
 7919SOL    HW135390   3.305   2.752  16.229  2.2210  0.5339 -2.3035
 7919SOL    HW235391   3.316   2.662  16.113 -2.3179  1.5288  0.4087
 7920SOL     OW35392   0.143   4.544   8.305 -0.0989 -0.0946  0.1665
 7920SOL    HW135393   0.095   4.467   8.336 -0.8774  0.3093 -0.0342
 7920SOL    HW235394   0.221   4.502   8.269 -0.7658  0.5045 -1.9776
 7921SOL     OW35395   1.691   1.436   5.266  0.2192  0.2922 -0.0038
 7921SOL    HW135396   1.659   1.521   5.236 -2.3085 -0.9203 -0.7042
 7921SOL    HW235397   1.756   1.416   5.198  0.8861  1.9804  0.1346
 7922SOL     OW35398   2.444   4.302   3.352 -0.8702 -0.0962  0.0154
 7922SOL    HW135399   2.370   4.317   3.411  0.2639  2.0501  0.9080
 7922SOL    HW235400   2.471   4.216   3.384 -0.4629 -1.0879 -2.9740
 7923SOL     OW35401   4.003   1.962  17.656  0.1444 -0.4958  0.6271
 7923SOL    HW135402   4.097   1.973  17.668  0.0121  0.8322  0.4482
 7923SOL    HW235403   3.981   1.884  17.708 -3.2933 -0.9872 -1.5139
 7924SOL     OW35404   3.773   1.754   6.427  0.3924 -0.0166  0.2229
 7924SOL    HW135405   3.755   1.830   6.373 -0.4334 -1.0247 -0.9236
 7924SOL    HW235406   3.869   1.750   6.427  0.3452 -1.4102  0.3515
 7925SOL     OW35407   4.441   3.511   6.512 -0.3375 -0.4379  0.2639
 7925SOL    HW135408   4.405   3.431   6.549 -0.9765 -0.8641 -1.2806
 7925SOL    HW235409   4.495   3.476   6.441 -1.1231  0.3026 -0.6852
 7926SOL     OW35410   1.582   2.114   7.592 -0.3454  0.4000 -0.0531
 7926SOL    HW135411   1.652   2.177   7.585 -1.0850  1.5915  3.2723
 7926SOL    HW235412   1.527   2.145   7.520  0.0381 -2.4664 -1.5949
 7927SOL     OW35413   3.231   1.843   6.085 -0.4772  0.6498 -0.2711
 7927SOL    HW135414   3.310   1.818   6.037 -0.1295 -0.2931  0.7775
 7927SOL    HW235415   3.219   1.933   6.054 -1.1657  1.1659  1.4467
 7928SOL     OW35416   3.422   2.563   8.834  0.1045  0.1050  0.2349
 7928SOL    HW135417   3.332   2.552   8.863  0.1900  0.6846  0.7112
 7928SOL    HW235418   3.409   2.551   8.740  1.0280 -0.8773  0.2335
 7929SOL     OW35419   1.041   1.430   8.579 -0.1788  0.5201  0.2370
 7929SOL    HW135420   1.027   1.429   8.484 -0.6021 -1.8553  0.3216
 7929SOL    HW235421   1.123   1.478   8.574  1.2982 -2.0253  0.3410
 7930SOL     OW35422   2.798   0.316   3.814 -0.7698  0.4382  0.3008
 7930SOL    HW135423   2.885   0.287   3.788 -0.3790 -0.3797  2.5327
 7930SOL    HW235424   2.791   0.295   3.907 -0.5111 -0.3425  0.1472
 7931SOL     OW35425   1.238   1.373   7.568 -0.0989  0.1126  0.7768
 7931SOL    HW135426   1.291   1.397   7.644  2.5340  0.2269 -1.0608
 7931SOL    HW235427   1.257   1.279   7.563 -0.0883  0.1157  0.7579
 7932SOL     OW35428   2.230   3.015   4.020 -0.0088  0.8545 -0.0501
 7932SOL    HW135429   2.195   2.999   3.933 -0.1327  0.9912 -0.0238
 7932SOL    HW235430   2.155   3.005   4.078  1.3288 -0.6864  1.4265
 7933SOL     OW35431   1.877   1.422   3.656  0.5839  0.0323 -0.0868
 7933SOL    HW135432   1.946   1.427   3.722  0.8697  1.3719 -0.4920
 7933SOL    HW235433   1.929   1.442   3.578  0.4053  1.8302  0.2570
 7934SOL     OW35434   3.399   4.554   7.318  0.0157  0.6498 -0.0976
 7934SOL    HW135435   3.463   4.525   7.253 -1.5191 -2.8501 -0.0478
 7934SOL    HW235436   3.352   4.471   7.323  1.1741 -0.1186 -1.8546
 7935SOL     OW35437   2.539   1.370   8.250  0.2439 -0.3835 -0.5088
 7935SOL    HW135438   2.511   1.449   8.297  1.3845 -0.5962  0.5147
 7935SOL    HW235439   2.498   1.302   8.303 -0.0993 -0.1619 -0.4892
 7936SOL     OW35440   1.663   1.649   0.263 -0.0435  0.0408 -0.3150
 7936SOL    HW135441   1.676   1.690   0.178  0.0634  0.3902 -0.1297
 7936SOL    HW235442   1.744   1.605   0.287 -0.0361 -0.4920 -1.3041
 7937SOL     OW35443   2.545   1.201  14.814  0.2715 -0.0162  0.2547
 7937SOL    HW135444   2.518   1.152  14.892 -0.0373 -0.4577 -0.1333
 7937SOL    HW235445   2.640   1.209  14.823  0.2115  0.7927  0.1927
 7938SOL     OW35446   3.575   1.695   2.798 -0.4490 -0.3294  0.0438
 7938SOL    HW135447   3.658   1.667   2.838  0.2690 -0.0375 -1.2369
 7938SOL    HW235448   3.581   1.789   2.814 -0.0321 -0.4914  0.8032
 7939SOL     OW35449   1.275   4.664   4.123  0.4202  0.5881  0.2144
 7939SOL    HW135450   1.204   4.601   4.111 -0.6071  1.5499  1.2086
 7939SOL    HW235451   1.347   4.634   4.068  0.9110  0.9122  0.6781
 7940SOL     OW35452   1.364   3.452  16.620  0.1062  0.0909  0.0777
 7940SOL    HW135453   1.379   3.547  16.623  1.6151 -0.1982  1.7839
 7940SOL    HW235454   1.427   3.438  16.691  0.9647  0.7332 -0.5610
 7941SOL     OW35455   1.667   1.597   8.408 -0.1376  0.2878  0.2490
 7941SOL    HW135456   1.586   1.638   8.377  0.9188  1.2705 -1.1864
 7941SOL    HW235457   1.703   1.572   8.323 -0.5879  2.1737 -0.4784
 7942SOL     OW35458   0.059   2.785  16.784  0.0471  0.2709  0.7505
 7942SOL    HW135459   0.044   2.690  16.788  2.5724 -0.1314  0.5137
 7942SOL    HW235460   0.139   2.787  16.732  0.9270  0.1134  2.0830
 7943SOL     OW35461   4.627   3.034   3.823  0.1550 -0.1906  0.5684
 7943SOL    HW135462   4.660   3.082   3.899  0.4393  1.7312 -0.7825
 7943SOL    HW235463   4.708   2.998   3.789  0.8883  1.6612  0.3484
 7944SOL     OW35464   4.670   4.367   5.985  0.4210 -0.3986  0.4179
 7944SOL    HW135465   4.704   4.293   5.936  0.4891 -0.2481  0.2410
 7944SOL    HW235466   4.622   4.412   5.916  2.4524 -0.9184 -1.3223
 7945SOL     OW35467   2.408   3.648   1.589  0.3749  0.4332 -0.4679
 7945SOL    HW135468   2.332   3.601   1.556 -0.2116  1.4109 -0.4904
 7945SOL    HW235469   2.404   3.639   1.685  1.9865 -0.3710 -0.4793
 7946SOL     OW35470   3.078   3.074   4.424 -0.5264  0.6758 -0.2416
 7946SOL    HW135471   3.000   3.072   4.479 -0.3938 -2.6704 -0.1580
 7946SOL    HW235472   3.063   2.999   4.367  0.4393  0.8283 -0.6875
 7947SOL     OW35473   3.656   3.180   2.711 -0.5743 -0.3845  0.3815
 7947SOL    HW135474   3.670   3.154   2.620 -0.5903 -2.2826  0.9288
 7947SOL    HW235475   3.564   3.200   2.699  0.3225  3.0566 -0.6720
 7948SOL     OW35476   2.231   1.278   8.814 -0.3844  0.3964  0.1565
 7948SOL    HW135477   2.303   1.275   8.877 -0.4065 -0.4471  0.1453
 7948SOL    HW235478   2.153   1.285   8.868  0.0679 -1.4932  1.0343
 7949SOL     OW35479   1.773   2.648   6.857  0.2983 -0.1377 -0.3895
 7949SOL    HW135480   1.728   2.656   6.941 -0.1822 -1.2077 -0.5421
 7949SOL    HW235481   1.823   2.729   6.865 -1.8270  1.0625  0.5850
 7950SOL     OW35482   4.541   3.785   7.021  0.2394 -0.3347  0.2983
 7950SOL    HW135483   4.584   3.790   6.936 -2.9521  1.5830 -1.1710
 7950SOL    HW235484   4.595   3.842   7.076 -1.6087  1.7098 -0.0079
 7951SOL     OW35485   1.820   2.496   6.302  0.2348 -0.5941  0.1691
 7951SOL    HW135486   1.847   2.411   6.339  1.6315 -0.1322  0.2198
 7951SOL    HW235487   1.903   2.529   6.267 -0.3171  0.6295  0.0164
 7952SOL     OW35488   2.955   2.318  10.255  0.4026  0.0880 -0.3433
 7952SOL    HW135489   2.918   2.230  10.247 -0.9314  0.7420 -1.3648
 7952SOL    HW235490   3.029   2.310  10.194  2.2524 -0.6613  1.9629
 7953SOL     OW35491   0.162   0.938  16.083  0.0294 -0.0462  0.4223
 7953SOL    HW135492   0.204   0.976  16.160  0.2580  0.4924  0.0301
 7953SOL    HW235493   0.128   0.855  16.118  1.5586 -0.6499  0.4725
 7954SOL     OW35494   3.122   2.387   1.810 -0.4132  0.0260  0.4296
 7954SOL    HW135495   3.083   2.469   1.840 -0.8648 -0.8573  2.2626
 7954SOL    HW235496   3.196   2.418   1.757 -0.5620 -1.2822 -0.5426
 7955SOL     OW35497   3.209   0.311   2.492  0.2491 -0.2810 -0.0280
 7955SOL    HW135498   3.195   0.300   2.398 -1.0363  0.2069  0.1032
 7955SOL    HW235499   3.119   0.316   2.522  0.6516  1.7168  0.8955
 7956SOL     OW35500   0.011   1.672   6.441 -0.0214 -0.1416  0.3069
 7956SOL    HW135501   0.078   1.740   6.429  0.0904 -0.5835 -1.5593
 7956SOL    HW235502   0.051   1.599   6.394 -0.3066  0.7663 -1.3240
 7957SOL     OW35503   2.515   4.710   6.093 -0.6694 -0.6650  0.5114
 7957SOL    HW135504   2.602   4.726   6.130 -0.2982 -0.9375 -0.2362
 7957SOL    HW235505   2.513   4.618   6.065 -0.2538  0.3757 -2.9841
 7958SOL     OW35506   3.095   3.738   5.000  0.1101 -0.2630 -0.0946
 7958SOL    HW135507   3.000   3.739   5.013  0.1765 -1.3425  0.5271
 7958SOL    HW235508   3.102   3.694   4.915  1.7118 -2.5689  1.2428
 7959SOL     OW35509   0.793   3.475   4.386  0.3053 -0.1111  0.1605
 7959SOL    HW135510   0.784   3.382   4.407 -0.2834 -0.3128 -0.9404
 7959SOL    HW235511   0.860   3.469   4.317  0.4061  4.0795 -0.0939
 7960SOL     OW35512   0.347   3.798   8.054 -0.1521 -0.4810  0.1084
 7960SOL    HW135513   0.419   3.812   8.116  0.8985  0.7785 -1.3734
 7960SOL    HW235514   0.378   3.722   8.005 -1.0218 -1.7741  1.5831
 7961SOL     OW35515   4.339   3.644   2.122 -0.5225  0.6444  0.1108
 7961SOL    HW135516   4.245   3.633   2.139 -0.8784  1.8639 -1.0785
 7961SOL    HW235517   4.378   3.557   2.132 -0.1920  0.6232 -1.4844
 7962SOL     OW35518   4.692   0.387   9.163 -0.4383  0.3584  0.1180
 7962SOL    HW135519   4.633   0.331   9.214 -0.2828 -0.2079 -0.3231
 7962SOL    HW235520   0.040   0.357   9.191 -0.1196 -0.5576 -1.7899
 7963SOL     OW35521   2.877   4.422  11.294 -0.8308 -0.2237 -0.2322
 7963SOL    HW135522   2.895   4.488  11.361  1.3287 -1.9062  0.8404
 7963SOL    HW235523   2.837   4.479  11.228  1.0719  1.1751 -0.1750
 7964SOL     OW35524   3.210   4.020   5.093  0.1017  0.8308 -0.1235
 7964SOL    HW135525   3.145   3.952   5.110  0.7338 -0.1178 -1.5180
 7964SOL    HW235526   3.236   4.015   5.001  0.9835  0.5222  0.1416
 7965SOL     OW35527   1.645   0.758   2.530  0.6535  0.0849 -0.3262
 7965SOL    HW135528   1.614   0.846   2.552  1.5208  0.3100 -0.0226
 7965SOL    HW235529   1.613   0.707   2.605  0.0403  2.7539  1.2051
 7966SOL     OW35530   3.329   1.442   2.449 -0.7261 -0.6997 -0.0935
 7966SOL    HW135531   3.298   1.393   2.525  0.0693 -0.4468  0.3994
 7966SOL    HW235532   3.324   1.526   2.494 -2.1772 -0.2961 -1.0137
 7967SOL     OW35533   2.606   0.183  11.824 -0.0127  0.0633 -1.0492
 7967SOL    HW135534   2.568   0.160  11.739 -2.3866 -1.2713  0.3666
 7967SOL    HW235535   2.613   0.096  11.862 -0.4044  0.8808  0.9000
 7968SOL     OW35536   0.309   1.591   1.865 -0.2881 -0.1129  0.1235
 7968SOL    HW135537   0.393   1.632   1.883 -0.2748  0.3700 -1.0672
 7968SOL    HW235538   0.294   1.612   1.773  0.2214  1.8877  0.4948
 7969SOL     OW35539   3.615   0.759  15.877 -0.1053 -0.5990 -0.5498
 7969SOL    HW135540   3.683   0.697  15.851  1.4348  0.0746  1.9648
 7969SOL    HW235541   3.622   0.747  15.972  0.6492  1.0360 -0.3993
 7970SOL     OW35542   2.271   3.406   5.351 -0.1808 -0.0644  0.6283
 7970SOL    HW135543   2.365   3.419   5.338 -0.2479 -0.7377 -0.5924
 7970SOL    HW235544   2.278   3.336   5.416 -0.9794 -0.1904  0.5708
 7971SOL     OW35545   4.729   2.141   2.680  0.4350  0.0386 -0.6933
 7971SOL    HW135546   4.724   2.045   2.681  0.1720  0.0531 -0.7384
 7971SOL    HW235547   4.642   2.159   2.713  1.0803  3.1308 -0.6687
 7972SOL     OW35548   3.089   0.581   1.239 -0.5203  0.3274 -0.1610
 7972SOL    HW135549   3.176   0.542   1.242  0.0601  1.6410 -0.0117
 7972SOL    HW235550   3.082   0.588   1.144  0.1108 -1.4532 -0.3241
 7973SOL     OW35551   0.056   1.185  12.860 -0.3347 -0.1470 -0.0237
 7973SOL    HW135552   0.116   1.256  12.836  1.3644 -2.4533 -2.5903
 7973SOL    HW235553   0.074   1.131  12.783 -3.8455  0.9188 -1.5847
 7974SOL     OW35554   0.098   3.188   8.834  0.2232  0.0079  0.0515
 7974SOL    HW135555   0.025   3.243   8.863 -0.3570  1.0435 -3.3510
 7974SOL    HW235556   0.094   3.112   8.892  2.9017  1.3715  2.0209
 7975SOL     OW35557   2.302   4.532   9.082  0.6466 -0.4400  0.1646
 7975SOL    HW135558   2.392   4.532   9.049  0.7241  0.9452  0.3786
 7975SOL    HW235559   2.256   4.576   9.011  0.4249 -1.0314 -0.0613
 7976SOL     OW35560   4.040   1.065  13.461  0.0531  0.0145  0.4985
 7976SOL    HW135561   4.036   1.123  13.385 -0.4054 -1.8311 -0.8841
 7976SOL    HW235562   3.963   1.095  13.510 -0.3731  0.2018 -0.2693
 7977SOL     OW35563   3.875   1.396   0.253 -0.5696  0.0133  0.0639
 7977SOL    HW135564   3.887   1.478   0.300 -0.5833 -0.3847  0.7658
 7977SOL    HW235565   3.795   1.414   0.203 -0.3001 -1.1789 -0.8008
 7978SOL     OW35566   4.262   2.791   3.206 -0.2726 -0.7160  0.1591
 7978SOL    HW135567   4.225   2.705   3.225  0.4219 -1.1219 -0.3020
 7978SOL    HW235568   4.326   2.793   3.277  0.9179 -0.4279 -0.9061
 7979SOL     OW35569   3.519   2.481   5.295 -0.1600  0.6783 -0.4247
 7979SOL    HW135570   3.567   2.429   5.359 -1.2059 -1.8834 -1.7215
 7979SOL    HW235571   3.542   2.569   5.326 -1.1004  0.6631  0.3228
 7980SOL     OW35572   1.154   2.982   7.096 -0.0379 -0.1860 -0.5560
 7980SOL    HW135573   1.243   2.958   7.119 -0.3209  0.0626  0.8387
 7980SOL    HW235574   1.162   3.075   7.118  0.5171 -0.7861  1.7726
 7981SOL     OW35575   2.868   4.253  12.851  0.2863 -0.3974  0.4911
 7981SOL    HW135576   2.956   4.225  12.877 -0.0346 -1.1918  0.7431
 7981SOL    HW235577   2.886   4.335  12.806 -1.3215 -0.6775 -0.6551
 7982SOL     OW35578   3.369   3.388   3.582  0.6687  0.1646 -0.0328
 7982SOL    HW135579   3.454   3.431   3.575  1.4594 -1.5526 -1.0881
 7982SOL    HW235580   3.331   3.410   3.497  1.4339  2.5312  0.2334
 7983SOL     OW35581   0.177   2.331   0.561 -0.3059  0.1536  0.2613
 7983SOL    HW135582   0.220   2.410   0.529  1.2163 -0.7326  0.1214
 7983SOL    HW235583   0.252   2.272   0.570 -1.0088 -0.4497  2.0858
 7984SOL     OW35584   2.830   2.709   7.807  0.5251  0.4160 -0.5861
 7984SOL    HW135585   2.917   2.678   7.782 -0.7515 -0.6745 -3.6962
 7984SOL    HW235586   2.832   2.702   7.902  1.5913  2.0842 -0.4834
 7985SOL     OW35587   0.844   3.641   4.012  0.0679 -0.1732 -0.3894
 7985SOL    HW135588   0.756   3.679   4.016  0.2869  0.2905  0.0281
 7985SOL    HW235589   0.901   3.715   4.033 -0.4586 -0.4607  2.0391
 7986SOL     OW35590   2.090   4.611   7.962  0.3459  0.2847  0.2129
 7986SOL    HW135591   2.111   4.686   7.907 -1.7681  0.9049  0.2524
 7986SOL    HW235592   2.162   4.548   7.955  1.4230  1.5319  0.2122
 7987SOL     OW35593   0.703   0.633   3.024 -0.7215 -0.0363 -0.0067
 7987SOL    HW135594   0.663   0.717   3.003  2.6357  1.1991 -1.5502
 7987SOL    HW235595   0.724   0.646   3.116 -3.3379  3.1437  0.1305
 7988SOL     OW35596   3.525   0.894   2.753  0.0311 -0.2564 -0.1860
 7988SOL    HW135597   3.462   0.948   2.705 -0.0949 -0.2275  0.0146
 7988SOL    HW235598   3.462   0.839   2.800  1.0527  1.6858  3.4082
 7989SOL     OW35599   0.006   1.441   4.130  0.3203  0.2287  0.9089
 7989SOL    HW135600   0.021   1.533   4.107 -3.7119  0.9797  1.3119
 7989SOL    HW235601   0.007   1.400   4.044  1.1387 -2.6011  2.2664
 7990SOL     OW35602   3.540   1.209   7.655  0.2518  0.2813  0.2736
 7990SOL    HW135603   3.465   1.265   7.635  0.1904  0.7479  1.8455
 7990SOL    HW235604   3.494   1.142   7.706  0.9330 -0.1618  0.3107
 7991SOL     OW35605   2.208   2.717  15.151 -0.3273  0.1578 -0.0573
 7991SOL    HW135606   2.178   2.642  15.100 -0.1803  1.9007 -2.7107
 7991SOL    HW235607   2.300   2.693  15.156 -0.7719 -1.5517 -0.0626
 7992SOL     OW35608   1.158   4.518   4.393 -0.2489 -0.2701 -1.1835
 7992SOL    HW135609   1.173   4.508   4.299 -0.7446  0.2937 -1.3244
 7992SOL    HW235610   1.148   4.613   4.400  1.3029 -0.2142  0.2471
 7993SOL     OW35611   4.194   1.901   5.799  0.2618  0.0586  0.2456
 7993SOL    HW135612   4.222   1.965   5.865  0.3260  0.3925 -0.1041
 7993SOL    HW235613   4.160   1.965   5.736 -0.5656 -0.5326  0.0939
 7994SOL     OW35614   0.252   1.158   6.828  0.2308 -0.3308  0.3237
 7994SOL    HW135615   0.170   1.176   6.782  1.2392  0.4241 -1.1594
 7994SOL    HW235616   0.214   1.141   6.915  2.0035 -0.0950  1.1380
 7995SOL     OW35617   0.513   2.833   3.852  0.5644  0.0668  0.0405
 7995SOL    HW135618   0.543   2.922   3.874  0.2000 -0.0567  1.0370
 7995SOL    HW235619   0.433   2.824   3.903  0.8127 -0.5944  0.3045
 7996SOL     OW35620   2.304   1.664   1.924 -0.3360 -0.2871  0.4634
 7996SOL    HW135621   2.319   1.638   2.015 -0.1464 -0.2761  0.4353
 7996SOL    HW235622   2.287   1.584   1.874 -0.5540 -0.2074  0.4076
 7997SOL     OW35623   2.036   0.118   8.960  0.6174 -0.4438  0.3455
 7997SOL    HW135624   2.029   0.123   9.055  0.4715  1.0011  0.2679
 7997SOL    HW235625   1.947   0.103   8.928  1.2193 -1.5451 -0.8004
 7998SOL     OW35626   1.768   1.518   2.872 -0.2333 -0.3385 -0.1530
 7998SOL    HW135627   1.677   1.544   2.885 -0.9647 -1.6236 -2.8151
 7998SOL    HW235628   1.781   1.531   2.779  0.7311  1.1185  0.1925
 7999SOL     OW35629   3.051   2.428   8.614  0.3747  0.7451  0.9016
 7999SOL    HW135630   3.060   2.346   8.664  0.1850 -0.9648 -1.8922
 7999SOL    HW235631   3.141   2.455   8.598  0.1318  0.9623 -0.0521
 8000SOL     OW35632   2.030   0.642   5.352 -0.1968 -0.2166  0.1493
 8000SOL    HW135633   1.985   0.628   5.435  0.5222 -0.0117  0.5808
 8000SOL    HW235634   2.048   0.736   5.352  1.9341 -0.5970 -1.2252
 8001SOL     OW35635   0.483   2.429   3.159  0.4894 -0.4745  0.0574
 8001SOL    HW135636   0.557   2.444   3.100 -0.6866 -2.0824 -1.8415
 8001SOL    HW235637   0.440   2.357   3.113 -1.4241 -1.0830  2.7831
 8002SOL     OW35638   3.247   0.554   8.163  0.0483  0.0365 -0.5389
 8002SOL    HW135639   3.291   0.621   8.110  1.1059 -1.2847 -1.3318
 8002SOL    HW235640   3.305   0.481   8.142 -2.1076 -1.4821 -1.1872
 8003SOL     OW35641   4.067   3.708   7.557  0.5810 -0.0692  0.2051
 8003SOL    HW135642   4.008   3.765   7.606 -0.6273 -1.6974  0.6319
 8003SOL    HW235643   4.005   3.679   7.491  3.2698 -1.7137 -1.6325
 8004SOL     OW35644   2.713   3.789   3.257  0.3785  0.0601  0.2927
 8004SOL    HW135645   2.699   3.857   3.191 -1.5524  0.5728  1.2323
 8004SOL    HW235646   2.806   3.796   3.279  0.6185 -0.4352 -0.5700
 8005SOL     OW35647   3.950   4.145  11.641  0.1307  0.1817 -0.5576
 8005SOL    HW135648   4.013   4.217  11.641  1.0875 -0.6567 -0.3317
 8005SOL    HW235649   3.956   4.108  11.729 -0.9063  0.2412 -0.4611
 8006SOL     OW35650   3.813   3.146   4.882 -0.1114  0.7351  0.3254
 8006SOL    HW135651   3.866   3.209   4.931 -0.6866  1.5727 -0.1311
 8006SOL    HW235652   3.727   3.189   4.880  0.5114  1.9609 -0.0417
 8007SOL     OW35653   1.090   4.568   3.326  0.1569 -0.5755 -0.2501
 8007SOL    HW135654   1.024   4.519   3.376 -1.0337  2.1262  0.8094
 8007SOL    HW235655   1.077   4.656   3.361 -1.6768 -0.4961 -1.1699
 8008SOL     OW35656   3.967   2.793   2.810 -0.2779  0.3607  0.1085
 8008SOL    HW135657   3.906   2.745   2.866 -1.6163 -1.4769 -2.9369
 8008SOL    HW235658   4.007   2.861   2.866  1.5534 -0.1452 -0.6108
 8009SOL     OW35659   2.862   2.914  15.136  0.0456 -0.0997  0.1721
 8009SOL    HW135660   2.911   2.973  15.080 -2.0561  1.7869  0.3399
 8009SOL    HW235661   2.776   2.953  15.125  0.5016  0.7659 -0.2953
 8010SOL     OW35662   4.117   3.387   4.935  0.0490  0.0533 -0.6048
 8010SOL    HW135663   4.134   3.293   4.932  0.0393  0.1067 -2.6830
 8010SOL    HW235664   4.094   3.411   4.845 -0.8571 -0.2387 -0.4529
 8011SOL     OW35665   0.792   3.705   3.225 -0.2489 -0.1867  0.2446
 8011SOL    HW135666   0.868   3.649   3.205 -1.3112 -1.1870 -1.0222
 8011SOL    HW235667   0.742   3.650   3.285  0.3585 -0.6186  0.3604
 8012SOL     OW35668   4.509   2.970   9.452 -0.2792  0.0685  0.2008
 8012SOL    HW135669   4.587   3.021   9.477 -3.4586  4.7043  0.6213
 8012SOL    HW235670   4.447   3.041   9.439 -1.0875 -0.3026  2.0636
 8013SOL     OW35671   3.703   1.951   6.609  0.3487  0.1304 -0.2456
 8013SOL    HW135672   3.714   1.865   6.569  1.1743 -0.6420  1.5968
 8013SOL    HW235673   3.748   1.952   6.694 -2.1948 -0.2992  1.1166
 8014SOL     OW35674   2.001   2.406  12.207  0.3834  0.1131  0.4847
 8014SOL    HW135675   2.041   2.480  12.253 -0.4066  0.7326  0.1644
 8014SOL    HW235676   2.040   2.330  12.250  0.4416  0.6529  1.3859
 8015SOL     OW35677   2.902   1.150   7.154 -0.2004 -0.2289  0.3764
 8015SOL    HW135678   2.963   1.198   7.098 -1.8472  1.9723  0.4338
 8015SOL    HW235679   2.902   1.071   7.101 -1.0209  0.7293 -1.0572
 8016SOL     OW35680   1.124   0.905   9.710 -0.3204 -0.3305 -0.2736
 8016SOL    HW135681   1.148   0.934   9.622  0.1866 -0.8647 -0.3112
 8016SOL    HW235682   1.101   0.815   9.688 -3.8530  0.1330  1.5808
 8017SOL     OW35683   2.229   0.063   6.085  0.1213 -0.7012  0.4755
 8017SOL    HW135684   2.183   0.007   6.148 -0.6002  0.7064  1.2049
 8017SOL    HW235685   2.318   0.028   6.086  0.1431 -0.6162  1.6121
 8018SOL     OW35686   0.156   3.399   6.569 -0.0436  0.4270 -0.4831
 8018SOL    HW135687   0.178   3.390   6.662 -3.9345 -1.9903  0.1862
 8018SOL    HW235688   0.127   3.489   6.560 -0.7640  0.2166 -0.2616
 8019SOL     OW35689   1.562   4.627   8.548  0.5575 -0.2734 -0.1788
 8019SOL    HW135690   1.584   4.607   8.457  0.4182  0.5387 -0.3893
 8019SOL    HW235691   1.639   4.681   8.565  0.8068 -0.1338 -1.7947
 8020SOL     OW35692   2.157   0.932  11.843  0.3817  0.1716 -0.2434
 8020SOL    HW135693   2.166   0.968  11.931  0.6991  1.4352 -0.7962
 8020SOL    HW235694   2.138   0.839  11.859 -1.6694  0.8848  1.5140
 8021SOL     OW35695   2.945   1.159   9.488 -0.0126 -0.7004 -0.5042
 8021SOL    HW135696   2.887   1.225   9.451  2.2938 -0.4721 -3.7232
 8021SOL    HW235697   3.022   1.211   9.511 -2.9015  2.1048  2.7234
 8022SOL     OW35698   1.449   0.076   5.063  0.7651 -0.0435  0.3273
 8022SOL    HW135699   1.445   0.153   5.006  2.5293 -0.2379 -0.0602
 8022SOL    HW235700   1.539   0.087   5.092  1.2534  0.5286 -1.4279
 8023SOL     OW35701   1.107   0.497   7.404  0.4786 -0.3592  0.0693
 8023SOL    HW135702   1.055   0.569   7.440  0.5847 -0.3707  0.2427
 8023SOL    HW235703   1.095   0.511   7.310 -0.0327 -0.6242  0.0942
 8024SOL     OW35704   2.219   2.095  12.102 -0.4901 -0.0632 -0.0640
 8024SOL    HW135705   2.267   2.140  12.032 -0.5337  1.6685  1.0277
 8024SOL    HW235706   2.138   2.073  12.055  0.8939 -0.7877 -2.1493
 8025SOL     OW35707   2.812   0.407   7.223  0.2258 -0.5548  0.8873
 8025SOL    HW135708   2.891   0.354   7.214  0.4168 -0.2934  1.0489
 8025SOL    HW235709   2.807   0.429   7.130 -4.1536 -2.3785  0.6618
 8026SOL     OW35710   4.608   2.877   1.663  0.0934 -0.4789 -0.0923
 8026SOL    HW135711   4.631   2.812   1.729 -1.7538 -1.4010 -0.3532
 8026SOL    HW235712   4.679   2.939   1.680 -1.1938  0.9300  0.0914
 8027SOL     OW35713   4.709   3.670   0.232 -0.0144  0.4164 -0.4031
 8027SOL    HW135714   4.665   3.737   0.180 -2.5273 -0.8126  0.1665
 8027SOL    HW235715   0.015   3.634   0.155 -0.5360  0.8697 -0.9100
 8028SOL     OW35716   0.539   4.031   8.616 -0.4366 -0.1826 -0.5827
 8028SOL    HW135717   0.503   3.953   8.572 -1.3273  0.6031 -1.2551
 8028SOL    HW235718   0.473   4.100   8.602  0.8352  0.7465 -1.9891
 8029SOL     OW35719   3.020   1.316   5.882  0.0416 -0.3060  0.0270
 8029SOL    HW135720   3.110   1.297   5.855  0.6250 -3.7262  4.4326
 8029SOL    HW235721   3.025   1.405   5.917  1.7692 -0.2631 -0.3589
 8030SOL     OW35722   3.732   3.521  13.416  0.5297 -0.5210 -0.0686
 8030SOL    HW135723   3.699   3.601  13.457  0.1724  0.1487 -1.6385
 8030SOL    HW235724   3.826   3.536  13.428  0.2970  2.0409 -1.5145
 8031SOL     OW35725   4.022   0.453   3.153  0.6861  0.6282 -0.4125
 8031SOL    HW135726   3.953   0.409   3.103  0.2868 -0.5875  1.2144
 8031SOL    HW235727   4.097   0.406   3.117 -1.8764 -2.4012 -1.8314
 8032SOL     OW35728   3.932   4.335   5.100 -0.1987 -0.0868  0.0252
 8032SOL    HW135729   3.923   4.417   5.148 -0.5409  0.4111 -0.8866
 8032SOL    HW235730   4.003   4.365   5.044  0.9626  0.2929  1.7221
 8033SOL     OW35731   2.114   3.648  11.002  0.5078 -0.0332  0.5902
 8033SOL    HW135732   2.173   3.713  11.039  1.5134 -0.4533 -0.2745
 8033SOL    HW235733   2.029   3.692  11.007  1.1964  0.9595  4.0221
 8034SOL     OW35734   0.615   3.165   2.873 -0.0226  0.4043  0.6017
 8034SOL    HW135735   0.610   3.201   2.784 -0.6165 -1.7262 -0.2266
 8034SOL    HW235736   0.708   3.143   2.879 -0.4636 -1.5263  0.1593
 8035SOL     OW35737   1.068   3.924   6.894  0.1086 -0.5225 -1.0981
 8035SOL    HW135738   0.993   3.865   6.882 -0.9898  0.6771 -0.1186
 8035SOL    HW235739   1.082   3.903   6.986 -1.6385  1.2748 -0.4291
 8036SOL     OW35740   3.779   4.039  10.169  0.1652  0.1655 -0.0027
 8036SOL    HW135741   3.702   4.096  10.175  0.5248  0.9676 -3.0524
 8036SOL    HW235742   3.819   4.073  10.089  1.7285 -1.5082  0.0842
 8037SOL     OW35743   2.696   3.724   4.802 -0.3613  0.8003 -0.4264
 8037SOL    HW135744   2.691   3.808   4.756  3.1284  1.3129  0.1776
 8037SOL    HW235745   2.602   3.707   4.804 -0.0250 -1.1433 -0.8310
 8038SOL     OW35746   3.584   0.932  11.164 -0.0091  0.1191  0.2076
 8038SOL    HW135747   3.506   0.890  11.199 -0.1561  1.9210  2.0234
 8038SOL    HW235748   3.588   1.018  11.206  0.5550  1.2821 -2.1962
 8039SOL     OW35749   3.602   1.729  14.658 -0.3655  0.0313 -0.4522
 8039SOL    HW135750   3.556   1.703  14.738  1.8839  1.3464  1.2487
 8039SOL    HW235751   3.539   1.799  14.642  0.0357  0.5598  0.2784
 8040SOL     OW35752   1.101   2.881   2.570  0.2029  0.4358  0.4541
 8040SOL    HW135753   1.173   2.942   2.556  1.2298 -1.1324 -1.0236
 8040SOL    HW235754   1.103   2.829   2.490  3.7569 -1.5745  1.8741
 8041SOL     OW35755   4.518   1.026   8.064 -0.2441  0.2201 -0.1711
 8041SOL    HW135756   4.563   1.046   8.146 -0.5409  0.9993 -0.1945
 8041SOL    HW235757   4.538   1.107   8.017  2.5131  0.4278  1.3859
 8042SOL     OW35758   0.921   2.326   8.579  0.3731 -0.1459  0.0962
 8042SOL    HW135759   0.887   2.415   8.582 -0.3928 -0.3024 -3.9150
 8042SOL    HW235760   1.006   2.340   8.537  1.1919  0.3143  1.9148
 8043SOL     OW35761   4.428   1.628   2.400  0.2223  0.4788 -0.2270
 8043SOL    HW135762   4.486   1.606   2.327  1.9435  2.9600  0.3910
 8043SOL    HW235763   4.478   1.695   2.446 -0.1407  0.3432  0.3564
 8044SOL     OW35764   4.402   1.174   8.975 -0.4580 -0.1071 -0.8594
 8044SOL    HW135765   4.372   1.210   9.058  0.2115  0.8552 -1.0324
 8044SOL    HW235766   4.436   1.086   8.993 -0.6639 -0.1606 -0.7335
 8045SOL     OW35767   1.361   0.940   2.281  0.1499  0.2655 -0.0977
 8045SOL    HW135768   1.378   0.934   2.375  0.8841 -0.5115 -0.2740
 8045SOL    HW235769   1.277   0.985   2.279 -0.7269 -1.3894 -0.2886
 8046SOL     OW35770   2.923   3.882   5.245 -0.1855 -0.2632 -0.3179
 8046SOL    HW135771   2.896   3.832   5.322  0.0783  0.5018  0.2611
 8046SOL    HW235772   2.875   3.839   5.174 -1.8341  0.3617  0.4320
 8047SOL     OW35773   3.981   2.068   5.219  0.1298  0.0429  0.1425
 8047SOL    HW135774   3.914   2.006   5.249  2.4356 -2.0864  0.9038
 8047SOL    HW235775   3.962   2.150   5.265  0.9721  1.0778 -1.3687
 8048SOL     OW35776   1.127   1.823   5.323 -0.4161  0.6647  0.1078
 8048SOL    HW135777   1.036   1.795   5.330 -0.5264  1.0818  0.2950
 8048SOL    HW235778   1.147   1.865   5.406  0.1576 -0.9668  0.8030
 8049SOL     OW35779   0.448   3.173   6.444  0.3129 -0.6495 -0.2121
 8049SOL    HW135780   0.530   3.131   6.471  0.2821 -0.5849 -0.0142
 8049SOL    HW235781   0.454   3.261   6.483  0.4909 -0.9494  0.4420
 8050SOL     OW35782   1.635   1.776   2.331  0.1034 -0.1786  0.0302
 8050SOL    HW135783   1.651   1.862   2.369 -1.0153 -0.6003  1.4275
 8050SOL    HW235784   1.609   1.798   2.241  0.8113 -4.0931 -1.1053
 8051SOL     OW35785   3.672   2.323   6.305  0.1281 -0.9304  0.3222
 8051SOL    HW135786   3.636   2.260   6.367  1.1672 -0.6358  1.2338
 8051SOL    HW235787   3.599   2.385   6.302  2.0305  1.2471 -1.2282
 8052SOL     OW35788   2.524   0.767   3.370 -0.0366 -0.2639 -0.2154
 8052SOL    HW135789   2.521   0.810   3.285  0.7057  0.2808  0.0411
 8052SOL    HW235790   2.514   0.839   3.433 -0.1352 -1.4455  1.1318
 8053SOL     OW35791   2.227   4.189  17.022 -0.2829  0.2844  0.3571
 8053SOL    HW135792   2.242   4.227  16.936 -2.7955 -0.0950 -0.2371
 8053SOL    HW235793   2.206   4.096  17.008 -1.2079  0.6415 -0.5625
 8054SOL     OW35794   4.456   3.989   1.198 -0.5805 -0.9073  0.2179
 8054SOL    HW135795   4.376   3.990   1.251 -0.9511  0.6481 -0.3469
 8054SOL    HW235796   4.425   3.915   1.147  1.4412 -1.3349 -0.3887
 8055SOL     OW35797   1.741   4.484   7.728  0.6108 -0.0805  0.1549
 8055SOL    HW135798   1.815   4.436   7.766  0.4965 -2.0652 -2.1774
 8055SOL    HW235799   1.679   4.468   7.800  1.1244  0.9701  0.8441
 8056SOL     OW35800   2.223   3.597  12.057 -0.1698  0.1750 -0.2323
 8056SOL    HW135801   2.295   3.615  11.997 -0.6945 -1.8678 -1.4668
 8056SOL    HW235802   2.204   3.509  12.024 -0.2335  0.3529 -0.6695
 8057SOL     OW35803   2.275   3.221   0.168 -0.5366  0.1153  0.1343
 8057SOL    HW135804   2.304   3.150   0.225  2.6530  1.3792  0.0732
 8057SOL    HW235805   2.347   3.285   0.170  0.8985 -1.4843 -0.5947
 8058SOL     OW35806   1.638   0.502  14.782  0.1073 -0.0002  0.3338
 8058SOL    HW135807   1.700   0.511  14.855  1.0215 -0.8085 -0.3471
 8058SOL    HW235808   1.577   0.573  14.802  0.1120  0.5025 -1.4243
 8059SOL     OW35809   4.338   3.259   6.194  0.5928  0.1109 -0.1458
 8059SOL    HW135810   4.395   3.280   6.120  1.3511 -0.0317  0.3927
 8059SOL    HW235811   4.383   3.179   6.222 -0.0012 -0.0474  0.3520
 8060SOL     OW35812   4.606   0.235  15.946  0.2292 -0.0315 -0.2171
 8060SOL    HW135813   4.608   0.190  16.031 -0.8705  1.0853  0.3998
 8060SOL    HW235814   4.512   0.251  15.944  0.1098 -0.6742  0.4842
 8061SOL     OW35815   4.170   0.443   8.617 -0.1426  0.3835 -0.5735
 8061SOL    HW135816   4.250   0.442   8.669 -1.2924  0.4806  1.2260
 8061SOL    HW235817   4.150   0.536   8.608 -1.2666  0.0258 -1.9050
 8062SOL     OW35818   3.909   2.913   3.329  0.0471  0.1427 -0.9279
 8062SOL    HW135819   3.996   2.935   3.296 -0.2570  2.8345  0.0885
 8062SOL    HW235820   3.863   2.896   3.246  0.9214  0.0917 -1.4020
 8063SOL     OW35821   4.640   3.389   5.041 -0.6072  0.5572  0.1882
 8063SOL    HW135822   4.726   3.405   5.002 -1.6170  4.3581 -0.5233
 8063SOL    HW235823   4.592   3.347   4.970 -0.6457  2.4359 -0.9047
 8064SOL     OW35824   0.357   2.082   8.572 -0.1673  0.4025  0.0954
 8064SOL    HW135825   0.276   2.030   8.573  0.1245 -0.0410  0.7639
 8064SOL    HW235826   0.335   2.159   8.520  2.6314 -1.5004 -3.9388
 8065SOL     OW35827   1.999   2.304   1.627 -0.3274  0.3833  0.2673
 8065SOL    HW135828   1.985   2.210   1.634 -0.3137  0.3081 -0.6233
 8065SOL    HW235829   1.913   2.330   1.593  0.4422  0.3589 -1.7238
 8066SOL     OW35830   2.515   4.468  14.490  0.8032  0.1020  0.1933
 8066SOL    HW135831   2.590   4.448  14.436 -0.3935  0.4750 -1.6017
 8066SOL    HW235832   2.460   4.392  14.473  2.3051 -0.5586 -1.5662
 8067SOL     OW35833   3.439   1.356   3.939  0.6607  0.2334 -0.1245
 8067SOL    HW135834   3.447   1.358   4.034  0.9356 -1.4840 -0.1144
 8067SOL    HW235835   3.354   1.312   3.932  0.3618  0.9367 -1.0434
 8068SOL     OW35836   0.251   1.262  10.978  0.0340  0.7704 -0.0041
 8068SOL    HW135837   0.181   1.257  10.913  0.9300 -0.3417 -0.8924
 8068SOL    HW235838   0.257   1.356  10.992  1.2160  1.0239 -2.1705
 8069SOL     OW35839   3.207   3.802   9.189  0.1475 -0.0569 -0.2182
 8069SOL    HW135840   3.113   3.797   9.169  0.2164  0.5347 -0.6695
 8069SOL    HW235841   3.210   3.812   9.284 -2.1315 -1.3123 -0.0052
 8070SOL     OW35842   0.093   2.035   7.862 -0.3991 -0.0964  0.0684
 8070SOL    HW135843   0.103   2.042   7.767 -2.3682  0.2226 -0.1104
 8070SOL    HW235844   0.094   2.127   7.889  0.8772 -0.2936  0.7072
 8071SOL     OW35845   2.449   1.385   2.834 -0.2966  0.1698 -0.7464
 8071SOL    HW135846   2.397   1.391   2.915  0.3811  1.3748 -0.3991
 8071SOL    HW235847   2.392   1.329   2.782 -0.9537 -1.1954  1.4356
 8072SOL     OW35848   1.910   4.501  16.642 -0.2905  1.1887  0.5799
 8072SOL    HW135849   1.989   4.495  16.696 -0.6911 -0.0158  1.0271
 8072SOL    HW235850   1.858   4.445  16.700  0.6181  0.2521  0.4800
 8073SOL     OW35851   0.484   0.317   7.798 -0.0576  0.5262  0.2618
 8073SOL    HW135852   0.412   0.306   7.736  1.0850  0.7534 -1.1111
 8073SOL    HW235853   0.546   0.363   7.742  2.2985 -2.6879  0.2514
 8074SOL     OW35854   1.949   1.837   7.119  0.0067  0.3512 -0.3395
 8074SOL    HW135855   1.855   1.817   7.124  1.1182 -4.0513  2.4439
 8074SOL    HW235856   1.941   1.927   7.152  1.0404  0.5523 -0.6510
 8075SOL     OW35857   1.728   0.288   0.840  0.2086  0.1990 -0.0666
 8075SOL    HW135858   1.672   0.232   0.786  1.5567 -1.1119 -0.1287
 8075SOL    HW235859   1.809   0.236   0.836  0.1801  0.3053 -2.4082
 8076SOL     OW35860   2.446   1.656   4.111 -0.1608  0.1577  0.1655
 8076SOL    HW135861   2.421   1.563   4.108  0.8751 -0.1282  0.6263
 8076SOL    HW235862   2.394   1.692   4.183 -1.4380 -0.7402 -0.2861
 8077SOL     OW35863   4.037   0.730   9.694 -0.1925  0.9939  0.0592
 8077SOL    HW135864   4.042   0.720   9.789  0.7791 -1.0839 -0.2064
 8077SOL    HW235865   4.096   0.662   9.661 -1.1073 -0.2572  0.9788
 8078SOL     OW35866   2.235   2.885   2.151 -0.3585  0.1851 -0.0561
 8078SOL    HW135867   2.267   2.810   2.100  1.2335  0.4177  0.6035
 8078SOL    HW235868   2.141   2.870   2.158 -0.2029 -0.1579  1.4022
 8079SOL     OW35869   1.002   2.570   4.761 -0.0523 -0.0504 -0.0143
 8079SOL    HW135870   1.094   2.566   4.734 -0.4502  0.8595 -1.4978
 8079SOL    HW235871   0.989   2.542   4.851 -1.7088  1.0010  0.0639
 8080SOL     OW35872   1.871   1.155  12.413  0.3552 -0.6592 -0.2789
 8080SOL    HW135873   1.945   1.194  12.460  0.6700 -0.5105 -0.8923
 8080SOL    HW235874   1.801   1.156  12.479  1.5464  0.1617  0.9750
 8081SOL     OW35875   2.017   4.085   2.187  0.0493  0.5357 -0.2463
 8081SOL    HW135876   1.975   4.098   2.102 -1.1285  0.6320  0.3450
 8081SOL    HW235877   2.047   3.994   2.178  2.9387  1.8262 -3.4851
 8082SOL     OW35878   1.570   2.124   2.707  0.1143  0.2696 -0.2230
 8082SOL    HW135879   1.565   2.046   2.762  2.5027  0.9155  0.9341
 8082SOL    HW235880   1.489   2.127   2.657  1.5174  3.2431 -2.2572
 8083SOL     OW35881   3.268   0.621   8.724 -0.2162  0.1407 -0.3625
 8083SOL    HW135882   3.189   0.584   8.764  1.3645 -1.4468  1.2711
 8083SOL    HW235883   3.335   0.569   8.767  0.4453  0.5455 -0.9026
 8084SOL     OW35884   2.087   2.823  15.371 -0.3608 -0.2826  0.9368
 8084SOL    HW135885   2.071   2.778  15.288 -0.5537 -0.2943  0.9812
 8084SOL    HW235886   2.055   2.908  15.341  0.2778  0.4749  2.4304
 8085SOL     OW35887   1.406   2.089   5.455  0.1282 -0.0773 -0.4172
 8085SOL    HW135888   1.360   2.144   5.392  1.1762 -0.5807 -1.6281
 8085SOL    HW235889   1.334   2.033   5.485  0.0731  0.3144  0.1757
 8086SOL     OW35890   2.437   4.433  17.095  0.0873 -0.4840 -0.3902
 8086SOL    HW135891   2.396   4.515  17.121  2.7221 -0.2362  2.9672
 8086SOL    HW235892   2.427   4.430  17.000 -0.9765  2.2049 -0.3431
 8087SOL     OW35893   1.407   1.217   5.001 -0.4280 -0.7393 -0.1503
 8087SOL    HW135894   1.347   1.143   5.012  0.4663 -1.3752  0.4096
 8087SOL    HW235895   1.484   1.194   5.052 -0.2436  0.0168 -0.0823
 8088SOL     OW35896   3.135   4.217  10.013 -0.2083 -0.3066  0.2451
 8088SOL    HW135897   3.166   4.271  10.086 -0.4936  2.2364 -1.5125
 8088SOL    HW235898   3.152   4.129  10.048  0.5054 -1.3865 -2.8048
 8089SOL     OW35899   1.970   1.669  11.027  0.6859 -0.1868  0.0853
 8089SOL    HW135900   1.878   1.645  11.023  0.5050  1.0938 -3.1962
 8089SOL    HW235901   2.006   1.597  10.975  2.2654 -1.6858  3.2466
 8090SOL     OW35902   0.144   0.666   1.753  0.3106  0.2016  0.0059
 8090SOL    HW135903   0.132   0.755   1.720  1.3764 -0.1239 -1.2649
 8090SOL    HW235904   0.070   0.657   1.812  0.8007  3.0166  1.0330
 8091SOL     OW35905   1.604   2.665   5.860  0.1934  0.3259  0.6198
 8091SOL    HW135906   1.525   2.614   5.876 -1.0528  1.5710 -1.5076
 8091SOL    HW235907   1.571   2.731   5.799 -0.4952 -0.2286  0.3896
 8092SOL     OW35908   3.413   2.687   5.520 -0.2657  0.9025  0.1102
 8092SOL    HW135909   3.325   2.664   5.548  0.2617  2.3149  2.9269
 8092SOL    HW235910   3.463   2.609   5.544 -1.2073  0.5274  0.8746
 8093SOL     OW35911   0.175   4.594   2.689  0.0590  0.2313 -0.1473
 8093SOL    HW135912   0.180   4.687   2.665  0.7775  0.5025  1.0461
 8093SOL    HW235913   0.194   4.541   2.612  0.1412 -0.5728  0.4293
 8094SOL     OW35914   3.622   0.546   9.575 -0.5530 -0.3107  0.7489
 8094SOL    HW135915   3.704   0.504   9.548  0.6547  1.7659  1.1619
 8094SOL    HW235916   3.595   0.470   9.626 -1.3176 -1.5617 -1.5449
 8095SOL     OW35917   4.114   1.152   4.842 -0.2266  0.1353  0.6700
 8095SOL    HW135918   4.132   1.104   4.923 -1.3684  0.7334  1.2793
 8095SOL    HW235919   4.046   1.210   4.877  0.6691 -0.1458  2.8621
 8096SOL     OW35920   1.054   3.093   5.896  0.0851  0.5163 -0.7482
 8096SOL    HW135921   1.137   3.138   5.908  0.3968  0.1509 -1.5333
 8096SOL    HW235922   0.985   3.152   5.924  1.3287  1.7111 -0.1987
 8097SOL     OW35923   4.232   3.008   1.461 -0.2918  0.0781  0.0317
 8097SOL    HW135924   4.168   2.959   1.409 -2.1963  2.8348 -0.2207
 8097SOL    HW235925   4.278   2.934   1.500 -0.3868 -0.6666 -1.2623
 8098SOL     OW35926   3.789   2.627   2.963  0.4355  0.2143 -0.3227
 8098SOL    HW135927   3.811   2.573   3.039  0.1412  0.5535  0.0094
 8098SOL    HW235928   3.697   2.607   2.946  0.4987  0.1988 -0.6311
 8099SOL     OW35929   2.523   1.293   8.694 -0.1320 -0.1953  0.2400
 8099SOL    HW135930   2.533   1.214   8.640 -1.2926 -0.0706 -0.1582
 8099SOL    HW235931   2.434   1.316   8.667 -0.1321  2.3233  2.3897
 8100SOL     OW35932   3.417   3.711  11.979  0.4240 -0.3146  0.4675
 8100SOL    HW135933   3.331   3.702  12.019  0.0495  0.9562 -0.0328
 8100SOL    HW235934   3.456   3.766  12.047  2.5626 -0.0703 -0.9481
 8101SOL     OW35935   2.105   0.440   2.337  0.3556 -0.1832 -0.0988
 8101SOL    HW135936   2.026   0.492   2.346  0.1140 -0.3817 -1.1144
 8101SOL    HW235937   2.172   0.501   2.368 -0.4507 -0.0255  1.3135
 8102SOL     OW35938   0.114   1.264   3.148  1.0086  0.2927  0.1504
 8102SOL    HW135939   0.190   1.258   3.091  0.8470 -0.5336  0.0316
 8102SOL    HW235940   0.096   1.175   3.178 -0.9190  0.5770 -0.2133
 8103SOL     OW35941   0.157   4.218   3.274 -0.0959 -0.0268  0.8851
 8103SOL    HW135942   0.195   4.305   3.284 -0.6238  0.2554  0.4374
 8103SOL    HW235943   0.124   4.207   3.363  1.8584 -2.2557  1.3499
 8104SOL     OW35944   4.578   0.440  10.197 -0.1028 -0.3585 -0.2226
 8104SOL    HW135945   4.555   0.531  10.180 -0.2341 -0.7673 -2.2972
 8104SOL    HW235946   4.673   0.446  10.199 -0.1104  0.2353 -1.5329
 8105SOL     OW35947   2.230   3.743  16.840  0.3699 -0.6015 -0.5060
 8105SOL    HW135948   2.320   3.715  16.859  0.5483  0.9105  0.8214
 8105SOL    HW235949   2.200   3.775  16.925 -0.5521 -1.6793 -0.4305
 8106SOL     OW35950   4.246   3.264   5.869 -0.2333 -0.2350  0.2178
 8106SOL    HW135951   4.182   3.196   5.851 -1.7725  0.7572  1.9128
 8106SOL    HW235952   4.203   3.299   5.948  1.1541  0.6916  0.5730
 8107SOL     OW35953   2.003   0.365   8.336  0.3452 -0.0189 -0.4384
 8107SOL    HW135954   1.931   0.359   8.398 -0.1734 -1.8691 -1.2276
 8107SOL    HW235955   2.075   0.384   8.397  0.7005 -0.4748 -0.7137
 8108SOL     OW35956   2.658   0.388   2.043  0.3620  0.0871  0.1435
 8108SOL    HW135957   2.628   0.432   1.964  1.6655  1.5387  0.4757
 8108SOL    HW235958   2.740   0.350   2.011  0.5645 -1.3679  2.3843
 8109SOL     OW35959   2.509   0.024   7.860 -0.4072  0.1680  0.2182
 8109SOL    HW135960   2.472   0.055   7.943  0.1033  0.1185  0.4631
 8109SOL    HW235961   2.597   4.732   7.881 -0.2819  0.9554  0.8053
 8110SOL     OW35962   3.030   0.608  15.132  0.0818  0.9134  0.0291
 8110SOL    HW135963   3.019   0.514  15.146  0.1393  1.2077  1.9967
 8110SOL    HW235964   2.954   0.627  15.077 -0.1590 -0.5173 -0.1437
 8111SOL     OW35965   1.361   3.796  16.394 -0.5432  0.5050  0.8820
 8111SOL    HW135966   1.410   3.781  16.475  2.0612 -1.1845 -1.0090
 8111SOL    HW235967   1.384   3.888  16.381 -0.7795  0.6800  1.6729
 8112SOL     OW35968   0.378   1.150   1.138  0.4970 -0.7527 -0.1541
 8112SOL    HW135969   0.448   1.089   1.160 -2.5301 -3.1970  2.5643
 8112SOL    HW235970   0.294   1.112   1.162  0.5926 -1.2468 -0.5961
 8113SOL     OW35971   3.414   3.849   8.569  0.1205 -1.0540 -0.9217
 8113SOL    HW135972   3.342   3.880   8.626  0.0872 -1.7990 -0.5634
 8113SOL    HW235973   3.371   3.771   8.535  0.1683 -1.5071  0.0594
 8114SOL     OW35974   2.198   3.282   2.441  0.2559  0.4812 -0.1579
 8114SOL    HW135975   2.150   3.354   2.400  1.2906  0.0669 -2.0555
 8114SOL    HW235976   2.231   3.322   2.522  0.5592 -1.2212  0.5682
 8115SOL     OW35977   3.709   0.878   3.121 -0.2390 -0.7586 -1.6560
 8115SOL    HW135978   3.709   0.946   3.053  0.5182 -1.9776 -2.8727
 8115SOL    HW235979   3.787   0.824   3.125 -0.5461 -1.1699 -1.2086
 8116SOL     OW35980   3.568   4.193  17.009  0.2103  0.7191  0.0523
 8116SOL    HW135981   3.501   4.168  16.945  0.8916  0.7477 -0.6651
 8116SOL    HW235982   3.588   4.278  16.969 -0.2921  1.3829  1.1966
 8117SOL     OW35983   2.207   3.199   4.422 -0.0633 -0.0107  0.5621
 8117SOL    HW135984   2.187   3.284   4.383 -1.1752  0.5494  2.3226
 8117SOL    HW235985   2.125   3.188   4.471  1.0981 -2.1736  2.0382
 8118SOL     OW35986   3.619   4.342   9.054 -0.2676  0.0102  0.4375
 8118SOL    HW135987   3.707   4.346   9.090 -1.1749 -0.6767  2.7568
 8118SOL    HW235988   3.570   4.419   9.083 -0.6956  0.0263 -0.3117
 8119SOL     OW35989   1.098   2.648  11.184  0.3208  0.1315  0.1220
 8119SOL    HW135990   1.057   2.734  11.175 -1.6715 -0.8399 -0.1373
 8119SOL    HW235991   1.158   2.631  11.111 -1.0735  1.0543 -1.2198
 8120SOL     OW35992   0.015   0.282   4.117 -0.8693 -0.3583 -0.2601
 8120SOL    HW135993   0.095   0.232   4.136 -0.7014  0.6403  1.6968
 8120SOL    HW235994   0.043   0.313   4.030  1.4300 -0.7650  0.3411
 8121SOL     OW35995   3.071   4.285   6.302 -0.2184  0.1423 -0.0059
 8121SOL    HW135996   2.993   4.262   6.251  0.7993 -0.8644 -1.0933
 8121SOL    HW235997   3.038   4.330   6.380 -1.7488  0.7638 -1.0011
 8122SOL     OW35998   4.008   3.974  11.864  0.1940 -0.8770  0.1068
 8122SOL    HW135999   4.056   3.945  11.941 -0.3969 -1.4999  0.2454
 8122SOL    HW236000   3.980   3.889  11.829 -1.3689 -0.6287  0.7569
 8123SOL     OW36001   0.416   1.837   5.742 -0.0899  0.3167 -0.8213
 8123SOL    HW136002   0.387   1.828   5.651  2.2103  0.3040 -1.5445
 8123SOL    HW236003   0.504   1.799   5.744 -1.0103 -1.7309  1.5164
 8124SOL     OW36004   2.915   1.552   7.148 -0.2800 -0.0324 -0.6579
 8124SOL    HW136005   2.826   1.540   7.112 -1.3985  2.3155  1.3444
 8124SOL    HW236006   2.929   1.460   7.169 -0.5649  0.1815  0.4861
 8125SOL     OW36007   3.299   1.136  12.130 -0.2825 -0.0375 -0.1122
 8125SOL    HW136008   3.279   1.104  12.042  2.6675 -1.5491 -0.2375
 8125SOL    HW236009   3.217   1.177  12.159 -1.0659 -1.6495 -0.0089
 8126SOL     OW36010   1.538   2.108  16.898  0.0039  0.5540 -0.3671
 8126SOL    HW136011   1.605   2.072  16.840 -3.4912 -3.3031 -1.9626
 8126SOL    HW236012   1.475   2.152  16.840 -1.9412 -0.2458  1.1273
 8127SOL     OW36013   2.477   4.464   5.975  0.4404  0.3219 -0.2385
 8127SOL    HW136014   2.384   4.447   5.994  0.6412 -1.6913 -1.0239
 8127SOL    HW236015   2.512   4.378   5.952  0.1820  0.0777  0.2667
 8128SOL     OW36016   0.499   0.058   9.200 -0.3767 -0.1331 -0.9597
 8128SOL    HW136017   0.588   0.065   9.166 -0.7171 -1.1702 -2.1009
 8128SOL    HW236018   0.489   0.132   9.260  1.2536 -0.8073  0.1334
 8129SOL     OW36019   0.121   1.292  12.052  0.0473  0.4238  0.5404
 8129SOL    HW136020   0.171   1.308  11.972  0.0698 -3.1334 -0.1196
 8129SOL    HW236021   0.190   1.305  12.117 -0.5137 -1.2762  1.4732
 8130SOL     OW36022   2.043   2.161   6.801 -0.6721  0.4664 -0.1779
 8130SOL    HW136023   2.123   2.202   6.834 -1.1820 -0.2235  1.8814
 8130SOL    HW236024   2.072   2.070   6.815 -1.3505  0.0753 -1.2614
 8131SOL     OW36025   4.636   2.734  10.494  0.2575 -0.5439 -0.0548
 8131SOL    HW136026   4.675   2.740  10.581  1.7811 -0.5860 -0.7342
 8131SOL    HW236027   4.553   2.691  10.511  0.7538 -1.8894 -1.0650
 8132SOL     OW36028   0.309   1.434   8.719 -0.1774 -0.3419  0.0576
 8132SOL    HW136029   0.377   1.468   8.660 -1.4969  2.0155 -0.1068
 8132SOL    HW236030   0.294   1.342   8.696 -0.9503 -0.1410 -0.2537
 8133SOL     OW36031   2.643   1.035   0.408 -0.7210 -0.1964 -0.3806
 8133SOL    HW136032   2.702   1.074   0.472 -1.9598  0.3863  0.4059
 8133SOL    HW236033   2.687   1.071   0.330 -0.6399  0.7899  0.1165
 8134SOL     OW36034   0.752   0.769   7.029  0.2963 -0.1703  0.2750
 8134SOL    HW136035   0.703   0.744   6.951 -1.2680 -0.4599  1.3422
 8134SOL    HW236036   0.827   0.822   7.003 -0.2064  0.3611 -0.0781
 8135SOL     OW36037   4.407   1.214   8.443  0.2165  0.0808 -0.8199
 8135SOL    HW136038   4.363   1.215   8.527  0.0901 -1.3722 -0.8536
 8135SOL    HW236039   4.372   1.137   8.397 -0.1047 -0.5781  0.5327
 8136SOL     OW36040   3.044   1.907   0.141 -0.2183  0.1454 -0.3281
 8136SOL    HW136041   3.096   1.942   0.068  0.7691  3.0461  1.7658
 8136SOL    HW236042   2.980   1.853   0.095 -0.9748  0.6951  0.0825
 8137SOL     OW36043   2.599   1.898  15.141 -0.3821 -0.2736 -0.0659
 8137SOL    HW136044   2.624   1.816  15.100 -1.4673 -0.6667  0.0717
 8137SOL    HW236045   2.680   1.950  15.137 -0.2093 -0.4901  0.8219
 8138SOL     OW36046   2.640   1.485   3.133 -0.0134 -0.1367  0.7311
 8138SOL    HW136047   2.663   1.459   3.044 -0.3822 -0.3222  0.6920
 8138SOL    HW236048   2.631   1.578   3.112  0.1571 -0.3864 -0.4629
 8139SOL     OW36049   4.052   4.308   8.823  0.6518 -0.6103  0.4652
 8139SOL    HW136050   3.965   4.347   8.819  0.9565  0.0810  0.5229
 8139SOL    HW236051   4.042   4.238   8.759 -0.9376  0.1610 -0.1383
 8140SOL     OW36052   2.109   1.160   4.434  0.3762 -0.2581 -0.1787
 8140SOL    HW136053   2.147   1.194   4.515  2.5924  0.4887 -1.5442
 8140SOL    HW236054   2.079   1.077   4.470 -1.2582  0.6630  0.5934
 8141SOL     OW36055   1.904   3.030  15.610  0.0898 -0.0997 -0.2230
 8141SOL    HW136056   1.936   3.106  15.561  0.2896 -1.3499 -2.0226
 8141SOL    HW236057   1.811   3.055  15.609  0.4913  1.3931 -0.3924
 8142SOL     OW36058   4.232   3.264  12.240 -0.1524  0.2472 -0.4392
 8142SOL    HW136059   4.278   3.261  12.156 -2.9596  0.7200 -2.0040
 8142SOL    HW236060   4.145   3.241  12.207 -0.6869  1.3303  0.1866
 8143SOL     OW36061   1.570   3.226   6.954 -0.9482  0.7522 -0.4976
 8143SOL    HW136062   1.569   3.130   6.952  1.3949  0.7039  0.4205
 8143SOL    HW236063   1.652   3.240   6.907 -0.1130  0.9077  1.0066
 8144SOL     OW36064   2.309   4.257   7.559  0.2845  0.0244 -0.1647
 8144SOL    HW136065   2.318   4.248   7.464  2.2202 -0.2392  0.0400
 8144SOL    HW236066   2.315   4.167   7.591  1.5101  0.3605  0.5297
 8145SOL     OW36067   2.071   1.617   8.280  0.1409 -0.0727  0.4933
 8145SOL    HW136068   2.079   1.548   8.345 -1.2728 -1.0768 -0.4182
 8145SOL    HW236069   1.988   1.605   8.234  0.4819 -1.2758  0.2074
 8146SOL     OW36070   0.152   1.619   8.555 -0.0326 -0.5846  0.0242
 8146SOL    HW136071   0.119   1.530   8.539 -0.4914 -0.3853 -0.1579
 8146SOL    HW236072   0.075   1.676   8.559  0.8111  0.4585  1.1011
 8147SOL     OW36073   0.130   4.064   6.400  0.1838 -0.1825 -0.6137
 8147SOL    HW136074   0.148   3.970   6.397  0.7262 -0.1109  0.5186
 8147SOL    HW236075   0.082   4.083   6.319 -0.7359  1.0089  0.2123
 8148SOL     OW36076   0.524   3.243  12.443 -0.4237  0.0208 -0.4323
 8148SOL    HW136077   0.435   3.211  12.452 -0.6399  1.0651  1.1801
 8148SOL    HW236078   0.574   3.164  12.464 -1.5505 -0.1586  1.5406
 8149SOL     OW36079   2.061   4.298   6.381  0.0424  0.1270 -0.1794
 8149SOL    HW136080   2.092   4.207   6.385  1.7932  0.7130 -0.4336
 8149SOL    HW236081   2.010   4.290   6.301 -1.1829 -0.5676  0.6685
 8150SOL     OW36082   3.066   3.609   5.292 -0.1767  0.0195 -0.3178
 8150SOL    HW136083   3.151   3.649   5.312 -0.4160 -0.4891  1.7009
 8150SOL    HW236084   3.025   3.668   5.229 -2.1060 -0.9829  0.0191
 8151SOL     OW36085   4.330   0.664   4.486 -0.0452  0.5785 -0.0578
 8151SOL    HW136086   4.410   0.663   4.540 -0.7110 -1.3246  0.8984
 8151SOL    HW236087   4.375   0.656   4.401  1.4603 -0.9017  0.8667
 8152SOL     OW36088   1.816   2.971   7.421  0.3081 -0.0473 -0.0275
 8152SOL    HW136089   1.815   3.066   7.410 -0.2973  0.1064  1.2670
 8152SOL    HW236090   1.827   2.926   7.338  0.7726  1.4863 -0.7985
 8153SOL     OW36091   1.295   1.593   4.103 -0.0872 -0.0168  0.0674
 8153SOL    HW136092   1.221   1.537   4.123 -0.7646  0.9539  0.2650
 8153SOL    HW236093   1.246   1.675   4.106  1.4722  0.9406 -0.3949
 8154SOL     OW36094   2.523   4.088   4.331 -0.3392 -0.6749  1.3457
 8154SOL    HW136095   2.485   4.003   4.355 -0.9562 -1.2153 -1.4819
 8154SOL    HW236096   2.465   4.154   4.368  0.5694  0.2786  1.0457
 8155SOL     OW36097   1.672   4.094   5.021 -0.0272  0.1790 -0.5035
 8155SOL    HW136098   1.707   4.061   4.938  1.8838 -0.6044  0.6064
 8155SOL    HW236099   1.673   4.011   5.067  0.5267  0.1784 -0.5102
 8156SOL     OW36100   1.483   0.942   3.760  0.3027 -0.2957  0.4391
 8156SOL    HW136101   1.563   0.952   3.811 -1.2714  1.0072  2.6627
 8156SOL    HW236102   1.516   0.897   3.682 -1.3926 -0.4148 -0.2136
 8157SOL     OW36103   3.806   0.399   6.346  0.3528 -0.5746 -0.1631
 8157SOL    HW136104   3.888   0.436   6.380  0.6594  0.0091 -1.5272
 8157SOL    HW236105   3.810   0.307   6.373  2.1986 -0.1944  0.8229
 8158SOL     OW36106   3.086   3.922   9.437 -0.2082  1.0731  0.3103
 8158SOL    HW136107   3.016   3.907   9.502 -0.1063  0.3616  0.2623
 8158SOL    HW236108   3.048   3.965   9.361 -1.5672  0.5672  0.7026
 8159SOL     OW36109   2.439   3.713   3.670 -0.0988  0.1130  0.0440
 8159SOL    HW136110   2.402   3.799   3.649  0.1024  1.2498  4.3904
 8159SOL    HW236111   2.386   3.661   3.610 -0.6813 -0.2783  0.8963
 8160SOL     OW36112   4.645   3.193   1.052  0.5171 -0.1160  0.0921
 8160SOL    HW136113   4.659   3.100   1.033 -0.4464 -0.2771  0.1786
 8160SOL    HW236114   4.631   3.230   0.964  0.0293  0.3297  0.3568
 8161SOL     OW36115   0.323   2.204  10.572  0.3191 -0.4586  0.4129
 8161SOL    HW136116   0.330   2.236  10.482 -0.8354  2.2298  1.2668
 8161SOL    HW236117   0.397   2.246  10.615 -1.1029  1.6279  0.8148
 8162SOL     OW36118   1.405   0.695   3.993 -0.1349  0.1320 -0.6095
 8162SOL    HW136119   1.433   0.755   3.923  0.6043 -1.0418 -1.3386
 8162SOL    HW236120   1.409   0.755   4.067  1.1910 -2.5125  1.4463
 8163SOL     OW36121   1.447   0.438   3.637  0.3771 -0.6306  0.1458
 8163SOL    HW136122   1.376   0.414   3.696 -0.7051  3.3689  0.5009
 8163SOL    HW236123   1.499   0.358   3.643 -1.3239 -1.6082  1.6594
 8164SOL     OW36124   0.468   2.342   6.521  0.4792 -0.2745  0.2280
 8164SOL    HW136125   0.395   2.389   6.480  0.4068 -2.2312 -1.8654
 8164SOL    HW236126   0.507   2.301   6.444  0.1623 -1.1459  0.5218
 8165SOL     OW36127   1.816   3.476   1.953 -0.0687 -0.3799  0.0494
 8165SOL    HW136128   1.846   3.472   1.862 -0.1798  1.6248 -0.0709
 8165SOL    HW236129   1.820   3.387   1.987 -1.5615 -1.6198 -3.0355
 8166SOL     OW36130   0.101   1.476   0.875 -0.1344  0.2049  0.3040
 8166SOL    HW136131   0.159   1.546   0.845  1.9759 -1.5472  0.2890
 8166SOL    HW236132   0.170   1.410   0.871  2.3112  2.6310  2.0776
 8167SOL     OW36133   3.879   4.625  10.215  0.4364  0.1709  0.0193
 8167SOL    HW136134   3.843   4.621  10.304  1.3479  0.6236  0.4103
 8167SOL    HW236135   3.954   4.685  10.221 -0.2636  0.9679  0.7315
 8168SOL     OW36136   3.506   1.000   4.903 -0.0510 -0.2709  0.2054
 8168SOL    HW136137   3.593   0.983   4.865  1.0672  0.4027  2.4436
 8168SOL    HW236138   3.514   0.938   4.976 -0.7910 -0.2234  0.3191
 8169SOL     OW36139   3.519   0.384  12.559  0.1455 -0.2998  0.1386
 8169SOL    HW136140   3.585   0.429  12.612 -1.2620  1.7448  0.1308
 8169SOL    HW236141   3.507   0.450  12.491  0.0769  0.6692  1.0956
 8170SOL     OW36142   0.171   3.157  16.757  0.4204 -0.1081  0.0046
 8170SOL    HW136143   0.177   3.227  16.823  2.2564  0.2501 -0.5497
 8170SOL    HW236144   0.149   3.204  16.676 -0.6384 -1.3831 -0.4412
 8171SOL     OW36145   4.059   1.271  15.917 -0.0403 -0.1621 -0.1324
 8171SOL    HW136146   4.018   1.355  15.897 -0.1008 -0.3512 -0.8008
 8171SOL    HW236147   4.085   1.252  15.827 -0.3906  1.4759 -0.5886
 8172SOL     OW36148   2.505   2.419   2.674 -0.2763  0.2413  0.2733
 8172SOL    HW136149   2.511   2.341   2.730 -1.7218  1.8746  2.6857
 8172SOL    HW236150   2.416   2.454   2.679 -0.6475 -0.7813  0.9351
 8173SOL     OW36151   3.047   4.524  16.701 -0.1694 -0.0503 -0.2343
 8173SOL    HW136152   2.998   4.605  16.713  1.7415  1.1558 -0.4846
 8173SOL    HW236153   3.106   4.540  16.627  0.7080 -2.3132 -0.0348
 8174SOL     OW36154   1.841   0.290  10.585 -0.2493  0.4374  0.1945
 8174SOL    HW136155   1.925   0.334  10.577  0.3606 -0.9726 -1.1948
 8174SOL    HW236156   1.786   0.362  10.554 -1.1641 -1.2229 -2.0535
 8175SOL     OW36157   0.457   4.025   3.327 -0.4505  0.5025  0.0865
 8175SOL    HW136158   0.546   4.056   3.309 -0.6003  0.6845 -0.3332
 8175SOL    HW236159   0.420   4.016   3.240 -0.9691 -0.5063  0.4187
 8176SOL     OW36160   4.440   3.810   2.320 -0.7668 -0.1905  0.2319
 8176SOL    HW136161   4.409   3.741   2.261  0.0969 -1.4231  1.2223
 8176SOL    HW236162   4.525   3.773   2.346 -0.5910  0.7691  0.9998
 8177SOL     OW36163   4.423   0.818  11.675  0.1559  0.0470  1.0333
 8177SOL    HW136164   4.482   0.757  11.719  0.4970  0.5881  1.3202
 8177SOL    HW236165   4.389   0.859  11.754  2.2966  3.0710  0.4003
 8178SOL     OW36166   2.080   3.893   7.043  0.0161 -0.2542 -0.0698
 8178SOL    HW136167   2.174   3.911   7.039  0.0441 -0.0652  1.8950
 8178SOL    HW236168   2.050   3.980   7.070  2.5062  0.1106  1.4567
 8179SOL     OW36169   4.714   1.065   7.047 -0.1515  0.1750 -0.0644
 8179SOL    HW136170   4.654   0.997   7.080 -2.9077  2.4546 -0.4305
 8179SOL    HW236171   4.670   1.086   6.965 -0.9378  0.7882  0.5182
 8180SOL     OW36172   4.334   1.798   0.504  0.1975  0.2886 -0.0007
 8180SOL    HW136173   4.422   1.834   0.519 -0.0134  0.8353 -0.0893
 8180SOL    HW236174   4.295   1.864   0.448  1.8337 -0.1459 -1.6398
 8181SOL     OW36175   3.735   0.778  15.212 -0.0110 -0.2599 -0.1026
 8181SOL    HW136176   3.699   0.797  15.125  1.8739 -1.2718 -1.1041
 8181SOL    HW236177   3.689   0.846  15.262 -0.0624 -0.7072  0.4513
 8182SOL     OW36178   1.660   3.210   7.885 -0.2112 -0.1580 -0.5698
 8182SOL    HW136179   1.649   3.168   7.799 -0.7405  0.8128 -0.9755
 8182SOL    HW236180   1.687   3.144   7.948 -0.7663  1.4805  1.3727
 8183SOL     OW36181   2.352   1.935   8.393  0.3762 -0.3913 -0.5657
 8183SOL    HW136182   2.319   1.880   8.321  0.0230  0.3389 -0.9611
 8183SOL    HW236183   2.444   1.932   8.366  0.5630  1.6305 -0.1288
 8184SOL     OW36184   3.884   1.378   8.007 -0.4659  0.5069 -0.2058
 8184SOL    HW136185   3.859   1.401   8.096  0.9947 -1.1626  0.6401
 8184SOL    HW236186   3.979   1.375   8.012 -0.4561 -1.0919 -1.2156
 8185SOL     OW36187   0.883   2.458   4.458  0.0368 -0.5255 -0.0142
 8185SOL    HW136188   0.957   2.431   4.514  0.1322  2.6994  1.4166
 8185SOL    HW236189   0.902   2.552   4.468  0.2439 -0.7274  1.5633
 8186SOL     OW36190   1.900   3.777  14.653 -0.6050 -0.5163  0.3104
 8186SOL    HW136191   1.902   3.767  14.557 -1.5672 -1.3349  0.3729
 8186SOL    HW236192   1.962   3.850  14.649 -2.5388  1.0624 -1.2269
 8187SOL     OW36193   2.127   2.014   0.567  0.4222  0.0556 -0.0816
 8187SOL    HW136194   2.143   2.052   0.481 -2.5405 -1.2896 -1.2164
 8187SOL    HW236195   2.144   1.920   0.556  0.6635 -0.1188  1.6511
 8188SOL     OW36196   0.764   1.647   6.519 -0.6704  0.3635  0.3403
 8188SOL    HW136197   0.846   1.605   6.547  0.0221  1.8040  0.4741
 8188SOL    HW236198   0.705   1.629   6.591  1.0151 -1.8514  1.1545
 8189SOL     OW36199   0.051   0.885  11.797  0.2911  0.3146 -1.0495
 8189SOL    HW136200   0.137   0.913  11.767  0.8369 -0.2646 -0.0579
 8189SOL    HW236201   4.737   0.961  11.770 -0.8139 -1.0044 -2.6405
 8190SOL     OW36202   2.118   0.947   7.902  0.4022 -0.2524  0.4338
 8190SOL    HW136203   2.087   0.860   7.878  1.7017 -0.6800  0.3015
 8190SOL    HW236204   2.175   0.959   7.826 -1.9795  2.1389 -1.0237
 8191SOL     OW36205   2.206   0.638   2.086 -0.7653  0.0721 -0.5647
 8191SOL    HW136206   2.208   0.592   2.170 -1.6852 -2.1013 -1.7586
 8191SOL    HW236207   2.297   0.667   2.084 -0.1342 -2.2779 -3.8655
 8192SOL     OW36208   2.768   2.099   1.528 -0.0310  0.5978  0.0551
 8192SOL    HW136209   2.677   2.074   1.509  0.4910  0.1841 -1.9402
 8192SOL    HW236210   2.809   2.083   1.443 -2.1169 -0.8243 -0.6716
 8193SOL     OW36211   1.991   1.007   4.926 -0.1414 -0.8263  0.2026
 8193SOL    HW136212   2.018   1.095   4.956  1.5811 -1.0628 -0.6343
 8193SOL    HW236213   2.072   0.957   4.940  1.7700  1.7613 -1.5094
 8194SOL     OW36214   3.232   1.501   3.177  0.2948  0.1585  0.0699
 8194SOL    HW136215   3.256   1.409   3.174 -0.3645 -0.0821  2.1449
 8194SOL    HW236216   3.247   1.529   3.086  1.4806 -1.7743 -0.3158
 8195SOL     OW36217   4.510   1.937   7.491  0.4214  0.5421  0.0620
 8195SOL    HW136218   4.557   1.997   7.550  0.7953  0.4260 -0.1162
 8195SOL    HW236219   4.435   1.987   7.458 -0.3508  1.6314  3.4698
 8196SOL     OW36220   0.291   3.706  11.901  0.4070  0.1996  0.5866
 8196SOL    HW136221   0.383   3.696  11.877 -0.3407 -1.4233 -1.5556
 8196SOL    HW236222   0.249   3.627  11.868 -1.3312  1.6083 -0.5527
 8197SOL     OW36223   4.400   0.102   1.516 -0.1731  0.1873 -0.2382
 8197SOL    HW136224   4.465   0.036   1.494 -0.7070 -0.0811 -0.9945
 8197SOL    HW236225   4.341   0.062   1.580 -0.6913  1.9244  0.3723
 8198SOL     OW36226   2.326   0.167  14.339 -0.4028  0.1878  0.3541
 8198SOL    HW136227   2.325   0.168  14.243  0.2660  0.6522  0.3535
 8198SOL    HW236228   2.318   0.073  14.356  0.3552  0.1567  0.5673
 8199SOL     OW36229   4.313   4.139   0.375 -0.0217 -0.2187  0.2411
 8199SOL    HW136230   4.265   4.222   0.372 -0.6386 -0.6255 -1.1722
 8199SOL    HW236231   4.273   4.098   0.452  0.7171 -0.6693  0.3771
 8200SOL     OW36232   4.563   1.644   7.772  0.6101  0.4109 -0.0064
 8200SOL    HW136233   4.659   1.650   7.768  0.6577 -0.1544  0.3690
 8200SOL    HW236234   4.529   1.716   7.825 -0.7417  0.0471 -0.3711
 8201SOL     OW36235   4.361   4.295  15.045 -0.4290  0.0120  0.3653
 8201SOL    HW136236   4.362   4.202  15.026  2.2089  0.1621 -0.1733
 8201SOL    HW236237   4.434   4.299  15.106 -0.1832  0.5559  0.0467
 8202SOL     OW36238   3.956   3.829   0.180 -0.3590  0.0459  0.8311
 8202SOL    HW136239   3.899   3.817   0.255 -1.2579  1.0277  0.2999
 8202SOL    HW236240   4.034   3.775   0.194  0.9247  1.3845 -0.9727
 8203SOL     OW36241   1.847   3.307   0.230 -0.3380 -0.1411 -0.1600
 8203SOL    HW136242   1.762   3.270   0.204 -1.8138  1.5855  2.0986
 8203SOL    HW236243   1.890   3.336   0.150  0.5615 -0.4964  0.2012
 8204SOL     OW36244   1.115   1.151  17.590 -0.7148 -0.1869 -0.1577
 8204SOL    HW136245   1.146   1.177  17.503  1.4746  2.2449  1.3495
 8204SOL    HW236246   1.094   1.058  17.580  2.2079 -0.8951  0.4060
 8205SOL     OW36247   2.649   1.087   4.986  0.1111  0.2095  0.0424
 8205SOL    HW136248   2.610   1.174   4.996 -0.7353  0.0843 -2.2546
 8205SOL    HW236249   2.710   1.084   4.912  0.3637  0.3138  0.2459
 8206SOL     OW36250   2.032   1.578  11.299 -0.7406  0.1112 -0.2161
 8206SOL    HW136251   2.007   1.638  11.229  1.0101  0.7040 -0.3312
 8206SOL    HW236252   1.943   1.554  11.325 -0.5425 -3.1629 -2.6626
 8207SOL     OW36253   1.496   2.403  16.526  0.0402  0.0183 -0.2329
 8207SOL    HW136254   1.578   2.438  16.490 -0.6223  2.3130  0.5014
 8207SOL    HW236255   1.431   2.461  16.485  0.6816  3.3088  3.4017
 8208SOL     OW36256   0.719   1.997  15.533 -0.3602  0.4091 -0.1169
 8208SOL    HW136257   0.719   1.903  15.517  0.7027  0.7557 -2.2272
 8208SOL    HW236258   0.642   2.011  15.589  0.8937 -0.1587  1.7336
 8209SOL     OW36259   4.634   1.825   9.302  0.1923 -0.1812  0.4267
 8209SOL    HW136260   4.630   1.851   9.210 -0.3347  2.8468  1.3158
 8209SOL    HW236261   4.552   1.859   9.337 -0.8007 -1.2842 -0.7872
 8210SOL     OW36262   4.435   0.055   6.548  0.1142  0.4867 -0.1542
 8210SOL    HW136263   4.502   0.092   6.491 -0.8429  0.8901 -1.0035
 8210SOL    HW236264   4.481   4.710   6.565 -0.5590  0.1623  0.0860
 8211SOL     OW36265   2.653   2.654   3.890  0.2620 -0.4677  0.0891
 8211SOL    HW136266   2.558   2.650   3.891  0.3534 -2.4630 -0.0529
 8211SOL    HW236267   2.667   2.560   3.881 -1.4747 -0.9210  2.1394
 8212SOL     OW36268   4.442   2.830   5.232 -0.5680 -0.2533 -0.1452
 8212SOL    HW136269   4.433   2.740   5.200 -0.6877 -0.1155 -0.5009
 8212SOL    HW236270   4.352   2.859   5.240 -0.6266 -1.5069  3.4300
 8213SOL     OW36271   0.345   1.346   7.831 -0.0907  0.2118  0.1094
 8213SOL    HW136272   0.411   1.299   7.882 -1.4847  0.6090  2.2716
 8213SOL    HW236273   0.286   1.271   7.823 -1.3895  1.5885 -2.9163
 8214SOL     OW36274   4.258   1.201   2.488 -0.1613 -0.0359  0.1147
 8214SOL    HW136275   4.254   1.142   2.413 -0.5693  1.2913 -0.8820
 8214SOL    HW236276   4.346   1.235   2.475  0.3086 -1.3311 -0.0798
 8215SOL     OW36277   0.930   1.522   9.449  0.2385 -0.7025 -0.2326
 8215SOL    HW136278   0.935   1.515   9.545 -0.4016 -0.0748 -0.1559
 8215SOL    HW236279   0.896   1.434   9.434  1.0135 -0.9620 -0.4795
 8216SOL     OW36280   2.924   3.498   5.830 -0.0523  0.0935  0.5942
 8216SOL    HW136281   3.008   3.496   5.785 -0.6862 -2.6727 -0.4779
 8216SOL    HW236282   2.866   3.454   5.768 -2.9988  1.3896  2.4112
 8217SOL     OW36283   4.324   0.441  16.265  0.1225  0.3839  0.4860
 8217SOL    HW136284   4.272   0.504  16.315 -1.5465 -1.3426  0.9251
 8217SOL    HW236285   4.414   0.472  16.271 -0.4381  2.0003  0.4484
 8218SOL     OW36286   0.636   4.436  16.374 -0.1572  0.1998  0.3881
 8218SOL    HW136287   0.688   4.513  16.350 -0.9944  0.1730 -1.4698
 8218SOL    HW236288   0.711   4.378  16.383  0.1604  0.5216 -0.2212
 8219SOL     OW36289   2.609   0.684   1.822 -0.1499 -0.4363  0.2010
 8219SOL    HW136290   2.700   0.698   1.794  0.4070 -1.0857  1.7142
 8219SOL    HW236291   2.588   0.600   1.779 -1.1304 -0.0147 -0.1461
 8220SOL     OW36292   3.523   4.548   2.518 -0.9197 -0.7005  0.0831
 8220SOL    HW136293   3.536   4.537   2.424 -2.1357  1.4892 -0.3486
 8220SOL    HW236294   3.438   4.587   2.539 -2.0322 -2.0713 -1.8732
 8221SOL     OW36295   0.409   0.349   4.976  0.2821 -0.2449  0.1999
 8221SOL    HW136296   0.464   0.407   5.028  0.4334 -1.0065  0.8898
 8221SOL    HW236297   0.325   0.395   4.971  0.2307 -0.2324  1.1926
 8222SOL     OW36298   3.939   0.078   4.143 -0.2174  0.4927  0.7877
 8222SOL    HW136299   3.967   0.013   4.207 -0.6284 -0.9116 -0.4694
 8222SOL    HW236300   3.867   0.041   4.092 -0.4136  0.1374  1.3203
 8223SOL     OW36301   4.317   2.707   6.786 -0.7792  0.4262 -0.0019
 8223SOL    HW136302   4.387   2.654   6.824 -0.1450  0.1037 -1.5920
 8223SOL    HW236303   4.307   2.657   6.705 -3.4018  0.3061  0.4064
 8224SOL     OW36304   1.647   0.680   5.751 -0.1463  0.5981 -0.8762
 8224SOL    HW136305   1.714   0.612   5.755 -1.4115 -0.6060 -0.0950
 8224SOL    HW236306   1.593   0.658   5.675  2.0666  0.6512 -2.4698
 8225SOL     OW36307   3.034   0.224   4.234  0.0607 -0.1381  0.1865
 8225SOL    HW136308   2.959   0.276   4.207  0.5731  1.0220  0.9630
 8225SOL    HW236309   3.098   0.296   4.238 -1.4030  1.2812 -1.9265
 8226SOL     OW36310   2.308   0.462   6.586  0.2090  0.9562 -0.6864
 8226SOL    HW136311   2.230   0.511   6.558  0.8053  2.4175  0.1924
 8226SOL    HW236312   2.319   0.411   6.506 -2.9789  0.6740 -0.9487
 8227SOL     OW36313   1.329   1.256  14.688 -0.2158  0.5318  0.1336
 8227SOL    HW136314   1.402   1.271  14.628 -0.3016 -1.1780 -0.4028
 8227SOL    HW236315   1.378   1.263  14.770  1.6158 -1.1865 -0.8207
 8228SOL     OW36316   1.777   1.141   0.540 -0.0729  0.0802 -0.5026
 8228SOL    HW136317   1.766   1.116   0.631 -0.5485  1.7857 -0.0806
 8228SOL    HW236318   1.689   1.160   0.506  0.2826 -0.4756 -1.7414
 8229SOL     OW36319   3.609   1.735   7.486  0.3825 -1.0354 -0.8878
 8229SOL    HW136320   3.524   1.778   7.495  0.0262 -1.9023 -0.0615
 8229SOL    HW236321   3.585   1.642   7.490 -0.3740 -0.8524 -1.1382
 8230SOL     OW36322   1.259   0.528  13.048 -0.9331  0.5535  0.1009
 8230SOL    HW136323   1.335   0.476  13.021 -0.9790  1.5260 -1.8979
 8230SOL    HW236324   1.268   0.535  13.143 -4.1479  1.3459  0.3323
 8231SOL     OW36325   4.349   0.559   5.727 -0.3948 -0.3725 -0.7381
 8231SOL    HW136326   4.408   0.546   5.801 -0.9062  2.1991  0.1144
 8231SOL    HW236327   4.403   0.527   5.654 -0.5038 -2.8910  0.2935
 8232SOL     OW36328   4.532   4.441   4.378 -0.2566  0.6280  0.3300
 8232SOL    HW136329   4.452   4.388   4.373  0.3595 -0.0513 -2.5185
 8232SOL    HW236330   4.542   4.442   4.473  1.7924  0.3226  0.1203
 8233SOL     OW36331   1.968   3.602   6.046  0.3230  0.3916  0.4211
 8233SOL    HW136332   1.964   3.534   6.113  1.0630 -1.4529 -1.3913
 8233SOL    HW236333   2.055   3.580   6.014 -0.2353 -1.0590 -0.1119
 8234SOL     OW36334   4.274   3.048   2.826 -0.5918 -0.3508  0.3619
 8234SOL    HW136335   4.255   3.112   2.895 -0.5876  0.5014 -0.4263
 8234SOL    HW236336   4.325   3.112   2.776 -0.4599 -0.5357  0.2586
 8235SOL     OW36337   4.090   3.240   6.553  0.1715 -0.9942 -0.2221
 8235SOL    HW136338   4.033   3.198   6.618 -0.4618  0.9571  0.4880
 8235SOL    HW236339   4.044   3.224   6.471  1.1248  0.8513 -1.1253
 8236SOL     OW36340   3.622   1.207   0.960 -0.3160  0.3704 -0.5081
 8236SOL    HW136341   3.673   1.206   1.041 -1.4279  3.6002  0.2399
 8236SOL    HW236342   3.643   1.292   0.921  1.0582 -0.1984 -1.0039
 8237SOL     OW36343   3.667   3.893   8.765 -0.2807 -0.0841 -0.2969
 8237SOL    HW136344   3.661   3.915   8.858  0.2124  0.6692 -0.4452
 8237SOL    HW236345   3.577   3.868   8.745 -0.0503 -0.6480 -0.6304
 8238SOL     OW36346   4.572   2.359  13.357  0.2314  0.1343 -0.1326
 8238SOL    HW136347   4.586   2.360  13.262 -2.2820 -1.8170 -0.5060
 8238SOL    HW236348   4.535   2.446  13.368 -1.6993 -0.8596  1.2634
 8239SOL     OW36349   2.261   1.693   6.979  0.0668 -0.0942 -0.2244
 8239SOL    HW136350   2.201   1.649   6.919  0.8039 -3.1401  1.2877
 8239SOL    HW236351   2.348   1.673   6.944 -0.2772 -1.9111 -0.0633
 8240SOL     OW36352   1.857   2.576  16.518  0.6833  0.3331  0.2492
 8240SOL    HW136353   1.884   2.490  16.549 -2.0917 -0.5252  0.2148
 8240SOL    HW236354   1.860   2.619  16.603  0.1886  1.2725 -0.2073
 8241SOL     OW36355   3.305   4.165   9.279  0.0825  0.0044 -0.8870
 8241SOL    HW136356   3.354   4.154   9.197  0.2139  0.1329 -0.8255
 8241SOL    HW236357   3.342   4.102   9.340 -2.6483  0.4560  1.2837
 8242SOL     OW36358   0.629   0.891   8.470 -0.1874 -0.8125  0.2518
 8242SOL    HW136359   0.661   0.804   8.491  1.3510  0.0493  1.5187
 8242SOL    HW236360   0.697   0.913   8.407 -2.5406 -2.2150 -2.8214
 8243SOL     OW36361   1.516   3.487  12.490  0.9057 -0.3664  0.0674
 8243SOL    HW136362   1.475   3.558  12.538 -0.4624  0.0458 -1.7419
 8243SOL    HW236363   1.524   3.531  12.405  0.3419  1.8397  1.1644
 8244SOL     OW36364   3.487   1.486   6.545 -0.0841 -0.4921 -0.4741
 8244SOL    HW136365   3.560   1.467   6.485  1.4282  0.4152  1.0778
 8244SOL    HW236366   3.438   1.541   6.484 -0.5784  0.1159  0.4778
 8245SOL     OW36367   0.860   0.241  15.696  0.0698  0.0585  0.7184
 8245SOL    HW136368   0.766   0.243  15.711  0.0144 -1.1705  0.5258
 8245SOL    HW236369   0.862   0.167  15.634  0.8787 -0.0051  0.8147
 8246SOL     OW36370   2.503   4.404   1.326  0.2087  0.0621  0.1837
 8246SOL    HW136371   2.510   4.330   1.386 -0.3617 -0.1054  0.0395
 8246SOL    HW236372   2.551   4.469   1.378  0.2416  0.3024 -0.1481
 8247SOL     OW36373   3.572   2.996  13.334  0.1985  0.3879  0.1075
 8247SOL    HW136374   3.527   2.949  13.404 -1.7597  2.8164  0.4575
 8247SOL    HW236375   3.592   3.080  13.376 -1.9061  1.1558 -0.4317
 8248SOL     OW36376   3.523   2.743   2.750 -0.4246  0.7722 -0.6472
 8248SOL    HW136377   3.577   2.816   2.720 -0.8010  1.0298 -0.6994
 8248SOL    HW236378   3.436   2.781   2.763 -1.6234 -2.9473  2.1967
 8249SOL     OW36379   2.632   4.433   3.773  0.1070 -0.2329 -0.2170
 8249SOL    HW136380   2.670   4.396   3.852  0.9479 -0.1274 -0.5649
 8249SOL    HW236381   2.716   4.444   3.727  0.0364  0.1396 -0.2600
 8250SOL     OW36382   0.186   0.488   4.644  0.3147 -0.0062 -0.9979
 8250SOL    HW136383   0.271   0.443   4.650 -0.5430 -1.6855 -1.6360
 8250SOL    HW236384   0.190   0.520   4.734 -2.7526  2.0522 -1.6195
 8251SOL     OW36385   2.868   0.676   4.465  0.5915 -0.0671  0.2795
 8251SOL    HW136386   2.955   0.660   4.430  0.6668 -0.6758  0.7335
 8251SOL    HW236387   2.869   0.768   4.493 -0.1548 -0.1244  0.5014
 8252SOL     OW36388   2.141   2.960  12.046  0.4184 -0.1827  0.5123
 8252SOL    HW136389   2.217   2.943  11.990  0.0046  2.3942 -0.8294
 8252SOL    HW236390   2.089   2.882  12.025 -1.5169  0.5069  2.8033
 8253SOL     OW36391   0.144   0.777   0.643 -0.7840 -0.6802  0.6378
 8253SOL    HW136392   0.234   0.750   0.663 -0.6304  0.6016  1.7108
 8253SOL    HW236393   0.141   0.757   0.550 -2.6899  1.9473  0.1278
 8254SOL     OW36394   1.109   0.061   7.485 -0.0430 -0.2728  0.2558
 8254SOL    HW136395   1.117   0.064   7.580  1.1755  0.2596  0.1373
 8254SOL    HW236396   1.198   0.054   7.452  0.0770 -2.7382  1.0599
 8255SOL     OW36397   3.181   0.304  10.321  0.6766  0.4235 -0.2413
 8255SOL    HW136398   3.148   0.318  10.409 -0.0501 -0.6314 -0.3387
 8255SOL    HW236399   3.204   0.211  10.323  2.4359  0.8530 -0.8868
 8256SOL     OW36400   2.024   2.693   3.993  0.2287  0.0982 -0.1622
 8256SOL    HW136401   1.931   2.674   4.006  0.1725 -0.2504 -1.0913
 8256SOL    HW236402   2.037   2.782   4.027  3.0824  0.1665 -1.4474
 8257SOL     OW36403   0.720   0.085   2.234  0.2935  0.4720 -0.1035
 8257SOL    HW136404   0.675   0.129   2.162  0.0795 -0.7025 -0.6947
 8257SOL    HW236405   0.807   0.084   2.194  1.5970  1.5356  2.7034
 8258SOL     OW36406   4.671   1.081   4.462  0.5622  0.1760 -0.2093
 8258SOL    HW136407   4.638   1.013   4.520 -2.7850  1.7033 -0.3373
 8258SOL    HW236408   4.651   1.154   4.521  0.6738 -2.4723  3.0796
 8259SOL     OW36409   0.889   1.138   6.272 -0.7235  0.2525 -0.4174
 8259SOL    HW136410   0.808   1.088   6.281 -0.1057 -0.2404  2.2898
 8259SOL    HW236411   0.883   1.195   6.349 -1.3221 -0.5845  0.1535
 8260SOL     OW36412   4.480   3.678   5.632  0.1919 -0.0775 -0.1478
 8260SOL    HW136413   4.529   3.603   5.666 -0.2183  0.2058  1.0690
 8260SOL    HW236414   4.541   3.748   5.653  0.4554 -0.1408 -0.7102
 8261SOL     OW36415   3.063   1.794   5.424 -0.4015 -0.2768 -0.1109
 8261SOL    HW136416   3.036   1.842   5.345  1.0945  1.4057  0.4032
 8261SOL    HW236417   2.985   1.785   5.479  0.4674 -2.0703  0.8025
 8262SOL     OW36418   2.658   3.099  15.101  0.5764 -0.1022 -0.1984
 8262SOL    HW136419   2.637   3.192  15.106 -0.3455 -0.1796 -2.5780
 8262SOL    HW236420   2.573   3.057  15.110  0.8300 -0.5187  0.2839
 8263SOL     OW36421   1.249   4.366   1.441 -0.1569  0.3139 -0.4314
 8263SOL    HW136422   1.236   4.374   1.346 -1.9578  0.3301 -0.1753
 8263SOL    HW236423   1.162   4.389   1.473 -0.6919 -1.0571 -0.9081
 8264SOL     OW36424   3.792   3.699  10.238 -0.0037  0.7676  0.0739
 8264SOL    HW136425   3.789   3.628  10.303 -0.0266 -0.8721 -1.7038
 8264SOL    HW236426   3.846   3.760  10.287 -0.2290 -1.1716  2.7586
 8265SOL     OW36427   3.783   1.956   2.011 -0.0430 -0.4317 -0.4572
 8265SOL    HW136428   3.762   1.880   1.958 -0.3245 -0.2662 -0.5838
 8265SOL    HW236429   3.774   2.033   1.955 -0.5721 -1.2701 -1.5143
 8266SOL     OW36430   0.570   4.214  16.536 -0.1084 -0.4229  0.4873
 8266SOL    HW136431   0.541   4.285  16.479 -1.1895 -0.8713  0.4858
 8266SOL    HW236432   0.661   4.241  16.550  0.1314 -0.9472 -0.0444
 8267SOL     OW36433   0.189   2.474   7.287 -0.1955  0.2819  0.5981
 8267SOL    HW136434   0.196   2.378   7.286 -3.4709  0.0304  2.3299
 8267SOL    HW236435   0.168   2.504   7.198 -0.5138 -2.8768 -0.3957
 8268SOL     OW36436   3.625   3.454   5.906  0.3124 -0.1695 -0.4380
 8268SOL    HW136437   3.548   3.443   5.851 -0.5563  0.3549  0.6619
 8268SOL    HW236438   3.697   3.428   5.849 -0.3402 -1.0666 -0.8384
 8269SOL     OW36439   3.990   3.583   2.869  0.9082 -0.6692  0.7750
 8269SOL    HW136440   3.948   3.531   2.801 -0.6871  1.9077 -0.2006
 8269SOL    HW236441   4.056   3.624   2.812  0.4753 -1.1844 -0.0999
 8270SOL     OW36442   1.285   1.688   6.120 -0.1566  0.1592 -0.2103
 8270SOL    HW136443   1.330   1.611   6.085 -0.8308  0.1160 -0.9832
 8270SOL    HW236444   1.201   1.692   6.074 -0.5875  2.1892  0.7507
 8271SOL     OW36445   0.059   0.480  12.366  0.4739  0.5172 -0.2067
 8271SOL    HW136446   0.141   0.443  12.400  0.3054  0.2756 -0.0649
 8271SOL    HW236447   0.082   0.567  12.334  1.9162  0.0160 -0.5421
 8272SOL     OW36448   2.885   4.491   7.176 -0.4407 -0.3212 -0.2822
 8272SOL    HW136449   2.913   4.547   7.249  0.7316 -0.7721 -0.3810
 8272SOL    HW236450   2.963   4.471   7.124 -0.7546 -1.8194 -0.1799
 8273SOL     OW36451   3.662   1.585   8.218 -0.2602 -0.1669  0.1094
 8273SOL    HW136452   3.704   1.529   8.284 -0.5170  1.1981  1.4284
 8273SOL    HW236453   3.736   1.623   8.170 -0.0253  0.5181  1.0144
 8274SOL     OW36454   2.815   3.863   7.676  0.5294  0.6199  0.7640
 8274SOL    HW136455   2.851   3.925   7.612 -1.3119  0.7786 -0.1264
 8274SOL    HW236456   2.728   3.900   7.688 -0.2067 -0.9536  0.2510
 8275SOL     OW36457   0.399   1.534   0.115 -0.1514  0.3104  0.0550
 8275SOL    HW136458   0.359   1.458   0.156  0.0184 -0.9983 -2.1823
 8275SOL    HW236459   0.491   1.525   0.142 -0.6433  0.4888  1.7664
 8276SOL     OW36460   1.881   2.230   6.402 -0.3416  0.0365  0.1288
 8276SOL    HW136461   1.869   2.136   6.387 -2.5282  0.1847  0.9763
 8276SOL    HW236462   1.976   2.241   6.405 -0.3770  0.2073  0.6737
 8277SOL     OW36463   1.239   2.213   4.759 -0.1103  0.2775 -0.8911
 8277SOL    HW136464   1.172   2.200   4.825 -0.0805 -0.0477 -0.9227
 8277SOL    HW236465   1.298   2.270   4.808  0.2888 -0.3100 -0.6790
 8278SOL     OW36466   3.559   4.684   3.424  0.1127  0.1033  0.0440
 8278SOL    HW136467   3.642   4.635   3.426  0.7917  1.2106 -0.7439
 8278SOL    HW236468   3.504   4.610   3.447  0.3328  0.1956  0.8583
 8279SOL     OW36469   4.088   3.501   3.874 -0.5840 -0.7979 -0.0532
 8279SOL    HW136470   4.134   3.436   3.926  1.4652 -0.2386 -1.1402
 8279SOL    HW236471   4.152   3.519   3.805 -2.3180 -0.5707 -1.6252
 8280SOL     OW36472   2.614   2.565  16.432  0.5190  0.2645  0.4497
 8280SOL    HW136473   2.652   2.556  16.520  0.6032  0.0143  0.3867
 8280SOL    HW236474   2.597   2.472  16.418  0.1910  0.1972  1.2800
 8281SOL     OW36475   4.034   2.872   7.338 -0.2345 -0.2481  0.4999
 8281SOL    HW136476   4.044   2.921   7.257 -0.0088 -0.1539  0.5840
 8281SOL    HW236477   4.110   2.814   7.336 -0.7131 -0.8667  0.0382
 8282SOL     OW36478   0.863   4.270   9.931  0.7748 -0.2277 -0.0470
 8282SOL    HW136479   0.889   4.348   9.883 -0.1565  0.7456  1.0081
 8282SOL    HW236480   0.942   4.220   9.953  0.1518 -0.5893  1.3918
 8283SOL     OW36481   4.618   4.556   2.665  0.5983 -0.2364 -0.5117
 8283SOL    HW136482   4.595   4.564   2.573  0.2634  0.3728 -0.3760
 8283SOL    HW236483   4.713   4.570   2.665  0.3791  1.3023 -0.5172
 8284SOL     OW36484   2.218   2.580   9.878  0.1474  0.4339 -0.1968
 8284SOL    HW136485   2.271   2.655   9.907 -2.6789  2.1226  0.6860
 8284SOL    HW236486   2.273   2.504   9.897  1.2978  1.7299  1.6792
 8285SOL     OW36487   3.679   2.608   6.593  1.0381 -0.5562  0.4891
 8285SOL    HW136488   3.737   2.590   6.519  1.1599 -2.3271  1.0181
 8285SOL    HW236489   3.611   2.665   6.557  1.1935 -0.4409  0.3764
 8286SOL     OW36490   1.357   2.564  12.406 -0.7341  0.3034 -0.0314
 8286SOL    HW136491   1.379   2.582  12.314  0.4767  1.6358  0.5100
 8286SOL    HW236492   1.273   2.606  12.422 -1.4732 -0.4950 -1.7455
 8287SOL     OW36493   3.493   0.622   7.775 -0.0598 -0.1843  0.3763
 8287SOL    HW136494   3.461   0.685   7.710  1.1979  0.3276  0.2447
 8287SOL    HW236495   3.542   0.560   7.722  0.2395  0.2673  0.1202
 8288SOL     OW36496   4.155   2.893   7.828 -0.0806 -0.1416 -0.2005
 8288SOL    HW136497   4.133   2.835   7.755 -0.3079 -0.1898 -0.0956
 8288SOL    HW236498   4.246   2.870   7.843 -0.2816 -2.0648 -1.8688
 8289SOL     OW36499   3.458   4.623   4.120  0.4424  0.0571  0.0039
 8289SOL    HW136500   3.530   4.641   4.060 -0.4196 -0.3256 -1.1309
 8289SOL    HW236501   3.501   4.565   4.183  2.1222 -0.6413 -1.7777
 8290SOL     OW36502   0.498   1.365   9.130  0.1454 -0.1683  0.3825
 8290SOL    HW136503   0.563   1.294   9.128 -1.8890 -2.0017 -0.1926
 8290SOL    HW236504   0.522   1.407   9.047 -2.6408  0.4421 -0.1149
 8291SOL     OW36505   3.733   1.996   5.714 -0.3570  0.0757 -0.1698
 8291SOL    HW136506   3.780   2.029   5.638  0.0770 -0.7720 -0.2708
 8291SOL    HW236507   3.681   2.075   5.732 -0.7738 -0.0363 -0.8989
 8292SOL     OW36508   3.002   0.545   5.604 -0.2859 -0.7240 -0.0813
 8292SOL    HW136509   3.065   0.504   5.664  0.9063 -0.0616 -0.8703
 8292SOL    HW236510   3.058   0.547   5.527 -0.8420  0.9590 -0.4366
 8293SOL     OW36511   3.913   2.310   8.778  0.6011 -0.2547  0.5118
 8293SOL    HW136512   3.913   2.326   8.873 -0.1641  0.7360  0.3371
 8293SOL    HW236513   3.933   2.399   8.747 -0.0305 -0.1895  0.3067
 8294SOL     OW36514   0.254   1.041  16.312  0.3539  0.7929  0.0299
 8294SOL    HW136515   0.188   1.101  16.347  0.5500  1.0940 -0.1167
 8294SOL    HW236516   0.324   1.046  16.376  0.4379  1.9634 -0.1450
 8295SOL     OW36517   4.210   1.814   2.329  0.5555 -0.5046  0.1485
 8295SOL    HW136518   4.225   1.719   2.322 -2.5998 -0.8656 -1.8476
 8295SOL    HW236519   4.130   1.819   2.276  0.7019  0.7077  0.0566
 8296SOL     OW36520   4.660   3.373   8.886  0.3806 -0.2111  0.1307
 8296SOL    HW136521   4.590   3.422   8.929  0.3166  0.6031 -0.9045
 8296SOL    HW236522   4.727   3.441   8.875 -0.3801  0.5590  0.1877
 8297SOL     OW36523   0.160   2.043  16.044 -0.1314 -0.6144  0.3148
 8297SOL    HW136524   0.126   1.968  15.993 -0.3952  0.6504 -1.3875
 8297SOL    HW236525   0.170   2.099  15.967  0.5138 -0.0445  0.8252
 8298SOL     OW36526   4.037   0.464   6.500  0.7488 -0.5448 -0.5352
 8298SOL    HW136527   4.088   0.392   6.463  0.6114 -0.3061 -1.2016
 8298SOL    HW236528   4.036   0.448   6.594 -0.7556 -0.5320 -0.5451
 8299SOL     OW36529   0.341   4.230  12.833  0.5232  0.5896  0.7430
 8299SOL    HW136530   0.417   4.207  12.887  1.5807  2.8470  0.2389
 8299SOL    HW236531   0.391   4.275  12.765 -0.6262  1.1609  0.2841
 8300SOL     OW36532   1.547   2.686   4.045  0.1792 -0.0541 -0.0661
 8300SOL    HW136533   1.466   2.689   3.994  0.8681 -1.0332 -1.2032
 8300SOL    HW236534   1.519   2.624   4.112 -0.9494  1.0278  0.4808
 8301SOL     OW36535   2.420   1.425   1.481 -0.2199  0.1914  0.7217
 8301SOL    HW136536   2.371   1.382   1.552 -1.0805  0.5750  0.3654
 8301SOL    HW236537   2.511   1.396   1.484  0.0631  0.7139 -2.6539
 8302SOL     OW36538   2.438   2.266   5.447 -0.0667  0.2670  0.3372
 8302SOL    HW136539   2.475   2.339   5.498 -1.9631  0.2942  1.6949
 8302SOL    HW236540   2.372   2.313   5.397 -1.2760 -0.0541  1.6222
 8303SOL     OW36541   3.715   1.207   6.538 -0.9737 -0.4043  0.0140
 8303SOL    HW136542   3.775   1.257   6.593  0.3564  0.6145 -2.3665
 8303SOL    HW236543   3.680   1.272   6.477  0.6827 -1.0398 -1.6059
 8304SOL     OW36544   4.697   3.822   5.713 -0.2303  0.2072  0.2530
 8304SOL    HW136545   0.034   3.867   5.673  0.4390  0.4513  1.7496
 8304SOL    HW236546   4.659   3.896   5.761 -2.5599 -0.2118 -0.9837
 8305SOL     OW36547   3.214   4.443   9.329  0.2979 -0.2487 -0.1117
 8305SOL    HW136548   3.132   4.446   9.279  0.3435 -0.3963 -0.1947
 8305SOL    HW236549   3.240   4.352   9.319  0.9904 -0.0979  0.3521
 8306SOL     OW36550   4.046   3.356   8.287  0.0400 -0.2179 -0.1982
 8306SOL    HW136551   4.086   3.441   8.267 -1.4846  0.3278 -0.9453
 8306SOL    HW236552   3.995   3.374   8.366 -0.8523 -1.2141 -0.5499
 8307SOL     OW36553   0.293   0.327   8.455 -0.3014 -0.2953  0.3032
 8307SOL    HW136554   0.268   0.237   8.431  1.0396 -0.7412  0.6075
 8307SOL    HW236555   0.208   0.372   8.455  0.5739  1.3568 -0.5914
 8308SOL     OW36556   1.673   3.175   7.241 -0.5060 -0.5109 -0.1757
 8308SOL    HW136557   1.729   3.251   7.251 -1.5092  0.2556 -0.4297
 8308SOL    HW236558   1.664   3.171   7.146  0.6100  2.9525 -0.4040
 8309SOL     OW36559   4.414   3.111   2.051  0.6826  0.5483  0.2427
 8309SOL    HW136560   4.352   3.042   2.075  1.2164 -0.0823 -0.1783
 8309SOL    HW236561   4.480   3.092   2.118  2.7985  0.2045 -1.9458
 8310SOL     OW36562   2.911   3.351  14.774 -0.0538  0.0988  0.1087
 8310SOL    HW136563   2.867   3.432  14.799 -1.4851 -0.7133  0.1758
 8310SOL    HW236564   2.952   3.384  14.693  1.9124 -1.8450  0.3205
 8311SOL     OW36565   0.848   4.461   2.363  1.2752 -0.2312  0.4725
 8311SOL    HW136566   0.782   4.393   2.371  0.2244  0.6542 -0.5946
 8311SOL    HW236567   0.823   4.534   2.419 -1.9132 -1.6780  0.9657
 8312SOL     OW36568   2.422   0.526   3.334 -0.0868  0.1200  0.0132
 8312SOL    HW136569   2.474   0.460   3.380 -0.5927 -0.1657  0.1711
 8312SOL    HW236570   2.474   0.605   3.347 -1.9067  1.1511  0.9947
 8313SOL     OW36571   0.878   2.462  11.033 -0.0747  0.0597 -0.4639
 8313SOL    HW136572   0.914   2.382  11.071 -2.1026 -0.1227  1.0921
 8313SOL    HW236573   0.910   2.525  11.097  0.6511  0.3227 -1.0959
 8314SOL     OW36574   2.441   0.420  10.990 -0.3761  0.4945 -0.1012
 8314SOL    HW136575   2.482   0.351  10.938 -0.5504 -0.4516  1.0202
 8314SOL    HW236576   2.503   0.430  11.063 -0.7577 -0.7521  0.4064
 8315SOL     OW36577   2.068   1.380  12.439 -0.0102 -0.5508  0.1114
 8315SOL    HW136578   2.069   1.375  12.344  0.0938  0.9405  0.0377
 8315SOL    HW236579   2.150   1.333  12.456 -0.4234 -1.0018  0.8560
 8316SOL     OW36580   4.557   0.392   6.832 -0.2760  0.2700  0.3078
 8316SOL    HW136581   4.640   0.437   6.847  0.2997 -1.0570  1.0794
 8316SOL    HW236582   4.532   0.434   6.750 -1.4513  0.1577  0.6108
 8317SOL     OW36583   1.910   4.682   7.269 -0.5721 -0.4049  0.1336
 8317SOL    HW136584   1.842   4.625   7.231  0.7189 -1.2503 -0.9172
 8317SOL    HW236585   1.952   4.627   7.336 -0.3804  0.7886  0.9994
 8318SOL     OW36586   4.246   0.040  15.836 -0.7995  0.3286 -1.2664
 8318SOL    HW136587   4.243   0.135  15.847  0.5115  0.2949 -0.6627
 8318SOL    HW236588   4.152   0.028  15.851 -0.8110  2.0255  0.0547
 8319SOL     OW36589   0.906   1.823   0.243  0.1877 -0.0862 -0.0131
 8319SOL    HW136590   0.924   1.735   0.275 -0.0339 -0.1754 -0.1311
 8319SOL    HW236591   0.811   1.833   0.248  0.4078  1.1055  1.6335
 8320SOL     OW36592   4.615   1.185   8.276  0.4809 -0.0187  0.1084
 8320SOL    HW136593   4.691   1.156   8.327 -0.6037 -0.7637  1.2981
 8320SOL    HW236594   4.564   1.246   8.328  0.2164  1.4678 -1.8931
 8321SOL     OW36595   3.593   2.390   8.992 -0.4406 -0.1862 -0.3402
 8321SOL    HW136596   3.533   2.447   8.943 -0.6223  0.5135  0.6819
 8321SOL    HW236597   3.621   2.338   8.917  0.4431 -1.0771  0.5948
 8322SOL     OW36598   1.593   3.082   5.473  0.0539 -0.3760 -0.0574
 8322SOL    HW136599   1.673   3.073   5.421 -0.1796  2.0858 -0.8086
 8322SOL    HW236600   1.524   3.059   5.410  0.4624  1.2840 -1.1048
 8323SOL     OW36601   0.738   1.947   3.640  0.0105  0.4296 -0.1760
 8323SOL    HW136602   0.767   1.994   3.562  2.3792  0.4641  0.7315
 8323SOL    HW236603   0.683   1.879   3.602 -1.5247  0.8393  1.2720
 8324SOL     OW36604   3.325   1.626   6.367  1.1071  0.6074  0.6266
 8324SOL    HW136605   3.341   1.711   6.407  3.3913  0.9471 -1.0126
 8324SOL    HW236606   3.317   1.639   6.273 -0.5644  0.6790  0.7809
 8325SOL     OW36607   3.114   2.441   9.234 -0.6230 -0.3558  0.1717
 8325SOL    HW136608   3.153   2.399   9.310  1.3455  0.2876 -0.4832
 8325SOL    HW236609   3.030   2.471   9.269 -1.9645 -1.3682 -2.1699
 8326SOL     OW36610   2.433   3.827   9.140  0.5416 -0.0262 -0.6688
 8326SOL    HW136611   2.518   3.788   9.117  1.2160  0.4573  1.0170
 8326SOL    HW236612   2.376   3.752   9.156 -0.1844 -0.4108 -5.0257
 8327SOL     OW36613   3.498   1.848   5.647  0.2289 -0.2192 -0.1381
 8327SOL    HW136614   3.521   1.763   5.610 -1.6472  0.4361 -2.7674
 8327SOL    HW236615   3.584   1.888   5.664  0.8658 -1.3010 -0.8639
 8328SOL     OW36616   3.378   2.450  11.788 -0.2220  1.1232 -0.2258
 8328SOL    HW136617   3.429   2.517  11.743  0.4888  0.5708 -0.2289
 8328SOL    HW236618   3.341   2.392  11.721 -1.8857  0.9487  0.8454
 8329SOL     OW36619   1.287   2.835  14.400  1.3351 -0.3025 -0.4979
 8329SOL    HW136620   1.241   2.764  14.356 -0.1971 -0.4776  1.4172
 8329SOL    HW236621   1.215   2.868  14.454  2.3074  1.2647 -0.1164
 8330SOL     OW36622   3.889   0.662  16.005  0.3226 -0.0474  0.1055
 8330SOL    HW136623   3.962   0.603  16.027  1.2408  0.7991 -0.6569
 8330SOL    HW236624   3.859   0.613  15.929  2.5144 -2.3311  0.7065
 8331SOL     OW36625   4.473   1.062   9.406 -0.0076  0.2662 -0.2241
 8331SOL    HW136626   4.519   1.113   9.340 -0.3138  0.3142 -0.4011
 8331SOL    HW236627   4.449   1.131   9.468  0.8637  1.6492 -1.4383
 8332SOL     OW36628   0.150   3.672   6.683  0.2713  1.1998 -0.0859
 8332SOL    HW136629   0.091   3.640   6.751 -0.1537  2.2806  0.0411
 8332SOL    HW236630   0.199   3.738   6.732  0.3099  0.7612  0.4640
 8333SOL     OW36631   1.898   1.234   5.418 -0.3069 -0.1790  0.2120
 8333SOL    HW136632   1.885   1.140   5.433  1.0372 -0.4134 -0.1427
 8333SOL    HW236633   1.807   1.266   5.416 -0.0377  0.5521 -0.1200
 8334SOL     OW36634   2.580   3.746   0.728  0.2198 -0.5788 -0.5202
 8334SOL    HW136635   2.575   3.697   0.810  0.1291 -1.4015 -1.0077
 8334SOL    HW236636   2.528   3.817   0.766 -0.9549 -2.0492  0.6465
 8335SOL     OW36637   4.643   3.452   2.788  0.2496  0.2705 -0.3132
 8335SOL    HW136638   4.682   3.479   2.705  0.4320  0.4611 -0.1662
 8335SOL    HW236639   4.659   3.358   2.785 -1.2334  0.0177  0.0593
 8336SOL     OW36640   4.495   3.122   8.787 -0.4832  1.1025 -0.2161
 8336SOL    HW136641   4.546   3.202   8.800  2.9903 -0.8588 -1.6410
 8336SOL    HW236642   4.537   3.064   8.851 -1.3865 -0.1808 -0.7886
 8337SOL     OW36643   2.009   2.081   4.416  0.4845  0.0126  0.7102
 8337SOL    HW136644   2.070   2.080   4.490  0.0651  2.8712  1.0808
 8337SOL    HW236645   1.932   2.030   4.439  0.3343 -0.9935 -2.0107
 8338SOL     OW36646   3.592   3.793   3.325 -0.2539 -0.7381  0.2629
 8338SOL    HW136647   3.568   3.751   3.242 -0.5415 -2.2465  1.1037
 8338SOL    HW236648   3.506   3.787   3.367 -0.7613  1.5970 -0.4484
 8339SOL     OW36649   3.042   3.566   3.348  0.3924  0.5990  0.0675
 8339SOL    HW136650   3.029   3.478   3.383  1.0199  0.4929  0.0346
 8339SOL    HW236651   3.059   3.610   3.431  0.2212 -0.2796  0.5656
 8340SOL     OW36652   2.312   0.180   8.384  0.4960 -0.7627 -0.1159
 8340SOL    HW136653   2.281   0.253   8.439  0.7004  0.4228 -1.5690
 8340SOL    HW236654   2.246   0.180   8.314 -0.1556 -1.4198  0.4995
 8341SOL     OW36655   2.319   0.085  17.394 -0.5721 -0.1191 -0.3321
 8341SOL    HW136656   2.319   0.181  17.389 -1.4353 -0.0894  0.1796
 8341SOL    HW236657   2.339   0.065  17.485  1.0088  2.1292 -0.1771
 8342SOL     OW36658   1.410   2.173   7.856  0.1537 -0.1992  0.0441
 8342SOL    HW136659   1.371   2.086   7.841  1.6238 -1.0497  1.2330
 8342SOL    HW236660   1.502   2.150   7.844  0.1798 -0.1358  0.1247
 8343SOL     OW36661   2.969   2.702   5.306  0.1192  0.1237 -0.1501
 8343SOL    HW136662   3.059   2.693   5.337  0.1533 -1.5282 -0.7048
 8343SOL    HW236663   2.943   2.610   5.297 -1.9212  0.7818 -0.9163
 8344SOL     OW36664   1.421   4.053  13.303 -0.2246  0.0601  0.4228
 8344SOL    HW136665   1.400   4.014  13.218  1.2578  0.2421 -0.0254
 8344SOL    HW236666   1.496   4.000  13.332 -3.4850 -4.2850  0.8305
 8345SOL     OW36667   0.083   1.953   4.522 -0.6140 -0.2052 -0.0352
 8345SOL    HW136668   0.085   2.018   4.593  1.9074 -2.5766  2.0759
 8345SOL    HW236669   0.002   1.910   4.548 -1.2434  0.4040 -0.9898
 8346SOL     OW36670   3.627   4.648   8.762  0.0719  0.1402  0.1570
 8346SOL    HW136671   3.558   4.658   8.827 -0.4521 -1.6933 -0.1043
 8346SOL    HW236672   3.640   4.738   8.732 -0.8729 -0.0562 -0.8373
 8347SOL     OW36673   0.401   4.417   1.170  0.3740 -0.4509  0.3489
 8347SOL    HW136674   0.444   4.334   1.149 -0.1438 -0.3456 -1.0969
 8347SOL    HW236675   0.390   4.398   1.263 -0.8953 -0.6547  0.1514
 8348SOL     OW36676   3.287   2.423  12.109 -0.5941 -0.5223 -0.0191
 8348SOL    HW136677   3.367   2.379  12.080 -0.1833 -0.0227  0.3394
 8348SOL    HW236678   3.301   2.436  12.203  0.4068 -0.7042 -0.1356
 8349SOL     OW36679   0.929   1.740   7.420 -0.3977  0.0734  0.6624
 8349SOL    HW136680   0.939   1.797   7.496 -0.2206 -0.9380  1.3945
 8349SOL    HW236681   0.971   1.657   7.441  0.9746  0.2819 -1.2435
 8350SOL     OW36682   3.199   0.292   0.360  0.1355  0.9030 -0.1465
 8350SOL    HW136683   3.141   0.295   0.435  1.5821 -0.9687  1.0325
 8350SOL    HW236684   3.153   0.348   0.297 -0.5802  0.4375 -0.0293
 8351SOL     OW36685   4.182   0.666   8.876 -0.0816  0.2024 -0.3677
 8351SOL    HW136686   4.277   0.676   8.877 -0.1137  0.4288  0.0698
 8351SOL    HW236687   4.162   0.710   8.958  1.1717 -0.4617  0.3032
 8352SOL     OW36688   0.498   3.194   5.637 -0.1463  0.5232 -0.3665
 8352SOL    HW136689   0.537   3.111   5.663  1.1938  0.6528 -1.9827
 8352SOL    HW236690   0.575   3.237   5.601 -0.4962  1.9435  0.5616
 8353SOL     OW36691   3.724   2.886   2.209  0.2012  0.0850 -0.1307
 8353SOL    HW136692   3.689   2.881   2.120  0.9378 -2.2846 -0.2862
 8353SOL    HW236693   3.710   2.800   2.250  3.4219 -0.5515 -0.3895
 8354SOL     OW36694   3.003   2.558  11.547  0.4185 -0.6335 -0.4666
 8354SOL    HW136695   2.932   2.560  11.483 -0.0084 -1.5649 -0.0110
 8354SOL    HW236696   2.992   2.647  11.579  1.1708 -0.8592  0.4277
 8355SOL     OW36697   3.912   3.818   5.377 -0.2215 -0.2414 -0.0022
 8355SOL    HW136698   3.831   3.836   5.329 -0.9401  0.5895  1.4949
 8355SOL    HW236699   3.895   3.747   5.438  0.6721 -0.3070  0.1719
 8356SOL     OW36700   2.957   3.823   8.927  0.1073 -0.3506 -0.4492
 8356SOL    HW136701   2.929   3.752   8.985  0.4957  0.9953  1.3749
 8356SOL    HW236702   2.944   3.777   8.844  0.2513  1.0495 -1.2507
 8357SOL     OW36703   4.502   2.730   9.330  0.7184  0.4193  0.0361
 8357SOL    HW136704   4.505   2.820   9.364  0.5659  0.8932 -1.2334
 8357SOL    HW236705   4.572   2.729   9.265 -0.4276  0.2388 -1.1744
 8358SOL     OW36706   4.008   0.313   5.592  0.0689  0.0703 -0.0960
 8358SOL    HW136707   3.957   0.234   5.613 -0.1941  0.6086  1.3051
 8358SOL    HW236708   4.061   0.322   5.671 -0.6994 -1.3571  0.5871
 8359SOL     OW36709   3.788   0.116   9.335 -0.3818  0.2067  0.2212
 8359SOL    HW136710   3.883   0.117   9.323 -0.1329 -0.3524  2.1062
 8359SOL    HW236711   3.770   0.115   9.429 -0.3293 -0.8266  0.2141
 8360SOL     OW36712   0.753   2.245   1.326 -0.3868 -0.2757 -0.4226
 8360SOL    HW136713   0.717   2.274   1.410 -1.2981  2.2032 -1.6644
 8360SOL    HW236714   0.808   2.320   1.306 -0.0834  0.6325  3.7286
 8361SOL     OW36715   2.817   3.465   5.032  0.3443  0.4895  0.4205
 8361SOL    HW136716   2.816   3.448   4.938 -1.0989  0.0003  0.5224
 8361SOL    HW236717   2.822   3.374   5.062 -0.3645  0.2305 -0.2356
 8362SOL     OW36718   2.157   0.289  15.079 -0.1405 -0.6311 -0.4238
 8362SOL    HW136719   2.228   0.230  15.103 -0.5175 -0.8686  0.0990
 8362SOL    HW236720   2.220   0.356  15.052 -1.2764  1.2436  1.6048
 8363SOL     OW36721   2.910   2.301   7.365 -0.1665  0.0972  0.3457
 8363SOL    HW136722   2.915   2.375   7.426 -0.4522  0.8911 -0.5893
 8363SOL    HW236723   2.909   2.353   7.284 -1.1479  2.1455  1.6700
 8364SOL     OW36724   0.994   2.884  10.904  0.5471 -0.1439 -0.0642
 8364SOL    HW136725   1.083   2.851  10.890 -0.2400 -1.8777 -1.0220
 8364SOL    HW236726   0.993   2.898  10.999  0.5230 -0.8628  0.0476
 8365SOL     OW36727   0.304   4.025   8.815 -0.2029  0.1733 -0.2246
 8365SOL    HW136728   0.309   3.959   8.746  2.7586 -0.7168  0.8461
 8365SOL    HW236729   0.388   4.071   8.811  0.8396 -1.6329  0.7623
 8366SOL     OW36730   4.292   4.278   7.727  0.5606  0.0589 -0.7798
 8366SOL    HW136731   4.247   4.354   7.692  0.1608  1.2080  2.1786
 8366SOL    HW236732   4.223   4.257   7.790  0.7645 -0.2959 -0.6744
 8367SOL     OW36733   3.128   4.710  10.055  0.1167 -0.3583 -0.2395
 8367SOL    HW136734   3.087   4.689  10.138 -2.7061  0.6547 -1.3668
 8367SOL    HW236735   3.203   4.650  10.053  0.7488  0.3774  1.8516
 8368SOL     OW36736   0.841   3.888  11.739  0.0299  0.1587  0.3375
 8368SOL    HW136737   0.813   3.852  11.655  1.4085 -0.2519  0.0560
 8368SOL    HW236738   0.779   3.852  11.802 -0.2136 -0.7191 -0.3916
 8369SOL     OW36739   2.929   0.016  15.484 -1.1930 -0.0334  0.3560
 8369SOL    HW136740   2.949   0.071  15.408 -0.4278  0.6795  1.0743
 8369SOL    HW236741   2.994   4.684  15.471  0.3239  1.8562 -2.0966
 8370SOL     OW36742   3.431   1.461   0.781 -0.2601 -0.0279  0.4183
 8370SOL    HW136743   3.411   1.449   0.873  1.8957 -0.6193  0.8030
 8370SOL    HW236744   3.526   1.469   0.778 -0.0427 -2.2510  1.2256
 8371SOL     OW36745   1.874   0.035   2.939  0.1278 -0.3241  0.1711
 8371SOL    HW136746   1.851   0.031   2.846 -0.4845 -0.6782  0.3375
 8371SOL    HW236747   1.821   4.705   2.982 -1.8795  0.0584 -1.6838
 8372SOL     OW36748   4.292   1.889   7.891  0.2463  0.0224  0.7088
 8372SOL    HW136749   4.369   1.938   7.863 -0.1117 -1.0187 -2.0893
 8372SOL    HW236750   4.285   1.841   7.809 -1.9061 -0.3254  1.1060
 8373SOL     OW36751   0.235   2.284   3.710  0.2936  0.3414 -0.3686
 8373SOL    HW136752   0.191   2.237   3.640 -1.5095  1.7907 -0.2304
 8373SOL    HW236753   0.279   2.359   3.670 -0.4553 -0.2988 -2.3829
 8374SOL     OW36754   3.258   3.034   3.768 -0.3055 -0.3689 -0.0794
 8374SOL    HW136755   3.231   3.086   3.844  0.8897  0.0250  0.0826
 8374SOL    HW236756   3.210   3.074   3.696  0.6435  1.1321  0.1131
 8375SOL     OW36757   4.160   1.464   3.854  0.0180  0.3645 -0.2234
 8375SOL    HW136758   4.224   1.454   3.924  0.1444 -0.1983 -0.4163
 8375SOL    HW236759   4.102   1.390   3.872  0.2234  0.3991  0.6052
 8376SOL     OW36760   1.071   4.447   4.081 -0.1676  0.5863 -0.2303
 8376SOL    HW136761   1.071   4.351   4.082 -0.5306  0.6192  3.1286
 8376SOL    HW236762   0.980   4.476   4.088 -0.0685  1.2517 -1.7185
 8377SOL     OW36763   0.569   1.291   1.576 -0.5647  0.2960  0.1248
 8377SOL    HW136764   0.592   1.209   1.533  0.5745  1.2438 -1.0728
 8377SOL    HW236765   0.528   1.344   1.507  0.1273  0.8933  0.1662
 8378SOL     OW36766   1.471   3.541  11.406 -0.8073  0.5376 -0.5088
 8378SOL    HW136767   1.402   3.497  11.455  0.0106 -0.7566 -0.5011
 8378SOL    HW236768   1.541   3.543  11.471 -0.9871 -0.5424 -0.2810
 8379SOL     OW36769   2.898   2.792   3.047 -0.2140  0.8115 -0.2105
 8379SOL    HW136770   2.924   2.811   2.957  0.7683  2.4346  0.4186
 8379SOL    HW236771   2.804   2.807   3.043 -0.2755  0.3075 -0.6041
 8380SOL     OW36772   3.899   0.403  13.399  0.5464 -0.9158  0.4031
 8380SOL    HW136773   3.965   0.450  13.348  0.3271  2.1369  2.9700
 8380SOL    HW236774   3.949   0.371  13.474  1.6158  1.9426  0.8773
 8381SOL     OW36775   1.313   3.802   5.696 -0.4635 -0.0834  0.2690
 8381SOL    HW136776   1.240   3.756   5.736 -1.0574 -0.0538 -0.7876
 8381SOL    HW236777   1.351   3.741   5.633  0.9759  1.4956 -0.3960
 8382SOL     OW36778   2.181   3.341   9.134  0.1543  0.0541 -0.1194
 8382SOL    HW136779   2.243   3.291   9.080 -0.3901 -0.1508 -0.5498
 8382SOL    HW236780   2.216   3.336   9.223 -3.0078 -1.7426  1.0443
 8383SOL     OW36781   4.355   0.371   4.866 -0.0442  0.1868  0.6668
 8383SOL    HW136782   4.446   0.392   4.846 -0.0079  0.6546  1.3163
 8383SOL    HW236783   4.322   0.377   4.776  0.6292 -0.6985  0.3601
 8384SOL     OW36784   4.613   3.533  10.952  0.1372  0.2245  0.0784
 8384SOL    HW136785   4.524   3.500  10.937  0.4489 -0.6279  0.1422
 8384SOL    HW236786   4.629   3.553  10.860  3.3274  0.1168  0.6271
 8385SOL     OW36787   2.312   0.659   8.192 -0.2731 -0.1637  0.7810
 8385SOL    HW136788   2.264   0.742   8.198  1.7961  1.3013 -2.9976
 8385SOL    HW236789   2.296   0.629   8.103  0.4041  3.8083 -0.6943
 8386SOL     OW36790   2.588   1.236   9.338 -0.5204  0.2406  0.9733
 8386SOL    HW136791   2.601   1.305   9.272  2.8015 -0.1987  1.1595
 8386SOL    HW236792   2.653   1.258   9.404  1.0377 -1.6887  0.0695
 8387SOL     OW36793   3.608   2.294   3.927  0.4524  0.4543 -0.7130
 8387SOL    HW136794   3.539   2.344   3.972  1.5093  0.8735  0.4439
 8387SOL    HW236795   3.563   2.213   3.903 -1.7367  1.9977 -1.7523
 8388SOL     OW36796   1.288   3.354   2.110  0.1984 -0.0127 -0.0408
 8388SOL    HW136797   1.356   3.420   2.127  0.4032  0.0187 -0.9653
 8388SOL    HW236798   1.327   3.288   2.167  0.3574  1.5702  1.6796
 8389SOL     OW36799   4.567   2.710   2.206 -0.1497 -0.1596  0.1732
 8389SOL    HW136800   4.488   2.658   2.218 -0.9661  0.9254 -0.5255
 8389SOL    HW236801   4.627   2.659   2.260 -0.1945  0.5662  0.9016
 8390SOL     OW36802   1.892   3.466   1.689 -0.2850 -0.1422 -0.2749
 8390SOL    HW136803   1.981   3.483   1.659 -0.5209  1.6827  0.0207
 8390SOL    HW236804   1.845   3.497   1.611  0.0665 -0.9997 -0.8148
 8391SOL     OW36805   2.948   2.386   4.953 -0.4103 -0.6685  0.1272
 8391SOL    HW136806   2.897   2.461   4.983  2.1677  0.7144  1.0913
 8391SOL    HW236807   3.037   2.421   4.961  0.4375 -2.8151 -0.1037
 8392SOL     OW36808   3.409   4.468   6.857  0.2734  0.2337  0.2794
 8392SOL    HW136809   3.432   4.386   6.815 -1.5275 -0.1477  0.0302
 8392SOL    HW236810   3.485   4.526   6.845  0.6550 -0.4315 -0.4726
 8393SOL     OW36811   2.561   4.561   7.499 -0.2857  0.1511  0.7206
 8393SOL    HW136812   2.476   4.558   7.454  0.6106  0.8026 -1.0173
 8393SOL    HW236813   2.547   4.500   7.571  3.0521 -0.6203  0.7099
 8394SOL     OW36814   3.379   2.590   8.571 -0.6044  0.0060 -0.0512
 8394SOL    HW136815   3.416   2.636   8.496  2.3390  0.8141  1.8876
 8394SOL    HW236816   3.326   2.661   8.607  2.5534  1.9495  0.7970
 8395SOL     OW36817   3.208   4.309   5.127 -0.1892 -0.0536  0.0727
 8395SOL    HW136818   3.299   4.334   5.111 -0.7524  2.0171  0.1894
 8395SOL    HW236819   3.212   4.215   5.109  0.4673  0.1847 -1.0490
 8396SOL     OW36820   1.501   1.594   2.494 -0.5295  0.0521  0.4616
 8396SOL    HW136821   1.510   1.531   2.422 -0.4239  0.9486 -0.3214
 8396SOL    HW236822   1.546   1.672   2.459  0.5594 -0.5812  0.4568
 8397SOL     OW36823   1.332   4.633   6.813  0.0926  0.5770  0.2606
 8397SOL    HW136824   1.362   4.544   6.832 -0.7646  0.3018  0.3100
 8397SOL    HW236825   1.236   4.628   6.811  0.1991 -1.6263  0.6897
 8398SOL     OW36826   4.264   0.063   4.871 -0.4843 -0.5471 -0.0171
 8398SOL    HW136827   4.289   4.736   4.805  1.7869 -1.9890  2.2647
 8398SOL    HW236828   4.336   0.126   4.866 -0.3601 -0.7208 -0.4360
 8399SOL     OW36829   0.316   4.535   9.561 -0.9426 -0.0979  0.1644
 8399SOL    HW136830   0.372   4.544   9.484 -2.9210 -1.7454 -1.4644
 8399SOL    HW236831   0.281   4.447   9.549 -1.2561 -0.1754  1.7178
 8400SOL     OW36832   3.699   1.989   3.542  0.1777  0.3632  0.2228
 8400SOL    HW136833   3.625   1.932   3.520  0.2262  0.6429 -0.6840
 8400SOL    HW236834   3.767   1.921   3.538  0.4772  0.5833  1.8009
 8401SOL     OW36835   0.143   3.639   0.445 -0.0155  0.2868 -0.5935
 8401SOL    HW136836   0.077   3.643   0.376 -1.4301  1.0948  0.7977
 8401SOL    HW236837   0.187   3.724   0.437 -0.0899  0.5243  1.5161
 8402SOL     OW36838   1.745   3.664  10.503  0.0348 -0.1817 -0.4194
 8402SOL    HW136839   1.768   3.625  10.586  0.3231  0.1588 -0.3394
 8402SOL    HW236840   1.663   3.616  10.488 -0.2294  0.4615 -1.0854
 8403SOL     OW36841   1.558   4.279   7.440  0.6618 -0.0120 -0.5099
 8403SOL    HW136842   1.500   4.353   7.458 -0.5473 -1.5027  1.6714
 8403SOL    HW236843   1.498   4.208   7.419  1.7613 -0.9623 -0.3958
 8404SOL     OW36844   3.846   4.612  12.758  0.6412 -0.0607  0.1641
 8404SOL    HW136845   3.829   4.706  12.765  1.8538  0.3125 -2.1578
 8404SOL    HW236846   3.788   4.595  12.683 -0.1250  1.4209  0.4304
 8405SOL     OW36847   0.406   1.996   9.303  0.1603 -0.3736 -0.7079
 8405SOL    HW136848   0.354   2.038   9.371 -2.3160 -1.0594 -2.1754
 8405SOL    HW236849   0.434   1.921   9.355 -0.6628 -0.2543 -0.1079
 8406SOL     OW36850   4.404   4.065   1.754 -0.0653  0.5624 -0.4817
 8406SOL    HW136851   4.401   4.144   1.808  1.6980  0.3335 -0.0691
 8406SOL    HW236852   4.356   4.005   1.811 -1.0127  1.6671 -0.0977
 8407SOL     OW36853   3.773   4.001   8.127  0.4930 -0.1563 -0.3647
 8407SOL    HW136854   3.685   3.965   8.121  0.6176  0.0187 -3.1661
 8407SOL    HW236855   3.783   3.998   8.222 -2.3178  0.4055 -0.0536
 8408SOL     OW36856   2.390   4.064  16.547  0.0365  0.0163  0.1610
 8408SOL    HW136857   2.393   4.071  16.452 -0.9700 -0.6407  0.0737
 8408SOL    HW236858   2.469   4.112  16.572  0.6874 -1.1416  0.3112
 8409SOL     OW36859   0.050   0.689   8.918 -0.7773 -0.1324  0.4818
 8409SOL    HW136860   4.712   0.657   8.966 -0.3734 -0.0377  1.1790
 8409SOL    HW236861   0.057   0.771   8.966  1.6951 -0.9105  1.4591
 8410SOL     OW36862   1.886   4.164  11.808  0.7264 -0.0180 -0.1876
 8410SOL    HW136863   1.925   4.232  11.754 -0.7760 -0.8230 -2.3009
 8410SOL    HW236864   1.965   4.135  11.854  0.1879 -1.9545 -0.4646
 8411SOL     OW36865   3.608   2.083   5.424 -0.0796 -0.0230  0.3859
 8411SOL    HW136866   3.605   1.996   5.384  1.1137 -0.5708  1.4865
 8411SOL    HW236867   3.517   2.095   5.449 -0.7097 -0.3475 -1.7300
 8412SOL     OW36868   2.636   2.088  11.405  0.0124  0.4336  0.4951
 8412SOL    HW136869   2.616   1.995  11.418 -0.3855  0.3276 -0.8121
 8412SOL    HW236870   2.658   2.089  11.312 -1.2298 -2.6426  0.1718
 8413SOL     OW36871   1.569   3.610  13.142  0.1313  0.1620 -0.2945
 8413SOL    HW136872   1.560   3.571  13.055 -0.2823  0.7509 -0.5088
 8413SOL    HW236873   1.625   3.687  13.131  0.5742  0.2429  2.5252
 8414SOL     OW36874   3.204   3.321  13.822 -0.0605  0.4059 -0.0363
 8414SOL    HW136875   3.150   3.398  13.841  1.5076  1.8411 -1.4064
 8414SOL    HW236876   3.138   3.260  13.790  0.2274  0.1542 -0.1485
 8415SOL     OW36877   1.295   2.881  10.944 -0.1368  0.0520 -0.2283
 8415SOL    HW136878   1.358   2.821  10.984 -1.5138 -1.0506  0.2840
 8415SOL    HW236879   1.355   2.944  10.905 -0.9330  1.6230  1.1058
 8416SOL     OW36880   4.262   0.556   5.039  0.0612  0.4347  0.5020
 8416SOL    HW136881   4.250   0.613   4.963  1.7030  2.8348  2.0414
 8416SOL    HW236882   4.290   0.476   4.996  1.6369  0.7220  1.0105
 8417SOL     OW36883   0.199   2.268   6.992  0.8853  0.0838 -0.3616
 8417SOL    HW136884   0.288   2.301   6.983  0.0734  2.1129 -1.0567
 8417SOL    HW236885   0.205   2.227   7.078  1.4308  1.6634  0.3424
 8418SOL     OW36886   2.072   1.145   0.932  0.0318 -1.0540 -0.0806
 8418SOL    HW136887   2.110   1.087   0.866  0.1485  0.5079 -1.3613
 8418SOL    HW236888   2.007   1.076   0.948  1.5217 -2.2986  0.6469
 8419SOL     OW36889   0.061   1.068   0.941 -0.1643  0.3321  0.0865
 8419SOL    HW136890   0.121   0.995   0.927 -0.1621  0.0164  1.7294
 8419SOL    HW236891   0.046   1.096   0.851 -0.2093  0.0377 -0.0004
 8420SOL     OW36892   1.691   4.663   6.782 -0.1970  0.5676 -0.0664
 8420SOL    HW136893   1.775   4.699   6.754 -0.1714  0.8645  0.4046
 8420SOL    HW236894   1.689   4.672   6.877  0.1305 -1.6757  0.1665
 8421SOL     OW36895   1.954   2.063  16.156  0.3090  0.2756  0.0169
 8421SOL    HW136896   2.032   2.036  16.204  0.2970 -0.1739 -0.2195
 8421SOL    HW236897   1.940   2.153  16.187 -2.7963  0.7860 -2.8721
 8422SOL     OW36898   4.113   1.598   1.287 -0.2154  0.2502 -0.6864
 8422SOL    HW136899   4.091   1.584   1.379  1.2883  0.4777 -0.2949
 8422SOL    HW236900   4.200   1.558   1.278  0.0633  1.2557 -2.5508
 8423SOL     OW36901   1.728   1.488   6.498  0.0244 -0.2414 -0.3725
 8423SOL    HW136902   1.732   1.555   6.566  0.5949 -1.2582  0.5855
 8423SOL    HW236903   1.808   1.447   6.531  0.7929  1.0204 -0.6743
 8424SOL     OW36904   3.662   3.795   5.952  0.0192 -0.6032  0.4544
 8424SOL    HW136905   3.668   3.891   5.948  0.2546 -0.5101  2.5672
 8424SOL    HW236906   3.739   3.760   5.909  0.3928 -2.4737  2.6693
 8425SOL     OW36907   3.525   1.881   5.249  0.2393  0.4254  0.2885
 8425SOL    HW136908   3.494   1.920   5.167 -0.1161 -1.0268 -0.2857
 8425SOL    HW236909   3.461   1.811   5.263  0.1260  0.4799  0.0378
 8426SOL     OW36910   2.428   1.741   2.968 -0.1132  0.1067  0.3005
 8426SOL    HW136911   2.503   1.792   2.998 -0.2830 -0.3394  1.4654
 8426SOL    HW236912   2.405   1.780   2.883  2.6538 -0.2169 -0.5787
 8427SOL     OW36913   1.499   3.984   7.687 -0.4710 -0.6383 -0.5482
 8427SOL    HW136914   1.570   4.042   7.661 -0.7876  0.5956  1.3987
 8427SOL    HW236915   1.433   4.046   7.717  0.1728 -0.9435  1.4806
 8428SOL     OW36916   3.819   0.002   9.907  0.0466 -0.0997 -0.3123
 8428SOL    HW136917   3.880   4.727   9.979 -1.6063 -3.5869  0.4930
 8428SOL    HW236918   3.793   0.093   9.922 -0.1503 -0.2347  0.1814
 8429SOL     OW36919   0.185   3.693   5.856  0.4144 -0.2599  0.4123
 8429SOL    HW136920   0.132   3.727   5.784  0.0496 -1.6561  0.0273
 8429SOL    HW236921   0.276   3.702   5.827  0.0787  0.9117 -0.2465
 8430SOL     OW36922   3.354   0.649  16.625  0.6355  0.1812  0.3872
 8430SOL    HW136923   3.307   0.619  16.547  1.8483 -0.1036 -0.2320
 8430SOL    HW236924   3.300   0.622  16.699 -0.4729  0.3535 -0.3473
 8431SOL     OW36925   1.089   0.412  15.607 -0.5203  0.1657 -0.2139
 8431SOL    HW136926   1.022   0.355  15.643 -1.8688  2.5532  1.0873
 8431SOL    HW236927   1.152   0.353  15.568 -1.9051 -0.5006 -1.4312
 8432SOL     OW36928   3.009   1.101   6.382  0.3544  0.2015 -0.2599
 8432SOL    HW136929   3.098   1.134   6.390  0.3383 -0.2274  1.8238
 8432SOL    HW236930   2.972   1.154   6.311  0.0837  1.6729  0.9652
 8433SOL     OW36931   2.865   1.469   8.887 -1.1297  0.0398  0.1433
 8433SOL    HW136932   2.875   1.374   8.896  1.7531  0.1738 -1.4226
 8433SOL    HW236933   2.818   1.469   8.803  0.4253 -1.2854 -0.7295
 8434SOL     OW36934   1.042   3.658  16.532 -0.1755  0.8066  0.0698
 8434SOL    HW136935   0.948   3.649  16.512 -0.5189 -0.3469  2.2334
 8434SOL    HW236936   1.055   3.613  16.615 -4.8312 -1.2310 -0.2691
 8435SOL     OW36937   3.067   0.830  14.731  0.0738 -0.3975  0.5241
 8435SOL    HW136938   3.141   0.838  14.791  0.4245  0.9408 -0.0917
 8435SOL    HW236939   3.059   0.921  14.703  0.7299 -0.1690  1.1034
 8436SOL     OW36940   4.608   0.059   7.847 -0.1589 -0.1986  0.0068
 8436SOL    HW136941   4.699   0.083   7.863 -0.0614 -0.4468 -0.1658
 8436SOL    HW236942   4.607   4.701   7.852 -2.0350 -0.0844  1.6668
 8437SOL     OW36943   1.962   2.651  10.216 -0.1292 -0.1446 -0.5375
 8437SOL    HW136944   1.996   2.562  10.204  0.3946  0.1147 -0.9776
 8437SOL    HW236945   2.039   2.705  10.198 -0.1120  0.4411  1.2363
 8438SOL     OW36946   1.870   4.638   6.048 -0.3459  0.0832  0.3741
 8438SOL    HW136947   1.837   4.553   6.019 -1.2459  0.9138 -1.0905
 8438SOL    HW236948   1.890   4.690   5.969  0.2820 -1.3517 -0.4069
 8439SOL     OW36949   0.495   1.776   2.343  0.3026  0.1105  0.0241
 8439SOL    HW136950   0.437   1.816   2.278 -1.6909 -1.6646  0.7213
 8439SOL    HW236951   0.462   1.686   2.345 -2.3523  1.0730 -0.8144
 8440SOL     OW36952   0.556   4.207   7.225  0.4248  0.5771  0.1663
 8440SOL    HW136953   0.462   4.196   7.236  0.3786  1.4182  0.6331
 8440SOL    HW236954   0.564   4.248   7.138 -0.7600  0.7800  0.1636
 8441SOL     OW36955   3.017   0.790  11.643 -0.4024  0.0924  0.1722
 8441SOL    HW136956   3.054   0.848  11.710 -2.7708  2.3452 -0.4671
 8441SOL    HW236957   3.093   0.735  11.622  0.6909  1.1372  1.3298
 8442SOL     OW36958   1.287   1.383   1.917  0.2381 -0.2523  0.4261
 8442SOL    HW136959   1.357   1.317   1.916  1.0281  0.5942 -1.5915
 8442SOL    HW236960   1.278   1.402   2.010  0.8575 -1.5556  0.7581
 8443SOL     OW36961   1.482   0.400  10.692 -0.1667 -0.1852 -0.2398
 8443SOL    HW136962   1.571   0.412  10.659 -0.6071  0.1571 -1.2914
 8443SOL    HW236963   1.447   0.482  10.726 -1.2599 -0.4499 -0.7380
 8444SOL     OW36964   4.205   3.246   9.131 -0.0370 -0.4507 -0.5201
 8444SOL    HW136965   4.261   3.214   9.061  1.3405 -0.4716  0.5922
 8444SOL    HW236966   4.206   3.166   9.183  1.3293 -0.3687 -0.4160
 8445SOL     OW36967   3.534   0.169   4.662  0.1832  0.0608 -0.5396
 8445SOL    HW136968   3.463   0.105   4.667  0.0933  0.1710 -0.4215
 8445SOL    HW236969   3.484   0.250   4.654 -0.3791 -0.1090  1.2530
 8446SOL     OW36970   1.725   0.543   1.217 -0.1630 -0.1248 -0.3408
 8446SOL    HW136971   1.795   0.514   1.276 -1.0157 -1.1803  0.1571
 8446SOL    HW236972   1.724   0.637   1.203  1.3139  0.5259  3.9753
 8447SOL     OW36973   2.933   1.078   4.095  0.0153  0.2620 -0.6683
 8447SOL    HW136974   2.941   0.988   4.128  1.8753  0.6424 -0.0833
 8447SOL    HW236975   2.903   1.121   4.175  0.6740  1.4033 -1.0342
 8448SOL     OW36976   3.920   4.276   4.196 -0.3418  0.0389 -0.6464
 8448SOL    HW136977   3.986   4.213   4.224 -1.0743  0.1827  1.3791
 8448SOL    HW236978   3.873   4.297   4.277 -2.4312 -3.3982 -0.9976
 8449SOL     OW36979   2.156   0.038   2.559  0.2834  0.1020  0.4008
 8449SOL    HW136980   2.172   4.686   2.588  0.7296 -0.3546 -1.2735
 8449SOL    HW236981   2.068   0.043   2.522  0.5762  1.1325 -0.1583
 8450SOL     OW36982   1.017   0.295   5.128 -0.4884 -0.3863  0.2957
 8450SOL    HW136983   1.040   0.229   5.194  0.1423  0.8272  1.2980
 8450SOL    HW236984   0.921   0.296   5.133 -0.4146 -0.4528  1.8702
 8451SOL     OW36985   2.232   1.090   3.115 -0.7461 -0.0444  0.3092
 8451SOL    HW136986   2.285   1.164   3.146 -0.6406 -0.6857  1.6713
 8451SOL    HW236987   2.165   1.078   3.182 -1.1814 -0.6424 -0.2393
 8452SOL     OW36988   1.410   0.222   2.402  0.4439  0.3408  0.2722
 8452SOL    HW136989   1.504   0.217   2.420  0.3746  1.5986  1.0500
 8452SOL    HW236990   1.400   0.179   2.318 -1.1224 -0.4280  0.8596
 8453SOL     OW36991   1.777   3.861   9.208 -0.0071  0.6254 -0.6302
 8453SOL    HW136992   1.844   3.887   9.271  0.0249  0.0735 -0.4362
 8453SOL    HW236993   1.760   3.946   9.167  0.6698  0.5986 -0.9782
 8454SOL     OW36994   0.374   0.948   7.441 -0.3503  0.2182 -0.2441
 8454SOL    HW136995   0.456   0.962   7.488  0.5902 -1.1732 -1.4641
 8454SOL    HW236996   0.336   1.036   7.441 -3.2546 -1.0371 -0.1168
 8455SOL     OW36997   3.623   4.344   5.847  0.1385 -0.1493  0.0957
 8455SOL    HW136998   3.535   4.382   5.840  0.4891  0.0033 -3.6335
 8455SOL    HW236999   3.654   4.348   5.756  3.4219  0.8343  1.2576
 8456SOL     OW37000   2.812   3.591   7.758  0.5174  0.3978  0.1361
 8456SOL    HW137001   2.774   3.675   7.733 -3.7465 -1.3873  0.6170
 8456SOL    HW237002   2.800   3.584   7.853  2.3599 -2.6300  0.1614
 8457SOL     OW37003   2.346   2.400   2.069  0.1890  0.6479  0.4513
 8457SOL    HW137004   2.333   2.385   1.976 -0.7566  0.5925  0.5956
 8457SOL    HW237005   2.254   2.409   2.092 -0.8406 -1.1940 -3.0871
 8458SOL     OW37006   3.163   0.185   0.759 -0.3759 -0.0468 -0.3596
 8458SOL    HW137007   3.241   0.229   0.792  0.6262 -0.9988 -1.4718
 8458SOL    HW237008   3.199   0.120   0.699  0.6036  0.5075 -0.3717
 8459SOL     OW37009   0.543   2.468   7.144  0.5148  0.6221  0.0264
 8459SOL    HW137010   0.582   2.481   7.057  2.3058 -2.2455  0.4071
 8459SOL    HW237011   0.528   2.374   7.135  2.5542  0.2133  1.0549
 8460SOL     OW37012   3.560   1.809   7.150  0.3106 -0.9078 -0.4421
 8460SOL    HW137013   3.589   1.731   7.197  0.4890 -0.4869  0.1467
 8460SOL    HW237014   3.629   1.867   7.183 -0.0322  0.0765 -1.4596
 8461SOL     OW37015   1.180   2.736   8.925 -0.0430  0.5158 -0.2025
 8461SOL    HW137016   1.266   2.694   8.930  0.4771  1.4923 -0.7932
 8461SOL    HW237017   1.124   2.661   8.906 -0.0001  0.2125  0.8464
 8462SOL     OW37018   1.033   1.242   2.921 -0.1658  0.2531  0.1616
 8462SOL    HW137019   0.948   1.284   2.938 -1.4307 -1.7057 -1.3500
 8462SOL    HW237020   1.007   1.194   2.843 -0.5256 -1.4752  1.3611
 8463SOL     OW37021   2.829   3.995   7.079  0.2532 -0.1663 -0.3624
 8463SOL    HW137022   2.899   3.982   7.015  0.6745  0.0694  0.0487
 8463SOL    HW237023   2.810   4.087   7.060  2.9929  0.9398  2.3451
 8464SOL     OW37024   3.672   4.685   6.477 -0.3548  0.1217  0.1086
 8464SOL    HW137025   3.694   4.617   6.413  0.6339 -0.9187  1.5716
 8464SOL    HW237026   3.720   0.026   6.449 -0.4369 -0.0550 -0.5480
 8465SOL     OW37027   2.150   2.174   7.284 -0.7888 -0.1284 -0.4251
 8465SOL    HW137028   2.142   2.245   7.220  3.3388 -0.7954 -1.6838
 8465SOL    HW237029   2.244   2.161   7.295 -0.5364  1.5244 -0.6485
 8466SOL     OW37030   0.289   4.018   3.968  0.1793 -0.4787 -0.7186
 8466SOL    HW137031   0.228   4.004   4.040  0.9424  0.5127  0.1220
 8466SOL    HW237032   0.270   3.942   3.914  0.0597 -0.9871  0.0501
 8467SOL     OW37033   3.170   2.294   7.874 -0.5644  0.2449 -0.0111
 8467SOL    HW137034   3.136   2.379   7.900 -1.4831 -0.6948  1.8366
 8467SOL    HW237035   3.263   2.307   7.892 -0.0845 -0.8483 -1.6795
 8468SOL     OW37036   0.171   3.874   5.435  0.3461  0.6755 -0.0048
 8468SOL    HW137037   0.193   3.828   5.354  0.8720  1.0906 -0.0946
 8468SOL    HW237038   0.082   3.904   5.416  0.0032  0.4931  1.2886
 8469SOL     OW37039   2.104   2.530   8.073 -0.7478  0.6138  0.2760
 8469SOL    HW137040   2.029   2.510   8.129  0.5639  1.3686  2.3040
 8469SOL    HW237041   2.181   2.498   8.121 -0.4106 -0.9441 -1.2975
 8470SOL     OW37042   3.588   1.965   2.835 -0.3453  0.0024 -0.2424
 8470SOL    HW137043   3.540   2.013   2.903 -0.5007 -1.5771  0.7624
 8470SOL    HW237044   3.639   2.035   2.794 -2.6078  0.7731 -1.7668
 8471SOL     OW37045   1.693   0.919  13.499  0.2907  0.5799 -0.1751
 8471SOL    HW137046   1.701   0.824  13.503  1.5885  0.5506 -3.0741
 8471SOL    HW237047   1.670   0.936  13.590  4.1571  0.0535  0.8913
 8472SOL     OW37048   1.371   3.337  15.095 -0.3584  0.1728  0.4504
 8472SOL    HW137049   1.418   3.306  15.017  0.9988  0.9744  0.9424
 8472SOL    HW237050   1.297   3.388  15.063 -0.6031 -0.4209  0.0592
 8473SOL     OW37051   3.306   1.535   1.883 -0.2914 -0.3499  0.0083
 8473SOL    HW137052   3.250   1.582   1.945 -1.0802 -0.3979 -0.6603
 8473SOL    HW237053   3.237   1.479   1.849  0.3007 -0.8611 -0.3416
 8474SOL     OW37054   1.672   3.430   7.561  0.2832 -0.3803 -0.4706
 8474SOL    HW137055   1.601   3.382   7.518 -0.3092 -1.0167  1.2222
 8474SOL    HW237056   1.665   3.510   7.509 -1.3851  0.6518  1.3388
 8475SOL     OW37057   2.791   1.560   9.945  0.2868  0.1716 -0.0429
 8475SOL    HW137058   2.790   1.652   9.971 -0.0426  0.0380  0.4123
 8475SOL    HW237059   2.752   1.569   9.858  0.7270  1.1270 -0.1446
 8476SOL     OW37060   0.505   4.066   3.038 -0.0576 -0.0433 -0.1460
 8476SOL    HW137061   0.541   3.982   3.064 -1.5094 -0.7477 -0.3950
 8476SOL    HW237062   0.441   4.047   2.969 -0.5978 -0.4192  0.4622
 8477SOL     OW37063   0.438   2.512   7.932 -0.2051 -0.2636  0.2405
 8477SOL    HW137064   0.530   2.506   7.959 -0.6767 -0.7013  1.7568
 8477SOL    HW237065   0.393   2.548   8.009 -0.0079  2.1772 -0.7862
 8478SOL     OW37066   2.166   2.422   8.790 -0.1860 -0.1906  0.5012
 8478SOL    HW137067   2.162   2.408   8.695  1.3770  1.0173  0.2609
 8478SOL    HW237068   2.255   2.390   8.802 -0.8248 -2.0031  0.3368
 8479SOL     OW37069   1.403   3.316   5.027 -0.1998  0.2883 -0.0435
 8479SOL    HW137070   1.323   3.326   4.976 -1.3223  1.3034  1.8908
 8479SOL    HW237071   1.455   3.390   4.995 -0.7569 -0.6130 -2.9773
 8480SOL     OW37072   4.467   1.676   4.828  0.5494  0.2809  0.4666
 8480SOL    HW137073   4.447   1.619   4.902  1.7819 -0.6334  0.1044
 8480SOL    HW237074   4.387   1.727   4.827 -0.4337 -1.2667  0.8158
 8481SOL     OW37075   2.963   4.180   8.965  0.0943 -0.0878  0.4128
 8481SOL    HW137076   2.892   4.202   9.024 -0.7520 -0.0704 -0.6157
 8481SOL    HW237077   2.913   4.144   8.891 -0.2213 -2.5188  1.8019
 8482SOL     OW37078   1.334   2.136   3.583 -0.1555 -0.0773  0.1175
 8482SOL    HW137079   1.336   2.213   3.526  0.2901 -0.4159 -0.3218
 8482SOL    HW237080   1.240   2.116   3.583 -0.4532  1.3470  1.9560
 8483SOL     OW37081   1.933   1.783  14.240  0.3915  0.0160  0.0831
 8483SOL    HW137082   1.976   1.855  14.287 -0.4738  0.4204  0.2565
 8483SOL    HW237083   1.969   1.712  14.293  0.2242 -0.1907 -0.0805
 8484SOL     OW37084   0.051   2.108  10.952 -0.0885  0.0175 -1.0010
 8484SOL    HW137085   0.001   2.059  10.888  0.5462 -1.2472 -0.5224
 8484SOL    HW237086   4.719   2.167  10.982  1.2677  1.0204  0.1893
 8485SOL     OW37087   1.378   2.157   8.860 -0.2270  0.6054 -0.3321
 8485SOL    HW137088   1.432   2.226   8.822 -0.7020  1.7462  1.0471
 8485SOL    HW237089   1.329   2.213   8.921 -3.1168 -0.6062 -1.5473
 8486SOL     OW37090   3.221   4.422   6.136 -0.2429  0.1394 -0.4772
 8486SOL    HW137091   3.190   4.357   6.199 -0.0201 -1.1138 -1.6708
 8486SOL    HW237092   3.285   4.371   6.087  0.0379  0.3901 -0.3752
 8487SOL     OW37093   1.196   1.691   0.551  0.1852  0.2796 -0.7188
 8487SOL    HW137094   1.193   1.786   0.538  1.9868  0.3838 -0.4111
 8487SOL    HW237095   1.103   1.669   0.542  0.4929 -1.1502 -0.4069
 8488SOL     OW37096   2.672   0.732   8.760 -0.4648  0.1521 -0.2027
 8488SOL    HW137097   2.702   0.644   8.781  0.4002  1.0912  2.4511
 8488SOL    HW237098   2.583   0.714   8.730 -0.7394 -0.1919  0.8197
 8489SOL     OW37099   4.058   2.859  14.495 -0.2770  0.5333 -0.2271
 8489SOL    HW137100   4.051   2.861  14.399  2.5212 -1.6754 -0.4634
 8489SOL    HW237101   4.109   2.781  14.514 -0.3884  0.0282 -2.0065
 8490SOL     OW37102   4.395   4.674   4.659  0.6172 -0.0943 -0.7511
 8490SOL    HW137103   4.393   4.731   4.582  0.8446  0.7747 -0.1102
 8490SOL    HW237104   4.486   4.679   4.686  0.2256 -1.1529  0.7638
 8491SOL     OW37105   2.134   2.494   6.928 -0.3210  0.4654 -0.6251
 8491SOL    HW137106   2.174   2.411   6.904 -2.0442 -0.5732  0.1008
 8491SOL    HW237107   2.212   2.550   6.928 -0.0262  0.0668  1.4961
 8492SOL     OW37108   1.867   1.289   8.335  0.0492 -0.0548  0.1322
 8492SOL    HW137109   1.849   1.196   8.321  2.1848 -0.4616  0.0644
 8492SOL    HW237110   1.827   1.336   8.262 -0.0266  1.7358  1.3199
 8493SOL     OW37111   0.868   1.975   5.908  0.3250 -0.2075 -0.1661
 8493SOL    HW137112   0.948   2.016   5.939  1.2128 -1.5951 -0.6406
 8493SOL    HW237113   0.890   1.885   5.930  0.9833 -0.2739 -1.0917
 8494SOL     OW37114   4.454   1.204  16.247  0.1792 -0.4184 -0.2699
 8494SOL    HW137115   4.394   1.191  16.320  0.2337 -1.7705 -0.4772
 8494SOL    HW237116   4.496   1.119  16.238  0.0997 -0.4661 -0.1820
 8495SOL     OW37117   0.884   1.263   6.794 -0.0312 -0.3940 -0.5324
 8495SOL    HW137118   0.882   1.227   6.882  0.7857  1.2974  0.1798
 8495SOL    HW237119   0.964   1.230   6.754  0.7294 -0.3554  0.9775
 8496SOL     OW37120   4.127   1.054  10.298  0.5793 -0.1037  0.2985
 8496SOL    HW137121   4.163   0.969  10.323  2.0914  0.8568  1.3279
 8496SOL    HW237122   4.035   1.043  10.272  0.0527  0.0564  2.0447
 8497SOL     OW37123   1.034   0.240   3.365  0.3563 -0.0348  0.7178
 8497SOL    HW137124   0.980   0.199   3.433  1.8958  0.0231  1.9823
 8497SOL    HW237125   0.971   0.283   3.308  0.2806 -0.7882  0.2314
 8498SOL     OW37126   2.755   2.734  14.699 -0.3268  0.1566 -0.2826
 8498SOL    HW137127   2.671   2.709  14.738 -1.3619  0.0432 -2.5950
 8498SOL    HW237128   2.757   2.665  14.632  1.0021 -2.1459  2.1575
 8499SOL     OW37129   3.014   3.516   2.341  0.1076 -0.2911  0.4150
 8499SOL    HW137130   3.072   3.441   2.349 -0.9728 -1.2826 -1.1722
 8499SOL    HW237131   2.928   3.482   2.366  0.5615 -0.2489  2.1000
 8500SOL     OW37132   1.121   2.533   5.203  0.0053  0.1231  0.3130
 8500SOL    HW137133   1.178   2.521   5.127  2.5211  3.1641  1.7722
 8500SOL    HW237134   1.075   2.615   5.183  1.4524  1.0870  0.9664
 8501SOL     OW37135   4.311   0.456   3.590 -0.1888 -0.0463  0.1512
 8501SOL    HW137136   4.267   0.490   3.512  0.5252  0.8707  0.1396
 8501SOL    HW237137   4.401   0.468   3.562 -0.3491  0.4525 -0.1449
 8502SOL     OW37138   3.210   4.595  12.891  0.2520  0.0084 -0.1220
 8502SOL    HW137139   3.176   4.631  12.809 -1.6271 -2.0046 -0.2217
 8502SOL    HW237140   3.159   4.643  12.956  0.3092 -1.0357  0.7061
 8503SOL     OW37141   2.262   3.075  16.480 -0.2837  0.2309 -0.1409
 8503SOL    HW137142   2.335   3.034  16.434 -0.8373 -1.9801  0.9502
 8503SOL    HW237143   2.270   3.042  16.569 -0.9404  2.4713  0.7466
 8504SOL     OW37144   1.482   0.443   6.414  0.1968 -0.6649 -0.4144
 8504SOL    HW137145   1.478   0.351   6.388 -1.2251 -1.1723  1.6418
 8504SOL    HW237146   1.490   0.428   6.508 -2.7800  0.7492  0.0535
 8505SOL     OW37147   3.288   2.144   8.366  0.0355  0.2100 -0.4871
 8505SOL    HW137148   3.359   2.195   8.404 -1.2122 -0.2794  2.4958
 8505SOL    HW237149   3.267   2.202   8.293 -0.9506  0.0656 -0.3177
 8506SOL     OW37150   1.829   4.393  13.586 -0.9449 -0.6138 -0.4483
 8506SOL    HW137151   1.734   4.396  13.577 -1.0545 -1.8075  0.2036
 8506SOL    HW237152   1.843   4.308  13.543  1.8015  1.0748 -2.8662
 8507SOL     OW37153   2.123   0.168   8.195  0.0665  0.8685 -0.1295
 8507SOL    HW137154   2.074   0.243   8.229  0.4412  0.2998  1.6680
 8507SOL    HW237155   2.086   0.159   8.108 -1.8449  1.6227  0.6072
 8508SOL     OW37156   2.634   1.629   7.372 -0.0158 -0.4278  0.1821
 8508SOL    HW137157   2.597   1.556   7.321  1.1812 -0.0064 -1.2715
 8508SOL    HW237158   2.586   1.707   7.345  3.9154  2.2164  0.9977
 8509SOL     OW37159   4.004   3.854   7.221  0.2979 -0.1645 -0.2830
 8509SOL    HW137160   3.969   3.790   7.284  0.1088  0.3229  0.1075
 8509SOL    HW237161   4.082   3.806   7.195 -0.8395 -0.4555 -3.1467
 8510SOL     OW37162   0.259   3.805   6.452 -0.0868  0.1281 -0.7109
 8510SOL    HW137163   0.211   3.755   6.519  0.5204 -0.2319 -0.5343
 8510SOL    HW237164   0.298   3.735   6.400  2.5980  1.9313 -1.0978
 8511SOL     OW37165   4.078   3.523   3.383 -0.1688 -0.2421 -0.8536
 8511SOL    HW137166   4.004   3.578   3.356 -1.0912 -1.3627 -0.6365
 8511SOL    HW237167   4.039   3.435   3.378 -0.1645 -0.2401 -0.9171
 8512SOL     OW37168   0.144   4.681   5.789  0.1769 -0.4713 -0.2678
 8512SOL    HW137169   0.200   4.607   5.811  1.4417  0.6802  0.3843
 8512SOL    HW237170   0.211   4.735   5.749  0.5659 -2.1784 -1.8837
 8513SOL     OW37171   4.278   4.503   7.966  0.3678 -0.1693 -0.2663
 8513SOL    HW137172   4.216   4.470   7.901 -1.4228  1.5044  0.5741
 8513SOL    HW237173   4.230   4.488   8.047  1.1046  0.8842  0.3636
 8514SOL     OW37174   3.465   2.371   2.944 -0.4088  0.5457  0.2943
 8514SOL    HW137175   3.490   2.389   2.854  1.9051 -0.7335  0.6794
 8514SOL    HW237176   3.460   2.462   2.972 -0.9687  0.7491 -0.4643
 8515SOL     OW37177   0.409   0.835   8.617  0.0756  0.2922  0.2505
 8515SOL    HW137178   0.443   0.783   8.690  0.3873 -0.4611 -0.4352
 8515SOL    HW237179   0.491   0.863   8.576 -0.0670 -0.3029 -0.4428
 8516SOL     OW37180   2.562   3.255   2.535  0.2858 -0.2058  0.1187
 8516SOL    HW137181   2.489   3.193   2.528 -0.8114  1.5021 -3.7532
 8516SOL    HW237182   2.521   3.334   2.570  2.1131  0.0578  1.6580
 8517SOL     OW37183   0.820   1.716   3.952  0.2065  0.6253  0.3184
 8517SOL    HW137184   0.761   1.791   3.944 -0.2628  0.2925  0.6315
 8517SOL    HW237185   0.849   1.714   3.861  2.0511  2.9042  0.8728
 8518SOL     OW37186   4.224   1.032  15.185  0.3115  0.0870 -0.2521
 8518SOL    HW137187   4.246   1.125  15.176  0.8705 -0.0104  0.1336
 8518SOL    HW237188   4.296   0.997  15.237 -1.1028 -3.1376 -0.4981
 8519SOL     OW37189   1.744   2.130   7.879  0.0270 -0.8064 -0.4240
 8519SOL    HW137190   1.833   2.111   7.909  0.4838  1.0550 -0.5929
 8519SOL    HW237191   1.759   2.141   7.785  0.2776  0.2452 -0.2646
 8520SOL     OW37192   3.333   4.135  11.110  0.3333 -0.0013  0.3501
 8520SOL    HW137193   3.358   4.118  11.201 -0.9194  1.0028  0.8854
 8520SOL    HW237194   3.402   4.197  11.086  0.5982 -0.0382  0.9976
 8521SOL     OW37195   3.532   1.450   2.262 -0.3083 -0.2503  0.1254
 8521SOL    HW137196   3.482   1.531   2.249  2.5632  1.2147 -2.0283
 8521SOL    HW237197   3.479   1.422   2.336 -1.6870 -0.3405 -0.9039
 8522SOL     OW37198   1.659   4.379   2.164 -0.3046  0.1511  0.7080
 8522SOL    HW137199   1.748   4.406   2.185 -0.4424  0.5815  0.7409
 8522SOL    HW237200   1.651   4.382   2.069 -0.9537 -2.0012  0.7007
 8523SOL     OW37201   4.270   3.075  14.197 -0.2493  0.6490 -0.1621
 8523SOL    HW137202   4.282   3.062  14.291 -0.5966  1.0175 -0.0665
 8523SOL    HW237203   4.181   3.048  14.176 -0.1379  1.2325 -1.3850
 8524SOL     OW37204   0.359   0.129   6.547  0.2003  0.6996  0.3434
 8524SOL    HW137205   0.307   0.166   6.476  0.3064  3.0791  1.4819
 8524SOL    HW237206   0.440   0.109   6.501 -0.8160 -0.4000 -0.9323
 8525SOL     OW37207   2.340   2.446   6.391 -0.2361  0.4330 -0.2050
 8525SOL    HW137208   2.346   2.428   6.297 -0.1003 -0.6505  0.0093
 8525SOL    HW237209   2.405   2.516   6.397 -1.6708  1.5931  1.7217
 8526SOL     OW37210   4.516   0.788  12.937 -0.1807 -0.4177  0.3539
 8526SOL    HW137211   4.587   0.736  12.974  0.2232  0.7091  1.1899
 8526SOL    HW237212   4.482   0.726  12.873  2.3976  0.4980 -1.8792
 8527SOL     OW37213   1.544   0.617   4.506 -0.3934 -0.6687 -0.0072
 8527SOL    HW137214   1.462   0.605   4.554  0.2802 -1.7061  0.8858
 8527SOL    HW237215   1.585   0.684   4.561 -1.2134 -1.8711  2.0640
 8528SOL     OW37216   4.727   0.083  10.329  0.1200  0.0735  0.3738
 8528SOL    HW137217   4.682   4.737  10.322 -0.4896  0.5647 -1.4372
 8528SOL    HW237218   0.004   0.094  10.423  4.0460  0.3815 -0.2993
 8529SOL     OW37219   0.003   0.923   3.215  0.3704  0.4518 -0.2967
 8529SOL    HW137220   0.018   0.921   3.309 -1.2788  1.8283  0.0035
 8529SOL    HW237221   4.708   0.833   3.211 -0.3765  0.6818  0.9508
 8530SOL     OW37222   1.590   3.859   3.907  0.2331  0.5451  0.2783
 8530SOL    HW137223   1.522   3.871   3.973  0.5341 -0.2724  0.7346
 8530SOL    HW237224   1.542   3.810   3.840  0.2938  0.6874  0.1312
 8531SOL     OW37225   1.700   2.353  16.858  0.0817  0.5927 -0.1266
 8531SOL    HW137226   1.608   2.369  16.881  0.7676  2.0497  1.6201
 8531SOL    HW237227   1.710   2.267  16.899 -2.4597  0.0075 -0.6997
 8532SOL     OW37228   1.791   3.688   5.354  0.6507  0.1150  0.3478
 8532SOL    HW137229   1.860   3.735   5.307 -1.5148  1.2828 -1.6628
 8532SOL    HW237230   1.724   3.737   5.307  0.7445  1.0519  1.2148
 8533SOL     OW37231   0.246   2.406  11.816  0.2706 -0.3738  0.4400
 8533SOL    HW137232   0.225   2.312  11.813 -0.6730 -0.0710 -2.8920
 8533SOL    HW237233   0.291   2.390  11.898  0.6963  0.4421  0.3689
 8534SOL     OW37234   4.020   0.164   1.938  0.1239  0.7531  0.0093
 8534SOL    HW137235   3.951   0.130   1.881  0.1560  0.1570  0.3151
 8534SOL    HW237236   4.060   0.082   1.970 -0.0201 -0.0058 -1.7751
 8535SOL     OW37237   0.837   2.916  14.782 -0.1932 -0.0775  0.4504
 8535SOL    HW137238   0.777   2.895  14.853  1.3742 -2.2578  1.1268
 8535SOL    HW237239   0.807   3.007  14.785 -1.1246 -0.4882  3.3244
 8536SOL     OW37240   0.575   2.748   0.031  0.2056  0.3016 -0.1728
 8536SOL    HW137241   0.537   2.782   0.112  0.1112 -1.0241  0.3533
 8536SOL    HW237242   0.558   2.817  17.717 -1.4571  0.3882  0.3721
 8537SOL     OW37243   1.035   1.042  12.675  0.1494  0.6334  0.1029
 8537SOL    HW137244   0.962   0.981  12.674  1.3979 -0.8572 -1.2284
 8537SOL    HW237245   0.994   1.128  12.663 -0.4290  0.3217 -0.1239
 8538SOL     OW37246   4.305   1.232  12.676  0.6080  0.1622  0.3063
 8538SOL    HW137247   4.362   1.157  12.696 -1.0425 -0.9161  0.9805
 8538SOL    HW237248   4.235   1.214  12.739 -1.0055 -0.5775 -1.7007
 8539SOL     OW37249   3.316   1.168   1.780  0.5173 -0.2294  0.1237
 8539SOL    HW137250   3.267   1.160   1.861  0.3732  0.3368  0.0957
 8539SOL    HW237251   3.405   1.164   1.816  0.1529  1.3025  1.1934
 8540SOL     OW37252   4.443   3.159   1.580  0.1722 -0.4810 -0.5096
 8540SOL    HW137253   4.406   3.185   1.664  1.0894  1.6098 -0.7515
 8540SOL    HW237254   4.394   3.078   1.564 -2.8027  1.0323  1.0790
 8541SOL     OW37255   4.218   0.610   2.916 -0.3307  0.1629  0.3600
 8541SOL    HW137256   4.195   0.579   2.829  1.9256  1.9389 -0.8974
 8541SOL    HW237257   4.170   0.692   2.931 -1.8738 -0.3778 -1.6510
 8542SOL     OW37258   1.766   1.504   1.796  0.5705 -0.0808 -0.1789
 8542SOL    HW137259   1.708   1.429   1.782 -0.3175  0.9134 -1.8531
 8542SOL    HW237260   1.843   1.468   1.840  0.5995  0.6173  0.3284
 8543SOL     OW37261   0.471   1.693  11.176  0.2393 -0.2848  0.1143
 8543SOL    HW137262   0.424   1.752  11.117  1.7974 -1.1417 -2.0089
 8543SOL    HW237263   0.547   1.686  11.117  0.9538 -1.3540  1.1379
 8544SOL     OW37264   1.674   1.437   3.330  0.2116 -0.1985 -0.2982
 8544SOL    HW137265   1.749   1.497   3.330 -0.5451  0.7634 -0.9268
 8544SOL    HW237266   1.699   1.371   3.265 -0.7804 -0.2195 -0.6585
 8545SOL     OW37267   1.628   1.053   4.215  0.1813  0.5577  0.4835
 8545SOL    HW137268   1.534   1.038   4.206  0.7129 -1.6604 -1.2059
 8545SOL    HW237269   1.647   1.110   4.141  0.1242 -2.0383 -1.4960
 8546SOL     OW37270   0.941   1.803  13.492  0.0444  0.1085  0.0212
 8546SOL    HW137271   0.860   1.841  13.457 -0.4247 -0.2515  0.7136
 8546SOL    HW237272   0.950   1.829  13.583 -2.0046 -2.2187  0.8834
 8547SOL     OW37273   4.168   2.117   2.775  0.1441  0.2957 -0.2462
 8547SOL    HW137274   4.223   2.075   2.841  1.9581  2.2035 -0.5243
 8547SOL    HW237275   4.192   2.072   2.694 -2.1580 -0.3451 -0.5612
 8548SOL     OW37276   0.443   2.323   7.415 -0.3091  0.4976 -0.0060
 8548SOL    HW137277   0.394   2.308   7.495 -3.4292  0.8856 -1.8662
 8548SOL    HW237278   0.430   2.418   7.406 -0.8945  0.6426  2.3776
 8549SOL     OW37279   1.680   3.284   9.008 -0.0728 -0.1863 -0.2383
 8549SOL    HW137280   1.774   3.299   9.017  0.2206 -1.8381 -0.3978
 8549SOL    HW237281   1.640   3.338   9.075 -2.2065 -1.0840 -0.7563
 8550SOL     OW37282   1.450   1.853   7.317  0.3737 -0.1006  0.0104
 8550SOL    HW137283   1.413   1.816   7.236 -1.9379 -2.0480  1.9714
 8550SOL    HW237284   1.529   1.899   7.289 -0.2337  0.2523 -1.1195
 8551SOL     OW37285   2.678   3.623   1.642  0.4730 -0.1371 -0.8172
 8551SOL    HW137286   2.721   3.612   1.557 -0.2513 -2.5759 -0.8786
 8551SOL    HW237287   2.585   3.629   1.619  0.4373  0.0233 -0.6293
 8552SOL     OW37288   1.269   1.177   8.227  0.1578  0.5577  0.5613
 8552SOL    HW137289   1.239   1.089   8.205  0.2067  0.8848 -0.8405
 8552SOL    HW237290   1.268   1.173   8.322 -1.6811 -0.2596  0.5066
 8553SOL     OW37291   3.451   3.027   5.097 -0.3476  0.2523  0.6030
 8553SOL    HW137292   3.415   2.958   5.152  0.5743 -1.2805 -0.6892
 8553SOL    HW237293   3.419   3.102   5.146 -3.3940  0.2417 -1.3568
 8554SOL     OW37294   0.459   1.741   4.066 -0.2757  0.0896  0.4002
 8554SOL    HW137295   0.388   1.798   4.095 -0.9144  0.0905 -1.1619
 8554SOL    HW237296   0.453   1.745   3.971  0.5449 -1.6739  0.2594
 8555SOL     OW37297   2.238   4.242   4.051  0.2090  0.1070  0.1720
 8555SOL    HW137298   2.219   4.325   4.095 -2.0566 -0.1109 -0.3672
 8555SOL    HW237299   2.154   4.195   4.051 -0.3583  1.1090 -1.7326
 8556SOL     OW37300   3.763   2.803  12.821  0.2239 -0.2113  0.1901
 8556SOL    HW137301   3.775   2.888  12.864 -3.3176  0.5358 -0.2278
 8556SOL    HW237302   3.830   2.750  12.864  0.8672  0.1771 -0.3349
 8557SOL     OW37303   3.124   4.586   4.620 -0.8466  0.5359 -0.0176
 8557SOL    HW137304   3.108   4.496   4.647 -2.4830  1.2956  1.5052
 8557SOL    HW237305   3.049   4.637   4.648 -0.4577  0.7932  0.5432
 8558SOL     OW37306   1.364   0.278   8.881  0.7566 -0.7609 -0.6751
 8558SOL    HW137307   1.392   0.316   8.964  0.5903 -1.0198 -0.4959
 8558SOL    HW237308   1.384   0.348   8.819  0.8700  1.4986  1.9116
 8559SOL     OW37309   0.453   1.520   7.666  0.1354 -0.0542  0.3014
 8559SOL    HW137310   0.413   1.450   7.718  1.5336 -0.0663  1.3623
 8559SOL    HW237311   0.504   1.556   7.740  0.0168  2.3303 -0.7599
 8560SOL     OW37312   0.279   2.251   4.739  0.4509  0.1186 -0.0281
 8560SOL    HW137313   0.326   2.283   4.663 -0.3478  0.7311 -0.2694
 8560SOL    HW237314   0.229   2.178   4.701 -0.6253  0.5317  0.5694
 8561SOL     OW37315   0.636   0.203   4.261  0.0104  0.3340  0.0902
 8561SOL    HW137316   0.679   0.148   4.196 -1.5843  0.2424 -0.8626
 8561SOL    HW237317   0.712   0.257   4.284  0.2638 -0.2484  0.6132
 8562SOL     OW37318   3.707   1.176  16.350  0.1412  0.4247 -0.0093
 8562SOL    HW137319   3.789   1.173  16.300  0.6031  0.9316  0.7292
 8562SOL    HW237320   3.689   1.083  16.359 -1.9121  0.8122 -0.1868
 8563SOL     OW37321   3.388   2.377   7.980 -0.5360  0.0806  0.3151
 8563SOL    HW137322   3.430   2.392   8.065  0.3086 -1.4400  0.1602
 8563SOL    HW237323   3.448   2.423   7.922  0.9273 -1.3448  0.6876
 8564SOL     OW37324   1.806   2.871  12.718 -0.4155  0.3278  0.4438
 8564SOL    HW137325   1.831   2.821  12.640 -1.4726 -1.8442  1.5015
 8564SOL    HW237326   1.711   2.885  12.712 -0.7546 -1.0436  2.5270
 8565SOL     OW37327   0.422   3.563   9.277 -0.0463  0.0156  0.2969
 8565SOL    HW137328   0.469   3.526   9.202 -2.1837  0.3332 -1.2166
 8565SOL    HW237329   0.480   3.545   9.350 -0.9226 -1.1565  0.7041
 8566SOL     OW37330   3.303   4.417   5.564 -0.1721  0.1153 -0.1271
 8566SOL    HW137331   3.237   4.421   5.496 -1.4228 -3.6446  0.8607
 8566SOL    HW237332   3.378   4.434   5.507  1.1928  2.6273  2.3859
 8567SOL     OW37333   0.467   0.217   2.867  0.1338  0.2177 -0.2903
 8567SOL    HW137334   0.434   0.149   2.926 -0.4125 -0.3762 -1.2759
 8567SOL    HW237335   0.484   0.162   2.790 -2.3024  0.7106 -1.2006
 8568SOL     OW37336   4.476   3.529   7.011  0.1770 -0.2446  0.2318
 8568SOL    HW137337   4.489   3.489   7.098 -1.7954  1.1059  1.1425
 8568SOL    HW237338   4.500   3.621   7.020 -0.1479 -0.1356 -0.0257
 8569SOL     OW37339   1.518   1.980   1.337 -0.4279 -0.4426  0.1982
 8569SOL    HW137340   1.511   1.962   1.430 -0.6592 -1.6549 -0.0414
 8569SOL    HW237341   1.479   1.901   1.298 -0.5397 -1.4767  2.4175
 8570SOL     OW37342   0.319   0.051   8.384  0.8527  0.1833  0.4188
 8570SOL    HW137343   0.250   0.044   8.317 -0.4649  0.6463  1.7274
 8570SOL    HW237344   0.388   4.731   8.351 -1.5807 -3.6129  1.9326
 8571SOL     OW37345   0.700   0.406   1.499  0.0519 -0.2454  0.3703
 8571SOL    HW137346   0.740   0.320   1.508  0.9028  0.1612  0.5545
 8571SOL    HW237347   0.652   0.388   1.418 -0.9517 -0.7506  1.0857
 8572SOL     OW37348   1.279   3.196   7.154  0.1785  0.5331 -0.2283
 8572SOL    HW137349   1.324   3.219   7.236  2.3105  1.2126 -1.5962
 8572SOL    HW237350   1.276   3.275   7.101 -0.8013 -0.1059 -1.1369
 8573SOL     OW37351   4.441   0.715   8.816  0.1578  0.2461  0.3054
 8573SOL    HW137352   4.494   0.699   8.894 -0.2002  0.7225  0.6437
 8573SOL    HW237353   4.462   0.641   8.759 -1.5430 -0.4685  0.6242
 8574SOL     OW37354   0.854   1.963   6.269 -0.3480 -0.2546  0.2114
 8574SOL    HW137355   0.871   1.878   6.229 -0.4386 -0.0503 -0.2635
 8574SOL    HW237356   0.920   2.010   6.217 -0.9207 -2.2784 -2.3539
 8575SOL     OW37357   2.024   4.223   7.522 -0.5920 -0.0345 -0.2935
 8575SOL    HW137358   2.081   4.153   7.490  1.7354  1.0671  1.4529
 8575SOL    HW237359   2.091   4.284   7.551 -0.3037 -0.6947  0.4233
 8576SOL     OW37360   0.629   2.395   6.084 -0.1610 -0.3240  0.1386
 8576SOL    HW137361   0.666   2.469   6.036  0.4159 -0.6696  0.0567
 8576SOL    HW237362   0.538   2.423   6.071 -0.5521 -0.4274  2.5284
 8577SOL     OW37363   1.128   1.464   4.259  0.7535 -0.1641  0.2181
 8577SOL    HW137364   1.097   1.398   4.198 -2.5003  0.3894  1.2334
 8577SOL    HW237365   1.079   1.439   4.338  2.7381  1.4186  1.9599
 8578SOL     OW37366   3.768   4.389  14.614  0.4271 -0.0769  0.5803
 8578SOL    HW137367   3.776   4.321  14.681 -0.2315 -2.4845 -1.7357
 8578SOL    HW237368   3.735   4.460  14.668  0.1986  0.4931 -0.3014
 8579SOL     OW37369   2.512   0.409   0.296  0.1000 -0.6664  0.2222
 8579SOL    HW137370   2.541   0.492   0.257  0.8350 -0.2955  1.5526
 8579SOL    HW237371   2.533   0.423   0.388 -0.1157 -0.6910  0.2748
 8580SOL     OW37372   2.756   4.108   3.415  0.1707 -0.0776  0.3381
 8580SOL    HW137373   2.827   4.165   3.443 -1.5101  1.9932  0.3665
 8580SOL    HW237374   2.728   4.154   3.336  2.3281  0.5298 -0.0754
 8581SOL     OW37375   4.495   2.965   6.830 -0.8936 -0.1801  0.5474
 8581SOL    HW137376   4.568   2.942   6.772 -1.3000  0.5377 -0.2609
 8581SOL    HW237377   4.535   3.020   6.897 -0.4520 -0.1132  0.2246
 8582SOL     OW37378   0.035   0.646   8.645  0.4156  0.2360 -0.9012
 8582SOL    HW137379   0.059   0.662   8.736  0.6720 -0.5526 -0.8291
 8582SOL    HW237380   0.061   0.731   8.609 -1.4541  0.6534 -1.2708
 8583SOL     OW37381   1.176   1.997   8.717 -0.0799  0.7703 -0.0857
 8583SOL    HW137382   1.265   1.969   8.697 -1.0144 -0.3624 -2.6252
 8583SOL    HW237383   1.195   2.051   8.794 -0.2792  0.8106 -0.0655
 8584SOL     OW37384   1.397   1.232   1.132 -0.4432  0.4829  0.0429
 8584SOL    HW137385   1.393   1.313   1.082  0.5398  0.3827 -0.2035
 8584SOL    HW237386   1.442   1.258   1.212 -1.5605 -1.8590  1.4277
 8585SOL     OW37387   0.643   2.974   5.620 -0.1054  0.2152  0.1974
 8585SOL    HW137388   0.594   2.960   5.540 -0.0465  0.8609  0.0531
 8585SOL    HW237389   0.713   2.912   5.598  1.2677  1.8580 -0.0533
 8586SOL     OW37390   1.644   3.854   5.632  0.0284  0.3238  0.0979
 8586SOL    HW137391   1.737   3.868   5.648  0.0155  1.0597 -0.4776
 8586SOL    HW237392   1.607   3.886   5.714  3.6190 -0.9567  2.2109
 8587SOL     OW37393   1.368   3.269  12.411 -0.2492  0.4193  0.5297
 8587SOL    HW137394   1.421   3.341  12.445  0.5767  0.1706 -0.2485
 8587SOL    HW237395   1.339   3.309  12.330 -2.5393  0.1149  1.2065
 8588SOL     OW37396   0.128   1.029  12.636 -0.2561 -0.2304 -0.2116
 8588SOL    HW137397   0.079   0.949  12.653  1.1221 -1.1011 -0.3708
 8588SOL    HW237398   0.058   1.077  12.591 -1.4917 -2.9605 -1.2146
 8589SOL     OW37399   3.677   0.280   5.025 -0.4584 -0.6060 -0.2203
 8589SOL    HW137400   3.681   0.196   5.069  1.2312 -0.2236  0.3545
 8589SOL    HW237401   3.738   0.273   4.952  0.4279  2.1424  0.2675
 8590SOL     OW37402   2.710   3.053   3.826  0.2940 -0.4476  0.1748
 8590SOL    HW137403   2.668   3.068   3.911  0.7063  1.0242  0.1214
 8590SOL    HW237404   2.668   3.117   3.769 -1.3099  2.6863  4.8716
 8591SOL     OW37405   1.383   2.483   5.569 -0.2671  0.1933  0.8441
 8591SOL    HW137406   1.472   2.491   5.601 -1.4253  2.5876  3.4667
 8591SOL    HW237407   1.398   2.445   5.483  2.3772  0.5074  1.1817
 8592SOL     OW37408   0.948   0.370   0.571  0.3086  0.6299 -0.0413
 8592SOL    HW137409   0.922   0.454   0.533  2.2050  1.4709  0.5095
 8592SOL    HW237410   0.884   0.356   0.641  0.3347  0.3108 -0.0788
 8593SOL     OW37411   0.547   3.835   8.239 -0.4572  0.2096 -0.5505
 8593SOL    HW137412   0.634   3.812   8.204  0.6246 -0.1498  2.4100
 8593SOL    HW237413   0.544   3.930   8.229 -3.2174  0.3032  1.0685
 8594SOL     OW37414   0.125   3.667   2.851  0.2763  0.0362 -0.1904
 8594SOL    HW137415   0.188   3.656   2.780  0.4919  1.2311 -0.1845
 8594SOL    HW237416   0.071   3.588   2.843 -1.2205  0.9386  0.8138
 8595SOL     OW37417   2.635   0.167   4.786  0.0321 -0.5490  0.0844
 8595SOL    HW137418   2.693   0.134   4.717  2.3544  1.8516  0.8957
 8595SOL    HW237419   2.607   0.248   4.743  2.1487  0.7262  1.1273
 8596SOL     OW37420   2.218   3.354   8.339  0.0116 -0.1949  0.2648
 8596SOL    HW137421   2.166   3.319   8.266  2.0580  0.6435 -1.5869
 8596SOL    HW237422   2.230   3.444   8.308 -1.8837  1.1641  3.5531
 8597SOL     OW37423   2.179   0.422  17.603 -0.3943  0.2555 -0.4439
 8597SOL    HW137424   2.269   0.414  17.636  0.3580  0.7294 -2.3899
 8597SOL    HW237425   2.170   0.517  17.597 -0.0542  0.2798 -0.5863
 8598SOL     OW37426   3.749   1.032   0.123  0.1503 -0.9556  0.0645
 8598SOL    HW137427   3.801   1.054   0.045 -0.9395 -0.7835 -0.6075
 8598SOL    HW237428   3.818   1.038   0.189 -1.5368  0.8435  1.6479
 8599SOL     OW37429   2.471   0.271   6.117 -0.4075  0.2492 -0.3524
 8599SOL    HW137430   2.460   0.178   6.098  0.4867  0.0297  0.2035
 8599SOL    HW237431   2.567   0.267   6.123 -0.3824  0.1580 -0.8362
 8600SOL     OW37432   2.247   3.470   2.687  0.8861 -0.1856 -0.6813
 8600SOL    HW137433   2.340   3.456   2.707  0.8117  0.5855  0.1961
 8600SOL    HW237434   2.231   3.560   2.715 -0.5384 -1.0656  1.3499
 8601SOL     OW37435   1.187   2.760   5.745 -0.6382 -0.0758 -0.0274
 8601SOL    HW137436   1.196   2.733   5.837 -1.2180  1.1437  0.3874
 8601SOL    HW237437   1.103   2.722   5.719 -0.9712  1.7746 -1.6172
 8602SOL     OW37438   3.082   3.981   8.155  0.5882  0.4276 -0.3911
 8602SOL    HW137439   3.069   4.007   8.063  0.3183 -0.2469 -0.5445
 8602SOL    HW237440   3.172   3.952   8.168 -0.8242 -2.9696  1.7643
 8603SOL     OW37441   4.155   2.195   3.867 -0.0866 -0.2041 -0.3439
 8603SOL    HW137442   4.212   2.166   3.938  1.0292  3.3394  0.2065
 8603SOL    HW237443   4.152   2.287   3.894  1.4597 -0.0856 -0.6019
 8604SOL     OW37444   2.587   2.698   6.743  0.3168 -0.2475 -0.3095
 8604SOL    HW137445   2.638   2.765   6.789 -0.8685  0.3477  0.1337
 8604SOL    HW237446   2.637   2.701   6.662  0.9812  0.0908  0.1061
 8605SOL     OW37447   3.176   2.976   2.808  0.5661  0.6583  0.0400
 8605SOL    HW137448   3.168   2.915   2.735 -0.3350 -0.2292  0.8934
 8605SOL    HW237449   3.227   3.046   2.766  0.9520  0.5107  0.2668
 8606SOL     OW37450   2.607   1.620  14.142 -0.2323 -0.5446  0.1692
 8606SOL    HW137451   2.532   1.679  14.142 -0.6984 -1.1354 -0.3368
 8606SOL    HW237452   2.673   1.677  14.182 -3.0556  1.6370  1.6752
 8607SOL     OW37453   3.904   3.045   9.621 -0.3184 -0.0192  0.0219
 8607SOL    HW137454   3.832   2.992   9.655 -0.4287  1.4277  2.0576
 8607SOL    HW237455   3.877   3.057   9.530  1.1610 -0.4903 -0.4966
 8608SOL     OW37456   3.661   3.246   1.008 -0.4639 -0.5425 -0.0432
 8608SOL    HW137457   3.615   3.191   0.945  3.1574  0.0551 -3.2544
 8608SOL    HW237458   3.752   3.223   0.990 -0.4506  0.1768 -0.9180
 8609SOL     OW37459   1.467   0.169   6.347  0.5883 -0.8157 -0.2503
 8609SOL    HW137460   1.511   0.084   6.350  0.5832 -0.8591 -1.2234
 8609SOL    HW237461   1.402   0.147   6.413 -0.0472  0.4203 -0.4676
 8610SOL     OW37462   0.882   0.441   8.332  0.5398  0.9838  0.1564
 8610SOL    HW137463   0.835   0.496   8.270 -0.8796  1.5264  1.7005
 8610SOL    HW237464   0.914   0.367   8.280  1.0068  1.8933 -0.8497
 8611SOL     OW37465   2.211   3.852  16.554 -0.1013  0.4680  0.1195
 8611SOL    HW137466   2.199   3.840  16.648  1.9670  0.7641  0.4369
 8611SOL    HW237467   2.289   3.908  16.545  1.4330 -1.5048  0.9895
 8612SOL     OW37468   2.989   4.272  15.376  0.3956 -0.3103 -0.1193
 8612SOL    HW137469   2.948   4.292  15.292  0.7058  1.4936  0.1374
 8612SOL    HW237470   2.909   4.265  15.428  0.6274  0.8298  0.4110
 8613SOL     OW37471   3.591   0.282  11.166 -0.1675 -0.5506 -0.1693
 8613SOL    HW137472   3.685   0.265  11.161  0.2482  1.6552 -0.0711
 8613SOL    HW237473   3.576   0.225  11.241  1.0163 -1.1344 -0.3715
 8614SOL     OW37474   0.762   4.440   6.551 -0.5209  0.4529  0.2836
 8614SOL    HW137475   0.797   4.391   6.625  0.2861 -2.2723 -1.9250
 8614SOL    HW237476   0.720   4.370   6.502  2.4717 -0.7948 -0.4698
 8615SOL     OW37477   1.902   3.338  17.694  0.0543  0.6210 -0.0991
 8615SOL    HW137478   1.855   3.255  17.686 -1.3735  1.4590 -0.3891
 8615SOL    HW237479   1.873   3.390  17.620 -0.6821 -0.2019 -0.3902
 8616SOL     OW37480   4.606   4.571   7.615 -0.7651 -0.6588 -0.1958
 8616SOL    HW137481   4.688   4.534   7.581 -0.7574 -1.6413  0.8833
 8616SOL    HW237482   4.603   4.536   7.704 -1.1564  2.0437  0.8655
 8617SOL     OW37483   0.401   4.596   0.941  0.0513 -0.2165  0.8783
 8617SOL    HW137484   0.401   4.532   1.012  1.3514 -1.1988  0.0004
 8617SOL    HW237485   0.385   4.538   0.867 -1.1185  0.2320  0.7893
 8618SOL     OW37486   1.002   0.936   3.856  0.4983 -0.0377  0.0915
 8618SOL    HW137487   1.096   0.948   3.842  0.1400  0.9709 -1.5060
 8618SOL    HW237488   1.004   0.842   3.869  0.1732  0.1241  1.3368
 8619SOL     OW37489   4.480   0.178   2.931 -0.1058  0.1756 -0.2284
 8619SOL    HW137490   4.402   0.199   2.982  0.6811  0.7453  0.7413
 8619SOL    HW237491   4.452   0.114   2.865 -0.2448 -0.3524  0.3388
 8620SOL     OW37492   0.173   2.521   7.820  0.1373 -0.4179  0.6199
 8620SOL    HW137493   0.257   2.547   7.859 -0.0262 -0.7240  1.1859
 8620SOL    HW237494   0.191   2.526   7.726  0.2033 -0.4031  0.6337
 8621SOL     OW37495   3.828   2.686   3.462 -0.8007  0.6652  0.0834
 8621SOL    HW137496   3.868   2.763   3.422 -1.0789  0.2168 -1.0810
 8621SOL    HW237497   3.894   2.640   3.514 -1.8182 -2.2199 -1.1658
 8622SOL     OW37498   0.110   2.099   3.520  0.1096 -0.4912  0.6214
 8622SOL    HW137499   0.126   2.116   3.427  3.3832  1.5535  1.5968
 8622SOL    HW237500   0.016   2.079   3.528 -0.0073 -1.0955 -2.2533
 8623SOL     OW37501   3.746   2.501   1.698 -0.9260  0.4897  0.5536
 8623SOL    HW137502   3.738   2.587   1.656 -0.0137 -0.1208 -0.8707
 8623SOL    HW237503   3.717   2.444   1.627  0.0055  0.5284  0.1357
 8624SOL     OW37504   3.019   0.028   5.543  0.3186 -0.7564  0.0952
 8624SOL    HW137505   3.087   4.724   5.490  0.4144  0.0468 -0.4140
 8624SOL    HW237506   3.057   0.112   5.570  0.8132 -0.5165 -1.3307
 8625SOL     OW37507   4.730   2.182   4.668  0.1853 -0.6264  0.8229
 8625SOL    HW137508   0.006   2.275   4.684 -0.8461 -0.0114 -1.8375
 8625SOL    HW237509   4.635   2.186   4.679  0.1683 -0.2545  0.5386
 8626SOL     OW37510   0.382   2.455   8.844 -0.0221  0.2132 -0.1237
 8626SOL    HW137511   0.400   2.362   8.835  0.9016  0.2391  1.3842
 8626SOL    HW237512   0.379   2.464   8.939 -0.6800 -1.2977 -0.0016
 8627SOL     OW37513   3.488   1.560   3.645  0.3925 -0.1960  0.2090
 8627SOL    HW137514   3.399   1.559   3.609 -0.1481  1.2447  1.4623
 8627SOL    HW237515   3.508   1.469   3.667  3.2240  0.2601 -0.4552
 8628SOL     OW37516   2.638   1.439  17.095  0.1300 -1.3481  0.2251
 8628SOL    HW137517   2.591   1.523  17.097  1.5358 -0.5522 -0.7269
 8628SOL    HW237518   2.652   1.428  17.001 -3.1961 -1.3029 -0.2995
 8629SOL     OW37519   2.175   3.257   3.336 -0.6556 -0.0946  0.1459
 8629SOL    HW137520   2.172   3.318   3.262  1.9441 -0.1072  0.0192
 8629SOL    HW237521   2.267   3.240   3.353 -0.8227 -0.6026  0.5228
 8630SOL     OW37522   4.490   4.736   5.226 -0.7095 -0.4529 -0.4390
 8630SOL    HW137523   4.423   4.712   5.290 -1.1122 -0.5836 -0.9113
 8630SOL    HW237524   4.460   4.685   5.150 -0.9593  0.6430 -1.0873
 8631SOL     OW37525   2.559   1.290   4.655 -0.5901  0.0011  0.0102
 8631SOL    HW137526   2.494   1.283   4.585  0.2182 -0.9532 -0.6572
 8631SOL    HW237527   2.588   1.203   4.683 -2.7670 -1.0942 -1.1345
 8632SOL     OW37528   0.773   1.759   9.401 -0.3120 -0.4136  0.8700
 8632SOL    HW137529   0.703   1.736   9.340 -0.4225 -0.4760  1.0204
 8632SOL    HW237530   0.822   1.677   9.412  0.1392 -0.7662 -3.3961
 8633SOL     OW37531   0.774   1.273   4.200 -0.0961 -0.1735  0.3198
 8633SOL    HW137532   0.832   1.223   4.142  0.7316  0.0286  0.9722
 8633SOL    HW237533   0.747   1.341   4.139 -0.4030  1.8456  2.6982
 8634SOL     OW37534   3.160   0.872  12.142  0.0078 -0.1281  0.2218
 8634SOL    HW137535   3.157   0.929  12.219  0.9864  1.0593 -0.6115
 8634SOL    HW237536   3.219   0.799  12.162 -0.6572 -1.4521 -2.5987
 8635SOL     OW37537   0.823   3.377  15.883 -0.0498 -0.4744 -0.1143
 8635SOL    HW137538   0.792   3.466  15.901 -0.6394 -0.3998 -1.4790
 8635SOL    HW237539   0.748   3.339  15.838 -1.4164  2.5315 -0.4027
 8636SOL     OW37540   2.256   0.783   6.741  0.4778 -0.2967  0.2435
 8636SOL    HW137541   2.207   0.749   6.816 -0.4698 -1.0868 -0.7352
 8636SOL    HW237542   2.237   0.713   6.678  3.6846 -1.8509  0.9938
 8637SOL     OW37543   1.179   2.926  14.891 -0.4962 -0.0421 -0.1468
 8637SOL    HW137544   1.212   2.941  14.803  0.3144 -0.1770  0.1308
 8637SOL    HW237545   1.096   2.974  14.886  1.2200  2.8496 -1.0271
 8638SOL     OW37546   2.503   0.047   8.492 -0.4877 -0.5095  0.5971
 8638SOL    HW137547   2.465   0.038   8.580 -0.2072 -0.6993  0.7000
 8638SOL    HW237548   2.438   0.096   8.441  0.9600  1.0247  0.2255
 8639SOL     OW37549   1.392   1.431  17.662  0.4651 -0.6560  0.2501
 8639SOL    HW137550   1.336   1.418  17.738 -1.7408 -2.6949 -1.7413
 8639SOL    HW237551   1.365   1.509  17.614 -1.0720 -1.7935 -0.7518
 8640SOL     OW37552   1.690   2.053   6.824 -0.5834  0.1966  0.2273
 8640SOL    HW137553   1.681   1.975   6.879  2.9441  1.3796  2.4750
 8640SOL    HW237554   1.749   2.025   6.754 -2.3365 -0.9068 -0.8042
 8641SOL     OW37555   4.076   4.097   0.117  0.6796 -0.1245  0.0084
 8641SOL    HW137556   4.036   4.026   0.167 -2.3869  1.4660 -0.1811
 8641SOL    HW237557   4.042   4.175   0.162 -0.7207 -0.3341 -0.7081
 8642SOL     OW37558   4.186   1.093   7.824  0.6746  0.1052  0.4468
 8642SOL    HW137559   4.163   1.009   7.783  0.6219  1.2042 -1.7985
 8642SOL    HW237560   4.278   1.090   7.798  0.6106  3.3042 -0.0922
 8643SOL     OW37561   0.734   0.106   7.280  0.1308  0.2253  0.2980
 8643SOL    HW137562   0.749   0.116   7.186  0.3051 -2.0282  0.0654
 8643SOL    HW237563   0.642   0.082   7.291  0.0299  0.4542 -0.0667
 8644SOL     OW37564   3.464   3.423   4.535 -0.0645 -0.1265 -0.0594
 8644SOL    HW137565   3.452   3.482   4.460 -3.6181  0.4320  0.9915
 8644SOL    HW237566   3.383   3.373   4.530 -1.0777  1.4089  0.8215
 8645SOL     OW37567   2.239   2.095   5.991  0.5499  0.0131 -0.2657
 8645SOL    HW137568   2.325   2.054   5.978  0.6122  0.4073 -1.0839
 8645SOL    HW237569   2.225   2.134   5.905 -0.9956  1.3055  0.5773
 8646SOL     OW37570   2.886   1.147   1.435  0.2231  0.0246 -0.0740
 8646SOL    HW137571   2.978   1.149   1.463 -0.5053 -1.7082  2.4641
 8646SOL    HW237572   2.883   1.100   1.352 -0.8067  0.5253 -0.3249
 8647SOL     OW37573   2.739   1.452  17.581 -0.6209 -0.1822  0.5272
 8647SOL    HW137574   2.811   1.493  17.533 -0.2238 -0.4244  0.9125
 8647SOL    HW237575   2.664   1.507  17.560  0.0368 -0.2705 -2.0461
 8648SOL     OW37576   1.384   0.002   6.575  0.2200  0.5877  0.5706
 8648SOL    HW137577   1.337   4.703   6.650 -1.1132  0.4922 -0.3128
 8648SOL    HW237578   1.460   4.682   6.568  0.2427  0.8272 -1.0883
 8649SOL     OW37579   0.314   1.771   6.737 -0.5583 -0.4215  0.6297
 8649SOL    HW137580   0.233   1.780   6.687  0.2118 -1.5359 -0.7924
 8649SOL    HW237581   0.289   1.782   6.829 -2.1999 -0.6364  0.2224
 8650SOL     OW37582   4.378   4.060   2.630  0.1126  0.1677  0.6524
 8650SOL    HW137583   4.425   4.010   2.697  0.5365 -0.6709 -0.2737
 8650SOL    HW237584   4.297   4.053   2.680  0.9423 -0.8227  1.8386
 8651SOL     OW37585   0.515   4.429  13.946 -0.1578 -0.2789 -0.1143
 8651SOL    HW137586   0.472   4.474  13.874 -1.2295 -1.4047 -0.1825
 8651SOL    HW237587   0.448   4.427  14.014 -0.9645  1.7691 -0.8583
 8652SOL     OW37588   0.189   1.643  13.607  0.3268 -0.8037  0.0562
 8652SOL    HW137589   0.108   1.694  13.611  0.2937 -0.6337 -2.8684
 8652SOL    HW237590   0.247   1.701  13.557 -1.4533  0.5105 -0.4683
 8653SOL     OW37591   1.497   0.880   6.442 -0.3464 -0.4374  0.3210
 8653SOL    HW137592   1.490   0.868   6.537  0.9996  1.6261  0.6957
 8653SOL    HW237593   1.588   0.861   6.421 -0.8462 -0.6493 -1.5616
 8654SOL     OW37594   3.918   1.239   2.118 -0.0383 -0.6645  0.4757
 8654SOL    HW137595   4.009   1.264   2.106  0.0243 -0.4707  1.3787
 8654SOL    HW237596   3.881   1.321   2.085 -0.6481 -1.1568 -0.0660
 8655SOL     OW37597   1.549   2.172  16.267 -0.5094 -0.1833 -0.2078
 8655SOL    HW137598   1.542   2.261  16.300 -0.8335 -0.5027  0.5647
 8655SOL    HW237599   1.466   2.168  16.221 -0.0830 -0.6756 -0.9387
 8656SOL     OW37600   1.509   0.135   3.068 -0.4459  0.6384  0.1329
 8656SOL    HW137601   1.446   0.196   3.031 -3.6579 -2.2418  0.8590
 8656SOL    HW237602   1.518   0.168   3.158 -2.8507 -0.3195  0.7272
 8657SOL     OW37603   0.707   1.500  10.259  0.3066  0.1341  0.4880
 8657SOL    HW137604   0.707   1.570  10.194 -0.5017 -1.7463 -1.5498
 8657SOL    HW237605   0.728   1.423  10.205  0.0842  0.0362  0.5409
 8658SOL     OW37606   0.661   2.649   3.411 -0.0444 -0.0569  0.4128
 8658SOL    HW137607   0.651   2.732   3.363  2.4994 -0.5334 -0.9730
 8658SOL    HW237608   0.600   2.657   3.485  0.9584 -2.0712  1.4366
 8659SOL     OW37609   0.773   3.968   5.260 -0.4209  0.0357 -0.3551
 8659SOL    HW137610   0.722   4.041   5.295  0.5237  1.0852 -1.1556
 8659SOL    HW237611   0.832   3.941   5.330 -0.7296  0.6419  0.1417
 8660SOL     OW37612   2.100   2.719   5.975  0.3307  0.4178  0.2131
 8660SOL    HW137613   2.049   2.794   5.947 -0.5432 -0.3249 -0.1728
 8660SOL    HW237614   2.105   2.675   5.890  0.3525 -1.6617  1.2924
 8661SOL     OW37615   1.204   2.070   8.182 -0.2575 -0.0287  0.0094
 8661SOL    HW137616   1.244   2.002   8.236 -2.3289  0.2657  1.9535
 8661SOL    HW237617   1.128   2.030   8.139 -0.0877 -0.0803 -0.2424
 8662SOL     OW37618   2.469   0.102  15.753 -0.0673 -0.0855  0.2085
 8662SOL    HW137619   2.561   0.096  15.728 -0.8450 -0.2157 -2.5826
 8662SOL    HW237620   2.483   0.087  15.847  0.8443  1.0201  0.2410
 8663SOL     OW37621   3.842   4.436   6.013 -0.1437  0.0858  0.1438
 8663SOL    HW137622   3.752   4.409   5.997 -0.0408  1.9191 -3.4424
 8663SOL    HW237623   3.870   4.479   5.933 -2.5453  0.9718 -0.2150
 8664SOL     OW37624   3.203   0.526   3.231 -0.3974 -0.3310 -0.0152
 8664SOL    HW137625   3.276   0.582   3.207 -0.8954  0.1304 -0.4648
 8664SOL    HW237626   3.224   0.522   3.324  3.0302  0.6913 -0.7475
 8665SOL     OW37627   3.954   3.311   1.756  0.0535 -0.6370  0.0054
 8665SOL    HW137628   4.006   3.291   1.678 -0.0370  1.0797 -0.4917
 8665SOL    HW237629   3.941   3.405   1.747 -0.6433 -0.5626  1.7599
 8666SOL     OW37630   3.024   3.269   6.123 -0.3618  0.3548 -0.5956
 8666SOL    HW137631   3.077   3.230   6.193 -1.3067  0.0175 -0.0755
 8666SOL    HW237632   3.088   3.293   6.056  1.2225  1.3059  1.2513
 8667SOL     OW37633   0.907   2.970   8.264 -0.1700  0.3551 -0.0473
 8667SOL    HW137634   0.868   2.888   8.296 -1.8865  0.0809 -2.8141
 8667SOL    HW237635   0.855   3.041   8.302 -0.7962  0.0151 -0.2669
 8668SOL     OW37636   3.097   4.566  15.387 -0.3512  0.2860 -0.1714
 8668SOL    HW137637   3.175   4.526  15.348  0.9652  2.2550  0.4380
 8668SOL    HW237638   3.026   4.506  15.367  0.8732 -1.5380  1.0071
 8669SOL     OW37639   2.266   0.092   5.069  0.1620 -0.3168 -0.5609
 8669SOL    HW137640   2.253   0.081   5.163  2.3515  0.8289 -0.1164
 8669SOL    HW237641   2.343   0.148   5.062 -1.1032  1.9366  3.3617
 8670SOL     OW37642   4.095   3.503   9.485 -0.3681 -0.5153  0.7813
 8670SOL    HW137643   4.033   3.534   9.551 -0.4314 -1.0630  0.9799
 8670SOL    HW237644   4.182   3.521   9.522  0.2124  1.3006 -1.5082
 8671SOL     OW37645   3.540   3.757   2.637 -0.8274  0.2253 -0.7217
 8671SOL    HW137646   3.497   3.795   2.560  0.1126 -0.0134 -1.3707
 8671SOL    HW237647   3.534   3.836   2.691 -1.2054 -0.5532  0.3713
 8672SOL     OW37648   4.239   2.118   1.902 -0.5408  0.4121 -0.0777
 8672SOL    HW137649   4.220   2.107   1.995 -0.0671 -2.3626 -0.3253
 8672SOL    HW237650   4.308   2.184   1.905 -0.4565  0.3072  0.2580
 8673SOL     OW37651   1.270   4.002   7.252  0.2122 -0.3819  0.3565
 8673SOL    HW137652   1.338   3.936   7.241  2.3453  1.3733  3.0993
 8673SOL    HW237653   1.315   4.057   7.316  0.4714 -2.2742  1.8084
 8674SOL     OW37654   2.161   4.326   5.805 -0.0434  0.6877 -0.2205
 8674SOL    HW137655   2.177   4.245   5.855  1.7289 -0.1790 -2.1607
 8674SOL    HW237656   2.197   4.388   5.869 -0.6772  1.0925 -0.2658
 8675SOL     OW37657   3.546   4.280   3.246  0.0436  0.0512 -0.5598
 8675SOL    HW137658   3.627   4.320   3.276 -0.8740  0.7325  1.0219
 8675SOL    HW237659   3.563   4.189   3.273  1.0220  0.1056 -0.9881
 8676SOL     OW37660   2.756   3.537   6.369  0.5339  0.1744 -0.1453
 8676SOL    HW137661   2.826   3.565   6.428  1.0467  0.1648 -0.7480
 8676SOL    HW237662   2.802   3.538   6.286 -2.0578  2.3440 -1.5361
 8677SOL     OW37663   4.348   4.055   4.528  0.4096 -0.0280  0.1156
 8677SOL    HW137664   4.364   4.031   4.619  0.5036  0.6089  0.2689
 8677SOL    HW237665   4.252   4.057   4.532  0.4715 -2.0802  2.9704
 8678SOL     OW37666   1.630   3.471   5.331 -0.0208  1.0848 -0.3990
 8678SOL    HW137667   1.716   3.434   5.315 -0.1561  0.4743  0.2847
 8678SOL    HW237668   1.661   3.561   5.335  0.2024  1.0259 -0.9338
 8679SOL     OW37669   3.204   3.893  12.670  0.2625 -0.0969 -0.0314
 8679SOL    HW137670   3.136   3.905  12.736 -0.6529 -1.4218 -0.7373
 8679SOL    HW237671   3.179   3.969  12.618 -0.8280 -0.4640 -0.0258
 8680SOL     OW37672   3.781   1.906   7.258 -0.5698  0.0064 -0.3246
 8680SOL    HW137673   3.771   1.861   7.342  0.3993  0.4311  0.0141
 8680SOL    HW237674   3.872   1.884   7.240 -0.7453 -1.4196  0.4976
 8681SOL     OW37675   2.504   3.999   3.418  0.4366 -0.2902 -0.1124
 8681SOL    HW137676   2.599   3.996   3.429  0.5932  1.1317 -1.0733
 8681SOL    HW237677   2.473   4.015   3.507 -1.2016 -0.6317 -0.6346
 8682SOL     OW37678   1.527   2.534   4.499 -0.5129 -0.2022  0.5116
 8682SOL    HW137679   1.486   2.541   4.413 -1.8651 -1.5789  1.0483
 8682SOL    HW237680   1.536   2.439   4.509  0.8594 -0.1645 -0.2477
 8683SOL     OW37681   0.712   0.698   7.532 -1.0679 -0.2288 -0.2197
 8683SOL    HW137682   0.799   0.723   7.504 -0.9789 -1.3063 -0.9242
 8683SOL    HW237683   0.651   0.772   7.524  1.7632  2.0807 -0.1896
 8684SOL     OW37684   3.876   3.677   8.770 -0.4338 -0.2003  1.0521
 8684SOL    HW137685   3.850   3.611   8.834 -2.4516 -1.0407 -0.5960
 8684SOL    HW237686   3.810   3.746   8.763 -0.2380  0.0930  2.2157
 8685SOL     OW37687   0.270   0.517   8.923  0.0897 -0.0746  0.1228
 8685SOL    HW137688   0.182   0.553   8.920  0.3251  0.4812 -0.2581
 8685SOL    HW237689   0.257   0.440   8.867 -0.3234  0.7452 -0.9122
 8686SOL     OW37690   2.312   2.077   5.572  0.4436 -0.5106 -0.0215
 8686SOL    HW137691   2.328   2.020   5.497 -1.6108  0.3494 -1.1101
 8686SOL    HW237692   2.374   2.148   5.553  0.3716 -0.9586 -1.8665
 8687SOL     OW37693   2.764   0.593   7.418 -0.0152 -0.1314  0.9387
 8687SOL    HW137694   2.782   0.520   7.359 -0.5521  1.2583 -0.9381
 8687SOL    HW237695   2.848   0.636   7.400 -0.0568 -0.0386  0.9668
 8688SOL     OW37696   4.307   2.444  11.130  0.4201 -0.7817  0.6335
 8688SOL    HW137697   4.319   2.352  11.153  1.7327 -1.0254 -1.0714
 8688SOL    HW237698   4.342   2.487  11.208  1.7017  1.1901 -1.0487
 8689SOL     OW37699   3.827   2.312   4.373 -0.2937  0.4941  0.3744
 8689SOL    HW137700   3.854   2.400   4.398 -3.4143  0.9400  2.1950
 8689SOL    HW237701   3.736   2.328   4.350 -0.2581  1.3781  0.8757
 8690SOL     OW37702   4.598   3.884   7.564 -0.2640 -0.4336  0.2271
 8690SOL    HW137703   4.648   3.929   7.632 -0.5251 -0.0462  0.1575
 8690SOL    HW237704   4.529   3.945   7.539 -2.0928 -2.7093 -0.2832
 8691SOL     OW37705   4.554   1.872   6.530 -0.1049 -0.4325 -1.0748
 8691SOL    HW137706   4.621   1.816   6.490 -0.9428 -0.6746 -2.1045
 8691SOL    HW237707   4.566   1.845   6.622  1.2982 -0.4820 -1.2689
 8692SOL     OW37708   3.854   2.183   1.845 -0.3534 -0.2796 -0.1524
 8692SOL    HW137709   3.780   2.197   1.786 -0.1690  1.9212  0.1262
 8692SOL    HW237710   3.913   2.133   1.788  0.5478 -0.0718  0.6011
 8693SOL     OW37711   0.278   0.436   2.840  0.4284 -0.0445  0.3559
 8693SOL    HW137712   0.362   0.481   2.851 -0.2532  0.3652  3.9272
 8693SOL    HW237713   0.301   0.351   2.879 -1.4515 -0.9627 -0.5260
 8694SOL     OW37714   3.453   0.643   4.154 -0.4938  0.3191 -0.1248
 8694SOL    HW137715   3.382   0.694   4.193 -1.6067  0.1528 -1.9074
 8694SOL    HW237716   3.434   0.659   4.061  3.6840 -2.9385 -1.5256
 8695SOL     OW37717   4.149   2.606   2.481  0.1503  0.2325  0.1438
 8695SOL    HW137718   4.154   2.595   2.576 -1.6761  0.8741  0.3106
 8695SOL    HW237719   4.088   2.679   2.476  0.8010  0.8841  1.6987
 8696SOL     OW37720   3.819   1.509   0.569  0.0356  0.1431  0.1106
 8696SOL    HW137721   3.853   1.597   0.577 -1.5924  0.7333  0.6563
 8696SOL    HW237722   3.898   1.462   0.544  0.0098  0.4458 -0.5394
 8697SOL     OW37723   2.710   4.039  10.879 -0.6270  0.0796  0.1921
 8697SOL    HW137724   2.734   4.116  10.827  0.4227 -0.3532  0.0341
 8697SOL    HW237725   2.666   4.081  10.953 -1.4407 -1.1280  0.3866
 8698SOL     OW37726   1.683   0.449  14.510 -0.0907 -0.0968 -0.2310
 8698SOL    HW137727   1.653   0.454  14.601 -0.2392 -0.2120 -0.2744
 8698SOL    HW237728   1.690   0.353  14.507  1.8520  0.0207  0.8574
 8699SOL     OW37729   3.243   1.731   3.317  0.4944 -0.2563  0.1288
 8699SOL    HW137730   3.281   1.752   3.231  3.4821  2.3605  2.0903
 8699SOL    HW237731   3.234   1.637   3.302 -1.8222 -0.3618  2.2343
 8700SOL     OW37732   0.706   3.573   1.289  0.3993 -0.4385  0.5891
 8700SOL    HW137733   0.789   3.575   1.336 -0.4111 -1.9685  2.0892
 8700SOL    HW237734   0.726   3.596   1.198  1.7261 -1.5977  0.5947
 8701SOL     OW37735   4.356   4.061   8.372  0.4651 -0.9409 -0.1452
 8701SOL    HW137736   4.436   4.018   8.342 -0.7200 -2.2539 -1.4148
 8701SOL    HW237737   4.308   3.980   8.384 -0.8168  0.0101  1.2229
 8702SOL     OW37738   3.996   3.580  10.074  0.5183 -0.5066  0.0313
 8702SOL    HW137739   3.922   3.582  10.136  0.7000 -1.2590  0.2629
 8702SOL    HW237740   3.952   3.554   9.993 -2.8450  1.3551  1.2216
 8703SOL     OW37741   0.301   1.303   0.920 -0.4650  0.0440  0.4118
 8703SOL    HW137742   0.353   1.280   0.843  1.6716  0.6871  1.6703
 8703SOL    HW237743   0.341   1.262   0.997 -0.7326 -0.4091  0.3114
 8704SOL     OW37744   0.328   3.505   0.628  0.4370  0.6090 -0.6689
 8704SOL    HW137745   0.310   3.531   0.719  2.4589  1.5236 -0.5372
 8704SOL    HW237746   0.267   3.554   0.573 -0.7162  1.6061  1.5195
 8705SOL     OW37747   4.024   0.411  15.987 -0.0778 -0.0516 -0.5050
 8705SOL    HW137748   4.048   0.391  15.897  0.6638 -1.5195  0.0271
 8705SOL    HW237749   4.109   0.415  16.030  0.0466 -0.4080 -0.7201
 8706SOL     OW37750   0.245   1.874   3.598 -0.1549 -0.0225  0.3367
 8706SOL    HW137751   0.172   1.919   3.556 -0.0965 -1.1160 -0.9248
 8706SOL    HW237752   0.308   1.946   3.595 -1.1947  0.9410  1.8998
 8707SOL     OW37753   0.413   1.012   7.116  0.2597 -0.4377  0.1522
 8707SOL    HW137754   0.453   1.012   7.029 -1.1331  0.4552 -0.4816
 8707SOL    HW237755   0.322   1.013   7.089  1.0084  4.4167 -2.2966
 8708SOL     OW37756   2.104   3.847   2.402  0.3608  0.4733  0.1791
 8708SOL    HW137757   2.034   3.819   2.342 -1.2685  1.5110  1.6028
 8708SOL    HW237758   2.052   3.877   2.476 -0.0934  1.0598 -0.3764
 8709SOL     OW37759   2.678   4.634   6.825 -0.2119 -0.2405  0.4778
 8709SOL    HW137760   2.769   4.633   6.797 -0.0986 -0.8918  0.8465
 8709SOL    HW237761   2.674   4.678   6.910 -0.5116  0.3885  0.1377
 8710SOL     OW37762   1.042   0.324  13.027 -0.0968  0.1726  0.1750
 8710SOL    HW137763   1.129   0.360  13.009  0.0894 -0.5457 -0.3236
 8710SOL    HW237764   1.009   0.308  12.939  1.5613 -2.8152  0.1327
 8711SOL     OW37765   3.704   3.571  10.831 -0.1127 -0.5862 -0.5092
 8711SOL    HW137766   3.665   3.633  10.769 -1.8702 -0.1292  1.0493
 8711SOL    HW237767   3.653   3.493  10.807 -1.1042  0.1624 -0.8498
 8712SOL     OW37768   0.431   2.544   8.339  0.1252 -0.0540  0.6177
 8712SOL    HW137769   0.382   2.570   8.260 -1.0793 -5.1200 -0.2966
 8712SOL    HW237770   0.428   2.627   8.386 -0.3818  0.9742 -1.2277
 8713SOL     OW37771   2.332   2.350   6.116  0.2633 -0.3518 -0.6130
 8713SOL    HW137772   2.322   2.273   6.060 -2.2919  0.7222 -1.6761
 8713SOL    HW237773   2.394   2.402   6.064  1.6654  1.0347  2.4939
 8714SOL     OW37774   0.466   2.513   2.399 -0.7398  0.0524  0.1157
 8714SOL    HW137775   0.523   2.584   2.430 -0.0279 -0.9730  1.1754
 8714SOL    HW237776   0.482   2.501   2.305 -1.0960  1.7216 -0.1591
 8715SOL     OW37777   2.349   3.382   3.697  0.4699 -0.4113 -0.0771
 8715SOL    HW137778   2.290   3.418   3.763 -0.0713 -4.1389  1.4481
 8715SOL    HW237779   2.283   3.402   3.631 -0.7037 -0.0676  1.2005
 8716SOL     OW37780   0.174   4.520   2.064 -0.0680 -0.0848  0.9239
 8716SOL    HW137781   0.123   4.529   1.984 -0.3603 -3.8587  0.6826
 8716SOL    HW237782   0.120   4.585   2.108 -0.3842  1.4365 -1.7032
 8717SOL     OW37783   3.820   1.362  17.662  0.1571  0.3966 -0.0607
 8717SOL    HW137784   3.732   1.328  17.680  0.8699 -0.7527  1.2592
 8717SOL    HW237785   3.850   1.360   0.003  1.3224  1.1251 -0.4294
 8718SOL     OW37786   2.686   1.478   7.006  0.3612 -0.1820  0.7651
 8718SOL    HW137787   2.679   1.552   6.945  2.7822 -1.6400 -1.2672
 8718SOL    HW237788   2.599   1.456   7.039 -0.3192 -0.1960 -1.0228
 8719SOL     OW37789   3.926   1.417  13.451 -0.2472 -0.1729  0.5021
 8719SOL    HW137790   3.885   1.395  13.367  4.1273 -2.5283 -1.0420
 8719SOL    HW237791   4.017   1.416  13.422 -0.5910  2.2132 -0.6842
 8720SOL     OW37792   4.571   3.924   8.257 -0.1706 -0.3733  0.3397
 8720SOL    HW137793   4.654   3.892   8.293  0.9711  1.2474 -0.8720
 8720SOL    HW237794   4.615   3.990   8.204  1.3717 -1.0072  0.8507
 8721SOL     OW37795   1.516   0.164  12.097 -0.4662  0.1683 -0.1332
 8721SOL    HW137796   1.545   0.202  12.180  1.1884 -1.6216  0.1215
 8721SOL    HW237797   1.574   0.088  12.094  1.8777  1.9262 -0.3301
 8722SOL     OW37798   1.190   4.172   1.156 -0.1782 -0.3921 -0.1371
 8722SOL    HW137799   1.261   4.146   1.097  0.9719 -0.2666  1.1951
 8722SOL    HW237800   1.211   4.264   1.143  0.8467 -0.9886 -2.7283
 8723SOL     OW37801   2.852   0.664   5.812 -0.3777 -0.0122  0.3158
 8723SOL    HW137802   2.877   0.608   5.739 -1.1641  2.4761 -1.8274
 8723SOL    HW237803   2.926   0.649   5.871  0.2995  0.3892 -0.4354
 8724SOL     OW37804   0.869   3.091   3.437  0.2881 -0.4022  0.0613
 8724SOL    HW137805   0.953   3.047   3.423 -0.4579 -2.0042  0.5925
 8724SOL    HW237806   0.812   3.049   3.372 -1.2771  0.2845  0.9840
 8725SOL     OW37807   0.294   0.059  12.529 -0.6312  0.5789 -0.3681
 8725SOL    HW137808   0.230   0.051  12.458 -0.0134  1.2626 -0.9953
 8725SOL    HW237809   0.266   4.714  12.569 -1.2548  0.2088 -1.5559
 8726SOL     OW37810   4.706   3.387   1.425  0.3979 -0.4886 -0.1111
 8726SOL    HW137811   4.687   3.296   1.401  0.1549 -0.0317 -1.6387
 8726SOL    HW237812   4.725   3.429   1.341 -2.0840  3.7206  1.4094
 8727SOL     OW37813   1.714   3.301   2.649  0.0358  0.3057  0.1167
 8727SOL    HW137814   1.804   3.322   2.675  0.1307  0.2675 -0.1807
 8727SOL    HW237815   1.683   3.390   2.630  1.5769  1.1530  1.4834
 8728SOL     OW37816   4.687   3.796  16.034  0.0511 -0.0762  1.0059
 8728SOL    HW137817   4.718   3.830  16.118  0.8114  0.3382  0.5585
 8728SOL    HW237818   4.610   3.756  16.075 -0.6910 -2.2527 -2.5050
 8729SOL     OW37819   4.233   3.641   6.416  0.9175  0.1026  0.4293
 8729SOL    HW137820   4.228   3.733   6.441  0.7118  0.3151 -0.3931
 8729SOL    HW237821   4.315   3.606   6.451  1.7059  1.2811 -0.2437
 8730SOL     OW37822   3.654   1.803   3.177  0.3966 -0.2797 -0.1874
 8730SOL    HW137823   3.738   1.760   3.164  0.3833 -1.0522  2.2948
 8730SOL    HW237824   3.686   1.892   3.193  1.8095 -0.8512  0.1173
 8731SOL     OW37825   4.093   1.415   6.971 -0.2946  0.0158 -0.0179
 8731SOL    HW137826   4.066   1.466   7.047  1.4353  1.6105 -0.4693
 8731SOL    HW237827   4.056   1.328   6.983 -0.6329 -0.1545 -2.2661
 8732SOL     OW37828   1.598   2.619   7.367  0.3611 -0.4833  0.7289
 8732SOL    HW137829   1.658   2.658   7.430 -0.1014  0.3767  0.6431
 8732SOL    HW237830   1.516   2.601   7.413 -0.0959  0.4522  0.2921
 8733SOL     OW37831   0.189   4.301   4.950  0.2069  0.3473 -0.0406
 8733SOL    HW137832   0.103   4.334   4.926 -1.0949 -2.2430  0.9988
 8733SOL    HW237833   0.239   4.348   4.883  0.3758  0.8461  0.4368
 8734SOL     OW37834   3.512   4.246  14.882  0.1569  0.0476  0.5294
 8734SOL    HW137835   3.500   4.219  14.791 -0.6601  1.0301  0.3423
 8734SOL    HW237836   3.426   4.288  14.891  0.2067 -0.1266  1.7996
 8735SOL     OW37837   2.117   4.410   7.176  0.8086  0.5178  0.1070
 8735SOL    HW137838   2.023   4.421   7.192  0.6632 -1.5667  0.7166
 8735SOL    HW237839   2.131   4.459   7.095 -0.7900  2.6470  1.1063
 8736SOL     OW37840   0.958   4.389   0.344 -0.2286 -0.2661 -0.0886
 8736SOL    HW137841   1.020   4.460   0.326  2.4201 -1.8082  2.8666
 8736SOL    HW237842   0.908   4.432   0.413  0.9431  1.4128 -0.2531
 8737SOL     OW37843   1.121   2.957   6.142 -0.5694 -0.2540 -0.2079
 8737SOL    HW137844   1.156   3.011   6.213  1.5166 -1.4163 -0.3380
 8737SOL    HW237845   1.082   3.026   6.089  1.1164  1.6700  1.0610
 8738SOL     OW37846   0.741   0.094   6.337  0.1778 -0.1548  0.0929
 8738SOL    HW137847   0.798   0.028   6.377  2.5023  1.5778 -0.3670
 8738SOL    HW237848   0.707   0.140   6.413  0.6391  1.9301 -0.9533
 8739SOL     OW37849   4.602   0.182   4.357 -0.8948 -0.6738 -0.1268
 8739SOL    HW137850   4.632   0.192   4.266  1.6958  0.7856  0.8975
 8739SOL    HW237851   4.540   0.255   4.366  0.3663  0.3681  0.0716
 8740SOL     OW37852   2.722   2.541   5.817  0.6118 -0.3052  0.5502
 8740SOL    HW137853   2.734   2.536   5.722  0.2230 -0.2216  0.4996
 8740SOL    HW237854   2.770   2.465   5.851 -3.5252 -1.2041  4.3763
 8741SOL     OW37855   4.188   1.021   8.097 -0.2769 -0.1303  0.8089
 8741SOL    HW137856   4.126   0.973   8.043  1.4171  0.2492 -1.4544
 8741SOL    HW237857   4.266   1.011   8.043 -1.0102  3.1044 -0.8246
 8742SOL     OW37858   1.102   3.014   7.382  0.2286 -0.5202  1.0329
 8742SOL    HW137859   1.087   2.996   7.289  1.3532 -1.2324  0.9903
 8742SOL    HW237860   1.016   3.050   7.404 -0.5971 -1.5848 -0.4686
 8743SOL     OW37861   3.860   0.358  14.364  0.1955  0.1126  0.2283
 8743SOL    HW137862   3.948   0.330  14.388  0.2261 -0.0766 -0.0946
 8743SOL    HW237863   3.873   0.400  14.279  0.8268 -1.9258 -0.7024
 8744SOL     OW37864   1.775   3.961   3.635  0.3034 -0.4672 -0.5088
 8744SOL    HW137865   1.714   3.888   3.623  0.9208 -0.8674 -1.2326
 8744SOL    HW237866   1.815   3.966   3.548  3.6444 -1.6721  0.9673
 8745SOL     OW37867   3.064   4.210   2.334  0.0533 -0.1626  0.7815
 8745SOL    HW137868   3.020   4.125   2.327  0.3644 -0.2583  0.0371
 8745SOL    HW237869   3.138   4.195   2.276 -0.5498 -1.7126  0.3850
 8746SOL     OW37870   1.616   0.971   1.852 -0.3170  0.3526 -0.0751
 8746SOL    HW137871   1.622   0.912   1.777  2.5736 -0.0592  0.5010
 8746SOL    HW237872   1.671   0.915   1.906 -0.9886 -1.0803 -0.8552
 8747SOL     OW37873   0.216   0.196   5.941 -0.1292  0.5194 -0.1332
 8747SOL    HW137874   0.286   0.146   5.983 -1.3671 -0.6404  0.5501
 8747SOL    HW237875   0.160   0.131   5.899 -0.7184  0.2389  1.1079
 8748SOL     OW37876   1.806   2.896  13.535  0.5211  0.2634 -0.1856
 8748SOL    HW137877   1.800   2.809  13.574 -4.2714  0.9707  0.6690
 8748SOL    HW237878   1.747   2.936  13.598  1.5137 -1.0765  1.5721
 8749SOL     OW37879   1.903   4.614   3.321  0.0207 -0.4575 -0.3158
 8749SOL    HW137880   1.843   4.585   3.252  0.9827  0.8022 -1.6937
 8749SOL    HW237881   1.887   4.555   3.394 -0.1147  0.6650  0.5784
 8750SOL     OW37882   4.363   0.713   9.168 -0.1278 -0.4179 -0.1661
 8750SOL    HW137883   4.314   0.777   9.116  2.1630  0.3098 -1.4270
 8750SOL    HW237884   4.345   0.728   9.261 -0.5051  0.0011 -0.3126
 8751SOL     OW37885   0.861   4.411   5.231  0.1632 -0.1998  0.0270
 8751SOL    HW137886   0.943   4.416   5.182 -0.2560  0.4057 -0.6224
 8751SOL    HW237887   0.897   4.389   5.317 -2.0331 -1.5627  0.5815
 8752SOL     OW37888   2.579   3.694   7.517 -0.0552 -0.3410  0.2100
 8752SOL    HW137889   2.552   3.713   7.607 -0.6006 -1.9555  0.3801
 8752SOL    HW237890   2.519   3.746   7.462 -2.1647 -2.3257  0.6553
 8753SOL     OW37891   3.390   3.544   9.156  0.6253  0.2172  0.4894
 8753SOL    HW137892   3.310   3.521   9.110  1.0439  0.2810 -0.2620
 8753SOL    HW237893   3.452   3.571   9.088  0.0234 -0.9929 -0.5318
 8754SOL     OW37894   3.649   3.785  10.670 -0.8882  0.0135  0.0149
 8754SOL    HW137895   3.651   3.869  10.716 -0.6289  0.5361 -0.9534
 8754SOL    HW237896   3.616   3.802  10.583 -0.2358 -2.5004 -0.7435
 8755SOL     OW37897   2.978   2.419   3.024 -0.4570  0.1287  0.2985
 8755SOL    HW137898   3.011   2.401   3.111  0.2629  1.3748  0.2808
 8755SOL    HW237899   2.890   2.433   3.058  0.2432 -1.6292  2.8513
 8756SOL     OW37900   4.365   2.474   4.358  0.8691  0.1597  0.0397
 8756SOL    HW137901   4.423   2.412   4.314  1.6846  2.2482 -1.8117
 8756SOL    HW237902   4.401   2.469   4.447 -2.4873  2.0793  1.4926
 8757SOL     OW37903   0.009   1.956   4.842 -0.3293 -0.8107  0.1765
 8757SOL    HW137904   0.017   2.035   4.788  1.5095 -2.2421 -1.6457
 8757SOL    HW237905   4.686   1.907   4.789  0.8930  0.0264 -1.9915
 8758SOL     OW37906   1.340   1.512   7.361  0.7056 -0.4682  0.8762
 8758SOL    HW137907   1.274   1.578   7.383  0.6150  0.6711 -2.8023
 8758SOL    HW237908   1.314   1.439   7.417 -1.0580 -1.2577 -0.9714
 8759SOL     OW37909   3.672   1.431  14.647  0.0070  0.2073 -0.3190
 8759SOL    HW137910   3.665   1.447  14.741  3.4885 -1.1468  0.1449
 8759SOL    HW237911   3.669   1.517  14.605  0.5396  0.0176 -0.7390
 8760SOL     OW37912   1.371   2.411   5.298 -0.6606  0.1134 -0.3013
 8760SOL    HW137913   1.311   2.482   5.276 -2.5112 -1.0675  0.9882
 8760SOL    HW237914   1.303   2.344   5.308 -2.5776  2.0931 -0.0726
 8761SOL     OW37915   3.125   2.529   8.041 -0.1775  0.8668  0.3900
 8761SOL    HW137916   3.198   2.582   8.074 -0.7676  1.0902  1.3134
 8761SOL    HW237917   3.141   2.448   8.089 -0.1650  0.1699 -0.7685
 8762SOL     OW37918   2.545   4.213   1.490  0.6737 -0.0059  0.1637
 8762SOL    HW137919   2.576   4.126   1.464  0.0710 -0.4164  0.7898
 8762SOL    HW237920   2.488   4.198   1.566 -1.5466 -0.0811 -1.5169
 8763SOL     OW37921   2.005   1.653  12.464  0.2579 -0.5157 -0.0621
 8763SOL    HW137922   1.913   1.633  12.481  0.9803 -2.8496  1.0864
 8763SOL    HW237923   2.043   1.566  12.476  1.2004 -0.1066 -0.0819
 8764SOL     OW37924   0.872   1.797   5.259  0.8360 -0.1878 -0.2578
 8764SOL    HW137925   0.853   1.776   5.167  0.6964  1.6854 -0.6434
 8764SOL    HW237926   0.782   1.806   5.288  2.0103  1.9311  2.6862
 8765SOL     OW37927   4.711   2.308   0.784 -0.0544  0.4452  0.1324
 8765SOL    HW137928   4.691   2.215   0.775  0.9589  0.2135  0.2380
 8765SOL    HW237929   0.045   2.304   0.721 -0.8622  1.4211 -0.8360
 8766SOL     OW37930   3.114   3.904   4.177  0.0607  0.3146  0.2546
 8766SOL    HW137931   3.019   3.916   4.179  0.0522  0.3363 -0.4217
 8766SOL    HW237932   3.134   3.956   4.254  1.8394 -3.9450  2.6928
 8767SOL     OW37933   4.028   0.757   3.892  0.2262  0.3256 -0.0698
 8767SOL    HW137934   4.080   0.734   3.969 -0.5036  0.9006  0.5939
 8767SOL    HW237935   4.099   0.804   3.848 -0.5346  1.2523 -0.2970
 8768SOL     OW37936   3.894   4.687   3.565  0.0395  0.2367  0.3233
 8768SOL    HW137937   3.884   0.043   3.581  1.8298  0.8537 -2.2109
 8768SOL    HW237938   3.831   4.652   3.628  1.9916 -0.8011  1.6988
 8769SOL     OW37939   4.307   3.106   3.750  0.3134  0.1089  0.4478
 8769SOL    HW137940   4.328   3.065   3.666 -1.3963  1.4063 -0.6105
 8769SOL    HW237941   4.319   3.031   3.808 -1.2050 -0.9647 -0.6305
 8770SOL     OW37942   1.005   0.743   7.522  0.1317  0.7496  0.2170
 8770SOL    HW137943   1.005   0.760   7.616 -2.9913  0.5765  0.2526
 8770SOL    HW237944   1.054   0.815   7.484  2.6533  0.2319  2.4344
 8771SOL     OW37945   2.031   0.185   3.171  0.4020 -0.1804 -0.2401
 8771SOL    HW137946   2.003   0.173   3.080 -0.3638  1.6201 -0.2444
 8771SOL    HW237947   1.973   0.124   3.215  0.2794  0.0794 -0.0403
 8772SOL     OW37948   4.471   1.022  12.787  0.0911  0.6281  0.2954
 8772SOL    HW137949   4.501   0.959  12.853  1.9236  1.1254 -0.0630
 8772SOL    HW237950   4.555   1.031  12.742 -0.5169  1.6098 -0.6325
 8773SOL     OW37951   0.240   3.011   2.755 -0.2769 -0.5340  0.2204
 8773SOL    HW137952   0.174   3.015   2.686 -1.5975  1.1095  1.5811
 8773SOL    HW237953   0.248   3.103   2.780  0.3440 -0.8893  1.3457
 8774SOL     OW37954   2.471   1.614  14.915  0.1916 -0.8124 -0.2321
 8774SOL    HW137955   2.551   1.621  14.864 -2.1595  0.7475 -3.7569
 8774SOL    HW237956   2.506   1.585  14.999  1.1490  0.1736 -0.2943
 8775SOL     OW37957   2.432   3.315   4.538 -0.1060 -0.0872 -0.4322
 8775SOL    HW137958   2.436   3.232   4.491  3.3589 -0.5847  0.7356
 8775SOL    HW237959   2.405   3.371   4.466 -1.8952 -0.8219 -0.3335
 8776SOL     OW37960   1.043   2.148  15.051  0.5531 -0.2816 -0.2765
 8776SOL    HW137961   1.054   2.053  15.051  1.4158 -0.1854  0.6868
 8776SOL    HW237962   0.987   2.167  14.976 -0.4364  0.7476  0.7204
 8777SOL     OW37963   0.577   3.772   5.158  0.3348  0.2721 -0.2861
 8777SOL    HW137964   0.510   3.829   5.119  0.7313  0.2606 -0.9886
 8777SOL    HW237965   0.649   3.832   5.180  0.3580  0.0975  0.1044
 8778SOL     OW37966   0.586   1.119   5.913  0.5215 -0.6825  0.7891
 8778SOL    HW137967   0.551   1.171   5.841 -1.0594 -0.0388  2.0247
 8778SOL    HW237968   0.613   1.040   5.865  0.7573 -0.4029  0.4613
 8779SOL     OW37969   1.129   3.234   1.361  0.0160 -0.7609  0.2403
 8779SOL    HW137970   1.133   3.258   1.454  0.4218  0.7886 -0.1833
 8779SOL    HW237971   1.204   3.282   1.325  0.1413 -0.2023  1.2511
 8780SOL     OW37972   1.773   3.738   2.007 -0.2668 -0.4487  0.2390
 8780SOL    HW137973   1.806   3.769   1.922  0.7547 -2.7507 -0.2078
 8780SOL    HW237974   1.797   3.646   1.999 -0.7393 -0.3980 -1.7043
 8781SOL     OW37975   1.142   3.468   9.633  0.0438 -0.2896  0.0631
 8781SOL    HW137976   1.180   3.549   9.597 -2.1021  0.9626  0.5989
 8781SOL    HW237977   1.137   3.498   9.723  1.2925  2.3980 -0.7491
 8782SOL     OW37978   0.532   3.685   3.898  0.5083  0.2060 -0.5855
 8782SOL    HW137979   0.464   3.747   3.923  1.4286  1.4716 -1.2251
 8782SOL    HW237980   0.557   3.721   3.813 -0.6488 -1.2743 -1.5493
 8783SOL     OW37981   1.868   2.477  11.899 -0.4931  0.0239  0.0596
 8783SOL    HW137982   1.813   2.414  11.945 -0.1402  0.6437  1.3219
 8783SOL    HW237983   1.947   2.424  11.885 -0.3909  0.0241  0.6387
 8784SOL     OW37984   3.575   1.101   2.203  0.1432  0.3425 -0.5288
 8784SOL    HW137985   3.524   1.067   2.276  1.1385 -1.0774 -0.4940
 8784SOL    HW237986   3.646   1.149   2.246 -0.7722  0.4512  0.8479
 8785SOL     OW37987   2.997   2.413   5.532 -0.4057  0.3644 -0.4855
 8785SOL    HW137988   2.926   2.435   5.472 -0.5237  0.7387 -0.2110
 8785SOL    HW237989   3.034   2.334   5.493  1.8163  1.7855 -1.2420
 8786SOL     OW37990   1.671   3.369   8.328  0.7306  0.4497 -0.0595
 8786SOL    HW137991   1.590   3.353   8.279  1.4952  0.4005 -1.3020
 8786SOL    HW237992   1.730   3.395   8.258  0.4303 -0.4324 -0.6507
 8787SOL     OW37993   3.939   2.971   5.596  0.7145  0.5009 -0.0421
 8787SOL    HW137994   3.893   3.034   5.651  0.3951 -0.5900  0.9333
 8787SOL    HW237995   3.877   2.972   5.523 -1.7230  1.0664  2.0606
 8788SOL     OW37996   2.473   2.495  11.288 -0.3367 -0.0101  0.0430
 8788SOL    HW137997   2.494   2.581  11.325  2.0672 -0.0640 -1.2360
 8788SOL    HW237998   2.541   2.495  11.221 -0.2353  1.7529  0.1407
 8789SOL     OW37999   1.439   2.815   3.291 -0.2640 -0.1296  0.3761
 8789SOL    HW138000   1.386   2.832   3.370 -0.2145 -1.6977  0.7542
 8789SOL    HW238001   1.462   2.725   3.314 -0.3423 -0.6513 -1.6178
 8790SOL     OW38002   3.016   2.491  15.651  0.2011  0.4206  0.0389
 8790SOL    HW138003   3.043   2.577  15.682  2.1942  0.0499 -0.6646
 8790SOL    HW238004   3.095   2.449  15.683  0.3655 -0.3847 -1.4253
 8791SOL     OW38005   2.798   2.967   2.425  0.3004  0.0498 -0.2592
 8791SOL    HW138006   2.744   2.947   2.501 -0.6281 -1.7193 -1.3863
 8791SOL    HW238007   2.729   2.970   2.358  0.5303 -1.1526 -0.5485
 8792SOL     OW38008   4.056   0.797   8.351  0.4589 -0.3179  0.5703
 8792SOL    HW138009   4.114   0.729   8.317  0.0570  0.9101 -2.5645
 8792SOL    HW238010   4.072   0.790   8.445 -1.4969  0.6003  0.9744
 8793SOL     OW38011   2.657   0.245   8.885  0.1345  0.0211  0.5215
 8793SOL    HW138012   2.712   0.226   8.961 -0.9532 -1.3113  0.9765
 8793SOL    HW238013   2.710   0.207   8.815  0.7953  0.4693  0.7811
 8794SOL     OW38014   2.742   4.453   7.791  0.1872 -0.1378 -0.1221
 8794SOL    HW138015   2.668   4.395   7.770 -2.6741  3.1667  0.8215
 8794SOL    HW238016   2.781   4.458   7.704  1.2314  1.8499  0.4816
 8795SOL     OW38017   4.107   2.803  14.227 -0.1992 -1.1175 -0.2734
 8795SOL    HW138018   4.196   2.781  14.200 -0.8071 -0.4658 -2.8118
 8795SOL    HW238019   4.058   2.743  14.171 -0.3159 -0.5168 -0.8237
 8796SOL     OW38020   3.346   2.703  12.301  0.6201  0.3302 -0.1180
 8796SOL    HW138021   3.326   2.613  12.327 -0.5631  0.4571 -0.6073
 8796SOL    HW238022   3.383   2.734  12.384  0.2962 -0.8547  0.4701
 8797SOL     OW38023   3.726   4.036   2.944 -0.1805 -0.4661 -0.3321
 8797SOL    HW138024   3.702   4.059   3.033  0.0887  0.5679 -0.5300
 8797SOL    HW238025   3.744   3.943   2.959 -0.4973 -0.3525  0.7173
 8798SOL     OW38026   0.299   4.712  10.351 -0.1160 -0.3302 -0.0138
 8798SOL    HW138027   0.264   4.729  10.264  0.2155  0.6388  0.0442
 8798SOL    HW238028   0.232   4.661  10.396 -0.4791 -0.4227 -0.6641
 8799SOL     OW38029   0.498   3.848   2.081 -0.5699 -0.4728  0.5739
 8799SOL    HW138030   0.541   3.769   2.047 -0.1009  0.0757 -0.1106
 8799SOL    HW238031   0.429   3.859   2.015 -0.6265 -0.4045  0.6456
 8800SOL     OW38032   3.996   3.860   3.668 -0.2697 -0.0879 -0.1243
 8800SOL    HW138033   3.953   3.774   3.675 -1.3989  0.4524 -0.3671
 8800SOL    HW238034   4.088   3.835   3.666 -0.3934 -0.5267 -0.4087
 8801SOL     OW38035   1.871   4.417   7.349  0.1826 -0.1786  0.1804
 8801SOL    HW138036   1.939   4.388   7.411 -1.7592 -1.8726  1.5278
 8801SOL    HW238037   1.812   4.469   7.404  0.0713  0.5995 -0.6747
 8802SOL     OW38038   2.772   1.311   3.696 -0.1575 -0.1269  0.4968
 8802SOL    HW138039   2.772   1.378   3.763 -0.6023 -0.0606  0.4283
 8802SOL    HW238040   2.793   1.232   3.745 -1.1242 -1.4949 -1.2676
 8803SOL     OW38041   4.494   2.079  12.928  0.1975 -0.4894  0.0103
 8803SOL    HW138042   4.425   2.061  12.992 -1.2594 -3.1082 -2.3174
 8803SOL    HW238043   4.501   2.173  12.943  0.9456  0.1083 -3.9225
 8804SOL     OW38044   0.864   1.805   8.457  0.3049  0.1685 -0.7592
 8804SOL    HW138045   0.942   1.801   8.512 -0.4894 -0.9398  0.2617
 8804SOL    HW238046   0.823   1.879   8.501 -1.0600 -0.9949 -0.0930
 8805SOL     OW38047   1.220   2.197   5.297  0.1290 -0.3202 -0.3038
 8805SOL    HW138048   1.141   2.247   5.319  0.2323 -1.0655  1.7023
 8805SOL    HW238049   1.177   2.134   5.240 -0.1996 -0.1930 -0.1998
 8806SOL     OW38050   0.168   4.265   0.171 -0.2747  0.3446  0.3152
 8806SOL    HW138051   0.090   4.230   0.213  0.0423  0.6086  1.1367
 8806SOL    HW238052   0.196   4.330   0.236 -1.0533  0.6749  0.3148
 8807SOL     OW38053   1.360   0.340   2.979 -0.0065  0.3297 -0.5488
 8807SOL    HW138054   1.335   0.431   2.989  0.0909  0.2514  0.4085
 8807SOL    HW238055   1.286   0.307   2.927  0.2673  1.6527 -1.7834
 8808SOL     OW38056   3.411   0.352   8.093  0.0265  0.6886  0.1897
 8808SOL    HW138057   3.442   0.286   8.032 -1.3983 -0.2736  0.5150
 8808SOL    HW238058   3.449   0.312   8.172 -3.0513  0.7674  1.6886
 8809SOL     OW38059   1.271   2.723   9.227  0.2865 -0.0882 -0.2613
 8809SOL    HW138060   1.238   2.812   9.236  0.6176  0.2423 -2.2588
 8809SOL    HW238061   1.214   2.685   9.160 -0.6986  0.1102  0.4648
 8810SOL     OW38062   3.887   3.032  13.232 -0.4908 -0.6074 -0.2028
 8810SOL    HW138063   3.814   3.043  13.170  0.9041  0.8438 -1.5870
 8810SOL    HW238064   3.957   2.993  13.179 -0.8289 -1.3096 -0.1346
 8811SOL     OW38065   3.326   2.712   7.706 -0.6031 -0.0650  0.0691
 8811SOL    HW138066   3.392   2.692   7.640 -0.7496 -0.8221  0.1596
 8811SOL    HW238067   3.336   2.808   7.705  2.9128 -0.4260  0.8904
 8812SOL     OW38068   2.601   1.467  14.688  0.0897 -0.0506 -0.2378
 8812SOL    HW138069   2.568   1.385  14.725  0.2809  0.5312  1.2177
 8812SOL    HW238070   2.543   1.476  14.612  0.0988  3.4194  0.1899
 8813SOL     OW38071   1.526   3.743   6.531 -0.2197 -0.0331 -0.4763
 8813SOL    HW138072   1.458   3.676   6.534 -0.5620  0.2721 -1.7855
 8813SOL    HW238073   1.523   3.759   6.437  1.0619  3.0708  0.0181
 8814SOL     OW38074   2.435   0.001   4.765  0.4942  0.5314  0.5020
 8814SOL    HW138075   2.360   0.013   4.823  1.2132 -0.2990  1.5941
 8814SOL    HW238076   2.502   0.059   4.801  1.9883 -1.2660  0.6046
 8815SOL     OW38077   0.470   2.510   0.740  0.5446  0.2729  0.2869
 8815SOL    HW138078   0.448   2.471   0.656 -1.6428 -0.3147  1.1342
 8815SOL    HW238079   0.514   2.590   0.710  2.7428 -0.6285  1.1089
 8816SOL     OW38080   3.216   1.583   7.363  0.7804  0.6272 -0.1552
 8816SOL    HW138081   3.130   1.545   7.379  1.0069 -0.5217 -1.6233
 8816SOL    HW238082   3.195   1.622   7.278 -1.3322  0.3141  0.2441
 8817SOL     OW38083   1.676   0.099   7.347 -0.0938 -0.7460 -0.1324
 8817SOL    HW138084   1.717   0.034   7.290  0.3321  0.9567 -1.7782
 8817SOL    HW238085   1.715   0.069   7.429 -0.7731  1.0780  0.8379
 8818SOL     OW38086   0.494   4.628  11.314 -0.5423  0.1898  0.3816
 8818SOL    HW138087   0.576   4.581  11.323 -0.9684 -1.0473 -2.3581
 8818SOL    HW238088   0.465   4.637  11.405  2.6288 -0.2780  1.4196
 8819SOL     OW38089   2.414   0.120   6.420  0.8565 -0.5700 -0.5994
 8819SOL    HW138090   2.378   0.194   6.370 -1.6078 -1.2179  0.1972
 8819SOL    HW238091   2.347   0.053   6.404 -1.3853  1.2120  1.4339
 8820SOL     OW38092   1.872   2.752   3.102 -0.5508  0.1157  0.5503
 8820SOL    HW138093   1.836   2.693   3.037  2.7742  0.7444 -1.8041
 8820SOL    HW238094   1.905   2.823   3.047  1.0038 -0.2833  0.9714
 8821SOL     OW38095   3.584   3.819   8.308  0.1469 -0.1206  0.1011
 8821SOL    HW138096   3.536   3.831   8.390 -0.3581  1.2182 -0.4014
 8821SOL    HW238097   3.671   3.803   8.345 -1.1759 -1.9215  2.4583
 8822SOL     OW38098   2.221   1.136  17.095 -0.1154 -0.4483  0.5633
 8822SOL    HW138099   2.243   1.059  17.044  1.9420 -0.2257  1.1046
 8822SOL    HW238100   2.232   1.109  17.186  0.8152 -1.8472  0.0345
 8823SOL     OW38101   0.141   4.708   3.201  0.3567  0.1365 -0.4788
 8823SOL    HW138102   0.128   4.615   3.179  0.3395 -0.4287  1.8962
 8823SOL    HW238103   0.063   4.738   3.155 -0.6347  0.2162  1.2237
 8824SOL     OW38104   2.828   2.962   7.701  0.1736  0.2440 -0.1693
 8824SOL    HW138105   2.897   2.997   7.757 -0.2152  1.3778 -0.3905
 8824SOL    HW238106   2.807   2.877   7.739 -0.6935  0.3340 -0.4298
 8825SOL     OW38107   4.146   0.201   4.416  0.4474 -0.3018 -0.3688
 8825SOL    HW138108   4.192   0.156   4.346  1.9383  4.4513 -2.3734
 8825SOL    HW238109   4.078   0.241   4.362 -0.1491 -1.1674 -0.2732
 8826SOL     OW38110   1.655   1.537   5.540  0.0471  0.1322  0.5021
 8826SOL    HW138111   1.594   1.604   5.508  0.6339  1.2749  1.8252
 8826SOL    HW238112   1.682   1.496   5.458 -0.3281 -1.6394  1.2584
 8827SOL     OW38113   2.864   0.472   2.751 -0.1583 -0.7559 -0.3917
 8827SOL    HW138114   2.775   0.491   2.721 -0.8560 -0.8048  1.6159
 8827SOL    HW238115   2.844   0.423   2.831  0.4232 -0.1964  0.0923
 8828SOL     OW38116   3.344   3.018   1.805 -0.4243  0.1776 -0.1116
 8828SOL    HW138117   3.401   3.084   1.767 -0.1472  0.0773  0.1281
 8828SOL    HW238118   3.385   3.014   1.892 -0.2922  1.0943 -0.1348
 8829SOL     OW38119   0.431   3.560  11.521  0.0647 -0.2557 -0.0752
 8829SOL    HW138120   0.386   3.640  11.493 -0.0817 -0.2727  0.1111
 8829SOL    HW238121   0.355   3.503  11.521 -1.0431  1.2530  3.0402
 8830SOL     OW38122   1.309   2.876   8.028  0.2279  0.0483  0.0172
 8830SOL    HW138123   1.348   2.809   8.084 -1.2177 -1.2184 -0.4759
 8830SOL    HW238124   1.221   2.895   8.059  0.3763 -1.1672  1.1619
 8831SOL     OW38125   1.435   4.373   6.830 -0.9042 -0.0863  0.3688
 8831SOL    HW138126   1.527   4.373   6.856  0.0870 -1.9745 -3.2569
 8831SOL    HW238127   1.431   4.307   6.761 -1.1796  0.2054  0.1022
 8832SOL     OW38128   1.255   2.394   2.902 -0.1266 -0.2830 -0.5173
 8832SOL    HW138129   1.255   2.357   2.991  0.6254 -0.0718 -0.4306
 8832SOL    HW238130   1.186   2.342   2.861  0.4256 -0.1355 -1.6207
 8833SOL     OW38131   4.489   3.773  10.770  0.1861  0.4597 -0.1678
 8833SOL    HW138132   4.394   3.779  10.762 -0.2634 -3.7613  2.0503
 8833SOL    HW238133   4.506   3.862  10.800 -0.2207  0.2219  0.7606
 8834SOL     OW38134   0.099   0.263   4.872  0.0169 -0.7884 -0.0260
 8834SOL    HW138135   0.134   0.175   4.884  1.9709  0.1710  1.3585
 8834SOL    HW238136   0.075   0.296   4.959  1.2055  0.1383 -0.0544
 8835SOL     OW38137   1.356   0.195   0.393 -0.4472 -0.1042 -0.1956
 8835SOL    HW138138   1.369   0.120   0.451 -4.1763 -1.0264 -0.5223
 8835SOL    HW238139   1.425   0.249   0.431  0.9467 -1.2058 -1.1479
 8836SOL     OW38140   3.559   0.444  11.550  0.0578  0.3443  0.0811
 8836SOL    HW138141   3.625   0.441  11.482 -0.0044 -0.1859  0.0459
 8836SOL    HW238142   3.607   0.463  11.631  2.0529  0.6046 -1.1723
 8837SOL     OW38143   1.802   1.128   2.484  0.0915  0.7148 -0.0994
 8837SOL    HW138144   1.823   1.073   2.560 -1.7293  1.0235  0.6512
 8837SOL    HW238145   1.832   1.073   2.412 -0.2303  0.1179  0.2205
 8838SOL     OW38146   0.153   4.728   0.400  0.1148  0.0937 -0.4979
 8838SOL    HW138147   0.060   0.016   0.403  0.0612 -0.2946  1.0323
 8838SOL    HW238148   0.180   0.041   0.477 -0.9578  0.7993 -0.5815
 8839SOL     OW38149   1.078   4.664  15.719  0.2658 -0.2844 -0.0692
 8839SOL    HW138150   1.011   4.690  15.655 -0.4707 -1.5236  0.1974
 8839SOL    HW238151   1.132   4.603  15.669  0.9420 -0.8577  1.3598
 8840SOL     OW38152   0.615   1.549   9.309 -0.1793  0.2965 -0.0235
 8840SOL    HW138153   0.624   1.509   9.223  1.5840  0.5388  0.0547
 8840SOL    HW238154   0.548   1.495   9.353 -0.4678  1.8074  1.3950
 8841SOL     OW38155   2.212   1.121  15.404 -0.0947  0.3457 -0.4542
 8841SOL    HW138156   2.275   1.166  15.349  2.1346  0.8341  2.4995
 8841SOL    HW238157   2.258   1.042  15.434 -0.9034  0.4755  1.1491
 8842SOL     OW38158   2.531   1.811  13.693 -0.6892 -0.4219 -0.5536
 8842SOL    HW138159   2.464   1.764  13.744 -0.5036  1.4893  1.4263
 8842SOL    HW238160   2.600   1.837  13.753 -0.5183  0.3540 -1.0841
 8843SOL     OW38161   1.964   3.749  14.398 -0.2231 -0.3311 -0.3724
 8843SOL    HW138162   2.025   3.675  14.402  1.2254  1.0622  3.2034
 8843SOL    HW238163   1.892   3.713  14.347 -1.6225  1.0921  0.6344
 8844SOL     OW38164   2.537   3.559   5.868 -0.2975  0.4311 -0.1500
 8844SOL    HW138165   2.594   3.594   5.936 -0.0086  0.4609 -0.4100
 8844SOL    HW238166   2.554   3.465   5.876 -1.0298  0.1021 -2.3994
 8845SOL     OW38167   1.863   0.452   0.604  0.6929  0.0135  0.2884
 8845SOL    HW138168   1.909   0.524   0.563 -0.5810 -0.4719 -2.0157
 8845SOL    HW238169   1.775   0.491   0.607  1.4666  1.8446 -0.9983
 8846SOL     OW38170   1.696   0.073   3.507 -0.3358  0.5082 -0.6307
 8846SOL    HW138171   1.784   0.082   3.545 -1.1684  1.6461  1.0240
 8846SOL    HW238172   1.722   0.100   3.419 -0.4220 -1.9913 -1.4269
 8847SOL     OW38173   3.419   4.455   3.399  0.0769  0.3611 -0.2190
 8847SOL    HW138174   3.432   4.395   3.326 -3.2422 -0.3758 -0.1913
 8847SOL    HW238175   3.475   4.405   3.458 -0.7257  1.1297  1.1906
 8848SOL     OW38176   2.959   1.194   0.214  0.0972  0.3772  0.1324
 8848SOL    HW138177   2.941   1.230   0.127 -2.0928 -3.5482 -1.0584
 8848SOL    HW238178   3.018   1.121   0.195  1.0585  1.2953 -0.3510
 8849SOL     OW38179   3.505   3.571   3.847 -0.1310  0.0558  0.1028
 8849SOL    HW138180   3.543   3.577   3.759 -0.4596  1.1179  0.0325
 8849SOL    HW238181   3.417   3.601   3.828 -0.7055  0.5277  3.5112
 8850SOL     OW38182   1.854   2.760   5.252  0.3411  0.2282 -0.1526
 8850SOL    HW138183   1.881   2.678   5.292 -1.4296 -1.2245 -1.9531
 8850SOL    HW238184   1.794   2.788   5.322  0.4771  0.0188  0.0480
 8851SOL     OW38185   1.346   4.148  17.442  0.5025  0.0436 -0.0122
 8851SOL    HW138186   1.333   4.147  17.347  0.5218  0.8963 -0.0228
 8851SOL    HW238187   1.435   4.183  17.441  0.4183  0.2685  0.9984
 8852SOL     OW38188   1.283   2.381   9.029  0.0626  0.0130  0.2442
 8852SOL    HW138189   1.236   2.413   9.107  0.4971 -0.6542  0.7786
 8852SOL    HW238190   1.286   2.464   8.982 -1.4075 -0.7306 -1.1577
 8853SOL     OW38191   2.414   4.242   5.630 -0.1147  0.2587 -0.1774
 8853SOL    HW138192   2.427   4.148   5.626  0.4401  0.2800  1.0926
 8853SOL    HW238193   2.329   4.253   5.673 -0.5664  0.3640 -1.0802
 8854SOL     OW38194   3.221   0.660  11.529 -0.2440  0.2550 -0.1687
 8854SOL    HW138195   3.262   0.738  11.491 -0.0028  0.0721 -0.2786
 8854SOL    HW238196   3.206   0.607  11.450 -3.6121  1.0271 -0.0458
 8855SOL     OW38197   1.518   3.062  12.501 -0.1908 -0.2753 -0.1089
 8855SOL    HW138198   1.570   3.031  12.428  0.9241 -1.3138  1.1227
 8855SOL    HW238199   1.471   3.136  12.464  3.4060  2.4283  0.7752
 8856SOL     OW38200   4.151   4.693  17.369  0.0517  0.2177  0.1504
 8856SOL    HW138201   4.197   0.038  17.385  0.3718  0.3657 -1.5687
 8856SOL    HW238202   4.107   4.705  17.285 -1.6582  0.5567  1.1221
 8857SOL     OW38203   1.046   2.060   6.103  0.2291 -0.0740  0.3842
 8857SOL    HW138204   1.084   2.140   6.139 -1.2458  1.0808 -0.6322
 8857SOL    HW238205   1.113   1.999   6.134  0.0552 -0.6753 -0.4156
 8858SOL     OW38206   3.367   2.640   1.087 -0.2342 -0.5978  0.2142
 8858SOL    HW138207   3.413   2.625   1.004  2.6202 -0.0118  1.6969
 8858SOL    HW238208   3.382   2.733   1.106 -0.1581 -0.5701  0.0222
 8859SOL     OW38209   4.208   1.215   5.575  0.2055  0.4492 -0.1751
 8859SOL    HW138210   4.214   1.120   5.565 -1.4945  0.4308 -0.9634
 8859SOL    HW238211   4.113   1.226   5.581  0.5089  1.7444  2.3105
 8860SOL     OW38212   1.724   3.847  10.317 -0.2304 -0.0204  0.5363
 8860SOL    HW138213   1.638   3.886  10.327  0.4316  0.9161  2.5880
 8860SOL    HW238214   1.734   3.799  10.400 -1.1065 -1.8406 -0.4303
 8861SOL     OW38215   3.370   3.338   2.607  0.6855  0.3351  0.0528
 8861SOL    HW138216   3.374   3.421   2.654  2.0566  0.0338  0.4435
 8861SOL    HW238217   3.280   3.310   2.626  1.2604 -2.7309 -1.6828
 8862SOL     OW38218   0.000   2.786  10.735  0.2717  0.2219  0.5681
 8862SOL    HW138219   4.667   2.845  10.760  1.4778  1.2409  1.5845
 8862SOL    HW238220   0.069   2.812  10.797  0.1042 -1.9259  1.6507
 8863SOL     OW38221   4.490   2.153  16.140  0.0558 -0.1892 -0.3912
 8863SOL    HW138222   4.554   2.189  16.078 -0.0492  0.2245 -0.2632
 8863SOL    HW238223   4.420   2.136  16.077  0.4585 -1.6003 -0.4578
 8864SOL     OW38224   3.533   3.438  10.680  0.0942  0.5053  0.1434
 8864SOL    HW138225   3.484   3.489  10.616  0.6171 -0.3948 -0.9574
 8864SOL    HW238226   3.468   3.432  10.751 -1.2000 -1.5171 -1.2245
 8865SOL     OW38227   4.006   1.957   7.920  0.1349 -0.1694 -0.4792
 8865SOL    HW138228   4.043   2.010   7.850 -0.7284  2.5695  1.1191
 8865SOL    HW238229   4.084   1.923   7.965 -1.1726 -1.1597  1.0500
 8866SOL     OW38230   0.698   3.896   0.537 -0.0106  0.4553 -0.2887
 8866SOL    HW138231   0.664   3.881   0.625  1.0195  1.0890  0.2233
 8866SOL    HW238232   0.668   3.985   0.521 -2.3612 -0.3213 -0.1445
 8867SOL     OW38233   1.200   0.408   6.611 -0.0421  0.5437  0.0878
 8867SOL    HW138234   1.194   0.338   6.676  1.5961 -1.1099 -1.5172
 8867SOL    HW238235   1.282   0.455   6.627 -0.2175  0.6034  0.7931
 8868SOL     OW38236   1.953   2.111  11.636  0.3161  0.7103  0.3803
 8868SOL    HW138237   1.981   2.022  11.614  1.6568  1.0822  0.5912
 8868SOL    HW238238   1.966   2.158  11.554  2.0122  1.1770  0.9209
 8869SOL     OW38239   1.921   2.505   5.343  0.0193 -0.5472  0.0578
 8869SOL    HW138240   1.869   2.445   5.396  0.6748  2.0031  3.6014
 8869SOL    HW238241   1.963   2.563   5.406  2.2761 -1.1880 -0.8290
 8870SOL     OW38242   2.405   4.529   8.744 -0.1645 -0.3179  0.5201
 8870SOL    HW138243   2.422   4.623   8.753  0.2331 -0.1964 -1.5998
 8870SOL    HW238244   2.339   4.509   8.810  0.9194 -1.0432  1.3722
 8871SOL     OW38245   4.076   2.530  14.423  0.1017  0.2304  0.2760
 8871SOL    HW138246   3.999   2.535  14.479 -1.6186 -0.3145 -2.0388
 8871SOL    HW238247   4.038   2.544  14.336 -0.7071 -1.8876  0.2952
 8872SOL     OW38248   3.497   2.192   7.730  0.6329  0.4477  0.3052
 8872SOL    HW138249   3.422   2.153   7.687 -0.1159  0.6153  1.4632
 8872SOL    HW238250   3.461   2.189   7.819 -0.7726  0.1286 -0.2760
 8873SOL     OW38251   1.999   2.974  12.895 -0.0337 -0.7532  0.5822
 8873SOL    HW138252   2.069   3.027  12.856  0.5845 -1.4986  0.6841
 8873SOL    HW238253   1.955   2.933  12.821 -0.0502  1.4844 -0.6332
 8874SOL     OW38254   4.632   3.117   1.378 -0.4341 -0.2850  0.1983
 8874SOL    HW138255   4.579   3.155   1.448 -1.2016  2.9523 -2.2069
 8874SOL    HW238256   4.631   3.029   1.417  0.4200 -0.5174 -0.3044
 8875SOL     OW38257   3.877   1.633  10.565  0.1910 -0.7293 -0.3595
 8875SOL    HW138258   3.841   1.597  10.646  1.2257  0.3164  0.5641
 8875SOL    HW238259   3.972   1.635  10.575 -0.0464 -2.3664  2.3012
 8876SOL     OW38260   4.005   1.301   5.117  0.5215  0.3103 -0.0898
 8876SOL    HW138261   3.922   1.257   5.098  0.8991  0.3673 -1.8419
 8876SOL    HW238262   3.973   1.385   5.151  1.2374  0.3882  0.3725
 8877SOL     OW38263   2.075   3.696   3.214 -0.2921  0.2250  0.1452
 8877SOL    HW138264   2.163   3.735   3.215 -1.3726  2.6729 -1.3759
 8877SOL    HW238265   2.022   3.774   3.227 -0.6455  0.3235 -1.9276
 8878SOL     OW38266   4.522   4.656   4.038  1.3588 -0.1925  0.2028
 8878SOL    HW138267   4.518   4.658   3.942 -0.4715  2.4537  0.3332
 8878SOL    HW238268   4.430   4.635   4.057  0.2807  0.8391 -3.8963
 8879SOL     OW38269   0.714   3.998   6.316  0.0149 -0.4378 -0.3820
 8879SOL    HW138270   0.795   4.032   6.277  1.6759 -0.6287  2.8701
 8879SOL    HW238271   0.688   4.078   6.361  1.6266  0.0384 -0.2733
 8880SOL     OW38272   3.219   2.982   8.886 -0.1513 -0.3297  0.6087
 8880SOL    HW138273   3.309   2.948   8.891  0.0587  0.3485  1.4024
 8880SOL    HW238274   3.189   2.964   8.975 -0.2333 -1.3335  0.3782
 8881SOL     OW38275   4.197   3.411   4.324  0.0388 -0.3114  0.3755
 8881SOL    HW138276   4.129   3.345   4.338 -1.6190  1.5948  1.4434
 8881SOL    HW238277   4.262   3.365   4.272  0.1766  0.3926 -0.0815
 8882SOL     OW38278   1.597   2.955   6.916  0.2565  0.4439  0.0267
 8882SOL    HW138279   1.654   2.912   6.979 -0.9574  2.7732  2.6960
 8882SOL    HW238280   1.531   2.886   6.910  0.1211  0.5348  0.5183
 8883SOL     OW38281   2.296   3.005  16.990 -0.7250  0.0616  0.0733
 8883SOL    HW138282   2.330   2.962  17.069 -1.1014 -0.8751 -0.2695
 8883SOL    HW238283   2.219   3.049  17.026 -1.6860 -2.2214  0.8343
 8884SOL     OW38284   1.942   3.749   7.248  0.3010 -0.1765  0.0755
 8884SOL    HW138285   1.874   3.713   7.191 -1.7319 -0.0756  2.4466
 8884SOL    HW238286   1.990   3.788   7.175 -0.7002  1.3336  0.2301
 8885SOL     OW38287   3.911   3.949   6.433  0.6518  0.4778 -0.1233
 8885SOL    HW138288   3.890   3.920   6.345  0.1377 -1.3560  0.5980
 8885SOL    HW238289   3.973   3.879   6.452 -0.9190 -0.3134  2.1189
 8886SOL     OW38290   1.749   4.298   3.989  0.0719  0.2792 -0.1474
 8886SOL    HW138291   1.778   4.230   3.928  2.8552  0.5962  0.8188
 8886SOL    HW238292   1.702   4.238   4.047  0.3296  0.5593  0.3542
 8887SOL     OW38293   2.925   2.216   0.853 -0.4453 -0.4035  0.1085
 8887SOL    HW138294   2.930   2.312   0.847  0.2030 -0.5341 -1.4214
 8887SOL    HW238295   2.941   2.196   0.761  1.0714 -1.8995  0.7054
 8888SOL     OW38296   1.877   2.144  13.396  0.1117 -0.3616 -0.3482
 8888SOL    HW138297   1.844   2.215  13.340 -1.6090 -1.7736 -1.1357
 8888SOL    HW238298   1.807   2.129  13.460 -0.1715  1.9811 -0.0822
 8889SOL     OW38299   1.988   1.590   4.645 -0.0852  0.1184 -0.2001
 8889SOL    HW138300   1.901   1.623   4.667 -0.4182  0.4027 -1.9456
 8889SOL    HW238301   2.047   1.638   4.702  0.9646 -1.0309 -0.3076
 8890SOL     OW38302   3.724   1.387  10.589 -0.4973 -0.3654  0.3057
 8890SOL    HW138303   3.765   1.303  10.570  0.2742 -0.2587  1.4730
 8890SOL    HW238304   3.758   1.440  10.517  0.5830 -0.1925  0.9337
 8891SOL     OW38305   4.284   0.237   3.900  0.0027 -0.0281 -0.3194
 8891SOL    HW138306   4.223   0.167   3.875 -0.2545  0.0109  0.2099
 8891SOL    HW238307   4.283   0.207   3.991  1.2034 -0.5085 -0.4750
 8892SOL     OW38308   3.655   0.475   7.600 -0.3752  0.1426 -0.7516
 8892SOL    HW138309   3.732   0.418   7.594 -1.6357 -1.6581  0.1086
 8892SOL    HW238310   3.691   0.555   7.562 -0.0141 -0.1953 -1.1254
 8893SOL     OW38311   4.166   1.640   9.218  1.0814  0.5419 -0.5339
 8893SOL    HW138312   4.076   1.671   9.223  0.2800 -2.0051  0.5491
 8893SOL    HW238313   4.157   1.579   9.144 -0.2849 -0.9675  0.9035
 8894SOL     OW38314   3.372   4.715   8.318 -0.2842 -0.4961  0.0074
 8894SOL    HW138315   3.424   0.034   8.374 -0.4613 -0.4133  0.0893
 8894SOL    HW238316   3.344   0.023   8.239  0.5172  1.8854  1.1238
 8895SOL     OW38317   4.618   2.095  13.470 -0.4303  0.2127 -0.4017
 8895SOL    HW138318   4.578   2.173  13.433  2.0796  0.9095 -1.6584
 8895SOL    HW238319   4.711   2.111  13.456  0.0027 -2.2564 -0.2860
 8896SOL     OW38320   3.775   3.572  16.515  0.1038  0.2393  0.6509
 8896SOL    HW138321   3.700   3.615  16.473  0.3128 -0.6650 -0.6611
 8896SOL    HW238322   3.822   3.542  16.437 -0.5859  0.6401  0.0677
 8897SOL     OW38323   1.504   1.938   8.990 -0.3112  0.0592  0.1537
 8897SOL    HW138324   1.434   1.927   9.055 -1.5985 -0.9839 -1.4074
 8897SOL    HW238325   1.468   1.995   8.923 -0.0488  0.2039  0.1373
 8898SOL     OW38326   0.570   4.038   6.868  0.8806  0.2367 -0.4859
 8898SOL    HW138327   0.551   3.949   6.898 -1.8646  1.5724  1.7380
 8898SOL    HW238328   0.482   4.072   6.884  0.0380 -2.0905 -0.1332
 8899SOL     OW38329   1.834   4.226   4.786 -0.4354 -0.3343 -0.1012
 8899SOL    HW138330   1.747   4.243   4.751 -0.4744 -0.3600 -0.0161
 8899SOL    HW238331   1.828   4.290   4.857 -3.2161  1.2539 -1.7829
 8900SOL     OW38332   0.629   0.579  12.401 -0.3322  0.2253 -0.4316
 8900SOL    HW138333   0.607   0.505  12.345 -0.0784 -0.2308  0.0735
 8900SOL    HW238334   0.656   0.641  12.333  0.1963 -0.8098 -1.1652
 8901SOL     OW38335   2.744   1.372   4.155  0.2318 -0.1754 -0.7271
 8901SOL    HW138336   2.679   1.426   4.200  0.2159 -0.4544 -0.4141
 8901SOL    HW238337   2.761   1.309   4.225 -0.1758  0.5751  0.0374
 8902SOL     OW38338   4.124   3.752   6.000 -0.1305 -0.1043  0.2453
 8902SOL    HW138339   4.165   3.782   5.919 -1.0590 -0.8770 -0.5004
 8902SOL    HW238340   4.195   3.697   6.033  0.5260  0.6153  0.0336
 8903SOL     OW38341   0.810   2.867   6.278  0.5855  0.2116 -0.2243
 8903SOL    HW138342   0.895   2.830   6.301 -0.4283 -2.5166 -0.8322
 8903SOL    HW238343   0.754   2.789   6.268  0.0083  0.8274 -1.7187
 8904SOL     OW38344   4.699   1.438   4.810 -0.6725  0.4925  0.7641
 8904SOL    HW138345   4.688   1.504   4.879 -4.1671  1.8235 -1.0518
 8904SOL    HW238346   4.682   1.496   4.735  1.8329  1.1380  0.6806
 8905SOL     OW38347   4.101   0.857   2.882 -0.2018 -0.5737 -0.8953
 8905SOL    HW138348   4.029   0.891   2.829 -0.1088  3.6105  1.6450
 8905SOL    HW238349   4.179   0.902   2.849 -0.2695 -0.7661 -1.3296
 8906SOL     OW38350   1.430   2.364   7.637  0.3256 -0.5291  0.1092
 8906SOL    HW138351   1.430   2.328   7.548  1.1051  2.8169 -1.2381
 8906SOL    HW238352   1.426   2.288   7.695 -0.8318  0.5482  1.4323
 8907SOL     OW38353   4.238   3.767   7.122 -0.1072 -0.3259  0.2478
 8907SOL    HW138354   4.215   3.710   7.049 -1.2571  1.1047 -0.5107
 8907SOL    HW238355   4.331   3.784   7.106  0.1954 -0.7276  1.6262
 8908SOL     OW38356   1.901   3.972   5.560  0.1636  0.0837  0.5271
 8908SOL    HW138357   1.992   4.001   5.567 -0.6861  3.2627 -1.3983
 8908SOL    HW238358   1.910   3.938   5.471 -1.8092  0.9454 -0.0055
 8909SOL     OW38359   2.148   4.640   8.867 -0.5028  0.3520  0.0341
 8909SOL    HW138360   2.117   4.716   8.916 -1.3888 -0.4499  0.7186
 8909SOL    HW238361   2.096   4.639   8.786 -0.0110 -0.0162 -0.2729
 8910SOL     OW38362   2.000   1.309  16.138 -0.8910  0.4440  0.0497
 8910SOL    HW138363   2.085   1.310  16.093 -0.2461 -1.3470  1.2004
 8910SOL    HW238364   2.015   1.238  16.200 -0.0669 -1.7482 -2.6657
 8911SOL     OW38365   4.206   1.204  17.632 -0.8778  0.2968 -0.4409
 8911SOL    HW138366   4.233   1.114  17.613 -1.5004  0.3340 -1.5092
 8911SOL    HW238367   4.279   1.240  17.683 -1.4064  2.4934 -1.2391
 8912SOL     OW38368   2.945   3.837   6.171  0.4286 -0.6966  0.1137
 8912SOL    HW138369   3.040   3.824   6.168  0.4267  0.1204 -4.4886
 8912SOL    HW238370   2.918   3.868   6.084  3.7466  1.5549 -0.1428
 8913SOL     OW38371   0.507   2.495   1.194 -0.1407  0.2115  0.8619
 8913SOL    HW138372   0.579   2.533   1.245  0.0676  2.1986 -0.9394
 8913SOL    HW238373   0.457   2.463   1.270 -0.1780 -1.6963  0.0383
 8914SOL     OW38374   1.698   2.869   0.912 -0.1420 -0.0588 -0.3418
 8914SOL    HW138375   1.651   2.952   0.922  1.8159  0.6761  2.4222
 8914SOL    HW238376   1.684   2.834   0.999 -0.7737 -2.5095 -1.4263
 8915SOL     OW38377   1.809   1.833   2.686 -0.2944  0.3758  0.1023
 8915SOL    HW138378   1.890   1.793   2.654  0.4606  0.9404  1.3303
 8915SOL    HW238379   1.774   1.886   2.614 -2.0725  0.5587  1.1046
 8916SOL     OW38380   2.729   3.456   8.136  0.3540 -0.0018  0.7764
 8916SOL    HW138381   2.655   3.505   8.101  0.9318 -0.8785 -1.6603
 8916SOL    HW238382   2.730   3.478   8.230 -0.1574  1.4231  0.4524
 8917SOL     OW38383   1.853   2.046   4.816 -0.0102  0.4377  0.7430
 8917SOL    HW138384   1.811   2.100   4.882 -0.9535  0.2436  0.3002
 8917SOL    HW238385   1.940   2.040   4.856 -0.5092  2.1616  2.0709
 8918SOL     OW38386   0.287   1.011   0.477  0.0716 -0.1949 -0.7625
 8918SOL    HW138387   0.348   1.003   0.403  1.1817  0.0409  0.1334
 8918SOL    HW238388   0.225   0.946   0.442  2.3515 -2.2411 -0.9987
 8919SOL     OW38389   2.073   2.595   1.756 -0.3290 -0.6585  0.6499
 8919SOL    HW138390   2.063   2.502   1.735  0.9237 -0.8244  0.7720
 8919SOL    HW238391   2.018   2.634   1.689 -2.4716 -1.0113  2.2189
 8920SOL     OW38392   0.703   4.166   4.093  0.0667 -0.5502  0.1728
 8920SOL    HW138393   0.647   4.235   4.130 -0.0277  0.8174 -2.5429
 8920SOL    HW238394   0.762   4.161   4.168  0.1157  2.2681  0.3579
 8921SOL     OW38395   3.654   2.369   1.477  0.1952  0.0623 -0.1301
 8921SOL    HW138396   3.588   2.435   1.458 -1.4904 -0.8803  2.3896
 8921SOL    HW238397   3.683   2.352   1.387 -0.6892  0.5061 -0.4985
 8922SOL     OW38398   1.099   1.231   2.144  0.1261  0.5926 -0.5327
 8922SOL    HW138399   1.177   1.276   2.178  0.5654 -1.4681  1.1704
 8922SOL    HW238400   1.052   1.303   2.101 -4.0614  0.0418  3.1175
 8923SOL     OW38401   2.238   4.415  14.266 -0.4642 -0.3255  0.2041
 8923SOL    HW138402   2.227   4.387  14.175 -0.4310 -0.2756  0.1847
 8923SOL    HW238403   2.267   4.336  14.312 -1.3935  1.0819  3.2025
 8924SOL     OW38404   2.713   4.271   7.372 -0.0003  0.0968  0.3215
 8924SOL    HW138405   2.679   4.332   7.306 -0.0756  1.3506  1.5314
 8924SOL    HW238406   2.783   4.326   7.407  0.6643 -0.2551 -0.4554
 8925SOL     OW38407   1.381   4.009  13.018 -0.7153 -0.2095 -0.1646
 8925SOL    HW138408   1.369   3.914  13.012  1.4426 -0.4498 -0.7375
 8925SOL    HW238409   1.310   4.039  12.962  1.3271  1.4749 -1.8709
 8926SOL     OW38410   1.122   0.841   2.626  0.2329  0.6506 -0.3801
 8926SOL    HW138411   1.172   0.779   2.571 -0.7965  2.0179 -2.8559
 8926SOL    HW238412   1.074   0.775   2.677  0.7557  1.2887  0.9381
 8927SOL     OW38413   4.095   1.291   8.497 -0.4736 -0.4237  0.4746
 8927SOL    HW138414   4.088   1.278   8.402  3.9176  1.1094 -0.0764
 8927SOL    HW238415   4.165   1.227   8.511  0.7000  1.2671  2.2272
 8928SOL     OW38416   3.792   3.106   5.779 -0.6377  0.4765  0.2382
 8928SOL    HW138417   3.715   3.141   5.733 -0.7985 -1.2633 -0.8548
 8928SOL    HW238418   3.742   3.043   5.831 -0.5712 -0.8214 -1.2470
 8929SOL     OW38419   2.631   3.010   7.055  0.1163 -0.2423 -0.0259
 8929SOL    HW138420   2.543   2.975   7.062 -0.5440  1.3495 -0.5547
 8929SOL    HW238421   2.662   2.963   6.977 -0.7854  1.3067 -1.3043
 8930SOL     OW38422   1.870   1.663   6.925 -0.7038 -0.2342  0.7519
 8930SOL    HW138423   1.954   1.629   6.893  0.0740  0.0256  2.5529
 8930SOL    HW238424   1.906   1.733   6.979 -2.5157  0.4322  1.0847
 8931SOL     OW38425   0.962   3.556   3.775  0.3956 -0.2263 -0.6319
 8931SOL    HW138426   0.915   3.567   3.858 -1.0190 -2.3748 -1.1350
 8931SOL    HW238427   0.971   3.461   3.779  0.6828 -0.1215  1.3901
 8932SOL     OW38428   1.141   0.526  10.096 -0.3807  0.4262  0.0782
 8932SOL    HW138429   1.184   0.447  10.130 -1.5921  0.0432  0.7045
 8932SOL    HW238430   1.059   0.530  10.144 -0.5303 -0.6390 -0.1037
 8933SOL     OW38431   4.194   1.116   3.710 -0.5187 -0.0958 -0.1225
 8933SOL    HW138432   4.254   1.125   3.636 -0.8236 -2.0932 -0.6195
 8933SOL    HW238433   4.113   1.102   3.659  0.0293 -1.6258 -0.5878
 8934SOL     OW38434   1.446   4.533   7.454  0.0617 -0.0134 -0.2356
 8934SOL    HW138435   1.434   4.570   7.367 -0.6941 -0.9655 -0.5457
 8934SOL    HW238436   1.534   4.567   7.471  0.1194 -1.1829  1.9375
 8935SOL     OW38437   3.441   1.970   4.986 -0.4240 -0.0481  0.1022
 8935SOL    HW138438   3.394   1.896   4.947  0.3004 -1.1843  1.3766
 8935SOL    HW238439   3.501   1.986   4.913  0.9786  0.2367  1.3312
 8936SOL     OW38440   2.413   3.742   4.146  0.0830 -0.6228 -0.8978
 8936SOL    HW138441   2.342   3.782   4.094 -1.4816 -0.6640  1.1820
 8936SOL    HW238442   2.469   3.722   4.071  0.7065  1.2736 -0.9484
 8937SOL     OW38443   3.929   4.225   6.476  0.4215 -0.0894 -0.5301
 8937SOL    HW138444   3.948   4.220   6.569 -0.3207  0.3242 -0.3559
 8937SOL    HW238445   3.924   4.134   6.447  0.3817 -0.6194  1.1771
 8938SOL     OW38446   4.708   2.681  15.253  0.2210  0.0551  0.5264
 8938SOL    HW138447   4.721   2.717  15.165 -1.3035  1.3788  0.8401
 8938SOL    HW238448   0.031   2.731  15.307  0.7221  0.1275 -0.1057
 8939SOL     OW38449   1.328   4.019   3.034 -0.7081 -0.6557 -0.3393
 8939SOL    HW138450   1.297   4.081   3.101 -1.6643 -0.6395 -0.7950
 8939SOL    HW238451   1.321   4.075   2.957 -0.6743  0.6155  0.5779
 8940SOL     OW38452   3.004   4.337  13.094  0.3912  0.1408 -0.5785
 8940SOL    HW138453   3.053   4.299  13.022 -0.4138 -1.0797 -0.4985
 8940SOL    HW238454   3.032   4.428  13.094  0.1943  0.2028 -0.1720
 8941SOL     OW38455   1.705   1.894  15.044  0.0841  0.3268  0.0771
 8941SOL    HW138456   1.665   1.867  15.127 -0.0557  0.0909 -0.0645
 8941SOL    HW238457   1.722   1.808  15.005 -3.0841 -0.3875  0.1933
 8942SOL     OW38458   2.539   4.045  14.249 -0.7050  0.1073  0.4319
 8942SOL    HW138459   2.533   4.005  14.162 -2.6757 -0.3476  0.7917
 8942SOL    HW238460   2.552   3.967  14.302  0.1446  0.2109  0.3868
 8943SOL     OW38461   2.001   4.042   4.887 -0.5364 -0.3353 -0.2765
 8943SOL    HW138462   1.927   4.101   4.904  0.1198  0.3623  0.1578
 8943SOL    HW238463   2.021   4.053   4.793 -0.1742 -0.4258 -0.2085
 8944SOL     OW38464   1.174   3.440   5.428 -0.3277 -0.8218  0.2239
 8944SOL    HW138465   1.247   3.393   5.388  0.1319 -0.4774  0.6535
 8944SOL    HW238466   1.198   3.529   5.406  0.9045 -0.2741  3.7032
 8945SOL     OW38467   1.130   2.425  10.596  0.2409  0.0820 -0.2281
 8945SOL    HW138468   1.138   2.427  10.692  1.0939 -0.8038 -0.2878
 8945SOL    HW238469   1.205   2.482  10.579 -1.0813  2.3956  1.6292
 8946SOL     OW38470   3.995   3.718   3.992 -0.0557 -0.1769 -0.0728
 8946SOL    HW138471   4.015   3.634   3.951 -0.9522 -0.5065  0.1484
 8946SOL    HW238472   3.935   3.753   3.927  0.0910  3.6339  1.8690
 8947SOL     OW38473   3.531   0.076  14.013 -0.4724 -0.0208  0.5875
 8947SOL    HW138474   3.624   0.089  14.032 -0.1230 -1.4562 -0.1690
 8947SOL    HW238475   3.499   0.159  14.048  1.5047  1.1084 -0.2508
 8948SOL     OW38476   0.049   1.318   7.032  0.6444 -0.0122 -0.3192
 8948SOL    HW138477   4.704   1.355   7.002 -0.1580 -2.0042 -0.5967
 8948SOL    HW238478   0.022   1.233   7.067 -0.7350  0.4183 -0.3518
 8949SOL     OW38479   0.190   1.420   8.047 -0.2482 -0.0614  0.1490
 8949SOL    HW138480   0.249   1.381   8.112  0.1393 -0.3230 -0.3594
 8949SOL    HW238481   0.250   1.412   7.973 -0.8516  3.1876 -0.6792
 8950SOL     OW38482   1.023   4.638   5.469  0.0246 -0.0035 -0.2481
 8950SOL    HW138483   0.940   4.666   5.431 -0.5535 -0.7306  0.4794
 8950SOL    HW238484   0.997   4.617   5.559  2.4389  2.3308  1.0230
 8951SOL     OW38485   3.614   1.520   5.240 -0.5126 -0.1727 -0.3982
 8951SOL    HW138486   3.521   1.536   5.226 -0.5514 -0.7398 -0.7723
 8951SOL    HW238487   3.651   1.510   5.153 -0.4287  0.7871 -0.4742
 8952SOL     OW38488   2.743   1.293  13.833 -0.2116  0.0434  0.4647
 8952SOL    HW138489   2.821   1.267  13.881 -1.2759 -0.5995  1.8379
 8952SOL    HW238490   2.731   1.386  13.854 -0.8022  0.3705 -1.3184
 8953SOL     OW38491   1.229   1.152   0.411 -0.3963  0.0241 -0.1627
 8953SOL    HW138492   1.200   1.108   0.331  0.0485 -1.4474  0.4884
 8953SOL    HW238493   1.170   1.227   0.407  1.7717  1.7268 -0.2895
 8954SOL     OW38494   3.508   3.533   9.788  0.1453 -0.0814  0.1024
 8954SOL    HW138495   3.433   3.475   9.799  0.1232 -0.1218 -0.2754
 8954SOL    HW238496   3.538   3.510   9.700  1.3543  1.4009  0.1048
 8955SOL     OW38497   3.935   0.113   2.646 -0.1656  0.0378  0.2287
 8955SOL    HW138498   3.943   0.159   2.563 -0.1394  2.1881  1.4252
 8955SOL    HW238499   3.888   0.039   2.606  1.0351  1.0744 -3.0611
 8956SOL     OW38500   3.255   1.153  11.073 -0.3105 -0.0215  0.2760
 8956SOL    HW138501   3.332   1.208  11.088  0.9236 -1.3305 -1.2199
 8956SOL    HW238502   3.207   1.190  10.999 -2.5306 -1.3120  1.0681
 8957SOL     OW38503   1.546   1.122   2.973  0.0938 -0.0893 -0.1135
 8957SOL    HW138504   1.596   1.191   3.018 -2.8339  3.5882 -2.4535
 8957SOL    HW238505   1.461   1.162   2.991 -0.1427 -1.6510  2.2288
 8958SOL     OW38506   3.804   4.045   7.479 -0.3206 -0.4157 -0.4465
 8958SOL    HW138507   3.836   4.104   7.548 -3.5743  0.8928 -0.0656
 8958SOL    HW238508   3.818   3.957   7.515 -0.8751 -1.0239 -1.7368
 8959SOL     OW38509   1.458   3.732   3.061 -0.0673  0.3453 -0.0397
 8959SOL    HW138510   1.434   3.697   2.975  0.8553  1.3610 -0.7117
 8959SOL    HW238511   1.411   3.816   3.065  2.0425  1.5962 -1.5757
 8960SOL     OW38512   4.652   1.888   1.850  0.1003 -0.0069  0.5144
 8960SOL    HW138513   4.677   1.979   1.833  0.8000 -0.8015 -2.6553
 8960SOL    HW238514   4.635   1.888   1.944 -1.8514 -0.5375  0.1588
 8961SOL     OW38515   1.985   1.170  10.051  0.0351 -0.3149 -0.0459
 8961SOL    HW138516   2.026   1.224  10.119 -0.2752  0.1384 -0.2144
 8961SOL    HW238517   1.950   1.102  10.108  0.5714 -0.1859  0.4416
 8962SOL     OW38518   0.210   2.428   6.451  0.1215 -0.5846  0.0735
 8962SOL    HW138519   0.148   2.355   6.448  0.1605 -0.5577 -1.3222
 8962SOL    HW238520   0.155   2.504   6.432  1.4112  0.1525 -0.7155
 8963SOL     OW38521   1.908   3.853   1.802  0.0914 -0.2938 -0.3043
 8963SOL    HW138522   1.993   3.857   1.759  0.3544  0.1444  0.2497
 8963SOL    HW238523   1.847   3.907   1.752  1.0265  1.2128  0.1876
 8964SOL     OW38524   4.272   2.704   5.513 -0.1840  0.5534 -0.0570
 8964SOL    HW138525   4.247   2.788   5.552 -0.9310 -0.0698  0.8159
 8964SOL    HW238526   4.361   2.732   5.490  0.3503 -0.9984  0.1315
 8965SOL     OW38527   1.383   2.224   6.039  0.6864 -0.2978 -0.0654
 8965SOL    HW138528   1.319   2.275   6.088  0.4388 -3.2148  2.6105
 8965SOL    HW238529   1.393   2.150   6.098 -0.2366  0.4685  1.0369
 8966SOL     OW38530   2.100   2.005   4.911 -0.5363  0.4454  0.2568
 8966SOL    HW138531   2.188   1.968   4.916 -0.9367 -0.5116  0.1997
 8966SOL    HW238532   2.094   2.041   4.999  0.8679  0.3082  0.4194
 8967SOL     OW38533   3.956   2.810   6.828 -0.1483  0.7502 -0.5678
 8967SOL    HW138534   3.924   2.870   6.896 -0.1852 -0.9546  0.9283
 8967SOL    HW238535   3.962   2.865   6.750 -2.4480  0.9508 -0.5883
 8968SOL     OW38536   1.190   2.576   6.845 -0.4776  0.4074 -0.9914
 8968SOL    HW138537   1.190   2.538   6.933 -2.3040 -0.3026 -1.2835
 8968SOL    HW238538   1.160   2.666   6.851  0.1927  0.4320  1.8687
 8969SOL     OW38539   0.168   3.530   4.037 -0.4814  0.4593  0.1637
 8969SOL    HW138540   0.191   3.458   3.977 -1.3884  0.9011 -0.7196
 8969SOL    HW238541   0.119   3.582   3.973  3.0982  2.1626 -1.1930
 8970SOL     OW38542   0.337   4.087   1.569 -0.5150 -0.2487 -0.0337
 8970SOL    HW138543   0.390   4.150   1.618  0.1685 -0.5078 -0.4475
 8970SOL    HW238544   0.260   4.083   1.626  0.1561  5.1709  1.2404
 8971SOL     OW38545   2.554   4.396   4.186  0.2417 -0.0932  0.1326
 8971SOL    HW138546   2.487   4.396   4.254  1.9290  0.4091  1.7798
 8971SOL    HW238547   2.629   4.416   4.243  1.1002 -3.6149  0.2802
 8972SOL     OW38548   3.796   1.790   0.084  0.4455  0.2067 -0.6286
 8972SOL    HW138549   3.809   1.820   0.174 -2.2500 -1.0068  0.1422
 8972SOL    HW238550   3.763   1.705   0.110 -0.7721  0.5379 -1.1134
 8973SOL     OW38551   4.498   4.188   9.350  0.3901  0.3660  0.0084
 8973SOL    HW138552   4.574   4.240   9.324  0.6573  0.2450  0.5570
 8973SOL    HW238553   4.531   4.142   9.427  1.4165 -0.1361 -0.7473
 8974SOL     OW38554   0.736   1.923   3.094 -0.8184  0.1848  0.1519
 8974SOL    HW138555   0.704   1.893   3.009  0.2293 -1.1310  0.2259
 8974SOL    HW238556   0.721   2.018   3.086 -1.0635  0.2536  1.5249
 8975SOL     OW38557   2.618   2.294   7.610 -0.0721  0.8308  0.6423
 8975SOL    HW138558   2.706   2.283   7.645  1.1041  1.7179 -2.0583
 8975SOL    HW238559   2.590   2.204   7.595  3.8001 -0.3470  0.5883
 8976SOL     OW38560   2.205   0.337   9.179  0.1906  0.0715 -0.3951
 8976SOL    HW138561   2.276   0.283   9.144  1.1276  1.7528 -1.1181
 8976SOL    HW238562   2.140   0.270   9.201  0.4005  0.2360  0.7526
 8977SOL     OW38563   3.778   1.556   7.150  0.0798 -0.5013  0.7336
 8977SOL    HW138564   3.815   1.589   7.068  3.6050 -1.1131  2.0478
 8977SOL    HW238565   3.854   1.549   7.208  0.1713  0.9146  0.8066
 8978SOL     OW38566   3.972   4.737   8.164  0.1366  0.0118 -0.3478
 8978SOL    HW138567   4.042   0.061   8.145  2.6300 -3.0614 -1.1240
 8978SOL    HW238568   3.948   0.020   8.255 -1.5163 -3.2029 -0.0610
 8979SOL     OW38569   2.095   3.757   6.380 -0.0628  0.1773 -0.2772
 8979SOL    HW138570   2.159   3.693   6.350 -0.4825 -2.4702  4.5405
 8979SOL    HW238571   2.144   3.839   6.376  1.1909 -0.4741  1.9699
 8980SOL     OW38572   2.359   4.272   1.077 -0.8046  0.2676  0.0588
 8980SOL    HW138573   2.375   4.342   1.014 -0.7737  0.5152  0.3390
 8980SOL    HW238574   2.411   4.297   1.154 -0.6202  0.1889 -0.0410
 8981SOL     OW38575   0.599   0.721   4.373  0.4874  0.5961  0.0385
 8981SOL    HW138576   0.568   0.634   4.351  1.0096  0.2160  0.7995
 8981SOL    HW238577   0.555   0.769   4.303  0.4762 -0.3035 -0.5708
 8982SOL     OW38578   2.555   4.195   3.650 -0.5217 -0.3317 -0.2192
 8982SOL    HW138579   2.646   4.181   3.623 -0.2266  1.2593 -0.0221
 8982SOL    HW238580   2.554   4.287   3.675 -1.1577 -0.4332  0.1253
 8983SOL     OW38581   3.257   2.324   7.393 -0.2933 -0.3644  0.3362
 8983SOL    HW138582   3.352   2.320   7.385 -0.3276  2.4052 -1.5375
 8983SOL    HW238583   3.236   2.238   7.429 -5.3789  1.0575  0.8120
 8984SOL     OW38584   2.365   2.821  15.361  0.7078 -0.1162 -0.0171
 8984SOL    HW138585   2.400   2.807  15.273  0.5400 -1.5160  0.1322
 8984SOL    HW238586   2.272   2.806  15.345  1.4321 -1.2538 -3.2282
 8985SOL     OW38587   1.940   3.864  10.721  0.4387 -0.2527 -0.5260
 8985SOL    HW138588   1.999   3.917  10.774  1.3077 -0.7732 -0.9640
 8985SOL    HW238589   1.988   3.781  10.711 -0.8446 -0.8832 -1.4346
 8986SOL     OW38590   1.957   1.455   1.996  0.0222 -0.7462 -0.4290
 8986SOL    HW138591   1.883   1.411   2.039  1.2616 -0.3941  2.0225
 8986SOL    HW238592   2.028   1.432   2.055 -0.1662  2.2922  0.9532
 8987SOL     OW38593   2.260   1.173   4.202  0.2567 -0.4573  0.0458
 8987SOL    HW138594   2.240   1.171   4.296  1.3089  0.7259  0.2906
 8987SOL    HW238595   2.265   1.079   4.184  0.1539  0.0323 -2.4619
 8988SOL     OW38596   0.964   2.522  15.054  0.2329  0.3276  0.1135
 8988SOL    HW138597   0.884   2.483  15.088  0.0201  0.5685 -0.1076
 8988SOL    HW238598   0.971   2.603  15.105 -2.4717 -1.0522  2.6400
 8989SOL     OW38599   4.030   4.130   0.515 -0.0042 -0.2732 -0.2882
 8989SOL    HW138600   4.020   4.037   0.534 -1.0421 -0.0479  0.2560
 8989SOL    HW238601   3.938   4.144   0.494  0.3561 -0.7879 -2.1744
 8990SOL     OW38602   3.621   3.473   2.900 -0.0552 -0.0443  0.2810
 8990SOL    HW138603   3.674   3.446   2.976  1.5622 -1.3209 -1.2790
 8990SOL    HW238604   3.690   3.448   2.839 -0.0716  2.4601 -0.7629
 8991SOL     OW38605   1.731   3.976  16.105 -0.2540 -0.1670 -0.5817
 8991SOL    HW138606   1.795   4.022  16.159 -0.3043 -0.3817 -0.3418
 8991SOL    HW238607   1.677   4.042  16.061  0.5698 -0.4231 -1.9803
 8992SOL     OW38608   3.073   2.056   2.515 -0.1298 -0.5248  1.0083
 8992SOL    HW138609   3.150   2.110   2.533 -2.0584  3.1188 -1.4781
 8992SOL    HW238610   3.113   1.972   2.495  1.1717  0.6476 -1.2910
 8993SOL     OW38611   3.951   0.994   8.596 -0.2529  0.0852 -0.2177
 8993SOL    HW138612   3.936   1.088   8.612 -0.2908 -0.3234  2.1601
 8993SOL    HW238613   3.878   0.967   8.540  1.1084 -0.1233 -1.8893
 8994SOL     OW38614   0.325   0.029   8.863  0.3376 -0.8527 -0.2376
 8994SOL    HW138615   0.359   0.088   8.930 -1.9605  0.4893 -0.2607
 8994SOL    HW238616   0.373   0.061   8.787 -0.1858 -1.0415 -0.6446
 8995SOL     OW38617   3.641   1.818   0.647 -0.2961  0.2205  0.1738
 8995SOL    HW138618   3.689   1.812   0.565  1.6821  1.6984  1.2089
 8995SOL    HW238619   3.552   1.797   0.621 -0.8260 -0.4026  2.4618
 8996SOL     OW38620   4.064   1.825   3.296  0.1864  0.5337  0.8001
 8996SOL    HW138621   4.018   1.800   3.377  0.3717 -0.2374  0.6682
 8996SOL    HW238622   4.154   1.837   3.327  0.1543 -0.4686  1.3000
 8997SOL     OW38623   3.926   3.099   2.268  0.1565  0.0934 -0.8359
 8997SOL    HW138624   3.864   3.026   2.266  0.1809  0.0768 -0.9994
 8997SOL    HW238625   3.921   3.124   2.176  1.4122 -0.2738 -1.0062
 8998SOL     OW38626   1.013   0.499   1.683  0.0341  0.1289  0.2057
 8998SOL    HW138627   0.999   0.544   1.766  0.4404  0.6872 -0.0186
 8998SOL    HW238628   1.015   0.580   1.631 -1.8481 -1.0561 -1.7046
 8999SOL     OW38629   3.829   2.870   6.243  0.1192 -0.5096 -0.2495
 8999SOL    HW138630   3.885   2.827   6.308 -1.0226  0.7560  1.5348
 8999SOL    HW238631   3.837   2.962   6.267 -1.3134 -0.6268  0.6367
 9000SOL     OW38632   3.842   3.673   7.379  0.0512  0.1045  0.5807
 9000SOL    HW138633   3.764   3.685   7.324 -0.1005 -0.2055  0.7317
 9000SOL    HW238634   3.814   3.637   7.463 -3.0587  0.1315 -0.4199
 9001SOL     OW38635   3.353   0.506  17.117  0.3629  0.2642  0.1648
 9001SOL    HW138636   3.371   0.574  17.051  2.0473 -1.1121 -0.8155
 9001SOL    HW238637   3.268   0.468  17.094 -0.5564  4.1144 -2.7921
 9002SOL     OW38638   1.136   3.314   1.630 -0.4796 -0.2143  0.3953
 9002SOL    HW138639   1.178   3.376   1.689  1.6562  0.7533 -2.0935
 9002SOL    HW238640   1.202   3.246   1.645 -0.9782 -0.9218 -0.5998
 9003SOL     OW38641   4.476   0.267  12.836 -0.5181 -0.2630 -0.1903
 9003SOL    HW138642   4.392   0.310  12.820 -0.9210 -0.6420  0.9564
 9003SOL    HW238643   4.496   0.301  12.923 -2.8433 -1.5041  0.8338
 9004SOL     OW38644   0.357   0.188   1.241  0.2878  0.0445  0.0047
 9004SOL    HW138645   0.333   0.119   1.303 -0.4339 -0.5922 -0.9669
 9004SOL    HW238646   0.270   0.214   1.212  0.3382  0.0599 -0.1332
 9005SOL     OW38647   0.556   2.997   0.497 -0.4375  0.0494  0.1186
 9005SOL    HW138648   0.649   3.014   0.517 -0.5922 -0.0218  0.9084
 9005SOL    HW238649   0.532   3.087   0.520  0.2323 -0.1342  1.5664
 9006SOL     OW38650   2.040   2.870  16.570 -0.0526  0.5880  0.6236
 9006SOL    HW138651   1.966   2.853  16.512  0.5417  1.2272 -0.3230
 9006SOL    HW238652   2.094   2.924  16.513  2.0697 -2.1100  0.0496
 9007SOL     OW38653   0.794   1.962   1.343  0.3142 -0.2642 -0.2407
 9007SOL    HW138654   0.747   1.924   1.268  0.9686  0.9512 -1.2604
 9007SOL    HW238655   0.765   2.052   1.333 -0.7283 -0.7791 -1.9720
 9008SOL     OW38656   4.095   2.484   7.228 -0.3321  0.6521 -0.0171
 9008SOL    HW138657   4.009   2.485   7.269  0.4483  1.5754  1.5840
 9008SOL    HW238658   4.066   2.544   7.159 -0.0647  1.0851  0.2457
 9009SOL     OW38659   3.299   2.604   4.744 -0.4660 -0.0977 -0.7923
 9009SOL    HW138660   3.369   2.543   4.721  1.3576  1.5935  0.2373
 9009SOL    HW238661   3.312   2.677   4.683  1.6549  0.1942  0.0060
 9010SOL     OW38662   3.370   3.221   8.227  0.8770  0.2047 -0.6611
 9010SOL    HW138663   3.285   3.225   8.273  1.6181 -0.6568  0.7859
 9010SOL    HW238664   3.366   3.296   8.168 -3.1071  1.1050  0.7782
 9011SOL     OW38665   1.184   4.197   6.464  0.0156 -0.2363 -0.0243
 9011SOL    HW138666   1.163   4.178   6.373 -0.6141  3.4267 -0.6484
 9011SOL    HW238667   1.229   4.117   6.491 -0.2294 -0.3312  0.1088
 9012SOL     OW38668   1.215   4.136   7.767 -0.6802 -0.2688  0.0750
 9012SOL    HW138669   1.186   4.224   7.742 -0.7327 -0.7599 -1.5846
 9012SOL    HW238670   1.211   4.137   7.863  1.7723 -0.8893  0.1907
 9013SOL     OW38671   1.478   4.503   5.447  0.1000 -0.0971 -0.2060
 9013SOL    HW138672   1.448   4.560   5.376 -1.3072  0.0818  0.5225
 9013SOL    HW238673   1.394   4.459   5.462 -0.8506  1.8734  0.2135
 9014SOL     OW38674   3.646   3.205   7.100 -0.5979  0.6844 -0.6329
 9014SOL    HW138675   3.691   3.287   7.122  0.1187 -0.1456  0.9476
 9014SOL    HW238676   3.613   3.168   7.182  1.3903 -1.6279 -0.8915
 9015SOL     OW38677   1.845   2.775   6.407  0.3809  0.1294 -0.5807
 9015SOL    HW138678   1.939   2.777   6.424  0.0211 -2.5184  1.7614
 9015SOL    HW238679   1.823   2.695   6.455 -0.3933  1.2386  0.9070
 9016SOL     OW38680   0.111   3.244   4.239  0.7132  0.3598 -0.1544
 9016SOL    HW138681   0.086   3.274   4.327  1.7823 -0.7739  0.5319
 9016SOL    HW238682   0.205   3.260   4.238  1.3573 -3.1505  3.2620
 9017SOL     OW38683   3.782   0.439   3.775 -0.0269 -0.8416 -0.0039
 9017SOL    HW138684   3.850   0.492   3.732 -0.7357  0.4787  0.4876
 9017SOL    HW238685   3.707   0.476   3.729  1.2992  2.6642  0.6243
 9018SOL     OW38686   3.810   0.054   5.555 -0.1771 -0.3147 -0.7965
 9018SOL    HW138687   3.783   0.126   5.498  1.7256  0.8296 -0.2647
 9018SOL    HW238688   3.724   0.019   5.577 -0.2177  1.1525  1.4400
 9019SOL     OW38689   0.615   4.337   8.279 -0.0182  0.5904 -0.1823
 9019SOL    HW138690   0.702   4.375   8.287 -0.0679  0.0871  2.8161
 9019SOL    HW238691   0.577   4.363   8.363 -1.8844 -1.8049 -0.3006
 9020SOL     OW38692   3.406   2.486   3.483 -0.0080 -0.2908  0.1283
 9020SOL    HW138693   3.467   2.543   3.530  0.6960  1.4939 -2.9336
 9020SOL    HW238694   3.376   2.433   3.557 -0.9388  0.1961  0.0993
 9021SOL     OW38695   2.091   1.764   1.667 -0.0140 -0.4313 -0.5934
 9021SOL    HW138696   2.184   1.744   1.682  0.5439  1.9859 -0.7466
 9021SOL    HW238697   2.053   1.685   1.629 -0.8355 -0.7590  0.9168
 9022SOL     OW38698   4.499   0.213   0.853 -0.6164 -0.0193  0.5082
 9022SOL    HW138699   4.427   0.153   0.832 -2.4719  2.8889 -1.3741
 9022SOL    HW238700   4.518   0.247   0.766  0.5120  2.0346  1.5635
 9023SOL     OW38701   0.414   3.880   4.744  0.1852  0.7391 -0.9499
 9023SOL    HW138702   0.362   3.881   4.824  3.1695 -0.0947  0.9822
 9023SOL    HW238703   0.415   3.788   4.716  0.9498  0.0514  1.3353
 9024SOL     OW38704   1.367   4.017   4.612  0.4835 -0.0139  0.1525
 9024SOL    HW138705   1.292   4.022   4.672 -0.0657  0.6192 -0.5841
 9024SOL    HW238706   1.346   3.931   4.577  1.8133  0.0385 -0.7485
 9025SOL     OW38707   1.839   4.079   2.438  1.2039 -0.6144 -0.0745
 9025SOL    HW138708   1.883   4.076   2.353 -1.3763 -1.4515 -1.3867
 9025SOL    HW238709   1.906   4.127   2.486  0.2972 -0.5920  1.1734
 9026SOL     OW38710   1.899   4.735  14.153 -0.7243 -0.4172 -0.0618
 9026SOL    HW138711   1.939   0.021  14.069 -0.6730  0.5854  0.2481
 9026SOL    HW238712   1.816   4.691  14.133 -1.2644  1.3007 -1.6031
 9027SOL     OW38713   4.576   0.600   9.043 -0.3175  0.4445 -0.8814
 9027SOL    HW138714   4.511   0.615   9.112 -0.8601 -2.3937 -0.7915
 9027SOL    HW238715   4.598   0.508   9.056  0.4330  0.7573  0.1191
 9028SOL     OW38716   1.809   1.877   8.791  0.5459 -0.1731  0.4897
 9028SOL    HW138717   1.787   1.862   8.698 -0.6168 -1.3153  0.9465
 9028SOL    HW238718   1.861   1.956   8.778  0.2289 -0.0241  0.1244
 9029SOL     OW38719   4.209   0.935  17.132 -0.2418  0.0671  0.4760
 9029SOL    HW138720   4.270   0.917  17.061 -1.4455 -1.1019 -0.2564
 9029SOL    HW238721   4.253   1.002  17.185 -1.5517  0.0931  1.5210
 9030SOL     OW38722   3.154   3.279   8.694  0.0698 -0.4100  0.1448
 9030SOL    HW138723   3.073   3.246   8.656 -0.7130  0.2042  1.2515
 9030SOL    HW238724   3.192   3.196   8.722  1.7495  0.7366  1.2459
 9031SOL     OW38725   4.586   1.186  17.166 -0.4538  0.0892 -0.2108
 9031SOL    HW138726   4.680   1.183  17.187  0.1251 -1.4688 -3.0019
 9031SOL    HW238727   4.555   1.112  17.218 -0.2791 -0.5922 -1.0837
 9032SOL     OW38728   3.576   0.292   6.501 -0.4761  0.4652 -0.1504
 9032SOL    HW138729   3.501   0.267   6.554 -0.3785 -0.9711 -0.6865
 9032SOL    HW238730   3.537   0.274   6.415  2.4628 -0.8782 -1.2005
 9033SOL     OW38731   3.191   2.998   4.923  0.2099  0.1356  0.5400
 9033SOL    HW138732   3.244   2.922   4.947 -0.1239  0.2963  1.7599
 9033SOL    HW238733   3.248   3.055   4.871  0.5757 -1.3427 -0.6748
 9034SOL     OW38734   1.624   0.212   8.532  0.3024 -0.2106  0.0365
 9034SOL    HW138735   1.684   0.138   8.538  1.4159  0.6406 -0.3703
 9034SOL    HW238736   1.693   0.278   8.540  1.5514 -1.5064 -0.0021
 9035SOL     OW38737   2.788   3.278   7.382  0.0108 -0.8583  0.3982
 9035SOL    HW138738   2.733   3.284   7.304 -0.6705  2.2733  1.1254
 9035SOL    HW238739   2.825   3.366   7.389 -0.9340 -0.4508  0.3684
 9036SOL     OW38740   3.662   0.637  17.403 -0.5589 -0.1969 -0.3920
 9036SOL    HW138741   3.611   0.556  17.402  1.1276 -1.2368 -1.5679
 9036SOL    HW238742   3.663   0.645  17.308 -2.1633 -0.6231 -0.4472
 9037SOL     OW38743   2.854   4.602   3.943  0.1450 -0.2913 -0.3538
 9037SOL    HW138744   2.907   4.666   3.991  0.4269 -0.1340 -0.8854
 9037SOL    HW238745   2.773   4.605   3.995 -0.2638  0.1636 -1.0218
 9038SOL     OW38746   1.189   1.028  10.145  0.2370 -0.4411 -0.3114
 9038SOL    HW138747   1.191   0.937  10.174 -2.5264 -0.1828  0.7552
 9038SOL    HW238748   1.238   1.015  10.064 -0.4062 -0.0338 -0.7606
 9039SOL     OW38749   0.440   0.355   4.686 -0.0975 -0.2510 -0.6550
 9039SOL    HW138750   0.419   0.338   4.778  1.9749 -0.8492 -0.2952
 9039SOL    HW238751   0.501   0.281   4.680  1.3924  0.7414  2.3375
 9040SOL     OW38752   1.002   0.637   2.453  0.0570 -0.1312  0.1615
 9040SOL    HW138753   1.094   0.614   2.437 -0.0195 -0.2879 -0.0616
 9040SOL    HW238754   0.948   0.587   2.392  0.5534 -0.2476 -0.1900
 9041SOL     OW38755   1.999   0.213   3.844 -0.5688 -0.2540  0.3296
 9041SOL    HW138756   1.959   0.300   3.842  2.1689  1.0078  0.6844
 9041SOL    HW238757   1.983   0.178   3.931 -0.7596 -1.3001 -0.1260
 9042SOL     OW38758   0.698   1.909   7.874 -0.3042  0.5074 -1.2473
 9042SOL    HW138759   0.629   1.845   7.891  1.9602 -1.7178 -0.4619
 9042SOL    HW238760   0.744   1.920   7.957 -1.5474  1.2653 -0.6629
 9043SOL     OW38761   2.516   0.922   9.040  0.6621 -0.7901  0.5610
 9043SOL    HW138762   2.471   0.862   8.981 -1.2733  0.5420  0.6813
 9043SOL    HW238763   2.478   0.893   9.123 -1.1513 -1.1709 -0.4115
 9044SOL     OW38764   3.379   1.437   8.320  0.1165 -0.0249 -0.1175
 9044SOL    HW138765   3.398   1.496   8.247  2.6733 -0.2927  0.3501
 9044SOL    HW238766   3.347   1.360   8.271 -0.5396 -0.2076  0.5961
 9045SOL     OW38767   0.247   1.833   6.413 -0.6329  0.1019 -0.6174
 9045SOL    HW138768   0.309   1.881   6.467 -1.6966  2.4368 -1.4817
 9045SOL    HW238769   0.265   1.871   6.327  0.7355 -2.2545 -1.3514
 9046SOL     OW38770   4.023   4.292   6.962 -0.0875 -0.0825 -0.5398
 9046SOL    HW138771   4.044   4.353   7.032  0.2648 -1.2864  0.4143
 9046SOL    HW238772   4.044   4.206   6.999 -1.9679 -0.1714  0.3369
 9047SOL     OW38773   2.304   0.556   4.633  0.3850 -0.7188  0.1468
 9047SOL    HW138774   2.320   0.502   4.711 -0.6131 -1.0723  0.1088
 9047SOL    HW238775   2.212   0.582   4.632  1.0074  1.3691 -1.9209
 9048SOL     OW38776   3.056   2.095   6.025 -0.2964 -0.3164  0.0017
 9048SOL    HW138777   3.031   2.109   6.117  1.1986 -0.9624  0.5067
 9048SOL    HW238778   2.976   2.067   5.981  0.7951 -2.6620 -0.5103
 9049SOL     OW38779   3.716   0.246   9.894  0.2050  0.8958  0.1684
 9049SOL    HW138780   3.695   0.239   9.801  2.6293 -0.3410 -0.2745
 9049SOL    HW238781   3.638   0.284   9.934 -0.8159 -1.2820  0.2312
 9050SOL     OW38782   3.494   4.169   8.355 -0.7861  0.2782 -0.5961
 9050SOL    HW138783   3.512   4.263   8.346 -0.6962  0.1108 -2.1327
 9050SOL    HW238784   3.458   4.163   8.444  3.4635 -0.0882  1.0958
 9051SOL     OW38785   4.487   1.408   0.493  0.3985 -0.8016  0.6447
 9051SOL    HW138786   4.525   1.462   0.563  0.2723 -1.1109  0.9516
 9051SOL    HW238787   4.396   1.436   0.482  0.7945 -0.3520 -1.4464
 9052SOL     OW38788   0.534   4.567   9.779 -0.5922 -0.7900  0.8984
 9052SOL    HW138789   0.534   4.522   9.695 -0.3207 -1.0368  1.0307
 9052SOL    HW238790   0.440   4.571   9.800 -0.9609 -1.2947 -0.6726
 9053SOL     OW38791   1.782   1.749  13.852  0.4738  0.3167  0.0717
 9053SOL    HW138792   1.721   1.775  13.921  0.3085 -0.6844  0.2994
 9053SOL    HW238793   1.732   1.790  13.782  0.7277  0.7741  0.1609
 9054SOL     OW38794   3.750   0.309   2.021 -0.2724  0.7707 -0.1361
 9054SOL    HW138795   3.763   0.309   2.116  1.3391 -1.1121 -0.3391
 9054SOL    HW238796   3.772   0.217   2.005  0.5609  0.5521  2.2111
 9055SOL     OW38797   3.882   2.580   4.544 -0.6556 -0.5459  0.4463
 9055SOL    HW138798   3.898   2.606   4.453  0.5570 -0.1196  0.7910
 9055SOL    HW238799   3.967   2.598   4.583  0.0152 -0.7771 -0.9179
 9056SOL     OW38800   3.247   3.616   6.811 -0.3281  0.6139  0.2502
 9056SOL    HW138801   3.271   3.610   6.718  0.2756  0.8537  0.3858
 9056SOL    HW238802   3.335   3.605   6.847  0.2459  3.6438 -0.1506
 9057SOL     OW38803   2.963   3.680   6.865 -0.2730 -0.0315  0.5122
 9057SOL    HW138804   3.058   3.687   6.871 -0.2487 -0.3907  0.5089
 9057SOL    HW238805   2.940   3.700   6.956 -2.9672 -1.2216  0.0955
 9058SOL     OW38806   3.389   4.147   2.508 -0.1168  0.1715  0.2953
 9058SOL    HW138807   3.411   4.215   2.445  0.0166 -0.3825 -0.2560
 9058SOL    HW238808   3.320   4.186   2.562  0.3587  0.1766  0.8938
 9059SOL     OW38809   4.391   0.754   6.209 -0.1066 -0.1348 -0.4615
 9059SOL    HW138810   4.371   0.661   6.199  0.4823 -0.3330  0.2033
 9059SOL    HW238811   4.307   0.790   6.237  0.7533  0.2028  1.6609
 9060SOL     OW38812   2.396   2.436   7.982  0.1925 -0.1424  0.1700
 9060SOL    HW138813   2.409   2.390   7.899  0.9399  0.0312  0.1932
 9060SOL    HW238814   2.436   2.521   7.961  1.4863 -1.3777 -2.3819
 9061SOL     OW38815   4.478   0.812  14.166  0.6267  0.1071 -0.3484
 9061SOL    HW138816   4.549   0.849  14.218  0.1937 -0.8549  0.9170
 9061SOL    HW238817   4.523   0.777  14.090 -1.5261  0.0253 -1.5965
 9062SOL     OW38818   0.340   2.497   3.583  0.1455  0.3022  0.0145
 9062SOL    HW138819   0.320   2.481   3.491 -0.1218  0.0245  0.1165
 9062SOL    HW238820   0.378   2.584   3.585 -0.5769  0.6251 -0.3623
 9063SOL     OW38821   2.312   0.823  17.365 -0.4894 -0.1906 -0.7023
 9063SOL    HW138822   2.346   0.734  17.376  0.6407  0.4698  1.1592
 9063SOL    HW238823   2.365   0.848  17.290  1.8900  0.0177  1.0204
 9064SOL     OW38824   0.728   3.225   4.486 -0.5733 -0.5497 -0.0053
 9064SOL    HW138825   0.738   3.130   4.477 -1.8508 -0.6755 -0.0636
 9064SOL    HW238826   0.693   3.221   4.575  1.2056  0.3740  0.7471
 9065SOL     OW38827   4.280   1.853  16.316  0.1990 -0.2265 -0.1764
 9065SOL    HW138828   4.336   1.783  16.348 -0.1834  1.1591  3.5315
 9065SOL    HW238829   4.283   1.837  16.221  2.3353  2.6215 -0.6062
 9066SOL     OW38830   2.395   3.715   6.884 -0.0949  0.2969  0.1182
 9066SOL    HW138831   2.397   3.783   6.816  1.8476 -1.4435 -1.5826
 9066SOL    HW238832   2.481   3.735   6.921  0.4703 -2.2498  0.1703
 9067SOL     OW38833   0.185   3.614  16.059 -0.3410  0.0760 -0.5557
 9067SOL    HW138834   0.234   3.688  16.096  0.6895 -0.6041 -0.5583
 9067SOL    HW238835   0.155   3.663  15.982  3.8898  2.1376 -0.9019
 9068SOL     OW38836   3.926   3.111   6.353  0.2089  0.0895 -0.0576
 9068SOL    HW138837   3.878   3.132   6.273  0.8539 -2.9121 -1.2259
 9068SOL    HW238838   4.005   3.074   6.313  0.8171  0.1296  1.1070
 9069SOL     OW38839   3.097   4.428  12.525 -0.1732 -0.6465  0.0974
 9069SOL    HW138840   3.190   4.444  12.545 -0.9191  2.8578  0.6631
 9069SOL    HW238841   3.058   4.409  12.610  1.5121 -1.3932  0.7240
 9070SOL     OW38842   1.036   4.606   7.038  0.1316 -0.4309 -0.3548
 9070SOL    HW138843   1.104   4.541   7.021  1.9367  1.2664  0.2642
 9070SOL    HW238844   0.983   4.575   7.111  1.0642 -0.8686  0.1329
 9071SOL     OW38845   2.615   0.749   2.446 -0.2458  0.0494  0.0469
 9071SOL    HW138846   2.711   0.745   2.443 -0.1526  2.4706 -0.1902
 9071SOL    HW238847   2.589   0.693   2.519 -1.3490  1.0604  0.4277
 9072SOL     OW38848   0.434   0.661   0.626 -0.3197 -0.1648  0.1725
 9072SOL    HW138849   0.408   0.604   0.699  0.2112 -2.9293 -1.8067
 9072SOL    HW238850   0.505   0.713   0.662  1.0738 -2.6945  1.1111
 9073SOL     OW38851   4.673   3.778   4.559 -0.6217  1.0491 -0.3146
 9073SOL    HW138852   4.702   3.866   4.537  0.7499  0.2838 -1.5954
 9073SOL    HW238853   0.018   3.730   4.556 -1.3058 -0.1370 -0.0602
 9074SOL     OW38854   3.869   4.631   3.064  0.2433  0.6818 -1.0800
 9074SOL    HW138855   3.785   4.587   3.075  1.4105 -1.1354  0.5165
 9074SOL    HW238856   3.838   4.721   3.052 -2.5709 -0.2606 -0.7470
 9075SOL     OW38857   3.993   3.692  14.370  0.5507 -0.1014 -0.2877
 9075SOL    HW138858   4.059   3.623  14.370 -3.2513 -3.7052  2.0006
 9075SOL    HW238859   3.958   3.697  14.281  2.1415 -2.4689 -1.0270
 9076SOL     OW38860   3.709   2.816   1.916 -0.3102  0.1584  0.1767
 9076SOL    HW138861   3.683   2.856   1.834 -1.1699 -0.5107  0.1155
 9076SOL    HW238862   3.643   2.748   1.931  0.4376  0.1124  3.3138
 9077SOL     OW38863   4.656   2.710   7.870 -0.1623  0.0871  0.0115
 9077SOL    HW138864   4.708   2.629   7.876 -1.0456 -0.4680  0.2416
 9077SOL    HW238865   4.707   2.774   7.918 -1.4364  1.2407 -0.1778
 9078SOL     OW38866   2.266   2.100  13.853  0.0884 -0.3622 -0.6893
 9078SOL    HW138867   2.302   2.188  13.838  0.2441 -0.2765  0.1883
 9078SOL    HW238868   2.214   2.082  13.775 -0.9731 -1.1599  0.1954
 9079SOL     OW38869   4.376   1.287   4.845 -0.5612 -0.1703 -0.1007
 9079SOL    HW138870   4.315   1.234   4.795  1.5597  0.3352 -3.2111
 9079SOL    HW238871   4.326   1.302   4.925 -0.6255  2.4302 -0.6166
 9080SOL     OW38872   3.085   1.026   2.513 -0.4948  0.5397 -0.2800
 9080SOL    HW138873   3.063   0.933   2.500 -1.7886  0.9592 -1.0092
 9080SOL    HW238874   3.021   1.040   2.582  1.2098  2.0551  0.9924
 9081SOL     OW38875   4.089   2.129   5.675 -0.5788  0.6841 -0.1647
 9081SOL    HW138876   4.009   2.162   5.634  0.4352  2.7555 -0.4805
 9081SOL    HW238877   4.140   2.121   5.595 -1.9422  1.5617 -1.1155
 9082SOL     OW38878   1.863   1.721   0.618  0.2130 -0.7198 -0.0358
 9082SOL    HW138879   1.920   1.664   0.669 -2.0837 -1.5718  1.5671
 9082SOL    HW238880   1.885   1.811   0.640  1.5763 -0.5531 -2.1069
 9083SOL     OW38881   2.813   3.028  13.789  0.3684 -0.4725 -0.1504
 9083SOL    HW138882   2.756   3.058  13.859 -0.3557  0.0187 -0.9499
 9083SOL    HW238883   2.872   2.975  13.843  1.0723 -0.8213 -1.2399
 9084SOL     OW38884   1.785   2.316   7.601  0.2499  0.0929  0.5291
 9084SOL    HW138885   1.796   2.411   7.591  0.4774 -0.0484 -0.6247
 9084SOL    HW238886   1.854   2.299   7.666 -0.6988 -1.2554  1.1760
 9085SOL     OW38887   4.508   0.987   8.668  0.1176  0.0951  0.2270
 9085SOL    HW138888   4.514   0.916   8.732  0.6452 -1.2519 -1.2819
 9085SOL    HW238889   4.434   1.040   8.696 -0.3496 -0.0416 -0.7175
 9086SOL     OW38890   0.114   0.050   7.030 -0.4203 -0.5923 -0.2094
 9086SOL    HW138891   0.023   0.055   7.000  0.0529  3.6538 -0.8539
 9086SOL    HW238892   0.163   0.045   6.948  2.1679  0.9709  1.2451
 9087SOL     OW38893   1.120   1.016   3.099  0.0586  0.2221  0.2277
 9087SOL    HW138894   1.041   0.991   3.147 -0.7499 -1.3319 -1.9091
 9087SOL    HW238895   1.080   1.093   3.057 -1.3175  1.2265  3.4144
 9088SOL     OW38896   3.470   2.857   8.895  0.2471 -0.9034 -0.1615
 9088SOL    HW138897   3.560   2.851   8.926  0.2570  0.4619  0.0774
 9088SOL    HW238898   3.435   2.770   8.917 -2.1417  0.0825 -0.0277
 9089SOL     OW38899   3.556   4.036   3.536 -0.1444 -0.3681 -0.2944
 9089SOL    HW138900   3.532   3.961   3.482  1.1790 -0.1059 -1.2392
 9089SOL    HW238901   3.468   4.069   3.557 -0.1794 -0.9250  0.4121
 9090SOL     OW38902   0.833   4.255   3.618 -0.4912  0.1900  0.0176
 9090SOL    HW138903   0.847   4.335   3.567  0.3391  0.5725  0.8382
 9090SOL    HW238904   0.744   4.271   3.650 -0.3970  0.2603  0.2495
 9091SOL     OW38905   2.887   1.478  15.101  0.0121 -0.3743 -0.4659
 9091SOL    HW138906   2.886   1.391  15.138 -1.5306 -0.3091 -0.3592
 9091SOL    HW238907   2.966   1.476  15.046 -0.4279  0.2249 -1.1359
 9092SOL     OW38908   1.453   3.774   6.922 -0.3861 -0.0755  0.1834
 9092SOL    HW138909   1.501   3.844   6.878  0.5896 -0.0457  1.2929
 9092SOL    HW238910   1.470   3.693   6.875  0.1281 -1.1292  2.1817
 9093SOL     OW38911   1.573   3.800   2.748  0.1300  0.3371  0.4221
 9093SOL    HW138912   1.571   3.879   2.802 -0.1260 -0.1988  1.2057
 9093SOL    HW238913   1.615   3.827   2.666 -2.1907  3.9365  0.3989
 9094SOL     OW38914   4.380   2.520   4.763 -0.2134  0.3439  0.0534
 9094SOL    HW138915   4.336   2.580   4.702 -2.0689  1.8092  2.8613
 9094SOL    HW238916   4.316   2.524   4.834 -1.1714  0.2970 -0.8053
 9095SOL     OW38917   0.931   4.486   4.681 -0.4699  0.5556  0.4577
 9095SOL    HW138918   0.957   4.564   4.632  1.1468 -0.7523 -0.7506
 9095SOL    HW238919   0.950   4.421   4.614 -2.0316  2.4347 -1.8326
 9096SOL     OW38920   0.722   0.761  12.196  0.0174  0.4088 -0.7074
 9096SOL    HW138921   0.791   0.822  12.168  1.1227 -1.6430 -2.4140
 9096SOL    HW238922   0.752   0.679  12.158  2.4654  1.0099 -0.0799
 9097SOL     OW38923   1.907   1.461   5.685  0.7206  0.4957  0.1977
 9097SOL    HW138924   1.834   1.467   5.623  1.7824  0.6975 -1.0172
 9097SOL    HW238925   1.865   1.494   5.765 -2.4248 -0.0910 -1.1944
 9098SOL     OW38926   0.219   3.446   9.097  0.0410  0.4950 -0.4814
 9098SOL    HW138927   0.242   3.520   9.154  0.0417 -0.3568  0.6194
 9098SOL    HW238928   0.270   3.469   9.019 -0.7118  0.9932 -0.8317
 9099SOL     OW38929   0.474   1.909   5.186 -0.0059  0.7405  0.4066
 9099SOL    HW138930   0.523   1.920   5.105 -2.8254 -0.7428 -1.5215
 9099SOL    HW238931   0.395   1.862   5.157 -0.6214  1.3791  1.0261
 9100SOL     OW38932   3.866   0.285   3.524 -0.4350 -0.2854  0.2692
 9100SOL    HW138933   3.958   0.271   3.547 -0.4496 -1.3269 -0.3142
 9100SOL    HW238934   3.822   0.269   3.608 -0.4979  1.3385  0.5433
 9101SOL     OW38935   3.341   4.043   6.147  0.7657 -0.2179  0.4083
 9101SOL    HW138936   3.303   3.970   6.098 -0.9319  0.4105  0.7639
 9101SOL    HW238937   3.293   4.038   6.230  0.7999  0.4781  0.4728
 9102SOL     OW38938   3.170   4.639  17.008  0.0046 -0.0886 -0.1423
 9102SOL    HW138939   3.106   4.571  17.029  0.8011  0.1005  2.8209
 9102SOL    HW238940   3.171   4.679  17.095 -0.2368  2.4595 -1.3028
 9103SOL     OW38941   1.120   3.638   8.882  0.1539  0.8651  0.1381
 9103SOL    HW138942   1.155   3.596   8.960 -3.3908 -0.4181  1.0174
 9103SOL    HW238943   1.194   3.640   8.821  0.3734  0.8170  0.4025
 9104SOL     OW38944   2.947   1.575   2.857 -0.1208  0.0162 -0.3504
 9104SOL    HW138945   2.859   1.599   2.829 -0.6722  1.3539  2.6469
 9104SOL    HW238946   2.955   1.598   2.949  4.2313  2.2527 -1.2667
 9105SOL     OW38947   0.521   0.974   7.854  0.6763 -0.0850 -0.2709
 9105SOL    HW138948   0.477   0.910   7.799  1.6986 -2.0620  1.2097
 9105SOL    HW238949   0.447   1.030   7.876  1.2333  0.8441 -0.7616
 9106SOL     OW38950   4.330   2.979  16.553  0.1516 -0.4553  0.1367
 9106SOL    HW138951   4.342   3.004  16.461  0.8271  3.1154  1.1892
 9106SOL    HW238952   4.401   2.915  16.557 -0.2903 -0.9051  0.7248
 9107SOL     OW38953   3.623   3.113   8.260  0.3421  0.3909 -0.0496
 9107SOL    HW138954   3.669   3.189   8.223  0.9343  0.0077 -0.1025
 9107SOL    HW238955   3.534   3.144   8.245  0.4520  1.1789  0.8957
 9108SOL     OW38956   2.183   1.013   3.526  0.1766 -0.1333  0.4628
 9108SOL    HW138957   2.141   0.941   3.479  2.1137 -1.5998  0.9332
 9108SOL    HW238958   2.107   1.071   3.521 -0.2592 -0.6168  1.4057
 9109SOL     OW38959   2.865   0.267  11.777  0.2867  0.2249  0.8108
 9109SOL    HW138960   2.851   0.358  11.804 -1.1816  0.1624  0.2559
 9109SOL    HW238961   2.778   0.234  11.800 -0.2378  0.1693 -1.2595
 9110SOL     OW38962   2.042   0.216  17.686  0.2538  0.2253 -0.1232
 9110SOL    HW138963   2.108   0.148  17.672  0.0047 -0.1443  0.5327
 9110SOL    HW238964   2.091   0.295  17.661  0.8859  0.3822  1.6615
 9111SOL     OW38965   3.071   3.313   4.875  0.7366  0.3450  0.6398
 9111SOL    HW138966   3.132   3.297   4.803 -0.8248 -1.7068 -0.2354
 9111SOL    HW238967   3.008   3.375   4.838  3.1859 -0.1215 -4.3537
 9112SOL     OW38968   1.027   4.400  12.087  0.0976  0.2275 -0.3277
 9112SOL    HW138969   1.060   4.480  12.045  0.5085 -0.9589 -2.2569
 9112SOL    HW238970   0.979   4.357  12.017 -0.6043  0.6243 -0.0885
 9113SOL     OW38971   1.009   0.269   9.533  0.3489  0.2812  0.7214
 9113SOL    HW138972   1.019   0.300   9.623 -0.2811  0.2210  0.8093
 9113SOL    HW238973   1.083   0.313   9.491 -0.5294  0.4311 -0.6522
 9114SOL     OW38974   2.588   3.841   7.037 -0.4874  0.0340  0.2638
 9114SOL    HW138975   2.673   3.876   7.064 -0.4934  0.8800 -0.8245
 9114SOL    HW238976   2.531   3.883   7.102 -1.6063  1.1634 -1.4285
 9115SOL     OW38977   0.165   0.421   5.793 -0.0332 -0.0119 -0.0051
 9115SOL    HW138978   0.205   0.474   5.861  0.6889 -0.4686 -0.0781
 9115SOL    HW238979   0.169   0.331   5.826 -1.6404  0.0422  0.3585
 9116SOL     OW38980   1.492   2.732   3.038  0.1492  0.5286 -0.5018
 9116SOL    HW138981   1.494   2.659   3.099  1.7713  1.6504  0.7613
 9116SOL    HW238982   1.471   2.800   3.102 -1.3758  0.3041 -0.7532
 9117SOL     OW38983   0.345   3.279   3.151 -0.2192  0.1768 -0.3527
 9117SOL    HW138984   0.350   3.339   3.077  0.9460  1.1554  0.5172
 9117SOL    HW238985   0.256   3.245   3.145 -0.3306  0.0106  2.3305
 9118SOL     OW38986   1.243   1.094   6.577 -0.2657 -0.4582  0.1495
 9118SOL    HW138987   1.206   1.081   6.490  1.2422  0.0331 -0.5615
 9118SOL    HW238988   1.331   1.131   6.569 -0.2939 -0.2986  0.5872
 9119SOL     OW38989   4.571   4.265   3.528  0.1305  0.3326 -0.3663
 9119SOL    HW138990   4.495   4.312   3.562 -0.0745 -1.8076  2.0918
 9119SOL    HW238991   4.634   4.335   3.511  1.2853 -0.7055 -0.3720
 9120SOL     OW38992   2.527   4.237  12.279  0.0609 -0.4211 -0.4747
 9120SOL    HW138993   2.547   4.184  12.357  2.4428  1.7986  0.4060
 9120SOL    HW238994   2.436   4.261  12.297  0.1394  0.0011 -0.6616
 9121SOL     OW38995   1.650   2.368   2.891 -0.7160  0.8284 -0.3777
 9121SOL    HW138996   1.710   2.395   2.961 -0.4048 -0.3851 -0.1649
 9121SOL    HW238997   1.630   2.280   2.923  2.6842  0.4256  0.6817
 9122SOL     OW38998   3.116   4.189   3.733  0.6330 -0.4078  0.4663
 9122SOL    HW138999   3.062   4.191   3.812 -0.1209 -0.4305 -0.0439
 9122SOL    HW239000   3.185   4.253   3.749  0.5461 -0.3147  0.4718
 9123SOL     OW39001   0.389   3.871   7.298  0.2299  0.1273 -0.5128
 9123SOL    HW139002   0.314   3.930   7.291 -0.6379 -0.6969  1.8312
 9123SOL    HW239003   0.402   3.842   7.208 -1.9980 -2.1420 -0.0878
 9124SOL     OW39004   2.367   0.969  14.668  0.0892  0.5328 -0.2558
 9124SOL    HW139005   2.375   0.876  14.646  2.8247  0.8052 -0.4578
 9124SOL    HW239006   2.460   0.993  14.678  0.5147 -1.6969  1.1977
 9125SOL     OW39007   2.623   2.661   1.621  0.0900 -0.2120 -0.5350
 9125SOL    HW139008   2.628   2.565   1.625  0.6664 -0.1429  0.6035
 9125SOL    HW239009   2.544   2.661   1.567 -0.5269  0.5644  0.3638
 9126SOL     OW39010   0.686   4.113  12.809  0.1969  0.0172  0.3824
 9126SOL    HW139011   0.620   4.059  12.766  0.6354 -0.5175  0.3796
 9126SOL    HW239012   0.763   4.104  12.753  0.0938  0.3145  0.1903
 9127SOL     OW39013   2.020   2.815  16.097  0.2302  0.1365  0.6930
 9127SOL    HW139014   2.112   2.839  16.105  0.9288 -1.6344 -2.0362
 9127SOL    HW239015   1.987   2.868  16.025 -1.8152 -0.8531  0.8816
 9128SOL     OW39016   3.426   2.442   6.258  0.3334  0.3253 -0.0815
 9128SOL    HW139017   3.422   2.457   6.163  0.4700 -0.5398 -0.2204
 9128SOL    HW239018   3.396   2.528   6.287 -1.5822 -1.0153  1.8143
 9129SOL     OW39019   3.357   2.191   1.741 -0.5341  0.1085 -0.0568
 9129SOL    HW139020   3.351   2.105   1.701 -0.8638  0.2172 -0.2395
 9129SOL    HW239021   3.287   2.247   1.707  0.2618  2.3515  1.9608
 9130SOL     OW39022   3.371   3.869   2.955 -0.0595 -0.2529  0.2481
 9130SOL    HW139023   3.413   3.898   2.874  1.6329 -0.5528  1.0238
 9130SOL    HW239024   3.287   3.913   2.939 -0.0860 -0.9688 -1.5932
 9131SOL     OW39025   3.940   0.658   7.150  0.8409  0.2648 -0.5728
 9131SOL    HW139026   3.911   0.640   7.240 -0.9731  1.4227 -0.9358
 9131SOL    HW239027   4.031   0.628   7.145 -0.2381 -3.4053  1.8680
 9132SOL     OW39028   3.722   2.569   2.172  0.5525  0.3157 -0.0233
 9132SOL    HW139029   3.792   2.513   2.138  0.6055  0.4716 -0.1684
 9132SOL    HW239030   3.652   2.554   2.108 -0.8504  0.4364  1.4649
 9133SOL     OW39031   3.324   1.308   9.225  0.6716 -0.1313  0.0100
 9133SOL    HW139032   3.384   1.322   9.152 -2.2565  0.4428 -2.2578
 9133SOL    HW239033   3.278   1.243   9.172  3.2949 -1.8298 -0.2069
 9134SOL     OW39034   1.429   4.151   6.700  0.2180 -0.0098  0.0468
 9134SOL    HW139035   1.348   4.122   6.657 -1.3282  1.4717  1.9902
 9134SOL    HW239036   1.453   4.072   6.748  1.2309  1.1125  1.3812
 9135SOL     OW39037   3.182   1.509   9.029  0.8815  0.2444  0.2341
 9135SOL    HW139038   3.189   1.470   8.942 -1.6446 -1.6714  0.8897
 9135SOL    HW239039   3.156   1.430   9.077  0.2365 -0.4534 -1.2480
 9136SOL     OW39040   1.520   3.353   1.765  0.6480 -0.1771 -0.6670
 9136SOL    HW139041   1.502   3.375   1.856 -2.1892  0.7807 -1.4590
 9136SOL    HW239042   1.526   3.442   1.730 -1.0520  0.9441  1.8870
 9137SOL     OW39043   1.533   1.264   0.724  0.4686  0.6110 -0.5237
 9137SOL    HW139044   1.506   1.276   0.633 -4.3075  0.6895  0.8923
 9137SOL    HW239045   1.563   1.350   0.754  0.0757  0.6039 -0.1091
 9138SOL     OW39046   0.787   0.486   4.046 -0.4087  0.3666  0.1014
 9138SOL    HW139047   0.844   0.435   3.989 -1.8929 -0.8570 -0.3026
 9138SOL    HW239048   0.847   0.534   4.104  1.0063 -0.2875 -0.8490
 9139SOL     OW39049   0.777   2.023   0.073  0.3529  0.6019 -0.1044
 9139SOL    HW139050   0.832   1.962   0.123  1.0263 -1.8114 -3.7942
 9139SOL    HW239051   0.852   2.060   0.028  1.2055 -0.2148  0.6468
 9140SOL     OW39052   0.085   2.514   7.040 -0.7159 -0.5591 -0.6176
 9140SOL    HW139053   0.112   2.430   7.002 -1.8142 -2.0756  2.0393
 9140SOL    HW239054   0.112   2.569   6.966  1.3245 -1.5336 -0.6061
 9141SOL     OW39055   4.609   3.307   3.195 -0.0992  0.2576  0.1121
 9141SOL    HW139056   4.524   3.330   3.157  0.6607  1.4829 -0.8531
 9141SOL    HW239057   4.649   3.392   3.215  1.3045 -1.2660  3.6697
 9142SOL     OW39058   2.286   4.601   7.432  0.2229 -0.2098 -0.5672
 9142SOL    HW139059   2.298   4.667   7.501  1.7912 -1.1829  0.0738
 9142SOL    HW239060   2.211   4.550   7.463 -0.1912  1.0434  0.4795
 9143SOL     OW39061   0.808   4.483   8.997 -0.1610  0.0362 -0.1709
 9143SOL    HW139062   0.869   4.425   8.952 -1.1089  0.4403 -1.9798
 9143SOL    HW239063   0.748   4.497   8.924  0.5663  0.1274 -0.7568
 9144SOL     OW39064   3.740   2.874   3.109  0.1121 -0.2376  0.6176
 9144SOL    HW139065   3.683   2.848   3.181  1.0818  0.1866  1.5374
 9144SOL    HW239066   3.756   2.787   3.073  0.3683  1.1428 -2.5569
 9145SOL     OW39067   4.185   3.210   2.303  0.1132  0.6020  0.3993
 9145SOL    HW139068   4.109   3.153   2.290  0.4867  0.5026 -1.3848
 9145SOL    HW239069   4.165   3.227   2.395 -0.5615  1.8731  0.0134
 9146SOL     OW39070   3.041   2.833  14.195 -0.6791  0.6821  0.5838
 9146SOL    HW139071   3.001   2.814  14.110 -1.2405 -1.3942  1.3108
 9146SOL    HW239072   2.962   2.827  14.248 -0.6605  0.9319  0.6378
 9147SOL     OW39073   0.920   2.362   7.808  0.4533  0.2083 -0.4631
 9147SOL    HW139074   0.941   2.365   7.902 -0.4282  2.9036 -0.3611
 9147SOL    HW239075   0.831   2.328   7.807  1.0379 -1.3588  0.4985
 9148SOL     OW39076   0.958   1.847  15.039  0.3140 -0.2653 -0.0726
 9148SOL    HW139077   0.894   1.786  15.002 -0.9691  0.8658  0.2745
 9148SOL    HW239078   0.904   1.895  15.101  1.5630 -1.8198  2.1786
 9149SOL     OW39079   2.775   0.217   1.634 -0.2969 -0.7033 -0.1486
 9149SOL    HW139080   2.681   0.233   1.634  0.0535  1.2725 -2.5749
 9149SOL    HW239081   2.768   0.121   1.632  0.3615 -0.8110  2.5162
 9150SOL     OW39082   2.695   0.187   3.595  0.0391  0.0675 -0.9014
 9150SOL    HW139083   2.739   0.238   3.662 -1.6228  0.0447  0.2100
 9150SOL    HW239084   2.642   0.130   3.651 -0.8477  2.4670  0.6724
 9151SOL     OW39085   0.579   1.336  17.275  0.5809  0.0352 -0.0486
 9151SOL    HW139086   0.619   1.422  17.260  0.0643  0.6740  2.1358
 9151SOL    HW239087   0.624   1.278  17.215 -1.1473 -0.0570 -1.2612
 9152SOL     OW39088   2.486   0.471   8.910 -0.4868  0.3539 -0.0338
 9152SOL    HW139089   2.533   0.528   8.971 -0.4616 -1.3645  1.5551
 9152SOL    HW239090   2.524   0.389   8.940 -0.8612  1.2247  2.7708
 9153SOL     OW39091   3.431   2.061   6.004  0.5863 -0.3756  0.5389
 9153SOL    HW139092   3.516   2.091   5.972 -1.2725 -0.4827 -4.4831
 9153SOL    HW239093   3.436   2.082   6.098  0.9059  1.3650  0.1353
 9154SOL     OW39094   0.074   2.174   7.330 -0.0161  0.4835  0.6183
 9154SOL    HW139095   0.159   2.133   7.316 -0.0581  0.0420  1.6507
 9154SOL    HW239096   0.032   2.137   7.253 -0.6716  2.2508  0.1358
 9155SOL     OW39097   2.946   0.261   4.769  0.5863  0.2300 -0.3148
 9155SOL    HW139098   3.033   0.300   4.766  0.0871  1.3674 -0.2834
 9155SOL    HW239099   2.918   0.321   4.839 -0.3204 -2.5124  1.6675
 9156SOL     OW39100   3.298   4.690  12.493 -0.2226  0.1907  0.7332
 9156SOL    HW139101   3.259   0.005  12.423  1.0688 -0.0283 -0.1455
 9156SOL    HW239102   3.382   4.736  12.495  0.4713 -1.1105  1.1116
 9157SOL     OW39103   2.890   4.618   2.113 -0.3325 -0.5337 -0.2723
 9157SOL    HW139104   2.800   4.589   2.128 -1.3232  2.6071 -0.3444
 9157SOL    HW239105   2.922   4.548   2.056  2.8595  0.8192 -0.1687
 9158SOL     OW39106   3.608   0.687   5.522 -0.1056 -0.4155 -0.7282
 9158SOL    HW139107   3.696   0.670   5.558 -0.3802 -1.5587 -0.5797
 9158SOL    HW239108   3.556   0.673   5.602  0.3903 -1.5927 -0.6133
 9159SOL     OW39109   1.761   2.334   5.462  0.1067  0.0022  0.6408
 9159SOL    HW139110   1.732   2.261   5.408  0.4062  1.1131 -1.0155
 9159SOL    HW239111   1.700   2.310   5.532  0.4388  2.2276  1.6957
 9160SOL     OW39112   4.564   0.263   0.590 -0.0024 -0.0559  0.3281
 9160SOL    HW139113   4.616   0.249   0.511 -1.3202 -0.2176 -0.5020
 9160SOL    HW239114   4.492   0.316   0.556 -2.5264 -3.3953  0.5311
 9161SOL     OW39115   2.012   2.709  11.944 -0.2953 -0.3997  0.0236
 9161SOL    HW139116   2.032   2.622  11.979 -2.2970 -0.8783 -0.0474
 9161SOL    HW239117   1.917   2.701  11.942 -0.4834  1.4521  1.0280
 9162SOL     OW39118   4.449   2.627   9.681  0.1754 -0.6047  0.7216
 9162SOL    HW139119   4.531   2.668   9.705  1.1224 -0.6532 -2.3971
 9162SOL    HW239120   4.419   2.575   9.756  1.1067 -2.2274 -0.0224
 9163SOL     OW39121   0.295   1.225   3.805 -0.0336 -0.2184  0.3473
 9163SOL    HW139122   0.372   1.181   3.842 -0.3307 -0.6972  0.3891
 9163SOL    HW239123   0.333   1.310   3.784 -0.8697  0.5401  1.9422
 9164SOL     OW39124   2.862   1.406   5.035 -0.1047  0.3993 -0.4165
 9164SOL    HW139125   2.856   1.493   5.075 -1.3066 -0.0355  0.3318
 9164SOL    HW239126   2.771   1.379   5.020  0.0883 -0.1086 -0.6451
 9165SOL     OW39127   1.146   3.667   9.812 -0.0272  0.2116  0.4596
 9165SOL    HW139128   1.210   3.720   9.861  0.8229 -0.0536 -0.3677
 9165SOL    HW239129   1.099   3.615   9.877 -0.0066  0.4674  0.6814
 9166SOL     OW39130   1.497   4.014  10.068  0.5381  0.5129 -0.2943
 9166SOL    HW139131   1.487   3.995  10.161 -1.9341  1.9373 -0.2778
 9166SOL    HW239132   1.552   4.091  10.080  2.7944 -1.2134  0.5579
 9167SOL     OW39133   0.422   2.106  14.690  0.0774 -0.0108  0.3475
 9167SOL    HW139134   0.436   2.018  14.655 -0.4349 -0.1062  0.3898
 9167SOL    HW239135   0.446   2.096  14.782 -4.1769 -2.1142  1.1745
 9168SOL     OW39136   0.535   1.369   1.187 -0.0269 -0.0883  0.0084
 9168SOL    HW139137   0.481   1.306   1.138 -2.5390  0.7856  1.6742
 9168SOL    HW239138   0.602   1.308   1.217 -1.3797 -1.3692  0.4357
 9169SOL     OW39139   3.559   0.004   2.862 -0.3260 -0.2753 -0.0262
 9169SOL    HW139140   3.597   0.058   2.931  0.7264  1.0216 -1.6343
 9169SOL    HW239141   3.531   4.679   2.928 -1.9500 -0.9933 -1.4041
 9170SOL     OW39142   0.444   0.320   3.692  0.2412 -0.4318  0.0338
 9170SOL    HW139143   0.399   0.404   3.684  0.2464 -0.3869  0.4584
 9170SOL    HW239144   0.507   0.332   3.763  0.2680  2.6447 -0.5405
 9171SOL     OW39145   3.948   4.352   7.253 -0.4918 -0.2889  0.2512
 9171SOL    HW139146   3.892   4.275   7.241  1.3953 -1.7210  0.7119
 9171SOL    HW239147   4.008   4.308   7.313 -0.7895 -0.0766  0.7028
 9172SOL     OW39148   4.709   4.071   5.551  0.5380 -0.2261 -0.2414
 9172SOL    HW139149   4.626   4.035   5.521  1.0639 -2.0682  0.5328
 9172SOL    HW239150   4.712   4.149   5.495  0.3028  0.3109  0.4927
 9173SOL     OW39151   1.704   1.641  12.551  0.8568  0.0385 -0.0061
 9173SOL    HW139152   1.707   1.646  12.647 -1.0043 -1.6242  0.1327
 9173SOL    HW239153   1.636   1.707  12.539  0.2019 -0.8721 -1.2739
 9174SOL     OW39154   4.590   3.529   8.086 -0.3239 -0.0846  0.5376
 9174SOL    HW139155   4.684   3.522   8.103  0.0058  0.8797 -0.8397
 9174SOL    HW239156   4.581   3.461   8.020 -0.9475  0.0871  0.4463
 9175SOL     OW39157   1.336   3.682  10.308  0.0123  0.3036  0.6000
 9175SOL    HW139158   1.387   3.610  10.346 -1.0761  0.1443  1.7630
 9175SOL    HW239159   1.248   3.654  10.332 -1.1572  1.1741 -2.7553
 9176SOL     OW39160   2.156   3.955  14.415 -0.0196 -0.2027  0.1344
 9176SOL    HW139161   2.088   3.896  14.381  0.5515 -1.2636  0.8516
 9176SOL    HW239162   2.108   3.982  14.493 -1.1301  2.2388 -1.3983
 9177SOL     OW39163   2.734   2.700   6.191 -0.6905 -0.2409  0.5463
 9177SOL    HW139164   2.692   2.741   6.114  1.7508 -2.5216 -1.9963
 9177SOL    HW239165   2.812   2.754   6.204 -0.7008 -0.1039  0.0551
 9178SOL     OW39166   4.031   2.842   1.319 -0.5131  0.4066  0.3005
 9178SOL    HW139167   3.988   2.891   1.249 -0.8039  1.5517  1.2663
 9178SOL    HW239168   4.001   2.757   1.286 -1.9422  0.7975  0.5923
 9179SOL     OW39169   2.094   2.932   3.781 -0.4488  0.0177  0.0866
 9179SOL    HW139170   2.080   2.975   3.697 -1.4663  0.1235  0.3112
 9179SOL    HW239171   2.138   2.851   3.754  1.2710  0.7208  0.7626
 9180SOL     OW39172   2.373   1.138  17.663  0.6015  0.0867  0.0903
 9180SOL    HW139173   2.430   1.149  17.587  2.0230  2.5553  1.5057
 9180SOL    HW239174   2.377   1.044  17.683  0.1673  0.2497  0.9418
 9181SOL     OW39175   1.601   4.316  14.110 -0.1510 -0.3108  0.1801
 9181SOL    HW139176   1.612   4.409  14.129  5.2600 -0.9683  0.2110
 9181SOL    HW239177   1.507   4.325  14.097 -0.1773 -1.1748 -0.2070
 9182SOL     OW39178   1.407   1.397   1.607 -0.1058 -0.1307  0.1022
 9182SOL    HW139179   1.371   1.342   1.676 -2.9861  1.2220 -0.3284
 9182SOL    HW239180   1.402   1.484   1.647 -1.1438 -0.5637  0.9140
 9183SOL     OW39181   4.422   2.060   4.238 -0.5732 -0.3275 -0.4808
 9183SOL    HW139182   4.426   2.060   4.142  0.6440  0.6547 -0.4346
 9183SOL    HW239183   4.331   2.033   4.242 -1.1901  2.1254  1.5192
 9184SOL     OW39184   2.926   0.518   6.520  0.2028 -0.0207  0.3094
 9184SOL    HW139185   2.905   0.495   6.430 -2.4241  1.2107  0.5884
 9184SOL    HW239186   2.928   0.434   6.565 -0.7209 -0.2627 -0.0960
 9185SOL     OW39187   2.820   2.778   4.453 -0.5935  0.1278  0.6918
 9185SOL    HW139188   2.880   2.810   4.386 -1.5423  0.8193  0.1678
 9185SOL    HW239189   2.811   2.865   4.493  0.9029 -0.8713  3.2363
 9186SOL     OW39190   4.201   3.969  10.147 -0.1027  0.0253  0.3467
 9186SOL    HW139191   4.143   3.921  10.088  0.2744  1.1335 -0.9410
 9186SOL    HW239192   4.280   3.915  10.144  1.0010  1.6135  0.2117
 9187SOL     OW39193   4.682   2.536   4.154  0.4607  0.4281 -0.2441
 9187SOL    HW139194   4.605   2.480   4.143  2.1498 -1.5914 -1.7610
 9187SOL    HW239195   4.693   2.538   4.249  0.4378  0.7918 -0.2471
 9188SOL     OW39196   4.068   1.310   4.480 -0.5765 -0.2255  0.0206
 9188SOL    HW139197   4.106   1.367   4.547 -2.8372  0.2846  0.8526
 9188SOL    HW239198   4.149   1.283   4.435 -0.8912 -0.9737 -0.1027
 9189SOL     OW39199   1.893   1.417  10.945 -0.1901  0.5510  0.2017
 9189SOL    HW139200   1.803   1.401  10.975 -0.2157 -1.6924 -1.1047
 9189SOL    HW239201   1.884   1.447  10.855  0.5505  1.4998  0.4401
 9190SOL     OW39202   0.755   2.574   2.312  0.0186  0.1126  0.0251
 9190SOL    HW139203   0.724   2.643   2.370  1.5249 -0.0586  1.0065
 9190SOL    HW239204   0.793   2.630   2.245  1.3129 -1.5262 -0.6118
 9191SOL     OW39205   1.417   0.657   2.116  0.0766 -0.0198 -0.7915
 9191SOL    HW139206   1.326   0.682   2.131  0.8663  3.3145 -1.5036
 9191SOL    HW239207   1.451   0.734   2.071 -0.3190 -0.0136 -1.0802
 9192SOL     OW39208   4.109   3.452  15.937  0.1314  0.1281  0.0685
 9192SOL    HW139209   4.037   3.487  15.885  0.9105  0.1220 -1.0225
 9192SOL    HW239210   4.183   3.504  15.907  0.8691  0.2133  2.0145
 9193SOL     OW39211   1.149   0.362  11.507 -0.6029  0.1203  0.2161
 9193SOL    HW139212   1.062   0.376  11.544  1.5269  4.3477  3.6587
 9193SOL    HW239213   1.185   0.322  11.587 -0.5294 -1.4119 -0.5931
 9194SOL     OW39214   3.868   0.966   2.035  0.1721 -0.3725 -0.4756
 9194SOL    HW139215   3.900   0.992   1.948 -0.0523  1.3718 -0.0470
 9194SOL    HW239216   3.848   1.055   2.063 -1.0276 -0.4324 -1.1505
 9195SOL     OW39217   1.434   2.907   1.481 -0.1424 -0.1455  0.1364
 9195SOL    HW139218   1.383   2.962   1.422 -0.4907  0.1184  0.6952
 9195SOL    HW239219   1.399   2.818   1.471 -0.0637 -0.1042 -0.5262
 9196SOL     OW39220   3.134   2.971   7.368  0.1817  0.1649  0.9880
 9196SOL    HW139221   3.218   2.955   7.412  1.2007  1.2038 -0.5975
 9196SOL    HW239222   3.099   3.043   7.422  0.2675 -0.7804  2.3149
 9197SOL     OW39223   3.045   3.002  14.571 -0.5746 -0.1032 -0.0312
 9197SOL    HW139224   3.109   2.986  14.501  1.8169 -0.6237  2.2957
 9197SOL    HW239225   3.074   2.938  14.636  1.0400 -0.0606 -0.7146
 9198SOL     OW39226   0.872   1.655   6.272 -0.1143  0.0065  0.1406
 9198SOL    HW139227   0.826   1.640   6.354  0.2879 -1.4558  0.1088
 9198SOL    HW239228   0.952   1.606   6.292 -0.6699 -1.3252 -0.8903
 9199SOL     OW39229   0.524   2.056   3.322 -0.0108  0.4100 -0.4737
 9199SOL    HW139230   0.449   2.112   3.304  0.1910  0.3398 -1.5332
 9199SOL    HW239231   0.565   2.066   3.236  0.5990 -0.1972 -0.2545
 9200SOL     OW39232   3.468   0.198   8.493  0.1586 -0.0649  0.3746
 9200SOL    HW139233   3.413   0.153   8.558 -1.8550  0.4718 -0.9699
 9200SOL    HW239234   3.416   0.271   8.459  0.0233  0.0146  0.7484
 9201SOL     OW39235   2.861   0.320   9.903 -0.2611 -0.1870 -0.0024
 9201SOL    HW139236   2.878   0.383   9.833 -2.7504 -1.4832 -1.7838
 9201SOL    HW239237   2.922   0.249   9.888 -0.4995 -0.1280 -1.2441
 9202SOL     OW39238   3.333   1.042  13.132 -0.3922  0.6110  0.0543
 9202SOL    HW139239   3.310   1.129  13.163  0.1401  0.1987  1.5926
 9202SOL    HW239240   3.345   1.002  13.218  0.1403 -0.3322 -0.4527
 9203SOL     OW39241   1.837   1.788   7.381 -0.0196 -0.3921 -0.3886
 9203SOL    HW139242   1.862   1.879   7.400  2.5178 -1.3999  1.0762
 9203SOL    HW239243   1.794   1.810   7.299  2.2112  3.9245 -0.4038
 9204SOL     OW39244   0.069   1.489  10.726  0.4212  0.4643  0.1667
 9204SOL    HW139245   0.060   1.428  10.652 -1.3641  0.6689  0.2306
 9204SOL    HW239246   0.147   1.539  10.700 -0.6466  1.2801 -1.5020
 9205SOL     OW39247   1.907   1.997   0.712  0.8111  0.2698 -0.2848
 9205SOL    HW139248   1.863   2.045   0.642 -0.8115 -0.3133  0.3337
 9205SOL    HW239249   1.997   1.992   0.678  0.1363  0.3311 -2.0376
 9206SOL     OW39250   4.404   4.471  13.705 -0.7426 -0.0492  0.4473
 9206SOL    HW139251   4.318   4.497  13.671 -0.7808  1.0732  1.3803
 9206SOL    HW239252   4.464   4.542  13.680 -0.5534 -0.4723 -0.3029
 9207SOL     OW39253   0.361   3.608   5.650  0.3291  0.1115 -0.2137
 9207SOL    HW139254   0.312   3.600   5.568  1.3736 -0.0347 -0.8275
 9207SOL    HW239255   0.333   3.534   5.703 -0.9656 -0.2635 -1.4252
 9208SOL     OW39256   4.134   4.583   3.445 -0.5130  0.1113 -0.5042
 9208SOL    HW139257   4.074   4.526   3.396 -0.2692 -0.8350  0.3096
 9208SOL    HW239258   4.075   4.630   3.503 -0.1994 -0.4727  0.2905
 9209SOL     OW39259   3.753   0.740   6.677  0.5898  0.4963  1.0157
 9209SOL    HW139260   3.701   0.661   6.660  2.7781 -0.6317 -0.3968
 9209SOL    HW239261   3.677   0.789   6.710  0.2595  0.3916  0.4018
 9210SOL     OW39262   4.279   3.924   6.468 -0.1007  0.3544  0.3436
 9210SOL    HW139263   4.375   3.919   6.465 -0.0239  1.6100  0.9953
 9210SOL    HW239264   4.263   3.978   6.391 -0.0738  0.2898  0.2916
 9211SOL     OW39265   2.064   0.390   7.461 -0.1014  0.0264 -0.2119
 9211SOL    HW139266   1.995   0.355   7.405  0.0904  1.1901 -1.1838
 9211SOL    HW239267   2.041   0.483   7.468  0.3552 -0.0030  1.8400
 9212SOL     OW39268   2.193   1.985   0.200  0.0678  0.3844 -0.4402
 9212SOL    HW139269   2.171   2.078   0.190 -1.0229  0.3571  1.6869
 9212SOL    HW239270   2.280   1.985   0.239  0.5676 -1.7035 -1.5499
 9213SOL     OW39271   1.377   1.951   5.830 -0.0699  0.2716 -0.0839
 9213SOL    HW139272   1.361   1.861   5.859 -2.7161  0.7872  0.0228
 9213SOL    HW239273   1.452   1.975   5.884 -0.3173  1.5270 -0.3103
 9214SOL     OW39274   2.475   0.511  14.727  0.5846  0.1851 -0.2693
 9214SOL    HW139275   2.409   0.575  14.701 -0.3590 -0.7028 -0.0891
 9214SOL    HW239276   2.487   0.478  14.638  0.7236  1.1059 -0.5840
 9215SOL     OW39277   1.118   1.182  14.199  0.3299  0.4742  0.2658
 9215SOL    HW139278   1.034   1.137  14.196  0.2692  0.6224 -0.2077
 9215SOL    HW239279   1.162   1.114  14.251  2.2459  0.8888 -0.8238
 9216SOL     OW39280   2.815   2.054   2.286 -0.3600 -0.1626 -0.1173
 9216SOL    HW139281   2.828   2.065   2.380  0.7045 -0.2434 -0.2546
 9216SOL    HW239282   2.850   2.139   2.262  1.4227 -0.4614  1.4984
 9217SOL     OW39283   4.485   2.628  13.403 -0.3324 -0.2400  0.2321
 9217SOL    HW139284   4.440   2.680  13.336 -1.0804 -2.0072 -0.6165
 9217SOL    HW239285   4.431   2.657  13.476 -0.1835  2.3044 -0.6310
 9218SOL     OW39286   0.855   4.510   3.500  0.0938 -0.1446  0.2667
 9218SOL    HW139287   0.808   4.485   3.420  0.1709 -0.7754  0.4225
 9218SOL    HW239288   0.812   4.592   3.527  0.5863  0.4908 -0.8637
 9219SOL     OW39289   1.167   0.674   6.115 -0.3507 -0.1315 -0.4328
 9219SOL    HW139290   1.172   0.756   6.065  0.6267  0.8065  1.2174
 9219SOL    HW239291   1.166   0.709   6.204  0.2909  0.6023 -0.7171
 9220SOL     OW39292   1.588   4.303  13.453  0.2452  0.2201  0.2911
 9220SOL    HW139293   1.653   4.261  13.397  1.0757  0.8025  0.7993
 9220SOL    HW239294   1.506   4.266  13.424  0.5102 -0.3152  0.2290
 9221SOL     OW39295   1.972   0.704   0.498  0.1292  0.0379 -0.5168
 9221SOL    HW139296   1.907   0.741   0.438  1.2476  0.0745 -1.7066
 9221SOL    HW239297   1.955   0.756   0.577  3.2550  1.2928 -0.6768
 9222SOL     OW39298   1.156   2.491   6.451  0.4355  0.3132  0.5479
 9222SOL    HW139299   1.230   2.534   6.406 -0.4368  1.0730 -0.1676
 9222SOL    HW239300   1.178   2.400   6.468  1.4699  0.1384 -1.6026
 9223SOL     OW39301   0.623   4.582   2.770 -0.4397  0.0613 -0.4470
 9223SOL    HW139302   0.565   4.516   2.808  0.6786  0.0739  1.3317
 9223SOL    HW239303   0.566   4.650   2.735  0.8932  2.1469  1.4277
 9224SOL     OW39304   1.194   3.566   3.421  0.0234 -0.3683 -0.3563
 9224SOL    HW139305   1.099   3.577   3.421  0.0804  0.1239  0.0419
 9224SOL    HW239306   1.215   3.487   3.371  0.8581 -1.1012  1.1382
 9225SOL     OW39307   0.708   4.561   8.747  0.2086 -0.1046  0.1362
 9225SOL    HW139308   0.722   4.656   8.743  0.1725 -0.2209 -2.4640
 9225SOL    HW239309   0.750   4.527   8.669 -1.0301  1.4410 -1.2024
 9226SOL     OW39310   2.255   2.835  12.727  0.3758  0.2272  0.3653
 9226SOL    HW139311   2.187   2.800  12.668 -0.9643  0.8913  1.5036
 9226SOL    HW239312   2.338   2.812  12.686  0.1203  0.4608 -0.2902
 9227SOL     OW39313   3.657   1.297   3.787 -0.1220  0.5464  0.1850
 9227SOL    HW139314   3.578   1.307   3.840 -1.5258 -1.3090 -1.6225
 9227SOL    HW239315   3.639   1.220   3.734  2.4273  0.9152 -1.2088
 9228SOL     OW39316   1.776   0.970   8.127 -0.4610  0.0911  0.3372
 9228SOL    HW139317   1.681   0.979   8.123 -0.4456  0.0452 -0.1740
 9228SOL    HW239318   1.783   1.000   8.217 -4.2724  0.3576  0.5430
 9229SOL     OW39319   3.212   3.096   8.005 -0.3564 -0.8153  0.0357
 9229SOL    HW139320   3.135   3.080   7.951  0.2417  2.4258 -1.7521
 9229SOL    HW239321   3.277   3.107   7.936 -1.1204  2.3031 -0.1784
 9230SOL     OW39322   3.917   3.568   6.952  0.0497 -0.3091  0.4389
 9230SOL    HW139323   4.002   3.597   6.918 -1.3005  2.3137 -0.7174
 9230SOL    HW239324   3.859   3.590   6.879  1.9587  2.5467 -0.2010
 9231SOL     OW39325   3.514   0.264   2.748  0.3063  0.3665  0.3971
 9231SOL    HW139326   3.521   0.174   2.715 -1.9313  0.4668 -0.3233
 9231SOL    HW239327   3.450   0.295   2.684  0.9225  3.0221  1.0697
 9232SOL     OW39328   2.311   2.890   3.405 -0.2601  0.2019  0.2958
 9232SOL    HW139329   2.236   2.899   3.464  1.3955  3.9472  1.8689
 9232SOL    HW239330   2.309   2.796   3.391  0.2675  0.0059  1.5322
 9233SOL     OW39331   2.051   3.287   5.225  0.2922 -0.5063  0.3330
 9233SOL    HW139332   2.063   3.205   5.273 -3.2128 -0.8925  0.5503
 9233SOL    HW239333   2.109   3.344   5.276  0.4685 -0.5088  0.1352
 9234SOL     OW39334   1.381   1.579   5.858  0.2034 -0.0588  0.3129
 9234SOL    HW139335   1.475   1.564   5.845  0.1494 -1.4182  1.5155
 9234SOL    HW239336   1.357   1.497   5.816 -0.1057  0.4115 -0.4152
 9235SOL     OW39337   0.081   1.046   8.833 -0.5106 -0.0952 -0.2222
 9235SOL    HW139338   0.110   0.977   8.893 -0.5489 -1.5446 -1.8933
 9235SOL    HW239339   0.038   1.108   8.893  1.2444  0.1486  0.7942
 9236SOL     OW39340   1.204   3.329   0.341  0.9413 -1.1907  0.7987
 9236SOL    HW139341   1.180   3.244   0.305  0.3024 -0.8962  0.5377
 9236SOL    HW239342   1.170   3.391   0.277 -0.4419 -2.1307  0.6312
 9237SOL     OW39343   2.368   3.983   3.694 -0.0664  0.7030 -0.3741
 9237SOL    HW139344   2.276   3.997   3.671 -1.0970  0.7448  3.8254
 9237SOL    HW239345   2.412   4.067   3.680 -0.1993  0.5104 -2.0325
 9238SOL     OW39346   0.372   4.227   3.840  0.2893  0.0235  0.1193
 9238SOL    HW139347   0.336   4.156   3.893 -0.9642 -1.1315 -2.2903
 9238SOL    HW239348   0.407   4.170   3.772  0.0857  1.9360 -1.6135
 9239SOL     OW39349   1.348   2.810   3.805 -0.0172  0.3147  0.0551
 9239SOL    HW139350   1.355   2.891   3.855  0.7102  0.1860  0.1735
 9239SOL    HW239351   1.350   2.848   3.717  3.5448 -0.0254 -0.0119
 9240SOL     OW39352   4.284   2.151  15.961 -0.2212 -0.1434 -0.5094
 9240SOL    HW139353   4.220   2.221  15.976  0.1853  0.1394 -0.0696
 9240SOL    HW239354   4.227   2.075  15.968 -0.6194 -0.0794 -2.8984
 9241SOL     OW39355   1.898   4.527   2.184  0.3334  0.8928 -0.5476
 9241SOL    HW139356   1.861   4.585   2.117  0.9583 -0.6403 -2.2323
 9241SOL    HW239357   1.993   4.536   2.177  0.5262  0.3206  1.4199
 9242SOL     OW39358   3.830   1.776  13.812  0.2181  0.0858 -0.4634
 9242SOL    HW139359   3.863   1.751  13.898  0.6416  0.6532 -0.4577
 9242SOL    HW239360   3.884   1.718  13.757  1.6135 -0.2536  1.2537
 9243SOL     OW39361   3.563   4.459   6.277 -0.0294  0.4867 -0.1520
 9243SOL    HW139362   3.567   4.388   6.214  1.3556 -0.4524  1.0020
 9243SOL    HW239363   3.598   4.420   6.357  1.8569 -0.0638 -1.2632
 9244SOL     OW39364   1.626   0.387   6.037  0.1293  0.1694 -0.3995
 9244SOL    HW139365   1.534   0.366   6.052  0.0090  1.4580  0.6241
 9244SOL    HW239366   1.619   0.482   6.043  1.3922  0.3603 -1.7208
 9245SOL     OW39367   0.139   0.145  10.138  0.0232  0.0251  0.3340
 9245SOL    HW139368   0.084   0.164  10.062 -0.6911  0.2678  0.9099
 9245SOL    HW239369   0.083   0.133  10.215  0.1817  1.5041  0.6769
 9246SOL     OW39370   0.612   4.097   7.507 -0.0688 -0.2570  0.7490
 9246SOL    HW139371   0.580   4.065   7.423  0.1186  1.8506 -0.1437
 9246SOL    HW239372   0.596   4.016   7.556 -0.3925 -0.8153 -0.2955
 9247SOL     OW39373   0.560   1.774   4.845  0.0558 -0.1029  0.1688
 9247SOL    HW139374   0.621   1.748   4.777 -1.5304 -1.6042 -0.6696
 9247SOL    HW239375   0.475   1.742   4.816 -0.4215 -0.0677  1.4996
 9248SOL     OW39376   3.618   3.893   6.975  0.4893  0.3254 -0.7142
 9248SOL    HW139377   3.712   3.910   6.982  0.6204 -0.2115 -1.1680
 9248SOL    HW239378   3.596   3.952   6.903 -0.0791  2.4295  1.1632
 9249SOL     OW39379   2.438   4.702  12.875  0.4981  0.2782  0.2507
 9249SOL    HW139380   2.532   4.684  12.866  0.2905 -0.2531 -0.8507
 9249SOL    HW239381   2.421   0.041  12.820  1.1564  1.2998  1.4897
 9250SOL     OW39382   2.246   1.717   8.707 -0.7192  0.4492 -0.2460
 9250SOL    HW139383   2.163   1.687   8.744 -0.6733  0.2059 -0.3394
 9250SOL    HW239384   2.208   1.756   8.627  0.1431 -1.4225 -1.5622
 9251SOL     OW39385   0.641   3.615   2.684 -0.2026 -0.4670  0.2912
 9251SOL    HW139386   0.616   3.624   2.592 -0.4987  3.3330  0.7813
 9251SOL    HW239387   0.586   3.669   2.739  0.6710 -1.2548  1.9427
 9252SOL     OW39388   3.987   3.117   7.193  0.5011  0.3569  0.4441
 9252SOL    HW139389   3.953   3.148   7.278 -0.0503 -0.5605  0.5646
 9252SOL    HW239390   4.019   3.197   7.154 -1.3897  0.4049 -1.0018
 9253SOL     OW39391   0.719   3.637   2.185 -0.4020  0.0294 -0.4667
 9253SOL    HW139392   0.792   3.577   2.194 -0.6472 -0.0005  1.3466
 9253SOL    HW239393   0.686   3.606   2.101 -0.6642  0.6776 -0.6060
 9254SOL     OW39394   2.503   1.052  14.301 -0.0073 -0.2267  0.5216
 9254SOL    HW139395   2.412   1.077  14.286  0.2407  1.3212  1.6838
 9254SOL    HW239396   2.549   1.084  14.223  1.2856 -0.8620  1.0257
 9255SOL     OW39397   4.688   0.665   4.955  0.2965  0.0282  0.1314
 9255SOL    HW139398   4.616   0.709   4.909 -0.9146 -2.0606  0.0667
 9255SOL    HW239399   4.666   0.579   4.921  1.4129 -0.3142  0.2690
 9256SOL     OW39400   1.775   2.295  12.082  0.1463 -0.0611  0.6750
 9256SOL    HW139401   1.855   2.343  12.101 -0.0251 -0.2408  1.9128
 9256SOL    HW239402   1.768   2.235  12.157  1.1136  1.3032  1.8576
 9257SOL     OW39403   2.408   1.899  17.354  0.0072 -0.1334 -0.3218
 9257SOL    HW139404   2.335   1.950  17.390 -0.4577 -1.8470  1.1730
 9257SOL    HW239405   2.433   1.934  17.269 -0.6867  1.7110  0.2094
 9258SOL     OW39406   2.306   3.145   2.970  0.0072  0.2816 -0.5401
 9258SOL    HW139407   2.327   3.124   3.061  1.7290  2.4957 -0.4256
 9258SOL    HW239408   2.279   3.235   2.988 -1.1517  0.2019 -1.9123
 9259SOL     OW39409   2.023   2.021  11.938  0.1312 -0.2697 -0.0452
 9259SOL    HW139410   1.964   1.947  11.951 -0.3670  0.2542  0.6951
 9259SOL    HW239411   1.973   2.061  11.867  2.4627  2.1096 -0.3263
 9260SOL     OW39412   3.563   2.269   2.214 -0.2753 -0.4222  0.1129
 9260SOL    HW139413   3.610   2.296   2.135  0.8347 -0.1341  0.8678
 9260SOL    HW239414   3.624   2.210   2.259  0.8310  0.1947 -0.5616
 9261SOL     OW39415   0.901   1.999   9.320 -0.7986  0.1337  0.3319
 9261SOL    HW139416   0.843   1.936   9.361  3.1328 -2.7743  1.4154
 9261SOL    HW239417   0.881   2.001   9.226 -0.6686 -1.2756  0.2761
 9262SOL     OW39418   2.853   0.624  14.705  0.2006  1.0748  0.4619
 9262SOL    HW139419   2.791   0.593  14.639 -0.7923  3.5512  0.2279
 9262SOL    HW239420   2.919   0.681  14.665 -0.4641  0.5048 -1.4555
 9263SOL     OW39421   1.378   3.656  12.632  0.7414  0.1272 -0.0148
 9263SOL    HW139422   1.446   3.705  12.677  0.5653 -0.2798  0.6887
 9263SOL    HW239423   1.303   3.712  12.651  1.5866  0.8716  1.0961
 9264SOL     OW39424   4.461   0.522   4.076 -0.4325  0.0328  0.2596
 9264SOL    HW139425   4.387   0.514   4.016  0.8195  0.3124 -1.3287
 9264SOL    HW239426   4.493   0.611   4.066 -1.0022  0.0105 -1.8843
 9265SOL     OW39427   0.771   0.341   3.427 -0.1047 -0.1312  0.4439
 9265SOL    HW139428   0.705   0.292   3.379  0.7148 -2.3167  1.5525
 9265SOL    HW239429   0.720   0.406   3.475 -0.4414  0.1633 -0.3177
 9266SOL     OW39430   0.302   4.163   2.624 -0.0675 -0.1979 -0.1329
 9266SOL    HW139431   0.248   4.145   2.547  0.3327  0.2961 -0.5298
 9266SOL    HW239432   0.229   4.180   2.684 -0.9304 -0.3839 -1.1321
 9267SOL     OW39433   0.738   1.484   7.507 -0.0809  0.0739  0.4967
 9267SOL    HW139434   0.824   1.498   7.548  0.5282 -2.0813 -0.0730
 9267SOL    HW239435   0.699   1.560   7.551  1.1879  1.2250 -0.3646
 9268SOL     OW39436   4.097   3.355  12.616  0.1564 -0.1906  0.1668
 9268SOL    HW139437   4.038   3.422  12.583 -0.9515 -0.6346  1.2183
 9268SOL    HW239438   4.125   3.399  12.697 -1.1429 -0.2282  0.6464
 9269SOL     OW39439   0.517   3.423   4.452  0.0916  0.2134 -0.0157
 9269SOL    HW139440   0.517   3.335   4.490 -3.6845  1.1565  2.1311
 9269SOL    HW239441   0.604   3.431   4.414  0.6128 -1.4143  0.8568
 9270SOL     OW39442   0.487   0.029   6.795 -0.6297 -0.3204  0.1499
 9270SOL    HW139443   0.451   0.106   6.840  1.1524  0.6289 -0.0181
 9270SOL    HW239444   0.441   0.042   6.712 -0.1290 -2.2327 -0.4109
 9271SOL     OW39445   0.152   1.192   5.443 -0.1777 -0.3318 -0.0150
 9271SOL    HW139446   0.090   1.150   5.383 -1.1346  0.5981  0.3311
 9271SOL    HW239447   0.100   1.267   5.473  0.6533  0.8177 -1.4367
 9272SOL     OW39448   0.514   4.337  12.639 -0.0677 -0.5592  0.5254
 9272SOL    HW139449   0.559   4.261  12.603 -2.7743 -0.7029 -2.5758
 9272SOL    HW239450   0.587   4.399  12.640  0.4318 -1.0897 -2.1797
 9273SOL     OW39451   3.663   2.491   7.551 -0.2836  0.1678  0.2559
 9273SOL    HW139452   3.646   2.487   7.645 -1.3107  0.1610  0.0738
 9273SOL    HW239453   3.631   2.405   7.524 -1.2693  0.4819  0.4350
 9274SOL     OW39454   2.940   0.414   1.829 -0.4406  0.1714 -0.5434
 9274SOL    HW139455   2.898   0.328   1.838 -0.8372  0.3609 -0.5798
 9274SOL    HW239456   3.029   0.385   1.810 -0.6793  0.3450 -1.9439
 9275SOL     OW39457   4.536   0.918   1.263  0.1324 -0.3049 -0.1558
 9275SOL    HW139458   4.559   0.828   1.283 -0.3752 -0.1159  1.2652
 9275SOL    HW239459   4.542   0.911   1.168 -0.1757  0.4402 -0.2309
 9276SOL     OW39460   1.533   4.432   7.906 -0.6136  0.3031  0.1145
 9276SOL    HW139461   1.545   4.338   7.917  2.0194  0.1228 -4.2020
 9276SOL    HW239462   1.483   4.442   7.987 -1.7324 -2.5588 -0.2245
 9277SOL     OW39463   1.878   2.759   7.233 -0.2071  0.0812 -0.0832
 9277SOL    HW139464   1.957   2.786   7.188 -0.4140  0.7063 -0.0693
 9277SOL    HW239465   1.905   2.681   7.282  1.0952 -0.2620 -1.3642
 9278SOL     OW39466   3.714   0.603   5.957  0.5308 -0.0211 -0.2877
 9278SOL    HW139467   3.755   0.516   5.958 -0.8599 -0.6978 -1.7557
 9278SOL    HW239468   3.728   0.628   6.048 -0.8908 -1.3360  0.2982
 9279SOL     OW39469   0.122   2.171  15.791  0.2900  0.7565 -0.1333
 9279SOL    HW139470   0.150   2.108  15.725 -0.2088  0.9167 -0.4989
 9279SOL    HW239471   0.080   2.237  15.736  0.0084  1.0944  0.4885
 9280SOL     OW39472   4.000   2.621  12.763 -0.3120  0.6790  0.3793
 9280SOL    HW139473   4.078   2.674  12.780  0.5806 -0.5763  0.1598
 9280SOL    HW239474   4.054   2.554  12.721  0.7492  1.6491  0.1743
 9281SOL     OW39475   1.585   3.510  16.764 -0.3110 -0.7043  0.1838
 9281SOL    HW139476   1.674   3.508  16.728 -1.5426  0.8436 -2.9460
 9281SOL    HW239477   1.595   3.463  16.847 -0.4427 -0.2605  0.4548
 9282SOL     OW39478   0.425   3.964   5.039  0.3858 -0.5088 -0.1598
 9282SOL    HW139479   0.452   4.042   4.992 -1.6501  1.6587  2.2668
 9282SOL    HW239480   0.350   4.001   5.087 -0.1179 -2.0737  0.2745
 9283SOL     OW39481   0.251   1.640   1.205 -0.3466  0.2275  0.1456
 9283SOL    HW139482   0.324   1.582   1.184 -0.1408  1.5875 -2.8937
 9283SOL    HW239483   0.293   1.722   1.233 -0.1732  0.5054 -0.9483
 9284SOL     OW39484   3.365   3.658   7.788  0.6058 -0.4748  0.1108
 9284SOL    HW139485   3.438   3.697   7.740 -0.3112  0.8376 -0.2049
 9284SOL    HW239486   3.308   3.734   7.777  1.4975  0.1477 -0.1958
 9285SOL     OW39487   3.168   1.402   4.753 -0.5670  0.8157  0.7582
 9285SOL    HW139488   3.073   1.407   4.739 -0.0720 -2.3814 -3.7903
 9285SOL    HW239489   3.198   1.456   4.680 -1.3590  2.3949  1.5974
 9286SOL     OW39490   1.144   3.427   9.192  0.5587  0.0724 -0.0316
 9286SOL    HW139491   1.227   3.473   9.179  0.4257 -0.0354 -1.2950
 9286SOL    HW239492   1.167   3.370   9.265 -1.5031 -0.6181  0.0684
 9287SOL     OW39493   2.129   0.441   7.719 -0.2241 -0.0091  0.2964
 9287SOL    HW139494   2.096   0.422   7.631  3.2561 -2.4364 -0.4966
 9287SOL    HW239495   2.078   0.517   7.746 -3.7461 -2.0883 -0.5504
 9288SOL     OW39496   2.359   2.064  16.502  0.5376  0.1404  0.0346
 9288SOL    HW139497   2.415   2.102  16.570  1.9843 -1.0522 -0.5063
 9288SOL    HW239498   2.385   1.972  16.509 -0.4366 -0.0821  0.7099
 9289SOL     OW39499   0.899   3.661   7.713  0.3772  1.0357  0.8112
 9289SOL    HW139500   0.910   3.750   7.745 -0.1802  1.9797 -1.6374
 9289SOL    HW239501   0.971   3.650   7.651  0.5318 -0.5002  1.2642
 9290SOL     OW39502   3.651   1.021  14.799 -0.1060 -0.5035  0.3072
 9290SOL    HW139503   3.628   0.964  14.873  0.9606 -1.5159 -0.1235
 9290SOL    HW239504   3.609   0.973  14.727  2.0572 -1.0227 -0.6309
 9291SOL     OW39505   1.651   1.252   1.776  0.1539 -0.1120  0.5501
 9291SOL    HW139506   1.560   1.231   1.753  0.1285 -0.3401  0.8500
 9291SOL    HW239507   1.686   1.166   1.801 -0.0157  0.1985  1.8639
 9292SOL     OW39508   4.674   3.267  14.841 -0.4463  0.2190 -0.5149
 9292SOL    HW139509   4.694   3.212  14.765 -1.0737 -0.4607 -0.1987
 9292SOL    HW239510   0.028   3.283  14.862 -0.3610 -1.6668  0.6537
 9293SOL     OW39511   4.577   0.111  16.176 -0.0304 -0.3836 -0.2478
 9293SOL    HW139512   4.623   0.027  16.169 -0.2666 -0.2359 -3.4800
 9293SOL    HW239513   4.485   0.083  16.180  0.4520 -1.7047  1.7680
 9294SOL     OW39514   0.598   0.519  11.875  0.3760  0.4144  0.4547
 9294SOL    HW139515   0.674   0.505  11.931  0.1383  1.6450  1.0849
 9294SOL    HW239516   0.576   0.609  11.899 -2.3344  0.4192 -2.0341
 9295SOL     OW39517   3.947   3.355   9.090  0.0661  0.1994 -0.1967
 9295SOL    HW139518   4.026   3.302   9.093 -1.3592 -2.0435 -1.9382
 9295SOL    HW239519   3.993   3.438   9.076 -0.4801  0.6121  0.4883
 9296SOL     OW39520   1.094   4.270   8.109  0.0378 -0.5537  0.1044
 9296SOL    HW139521   1.129   4.308   8.190 -1.6675 -0.6064  0.8742
 9296SOL    HW239522   1.050   4.345   8.069 -0.5145 -0.4431  0.9068
 9297SOL     OW39523   1.639   3.660   7.383  0.6945 -0.2671  0.0454
 9297SOL    HW139524   1.676   3.609   7.311 -1.6399  1.2198 -2.1973
 9297SOL    HW239525   1.571   3.713   7.342  1.3255  0.3562 -0.1947
 9298SOL     OW39526   3.264   0.899  14.948  0.1969  0.1239 -0.1960
 9298SOL    HW139527   3.343   0.855  14.979 -0.4068 -1.4626 -0.9502
 9298SOL    HW239528   3.298   0.989  14.944 -0.3139  0.3407  0.2595
 9299SOL     OW39529   2.446   0.627  15.480  0.5391  0.2448  0.4132
 9299SOL    HW139530   2.381   0.573  15.524 -0.1112 -0.1491 -1.0325
 9299SOL    HW239531   2.468   0.567  15.409 -0.9928  1.7197 -1.3054
 9300SOL     OW39532   3.007   2.897   8.489  0.4433 -0.2362 -0.0531
 9300SOL    HW139533   3.083   2.870   8.540  1.6965  2.8651 -0.3071
 9300SOL    HW239534   2.951   2.819   8.495  1.2985 -0.7589  1.2255
 9301SOL     OW39535   3.182   0.442  13.562 -0.1172  0.0688  0.4670
 9301SOL    HW139536   3.213   0.378  13.626 -1.3724 -1.5911 -0.5750
 9301SOL    HW239537   3.088   0.426  13.569 -0.1365  0.3109  0.7543
 9302SOL     OW39538   1.351   3.778   8.176 -0.2353 -0.0461  0.0016
 9302SOL    HW139539   1.289   3.707   8.194 -1.9180  1.4498  0.1181
 9302SOL    HW239540   1.407   3.770   8.253 -0.9505 -3.2890  0.2243
 9303SOL     OW39541   4.087   4.000  11.226 -0.2565 -0.0562  0.0985
 9303SOL    HW139542   4.044   4.049  11.156  0.2713 -1.1744 -1.0178
 9303SOL    HW239543   4.154   3.953  11.175  1.0902  1.0351  0.8584
 9304SOL     OW39544   2.563   2.712  12.922  0.3220  0.5663  0.0811
 9304SOL    HW139545   2.548   2.647  12.853  2.7247 -1.2946  1.2956
 9304SOL    HW239546   2.585   2.791  12.873 -2.0889  0.6715 -0.8547
 9305SOL     OW39547   3.014   1.601   5.936 -0.1833  0.3645  0.6208
 9305SOL    HW139548   3.070   1.666   5.895 -1.2315  0.6910 -0.3049
 9305SOL    HW239549   3.003   1.639   6.023 -2.0198  1.3469 -0.0467
 9306SOL     OW39550   2.804   3.072   6.179 -0.3316  0.1379 -0.2629
 9306SOL    HW139551   2.846   2.992   6.210  0.4315  0.0109 -1.6239
 9306SOL    HW239552   2.876   3.134   6.185  0.1558 -0.2052 -2.6799
 9307SOL     OW39553   4.733   3.617   3.860 -0.4239 -0.0887  0.0914
 9307SOL    HW139554   0.005   3.562   3.782  1.0118 -1.2005  1.0547
 9307SOL    HW239555   4.640   3.631   3.871  0.0198  1.9686  1.1957
 9308SOL     OW39556   0.095   1.668  13.279 -0.2132 -0.8881  0.4643
 9308SOL    HW139557   0.173   1.616  13.261 -1.4924 -1.4788 -3.3368
 9308SOL    HW239558   0.039   1.610  13.331  0.0487  0.2039  1.9467
 9309SOL     OW39559   4.738   4.675   2.204  0.1747 -0.2638 -0.5566
 9309SOL    HW139560   4.685   4.733   2.149 -0.3307  0.0286  0.2367
 9309SOL    HW239561   4.671   4.664   2.272  1.1911  1.3252  0.6796
 9310SOL     OW39562   3.939   4.695  11.240 -0.0127 -0.4962  0.1373
 9310SOL    HW139563   3.897   0.002  11.313  0.3480  0.0286  0.0257
 9310SOL    HW239564   3.869   4.689  11.174 -1.0709  1.6230  1.0692
 9311SOL     OW39565   1.618   4.410  11.910 -0.5516  0.0395  0.1537
 9311SOL    HW139566   1.614   4.315  11.919 -1.3214 -0.1502 -2.2737
 9311SOL    HW239567   1.708   4.433  11.933 -0.2602 -0.0831 -0.8546
 9312SOL     OW39568   1.435   4.482   5.728 -0.0036 -0.3835  0.0350
 9312SOL    HW139569   1.443   4.507   5.636 -0.0513 -1.0140 -0.1403
 9312SOL    HW239570   1.474   4.394   5.728 -0.5983 -0.6441  2.8361
 9313SOL     OW39571   4.375   4.244   1.960  0.0154 -0.7934 -0.2590
 9313SOL    HW139572   4.385   4.335   1.987 -1.2715 -0.1085 -2.1212
 9313SOL    HW239573   4.412   4.203   2.038  3.1920  0.9721 -0.8203
 9314SOL     OW39574   1.631   1.069   1.332 -0.7260  0.8648 -0.4387
 9314SOL    HW139575   1.689   1.005   1.374 -1.1369  0.0219 -1.1727
 9314SOL    HW239576   1.587   1.011   1.270  3.0919 -1.6296 -0.8399
 9315SOL     OW39577   0.050   3.637  17.730  0.1860 -0.0560 -0.6205
 9315SOL    HW139578   0.017   3.622  17.641  2.6936  2.5115 -1.9731
 9315SOL    HW239579   0.019   3.727  17.740  0.0353 -0.4986  2.6921
 9316SOL     OW39580   2.539   1.695   0.622  0.8676 -0.2454 -0.4093
 9316SOL    HW139581   2.608   1.654   0.570  0.3445  0.4064 -1.6021
 9316SOL    HW239582   2.502   1.745   0.550 -0.1321 -1.8171 -1.0008
 9317SOL     OW39583   3.394   2.748  12.574  0.0751  0.0921  0.1860
 9317SOL    HW139584   3.368   2.667  12.619 -0.4720  0.3865  0.3925
 9317SOL    HW239585   3.391   2.794  12.658 -1.1909  2.2589 -1.0503
 9318SOL     OW39586   4.349   1.671   5.774 -0.3468  0.2085 -0.4753
 9318SOL    HW139587   4.300   1.753   5.771  0.9249  1.0091  0.2489
 9318SOL    HW239588   4.275   1.613   5.761  1.7332 -2.0777 -1.9655
 9319SOL     OW39589   1.010   2.714   7.970  0.2552 -0.1129 -0.7941
 9319SOL    HW139590   0.981   2.689   7.883 -1.9426 -0.3457  0.0157
 9319SOL    HW239591   0.973   2.641   8.019  0.8018 -0.8881 -1.5379
 9320SOL     OW39592   3.016   1.902  14.479 -0.0041  0.4211 -0.1000
 9320SOL    HW139593   3.041   1.842  14.549 -2.7137 -1.5656 -0.8560
 9320SOL    HW239594   3.017   1.853  14.397  0.0842  1.0988 -0.5077
 9321SOL     OW39595   1.104   2.339   7.450 -0.3060  0.6373 -0.4294
 9321SOL    HW139596   1.076   2.325   7.540 -1.7526 -1.5790 -1.2412
 9321SOL    HW239597   1.101   2.435   7.458 -3.7140  0.4956 -0.0741
 9322SOL     OW39598   1.280   1.303  15.575  0.5015 -0.2100  0.5314
 9322SOL    HW139599   1.222   1.250  15.630  0.9670  0.9187  2.1007
 9322SOL    HW239600   1.222   1.353  15.517  0.5637 -0.0676  0.5923
 9323SOL     OW39601   2.617   3.760  14.370  0.3059 -0.4722  0.0611
 9323SOL    HW139602   2.613   3.762  14.274 -1.2884 -0.5084  0.1259
 9323SOL    HW239603   2.526   3.742  14.393  0.3602  1.8690  2.1409
 9324SOL     OW39604   4.539   1.156   6.843  0.3246 -0.5582 -0.1941
 9324SOL    HW139605   4.611   1.183   6.786  1.1062  1.2651  1.6549
 9324SOL    HW239606   4.493   1.095   6.785  0.4228  0.0961 -0.9603
 9325SOL     OW39607   3.460   0.795   8.573  0.0958  0.3702 -0.0477
 9325SOL    HW139608   3.394   0.797   8.642 -0.2682  1.0380 -0.4197
 9325SOL    HW239609   3.461   0.700   8.557  0.7956  0.5344 -1.0247
 9326SOL     OW39610   2.739   1.040   8.095  0.3886  0.1592  0.4011
 9326SOL    HW139611   2.647   1.033   8.072  0.7802 -0.9736 -0.8236
 9326SOL    HW239612   2.763   0.948   8.087 -0.8534  0.1655 -3.1997
 9327SOL     OW39613   1.653   1.194   3.983  0.0343  0.0197  0.1148
 9327SOL    HW139614   1.665   1.194   3.888 -2.0224  1.1385 -0.1419
 9327SOL    HW239615   1.622   1.279   4.013 -1.6875 -0.3348 -0.6532
 9328SOL     OW39616   4.333   3.592   9.582  0.0472  0.2717 -0.5647
 9328SOL    HW139617   4.368   3.584   9.671  2.3827  1.2402 -1.3793
 9328SOL    HW239618   4.357   3.683   9.561  0.9468  0.3762  0.8861
 9329SOL     OW39619   2.241   0.664  13.155  0.1196  0.3704 -0.4528
 9329SOL    HW139620   2.225   0.694  13.244 -0.7907  1.3950 -0.9570
 9329SOL    HW239621   2.295   0.733  13.117  0.5082  0.0945 -0.3994
 9330SOL     OW39622   2.214   3.152  14.320  0.0724 -0.2695  0.1325
 9330SOL    HW139623   2.308   3.167  14.336  0.1927 -0.1996 -0.6656
 9330SOL    HW239624   2.175   3.157  14.408  1.2906 -0.1936  0.6741
 9331SOL     OW39625   2.704   4.286   3.997  0.1085  0.3113 -0.0249
 9331SOL    HW139626   2.662   4.200   4.000 -0.8683  0.7290 -1.5978
 9331SOL    HW239627   2.666   4.326   4.075 -0.0872 -1.5508  0.8246
 9332SOL     OW39628   3.788   0.758  12.515 -0.3330 -0.3481 -0.0241
 9332SOL    HW139629   3.776   0.823  12.445  1.2499 -0.7240 -0.6580
 9332SOL    HW239630   3.845   0.802  12.578 -0.6547  1.4212 -0.9678
 9333SOL     OW39631   1.419   2.245   8.555  0.7476 -0.1152  0.7395
 9333SOL    HW139632   1.427   2.159   8.597  1.2102 -0.0836  0.7176
 9333SOL    HW239633   1.407   2.220   8.464 -2.3638  1.5191  0.6985
 9334SOL     OW39634   1.702   4.581   3.079  0.4801 -0.7816  0.6904
 9334SOL    HW139635   1.713   4.492   3.113  1.5718 -0.5237  0.9867
 9334SOL    HW239636   1.614   4.577   3.042  0.7007  1.0682 -0.0046
 9335SOL     OW39637   0.942   2.354   3.962 -0.2338 -0.1071  0.2054
 9335SOL    HW139638   0.859   2.354   3.913 -0.9412  1.6259  1.4203
 9335SOL    HW239639   1.004   2.379   3.894  0.1472  0.4208  0.7445
 9336SOL     OW39640   0.551   3.670  15.488  0.1471 -0.2400  0.3481
 9336SOL    HW139641   0.476   3.615  15.512 -0.4314  0.8423  1.0573
 9336SOL    HW239642   0.615   3.632  15.549  0.6552  3.1791  1.9674
 9337SOL     OW39643   2.371   1.973  12.293 -0.4509 -0.3524  0.6514
 9337SOL    HW139644   2.316   2.001  12.219 -0.1751 -0.5998  0.3530
 9337SOL    HW239645   2.339   1.883  12.286  1.8514 -0.8827 -3.2687
 9338SOL     OW39646   4.600   1.586   7.185  0.0930 -0.4788 -0.0303
 9338SOL    HW139647   4.592   1.502   7.230 -0.6939  0.9107  2.3654
 9338SOL    HW239648   4.688   1.608   7.216  0.7253  1.2823 -3.0978
 9339SOL     OW39649   0.047   3.013   6.840 -0.1601  0.2648 -0.5471
 9339SOL    HW139650   0.075   3.007   6.932  2.2756 -0.6025 -1.3624
 9339SOL    HW239651   0.133   3.028   6.801  0.1011 -1.4555 -0.6319
 9340SOL     OW39652   2.855   2.273   1.894  0.3283  0.0588  0.0384
 9340SOL    HW139653   2.912   2.278   1.818 -1.5734 -3.2204 -1.5750
 9340SOL    HW239654   2.827   2.364   1.900 -3.6387 -1.1209 -1.1282
 9341SOL     OW39655   1.077   1.114  15.450  0.0159  0.3812 -0.7174
 9341SOL    HW139656   1.067   1.209  15.445 -0.5444  0.4648  1.6440
 9341SOL    HW239657   1.163   1.102  15.410  0.1008 -1.4579  0.0080
 9342SOL     OW39658   0.382   2.263  11.082  0.3343 -0.2324  0.0617
 9342SOL    HW139659   0.409   2.216  11.004 -1.9228 -0.6303 -0.4672
 9342SOL    HW239660   0.308   2.318  11.056 -0.6189 -1.0567  1.0419
 9343SOL     OW39661   1.337   4.555  15.715  0.1261 -0.2248  0.4770
 9343SOL    HW139662   1.394   4.482  15.695  0.0158 -0.3201  0.5111
 9343SOL    HW239663   1.279   4.515  15.780  0.0158 -0.6882  0.0924
 9344SOL     OW39664   3.323   2.347   3.187 -0.2009 -0.5409 -0.4738
 9344SOL    HW139665   3.381   2.351   3.110 -0.6058 -0.3706 -0.7719
 9344SOL    HW239666   3.330   2.426   3.240  1.0662 -1.9932  1.4965
 9345SOL     OW39667   0.484   0.290   8.267  0.2791  0.6517 -0.4401
 9345SOL    HW139668   0.445   0.272   8.353  0.3866  0.5255 -0.4186
 9345SOL    HW239669   0.547   0.361   8.283 -1.5911  1.8791  1.5332
 9346SOL     OW39670   0.483   0.082   8.641 -0.2039  0.1480 -0.0586
 9346SOL    HW139671   0.529   0.020   8.585 -2.0496 -0.4184 -0.9358
 9346SOL    HW239672   0.427   0.131   8.581 -2.2252 -0.3848  1.3860
 9347SOL     OW39673   3.467   0.763   4.707 -0.4111  0.2700 -0.0338
 9347SOL    HW139674   3.478   0.697   4.638 -0.0574  0.7210 -0.4133
 9347SOL    HW239675   3.503   0.729   4.789  1.7222  1.3903 -0.5002
 9348SOL     OW39676   1.055   0.411   8.998 -0.5422 -0.2018  0.3729
 9348SOL    HW139677   1.093   0.326   9.018  0.3100  0.0192 -0.3547
 9348SOL    HW239678   1.013   0.431   9.082 -1.3155  1.1198 -0.3133
 9349SOL     OW39679   1.879   0.540  14.920  0.1598  0.7093  0.3693
 9349SOL    HW139680   1.881   0.623  14.872  2.0584  0.5615  0.2190
 9349SOL    HW239681   1.917   0.553  15.007 -0.8662 -0.6256  1.0292
 9350SOL     OW39682   0.960   2.848   7.630 -0.0277 -0.2274 -0.4337
 9350SOL    HW139683   1.041   2.861   7.679 -0.2661 -0.8871  0.1388
 9350SOL    HW239684   0.924   2.765   7.662 -2.9155  0.4305 -2.0752
 9351SOL     OW39685   1.990   2.111  14.572 -0.2256 -0.1259  0.0648
 9351SOL    HW139686   2.043   2.066  14.638 -0.3146 -0.3814 -0.0393
 9351SOL    HW239687   2.018   2.057  14.499 -1.1276  1.2278 -1.2722
 9352SOL     OW39688   0.543   0.955   5.714  0.0597 -0.3106  0.1037
 9352SOL    HW139689   0.564   0.871   5.673  0.0043  0.1535 -0.8583
 9352SOL    HW239690   0.470   0.987   5.662  0.4356  1.2933  0.5689
 9353SOL     OW39691   0.970   4.257   9.132  0.0105 -0.1893  0.5893
 9353SOL    HW139692   0.893   4.313   9.132  0.1926  0.0623  0.1684
 9353SOL    HW239693   0.935   4.175   9.167 -0.2805  0.6191  2.1822
 9354SOL     OW39694   1.527   3.447   6.324  0.3455  0.3912 -0.0460
 9354SOL    HW139695   1.483   3.462   6.407  3.2695  1.4463  1.3222
 9354SOL    HW239696   1.613   3.420   6.356 -0.1326  0.4053  1.2507
 9355SOL     OW39697   0.274   3.556   0.909 -0.4275 -0.4220 -0.2324
 9355SOL    HW139698   0.226   3.603   0.976 -0.9858 -0.8752 -0.3146
 9355SOL    HW239699   0.359   3.543   0.951  0.4706  0.3704 -1.8196
 9356SOL     OW39700   0.869   4.080  16.222  0.1271 -0.1263  0.0804
 9356SOL    HW139701   0.790   4.029  16.239 -0.7213  1.0656 -0.3420
 9356SOL    HW239702   0.936   4.016  16.249  0.9316 -0.4145 -2.6499
 9357SOL     OW39703   4.390   2.237   2.586 -0.5872 -0.0481  0.3160
 9357SOL    HW139704   4.300   2.269   2.597 -0.3181  0.9234 -0.3203
 9357SOL    HW239705   4.419   2.315   2.538  0.0364  0.3929  1.4184
 9358SOL     OW39706   3.950   4.671   6.203 -0.0477 -0.2561  0.1217
 9358SOL    HW139707   3.956   4.577   6.188  0.5791 -0.3486  0.9325
 9358SOL    HW239708   3.872   4.686   6.149 -0.7840 -0.6849  1.0651
 9359SOL     OW39709   2.367   2.979  16.718  0.1695  0.1885 -0.3382
 9359SOL    HW139710   2.397   2.888  16.713  1.5685  0.6862 -1.0296
 9359SOL    HW239711   2.331   2.976  16.807  0.9561 -0.0756 -0.0270
 9360SOL     OW39712   1.273   3.351   3.247  0.2289 -0.0074  0.1223
 9360SOL    HW139713   1.326   3.368   3.169  0.8289  2.4649  1.0769
 9360SOL    HW239714   1.292   3.257   3.256 -3.0787 -0.7689 -0.6768
 9361SOL     OW39715   0.043   2.034   5.913 -0.4635  0.4753 -0.1808
 9361SOL    HW139716   0.011   2.007   5.827 -1.1137  2.1047 -0.4465
 9361SOL    HW239717   0.138   2.020   5.909 -0.4679  0.9675 -1.9944
 9362SOL     OW39718   2.865   1.350   3.191 -0.3484  0.1575  0.5524
 9362SOL    HW139719   2.918   1.429   3.182  0.3404 -0.4020 -0.2622
 9362SOL    HW239720   2.778   1.390   3.185 -0.6646 -0.8579 -1.7221
 9363SOL     OW39721   4.506   3.128   6.388 -0.0098  0.1697  0.0975
 9363SOL    HW139722   4.460   3.188   6.447  0.2085  0.1194  0.3219
 9363SOL    HW239723   4.471   3.048   6.428 -0.1389  0.8076  1.2692
 9364SOL     OW39724   2.272   2.794   0.977  0.3331  0.6391 -0.0748
 9364SOL    HW139725   2.291   2.709   1.019 -2.4595  0.2311  0.3538
 9364SOL    HW239726   2.177   2.791   0.983  0.2221  1.4858 -1.4512
 9365SOL     OW39727   4.038   2.079  16.700 -0.2750  0.4011  0.1137
 9365SOL    HW139728   3.963   2.117  16.747 -0.0861  0.2360  0.5452
 9365SOL    HW239729   4.015   1.986  16.699  0.0431  0.3239 -0.1898
 9366SOL     OW39730   3.057   0.054   9.569  0.4124 -0.3913 -0.4664
 9366SOL    HW139731   3.048   0.091   9.656  0.2567 -0.0933 -0.6094
 9366SOL    HW239732   3.145   0.016   9.568  1.2328  1.4817  0.9850
 9367SOL     OW39733   1.992   2.093   7.958  0.3166 -0.0732  0.0473
 9367SOL    HW139734   2.044   2.173   7.955 -0.2474  0.3043  0.5082
 9367SOL    HW239735   2.059   2.032   7.990 -0.9033 -1.0724  0.6940
 9368SOL     OW39736   1.501   0.697   7.768  0.1593 -0.0116 -0.0343
 9368SOL    HW139737   1.547   0.639   7.706  2.1472  0.8388  0.6589
 9368SOL    HW239738   1.494   0.634   7.840 -2.0093  0.7950  0.4429
 9369SOL     OW39739   0.823   3.945   6.624 -0.4165 -0.5459  0.0087
 9369SOL    HW139740   0.823   3.851   6.643  2.5829 -1.0336 -2.4334
 9369SOL    HW239741   0.757   3.975   6.686  0.1382  0.9853 -0.1418
 9370SOL     OW39742   1.041   0.999   8.137  0.1106  0.4062  0.4449
 9370SOL    HW139743   0.971   0.937   8.118 -0.4564  0.8051  1.2194
 9370SOL    HW239744   1.120   0.961   8.099 -0.4924 -0.6476  0.2666
 9371SOL     OW39745   3.586   2.515   7.806  0.3029 -0.2649 -0.1164
 9371SOL    HW139746   3.570   2.607   7.826 -2.4757 -0.5445 -1.0366
 9371SOL    HW239747   3.648   2.487   7.874 -0.4044 -0.6978  0.3574
 9372SOL     OW39748   3.240   2.399   4.435  0.4252  0.4180 -0.0739
 9372SOL    HW139749   3.232   2.324   4.375 -0.8827  0.1662  0.4104
 9372SOL    HW239750   3.192   2.381   4.516  1.6529  1.6156  0.9153
 9373SOL     OW39751   2.516   0.426  15.320  0.0962  0.3712 -0.4551
 9373SOL    HW139752   2.605   0.430  15.357  1.4867  0.7403 -3.8524
 9373SOL    HW239753   2.533   0.419  15.226  3.3090 -1.6700  0.2490
 9374SOL     OW39754   0.567   1.398   2.933 -0.0192 -0.0498  0.5700
 9374SOL    HW139755   0.570   1.325   2.871  0.7291  0.0870  0.4417
 9374SOL    HW239756   0.657   1.395   2.966  1.4138  1.5648 -3.1734
 9375SOL     OW39757   0.813   0.295   6.158  0.3503  0.3231  0.3309
 9375SOL    HW139758   0.822   0.214   6.209  0.5215 -1.1546 -2.0093
 9375SOL    HW239759   0.774   0.266   6.075 -2.0227 -1.0225  1.9119
 9376SOL     OW39760   2.317   2.793  14.567  0.5089  0.1847 -0.2778
 9376SOL    HW139761   2.395   2.847  14.573 -0.1042  1.2371 -1.7651
 9376SOL    HW239762   2.286   2.799  14.477  0.9277  1.1876 -0.3520
 9377SOL     OW39763   3.841   1.500   4.183  0.0850  0.0309  0.3888
 9377SOL    HW139764   3.851   1.494   4.089 -1.1224 -2.9402  0.4555
 9377SOL    HW239765   3.788   1.578   4.196  2.0717  1.3527  0.5983
 9378SOL     OW39766   2.505   1.207   3.316  0.0601  0.4727  0.1440
 9378SOL    HW139767   2.587   1.179   3.357 -0.0156 -0.5174 -0.3847
 9378SOL    HW239768   2.532   1.184   3.227  1.2743  0.8445  0.4147
 9379SOL     OW39769   2.987   1.767   6.170 -0.5586 -0.2562 -0.0916
 9379SOL    HW139770   3.074   1.805   6.161 -0.8668  0.4438 -0.0662
 9379SOL    HW239771   2.993   1.717   6.251 -0.5349 -0.4069 -0.1863
 9380SOL     OW39772   2.409   1.595  17.047 -0.1767 -0.1291 -0.2841
 9380SOL    HW139773   2.403   1.661  16.978  1.2169  1.1171  0.8004
 9380SOL    HW239774   2.318   1.564  17.053 -0.4458  0.3940 -1.7248
 9381SOL     OW39775   2.217   3.880   1.838  0.1003 -0.5608 -0.4076
 9381SOL    HW139776   2.183   3.841   1.919  0.4004 -0.9209 -0.4539
 9381SOL    HW239777   2.280   3.950   1.855  1.5179 -1.6041 -1.4181
 9382SOL     OW39778   4.525   2.536   6.833 -0.2504  0.0020 -0.4440
 9382SOL    HW139779   4.509   2.457   6.885  0.6218  1.4163  1.9677
 9382SOL    HW239780   4.551   2.499   6.748  0.1376  1.3182 -0.8954
 9383SOL     OW39781   3.131   0.822  10.514  0.0549 -0.0103  0.4638
 9383SOL    HW139782   3.089   0.736  10.511 -0.8837  0.4417  0.5247
 9383SOL    HW239783   3.169   0.826  10.426 -0.6002 -2.4271  0.0667
 9384SOL     OW39784   1.826   1.569   8.150  0.1456 -0.4182 -0.0725
 9384SOL    HW139785   1.777   1.497   8.112 -0.3922 -1.0534  1.8086
 9384SOL    HW239786   1.877   1.594   8.073 -0.9027  1.3527 -0.1919
 9385SOL     OW39787   0.024   0.995   4.934 -0.9018  0.4998 -0.1305
 9385SOL    HW139788   4.696   0.926   4.927 -1.1232  1.1024 -3.9484
 9385SOL    HW239789   4.722   1.066   4.885 -0.7484  0.6044 -0.1029
 9386SOL     OW39790   0.424   3.199   4.560  0.3474 -0.2926 -0.0068
 9386SOL    HW139791   0.439   3.129   4.498  1.7362  0.2842 -0.3328
 9386SOL    HW239792   0.479   3.173   4.634 -0.4193 -1.1151  0.2648
 9387SOL     OW39793   2.942   3.410   3.925 -0.5890  0.1189  0.1080
 9387SOL    HW139794   2.945   3.325   3.969 -1.1769 -0.1541 -0.3675
 9387SOL    HW239795   3.004   3.403   3.852  0.6119  2.1737  0.9374
 9388SOL     OW39796   2.864   2.076  10.182 -0.0459 -0.0536 -0.1204
 9388SOL    HW139797   2.920   2.007  10.146  0.4964 -0.0598  0.7488
 9388SOL    HW239798   2.845   2.037  10.267  0.6327  0.7991  0.4186
 9389SOL     OW39799   4.464   2.826   2.935 -0.4325 -0.0868  0.1387
 9389SOL    HW139800   4.446   2.912   2.972 -0.7612  0.1199 -0.4958
 9389SOL    HW239801   4.536   2.850   2.877 -1.9516 -0.7868 -2.0429
 9390SOL     OW39802   0.323   1.725   3.365  0.3779 -0.1252 -0.2467
 9390SOL    HW139803   0.412   1.758   3.350  0.0834  0.8575  0.1977
 9390SOL    HW239804   0.300   1.771   3.445  1.7546 -0.6849  0.4751
 9391SOL     OW39805   4.432   4.648   6.956 -0.0118 -0.5208 -0.2513
 9391SOL    HW139806   4.519   4.670   6.923  0.1009 -0.2565  0.2207
 9391SOL    HW239807   4.381   4.724   6.930  1.0794  0.4488  0.4353
 9392SOL     OW39808   4.429   0.523   6.617 -0.3393 -1.0248  1.0575
 9392SOL    HW139809   4.371   0.588   6.658 -0.9666 -0.8650 -0.0992
 9392SOL    HW239810   4.507   0.578   6.605 -0.8836 -0.5784 -0.4573
 9393SOL     OW39811   3.324   1.982   6.911 -0.0221  1.2868  0.5795
 9393SOL    HW139812   3.331   1.964   7.005 -0.2250 -0.8080  0.1810
 9393SOL    HW239813   3.410   2.023   6.895 -0.1083  1.0846 -0.3976
 9394SOL     OW39814   2.507   0.153   2.161  0.6258  0.2373  0.0774
 9394SOL    HW139815   2.534   0.098   2.234 -3.7325 -0.5334  1.0938
 9394SOL    HW239816   2.588   0.204   2.153  0.1971  1.1149  1.2730
 9395SOL     OW39817   3.595   0.894   7.600  0.3338 -0.0011  0.2869
 9395SOL    HW139818   3.654   0.914   7.527  0.6678 -0.6942  0.3653
 9395SOL    HW239819   3.643   0.925   7.677  1.7531  1.0178 -0.9885
 9396SOL     OW39820   3.097   0.533   1.502  0.3113 -0.2048  0.7668
 9396SOL    HW139821   3.007   0.503   1.516 -0.1739  0.7688 -0.2566
 9396SOL    HW239822   3.091   0.553   1.409 -1.6363 -2.0793  0.4959
 9397SOL     OW39823   3.050   0.562   8.866  0.0777 -0.3469  0.2233
 9397SOL    HW139824   3.016   0.650   8.848  2.3976  0.2152 -1.3109
 9397SOL    HW239825   3.079   0.564   8.958 -1.3980 -2.3994  0.7333
 9398SOL     OW39826   3.080   0.382   8.562  0.3080  0.1990 -0.6406
 9398SOL    HW139827   3.008   0.373   8.500  0.8669  0.8536 -1.3906
 9398SOL    HW239828   3.041   0.446   8.621  0.3133 -0.9583  0.5984
 9399SOL     OW39829   1.006   4.138   8.749 -0.3866  0.0858 -0.0058
 9399SOL    HW139830   1.030   4.120   8.658  1.3367  2.4092  0.0178
 9399SOL    HW239831   1.015   4.052   8.792 -1.1379  0.3709  0.7222
 9400SOL     OW39832   2.024   4.046  17.719 -0.4879 -0.0466  0.3072
 9400SOL    HW139833   1.957   4.031  17.654  1.6823 -0.7647 -1.7652
 9400SOL    HW239834   2.094   3.991  17.683 -0.5808  0.2017 -0.2485
 9401SOL     OW39835   1.167   2.648   3.934  0.6221  0.3943 -0.1898
 9401SOL    HW139836   1.139   2.593   3.861 -2.8660  1.6718  0.1729
 9401SOL    HW239837   1.240   2.690   3.889 -0.0804 -0.0923 -1.7889
 9402SOL     OW39838   0.735   1.113   4.956 -0.0968 -0.1775  0.1050
 9402SOL    HW139839   0.713   1.187   5.013 -1.1215 -0.0534 -0.4541
 9402SOL    HW239840   0.827   1.103   4.979 -0.1741 -0.5872  0.2328
 9403SOL     OW39841   0.702   2.142   1.071  0.1239  0.2176 -0.2439
 9403SOL    HW139842   0.730   2.212   1.131 -0.1039 -0.2145  0.3740
 9403SOL    HW239843   0.610   2.133   1.097 -0.2313  0.3890 -1.4712
 9404SOL     OW39844   0.924   0.279   1.796  0.0859  0.1936  0.4681
 9404SOL    HW139845   0.972   0.356   1.765 -1.2796  0.6837 -0.4558
 9404SOL    HW239846   0.882   0.323   1.870  1.8758  0.3913  1.3385
 9405SOL     OW39847   0.456   4.059   3.602 -0.3872 -0.3462 -0.2354
 9405SOL    HW139848   0.427   4.064   3.511  1.4543 -0.4967 -0.8368
 9405SOL    HW239849   0.501   3.974   3.605  1.2693  0.4480 -2.8394
 9406SOL     OW39850   1.637   2.238   4.195  0.2377  0.3619  0.3016
 9406SOL    HW139851   1.729   2.233   4.168  0.1127 -0.9743  0.1283
 9406SOL    HW239852   1.642   2.179   4.270 -3.1485 -0.0638  0.2006
 9407SOL     OW39853   2.070   0.672  11.842 -0.8999  0.0875 -0.1088
 9407SOL    HW139854   2.028   0.586  11.849 -2.1427  0.6144 -1.0923
 9407SOL    HW239855   1.998   0.710  11.792  0.2418 -1.4765 -2.9449
 9408SOL     OW39856   0.503   3.387   0.233 -0.4761  0.5661 -0.2452
 9408SOL    HW139857   0.435   3.321   0.248 -1.9083  1.6692 -1.8802
 9408SOL    HW239858   0.449   3.458   0.198  0.1704  0.7423 -0.8853
 9409SOL     OW39859   2.332   1.555   9.087  0.1009  0.1095  0.2056
 9409SOL    HW139860   2.349   1.634   9.138 -0.8056 -0.2561  1.0778
 9409SOL    HW239861   2.239   1.545   9.065  0.0654  0.5482  0.1571
 9410SOL     OW39862   0.407   0.334   7.495 -0.0263  0.0771 -0.1963
 9410SOL    HW139863   0.448   0.420   7.501 -0.8273  0.3382  1.4565
 9410SOL    HW239864   0.351   0.356   7.420  0.5987  0.9835 -0.3972
 9411SOL     OW39865   3.183   1.959  12.334  0.0499  0.5745  0.4255
 9411SOL    HW139866   3.091   1.948  12.359  0.4549 -0.1331  1.5570
 9411SOL    HW239867   3.173   2.044  12.291 -0.2102  0.4349  0.2088
 9412SOL     OW39868   2.135   4.378   3.087  0.0648  0.1776  0.2891
 9412SOL    HW139869   2.150   4.471   3.106  0.0355  0.0122  1.1192
 9412SOL    HW239870   2.146   4.347   3.177  0.5483 -0.2304  0.0906
 9413SOL     OW39871   0.861   4.603   2.630 -0.1128  0.2361 -0.1997
 9413SOL    HW139872   0.899   4.590   2.717  2.0663  1.9836 -0.9146
 9413SOL    HW239873   0.768   4.595   2.650 -0.6762  1.1032 -2.5366
 9414SOL     OW39874   0.077   3.118   3.197 -0.4346 -0.0402 -0.5610
 9414SOL    HW139875   0.003   3.177   3.182 -0.0610  0.5863  0.0634
 9414SOL    HW239876   0.073   3.104   3.292 -1.7416 -2.4550 -0.9662
 9415SOL     OW39877   2.523   0.775   4.703  0.9439 -0.5129  0.1537
 9415SOL    HW139878   2.538   0.704   4.641  0.9120 -0.3127 -0.0837
 9415SOL    HW239879   2.469   0.719   4.758  0.4907  1.6324  1.9059
 9416SOL     OW39880   0.010   4.177   9.253 -0.1326  0.3276  0.3905
 9416SOL    HW139881   0.037   4.236   9.182  0.6193 -1.3916 -0.7630
 9416SOL    HW239882   0.101   4.157   9.276  0.5343  0.9905 -1.5912
 9417SOL     OW39883   4.229   0.907   5.858  0.2598 -0.3633 -0.6160
 9417SOL    HW139884   4.231   0.885   5.951 -1.3530  0.5482 -0.3885
 9417SOL    HW239885   4.320   0.887   5.833  0.6733 -0.5580  1.0047
 9418SOL     OW39886   4.220   0.498  12.451 -0.4742  0.0490  0.3130
 9418SOL    HW139887   4.287   0.460  12.394 -0.0186  1.1693  0.0908
 9418SOL    HW239888   4.171   0.419  12.473 -0.9796  0.7426  1.6774
 9419SOL     OW39889   0.232   4.187   7.489  0.0822  0.0128  0.2302
 9419SOL    HW139890   0.282   4.234   7.556 -1.3904  2.7357 -0.5900
 9419SOL    HW239891   0.214   4.115   7.549  0.4234 -0.7127 -0.5311
 9420SOL     OW39892   3.137   0.756   9.535 -0.1190 -0.5995 -0.0700
 9420SOL    HW139893   3.221   0.791   9.506 -0.6828 -0.8212 -2.0016
 9420SOL    HW239894   3.098   0.740   9.449 -3.3672  0.3392  1.2302
 9421SOL     OW39895   2.425   3.837   1.240 -0.3304  0.0497  0.4735
 9421SOL    HW139896   2.423   3.849   1.335 -0.4557 -1.7089  0.7072
 9421SOL    HW239897   2.396   3.746   1.231 -0.4885  0.2585 -1.1990
 9422SOL     OW39898   3.150   1.898   8.395 -0.0958  0.2968 -0.0440
 9422SOL    HW139899   3.124   1.915   8.486 -0.1248  1.1359 -0.2159
 9422SOL    HW239900   3.200   1.978   8.383  0.9647 -0.1444  1.3880
 9423SOL     OW39901   3.918   0.959  12.134  0.5779  0.1478  0.6736
 9423SOL    HW139902   3.896   1.037  12.083 -3.1668 -1.8975 -0.8668
 9423SOL    HW239903   3.833   0.942  12.174  0.3108 -0.6002 -0.2172
 9424SOL     OW39904   0.908   2.759  15.183  0.2941  0.0546  0.1409
 9424SOL    HW139905   0.968   2.834  15.171  2.2461 -1.4989  0.1345
 9424SOL    HW239906   0.921   2.742  15.277 -2.2937 -0.9475  0.2892
 9425SOL     OW39907   1.188   4.074  16.795  0.2596  0.1991 -0.3706
 9425SOL    HW139908   1.173   4.024  16.716  0.9869  2.1342 -1.7291
 9425SOL    HW239909   1.178   4.165  16.767 -0.8628  0.3043  0.3860
 9426SOL     OW39910   1.218   1.380   6.933  0.4153  0.0403 -0.7205
 9426SOL    HW139911   1.174   1.463   6.916  1.0558  0.2331 -1.4707
 9426SOL    HW239912   1.141   1.325   6.944  2.9911 -3.0776  1.7242
 9427SOL     OW39913   3.653   3.041   1.351  0.3745 -0.3164 -0.0143
 9427SOL    HW139914   3.572   3.084   1.322 -0.1408 -0.0067  1.8763
 9427SOL    HW239915   3.700   3.099   1.411  0.6242  0.2985 -0.8160
 9428SOL     OW39916   4.399   4.032  15.072  0.5689  0.1176 -0.2537
 9428SOL    HW139917   4.442   4.000  15.151  1.8410  2.3096 -0.0501
 9428SOL    HW239918   4.437   3.970  15.010 -1.4925 -1.2974 -0.0909
 9429SOL     OW39919   4.424   0.427   5.956 -0.2513  0.6605 -0.2549
 9429SOL    HW139920   4.513   0.431   5.990 -0.8656  2.3001  1.1857
 9429SOL    HW239921   4.372   0.435   6.036 -1.6480 -0.7968 -1.0270
 9430SOL     OW39922   0.557   0.977  10.046 -0.3528  0.2855  0.5135
 9430SOL    HW139923   0.581   0.922  10.120  0.7215 -0.0381 -0.0780
 9430SOL    HW239924   0.468   0.955  10.019 -0.3883 -1.6866  2.2739
 9431SOL     OW39925   1.119   3.884   5.976 -0.5393 -0.5180 -0.5459
 9431SOL    HW139926   1.095   3.976   5.983  2.8688  0.3623 -0.4865
 9431SOL    HW239927   1.065   3.851   5.904 -1.5877  0.4013 -0.1754
 9432SOL     OW39928   1.533   2.486   8.005  0.1553  0.6022  0.5279
 9432SOL    HW139929   1.581   2.426   8.061  1.7787  0.7666 -0.6852
 9432SOL    HW239930   1.608   2.518   7.955 -2.3830  3.4740 -1.4872
 9433SOL     OW39931   2.049   1.228   6.464  0.3257 -0.1477  0.4899
 9433SOL    HW139932   2.128   1.239   6.412 -0.0911 -3.3808 -0.8558
 9433SOL    HW239933   1.994   1.265   6.395  1.7524  0.4200 -0.3501
 9434SOL     OW39934   4.409   2.501   7.831 -0.4322 -0.4968  0.4704
 9434SOL    HW139935   4.441   2.561   7.764  3.4656 -1.9379  1.0811
 9434SOL    HW239936   4.375   2.561   7.898 -1.1179 -2.1588  1.6090
 9435SOL     OW39937   1.005   3.675   5.710 -0.3881  0.1179 -0.0614
 9435SOL    HW139938   0.940   3.688   5.780 -1.9221  1.4051 -1.7378
 9435SOL    HW239939   1.039   3.590   5.737 -0.4965  0.3494  0.8077
 9436SOL     OW39940   2.937   2.512  10.432  0.0914  0.1024  0.5293
 9436SOL    HW139941   2.997   2.558  10.373 -0.3952  1.2050  0.9078
 9436SOL    HW239942   2.921   2.437  10.374 -0.2739  1.5919 -1.3065
 9437SOL     OW39943   2.330   1.801  14.425 -0.4173  0.5832  0.0021
 9437SOL    HW139944   2.269   1.868  14.457  0.0962  1.1180 -0.1370
 9437SOL    HW239945   2.333   1.808  14.330  1.0058 -3.2066 -0.2132
 9438SOL     OW39946   0.703   1.444   4.753  0.2618 -0.0025  0.2843
 9438SOL    HW139947   0.655   1.507   4.700 -1.9489 -1.4060  0.6204
 9438SOL    HW239948   0.685   1.359   4.712 -2.2083 -0.0790  1.5542
 9439SOL     OW39949   1.633   3.185   8.506  0.3310 -0.0503 -0.3528
 9439SOL    HW139950   1.638   3.248   8.434 -1.4844  0.8115  0.2634
 9439SOL    HW239951   1.540   3.197   8.522  0.0777 -1.8959 -0.5249
 9440SOL     OW39952   0.447   4.631  10.567 -0.1283 -0.3376 -1.1578
 9440SOL    HW139953   0.386   4.577  10.617 -0.1656  1.5152  0.7917
 9440SOL    HW239954   0.401   4.654  10.486 -0.0049  1.7422 -0.6458
 9441SOL     OW39955   3.920   1.275   2.861 -0.1981  0.5870  0.2142
 9441SOL    HW139956   4.001   1.258   2.910  0.5318 -2.3134 -2.0047
 9441SOL    HW239957   3.947   1.292   2.771 -0.8715  1.0570  0.1061
 9442SOL     OW39958   3.594   2.121   9.181 -0.4418 -0.4658  0.4594
 9442SOL    HW139959   3.553   2.207   9.189  0.3654 -0.0542  0.1878
 9442SOL    HW239960   3.598   2.094   9.273  0.7756 -2.2748 -0.1302
 9443SOL     OW39961   1.214   0.801  17.499  0.2458  0.2222  0.3230
 9443SOL    HW139962   1.137   0.747  17.482  0.5003 -0.9771  3.0579
 9443SOL    HW239963   1.261   0.785  17.417  1.2145  0.9210  0.7445
 9444SOL     OW39964   1.433   4.649   0.311  0.3040 -0.0334  0.7097
 9444SOL    HW139965   1.478   4.566   0.325 -0.7757 -0.9151 -1.1603
 9444SOL    HW239966   1.509   4.707   0.300 -0.1275  0.6718  1.3659
 9445SOL     OW39967   2.478   0.695   5.506  0.2854 -0.2907 -0.3682
 9445SOL    HW139968   2.412   0.740   5.454  1.2958 -1.4606 -2.6531
 9445SOL    HW239969   2.554   0.693   5.448  0.3700 -2.2482 -0.1927
 9446SOL     OW39970   2.653   2.092  16.026 -0.1115 -0.3188  0.1370
 9446SOL    HW139971   2.562   2.106  16.052  0.1401 -0.9070  1.3218
 9446SOL    HW239972   2.660   2.157  15.956 -1.2761  0.3269  0.6055
 9447SOL     OW39973   2.192   4.102   5.958  0.6723 -0.2212 -0.1282
 9447SOL    HW139974   2.252   4.148   6.015 -0.1289 -0.9226  1.2754
 9447SOL    HW239975   2.191   4.012   5.990 -0.6176 -0.2250 -0.1579
 9448SOL     OW39976   3.181   3.264   5.386 -0.2518 -0.3400 -0.5188
 9448SOL    HW139977   3.091   3.293   5.402  0.7727  0.9270  2.8403
 9448SOL    HW239978   3.179   3.255   5.291  0.5849  0.7222 -0.6337
 9449SOL     OW39979   3.454   3.635   8.913  0.0477 -0.1253 -0.2607
 9449SOL    HW139980   3.405   3.596   8.841 -0.5069  0.6164 -0.2895
 9449SOL    HW239981   3.421   3.725   8.921  2.2053  0.7274 -0.8249
 9450SOL     OW39982   3.973   0.313   6.065  0.1614  0.0423  0.5095
 9450SOL    HW139983   4.015   0.342   5.984 -2.2454  2.7719  0.2031
 9450SOL    HW239984   3.981   0.384   6.129 -0.0901  0.8494 -0.3599
 9451SOL     OW39985   1.015   0.063  14.255 -0.2441 -0.9700  0.1652
 9451SOL    HW139986   1.099   0.107  14.252 -1.3947  1.3025  1.0093
 9451SOL    HW239987   0.979   0.091  14.171  1.2557  1.3915  0.3265
 9452SOL     OW39988   1.322   3.103   3.412 -0.1790 -0.2510  0.2811
 9452SOL    HW139989   1.403   3.058   3.434 -0.3492 -0.1206  1.1893
 9452SOL    HW239990   1.262   3.034   3.382 -1.1471  0.5309  0.4202
 9453SOL     OW39991   4.549   4.320   7.295 -0.2090 -0.6605 -0.3642
 9453SOL    HW139992   4.476   4.376   7.319 -0.2418 -0.7652 -0.2237
 9453SOL    HW239993   4.620   4.355   7.349 -0.1854  1.0830 -1.5341
 9454SOL     OW39994   0.677   3.711   4.449  0.1026 -0.4057  0.3443
 9454SOL    HW139995   0.738   3.730   4.520  0.3779 -0.6892  0.1867
 9454SOL    HW239996   0.703   3.624   4.418 -0.6262 -0.2707 -0.6715
 9455SOL     OW39997   1.091   3.744   4.383  0.1088  0.1558 -0.4135
 9455SOL    HW139998   1.059   3.758   4.472  0.4318 -2.8371  0.1896
 9455SOL    HW239999   1.169   3.691   4.402  0.8244  1.1721 -0.5377
 9456SOL     OW40000   4.339   1.518   2.863  0.3654  0.6149 -0.3606
 9456SOL    HW140001   4.307   1.506   2.773  0.2717 -3.1630  0.1550
 9456SOL    HW240002   4.384   1.435   2.879  0.3910  0.9465  1.2501
 9457SOL     OW40003   4.679   1.106  11.322  0.2257  1.0541  0.1175
 9457SOL    HW140004   4.588   1.135  11.310 -0.6852 -1.5839  0.6248
 9457SOL    HW240005   4.652   1.035  11.380 -0.8683  0.5978 -0.9661
 9458SOL     OW40006   2.172   3.785   9.639  0.3753 -0.3846  0.4856
 9458SOL    HW140007   2.258   3.771   9.601 -0.4375 -0.3669 -1.3541
 9458SOL    HW240008   2.119   3.793   9.560 -0.3341  0.1582  1.0026
 9459SOL     OW40009   2.517   1.846   7.272  0.9224 -0.3435 -0.0882
 9459SOL    HW140010   2.539   1.826   7.181  0.5653  0.4592 -0.3499
 9459SOL    HW240011   2.477   1.932   7.258 -4.5897 -2.7341  1.1088
 9460SOL     OW40012   1.178   4.586  11.940  0.1323  0.2705 -0.4995
 9460SOL    HW140013   1.180   4.681  11.950  1.4043  0.2836 -0.9254
 9460SOL    HW240014   1.271   4.578  11.962  0.2637 -1.6295 -1.7196
 9461SOL     OW40015   4.645   3.408  10.531  0.5174  0.1296 -0.2020
 9461SOL    HW140016   4.663   3.498  10.559 -1.5491 -0.2062  2.2867
 9461SOL    HW240017   4.735   3.376  10.535  0.6546  0.7252  1.6820
 9462SOL     OW40018   2.917   2.661   8.778 -0.3404 -0.2865 -0.4435
 9462SOL    HW140019   2.884   2.689   8.692 -2.3342 -1.2276  0.0216
 9462SOL    HW240020   2.872   2.578   8.790  0.4766 -0.5978  0.4753
 9463SOL     OW40021   0.036   1.918   5.626 -0.3799  0.4528 -0.5853
 9463SOL    HW140022   0.105   1.984   5.614  0.9660 -1.5472 -3.6246
 9463SOL    HW240023   4.723   1.934   5.547 -0.1394 -0.4838 -0.9211
 9464SOL     OW40024   4.329   2.673   3.575  0.0978 -0.0485  0.2239
 9464SOL    HW140025   4.342   2.715   3.660 -0.0149 -0.8860  0.6535
 9464SOL    HW240026   4.356   2.744   3.517 -0.8214 -0.0513 -0.2067
 9465SOL     OW40027   2.239   0.835   8.845 -0.3259 -0.3011  0.2438
 9465SOL    HW140028   2.230   0.913   8.791  3.3104 -0.1265 -0.1051
 9465SOL    HW240029   2.153   0.795   8.831 -0.5949  0.2539  0.3202
 9466SOL     OW40030   0.332   2.801   5.126 -0.5170  0.5124 -0.0477
 9466SOL    HW140031   0.317   2.834   5.038 -1.8472 -0.3796 -0.1692
 9466SOL    HW240032   0.246   2.814   5.166 -1.8504 -0.0467 -2.7394
 9467SOL     OW40033   1.301   2.336   2.041 -0.1784  0.0770 -0.4199
 9467SOL    HW140034   1.265   2.388   1.970  1.0445  1.1113 -0.2664
 9467SOL    HW240035   1.299   2.401   2.111 -0.2292  0.2346 -0.5705
 9468SOL     OW40036   0.007   3.948   2.202  0.0824  0.0768  0.2299
 9468SOL    HW140037   0.090   3.981   2.237 -1.5719  4.7910 -0.2253
 9468SOL    HW240038   0.040   3.872   2.155 -0.6863 -0.5675  0.7098
 9469SOL     OW40039   1.721   0.861   3.145 -0.4210 -0.0034  0.0200
 9469SOL    HW140040   1.632   0.850   3.112  0.1108 -4.3512  0.0563
 9469SOL    HW240041   1.727   0.775   3.187  0.0817 -0.2788 -0.6016
 9470SOL     OW40042   0.411   2.573   2.822  0.6935  0.1363  0.1658
 9470SOL    HW140043   0.355   2.548   2.896 -0.0787 -0.3089 -0.5621
 9470SOL    HW240044   0.361   2.536   2.749 -3.1014  0.9231  2.3325
 9471SOL     OW40045   2.103   1.661   7.529 -0.0113 -0.5953  0.0374
 9471SOL    HW140046   2.113   1.662   7.434  0.6388  2.0453  0.1240
 9471SOL    HW240047   2.153   1.583   7.552  0.0246 -0.3557  0.7721
 9472SOL     OW40048   0.695   4.149   9.122 -0.0765  0.7006  0.3079
 9472SOL    HW140049   0.615   4.190   9.152  0.1191  1.3166 -0.0108
 9472SOL    HW240050   0.697   4.167   9.028 -1.2106  0.5988  0.2724
 9473SOL     OW40051   3.857   4.651   6.769  0.8262 -0.1120 -0.4398
 9473SOL    HW140052   3.895   4.690   6.690 -1.5088  0.2581 -1.3565
 9473SOL    HW240053   3.861   4.737   6.811  0.0715 -1.1882  1.8185
 9474SOL     OW40054   0.404   3.860  15.817  0.0961 -0.1239  0.6048
 9474SOL    HW140055   0.473   3.818  15.868 -1.5025 -2.3425  0.9634
 9474SOL    HW240056   0.424   3.953  15.832  2.4418 -0.8094  1.7205
 9475SOL     OW40057   0.600   2.474   3.871  0.3083 -0.1245 -0.2120
 9475SOL    HW140058   0.540   2.401   3.883  0.2127  0.1858  1.2142
 9475SOL    HW240059   0.625   2.455   3.781 -3.5067 -3.6392 -0.5641
 9476SOL     OW40060   2.918   0.709   8.602  0.0228  0.3999 -0.0578
 9476SOL    HW140061   2.864   0.753   8.536  0.9811  2.8770  0.8200
 9476SOL    HW240062   2.856   0.699   8.674  1.1925  1.4620  1.0895
 9477SOL     OW40063   0.299   2.314   8.405 -0.1448 -0.1638  0.6091
 9477SOL    HW140064   0.344   2.391   8.370 -0.6968 -0.6586 -1.2212
 9477SOL    HW240065   0.232   2.315   8.337 -0.6861 -0.9031  1.1284
 9478SOL     OW40066   2.820   4.321   6.147  0.3557 -0.7959  0.5134
 9478SOL    HW140067   2.764   4.295   6.073  0.2777 -0.1682  0.3518
 9478SOL    HW240068   2.756   4.306   6.217 -2.3445 -1.7230 -2.1146
 9479SOL     OW40069   4.233   2.892   2.147 -0.8198 -0.2965  0.2321
 9479SOL    HW140070   4.255   2.829   2.217  0.2853  0.3336  0.4452
 9479SOL    HW240071   4.165   2.842   2.101 -1.7794  1.2903 -0.0525
 9480SOL     OW40072   0.766   2.798   8.404  0.3376  0.0671 -0.7550
 9480SOL    HW140073   0.779   2.808   8.498 -0.1746 -0.6024 -0.6100
 9480SOL    HW240074   0.759   2.703   8.403 -1.8925  0.2221 -0.5815
 9481SOL     OW40075   1.254   3.684   7.730 -0.0906  0.6249  0.4529
 9481SOL    HW140076   1.254   3.774   7.763 -0.5318  0.4393  0.9755
 9481SOL    HW240077   1.340   3.681   7.689  0.1847  0.6682  1.0249
 9482SOL     OW40078   0.605   1.775   2.861 -0.0540  0.2153 -0.3513
 9482SOL    HW140079   0.576   1.790   2.771 -1.0096  1.3221  0.1398
 9482SOL    HW240080   0.659   1.696   2.853 -0.4982 -0.1781  0.4927
 9483SOL     OW40081   4.340   2.538  11.381 -0.1742 -0.2483 -0.2546
 9483SOL    HW140082   4.252   2.570  11.362 -0.0129 -0.0112 -0.6010
 9483SOL    HW240083   4.373   2.578  11.462  1.9518 -1.6646 -0.4213
 9484SOL     OW40084   3.814   4.436   8.758 -0.2090  0.2946  0.1276
 9484SOL    HW140085   3.744   4.500   8.752 -1.2050 -0.9685 -1.6239
 9484SOL    HW240086   3.753   4.365   8.777  1.3882 -0.8530  1.0662
 9485SOL     OW40087   0.601   3.490   9.067 -0.0644  0.0046  0.0990
 9485SOL    HW140088   0.626   3.427   8.999 -0.5585  0.7008 -0.7349
 9485SOL    HW240089   0.682   3.540   9.077 -0.7027  0.9212  0.7392
 9486SOL     OW40090   3.403   3.552   2.796 -0.4024 -0.0083  0.4188
 9486SOL    HW140091   3.480   3.524   2.845  0.8922  0.9768 -1.0488
 9486SOL    HW240092   3.453   3.618   2.748 -1.1425  0.0779 -0.2413
 9487SOL     OW40093   2.091   1.562   5.186  0.2969 -0.4442 -0.1804
 9487SOL    HW140094   2.049   1.646   5.170  0.5595 -0.2409  0.1719
 9487SOL    HW240095   2.176   1.581   5.146  0.4894  1.3707  1.0718
 9488SOL     OW40096   2.215   3.396   3.048  0.2308  0.1966  0.0411
 9488SOL    HW140097   2.262   3.475   3.022 -0.2810  1.4639  2.9905
 9488SOL    HW240098   2.130   3.422   3.012  0.4558  0.5663 -0.2254
 9489SOL     OW40099   3.448   1.251  14.543 -0.8380  0.1990  0.1798
 9489SOL    HW140100   3.521   1.311  14.554 -0.3357 -0.4700  0.4477
 9489SOL    HW240101   3.487   1.178  14.495  2.1143  0.6830  1.8196
 9490SOL     OW40102   4.602   0.131   6.944  0.4506 -0.0080  0.3428
 9490SOL    HW140103   4.545   0.170   7.010  0.8460  1.6449 -0.2767
 9490SOL    HW240104   4.624   0.211   6.896 -1.9828  0.3883 -0.1095
 9491SOL     OW40105   3.220   3.975  10.085 -0.5372 -0.3128  0.0058
 9491SOL    HW140106   3.212   3.962  10.179  1.3854 -3.6292 -0.2700
 9491SOL    HW240107   3.247   3.886  10.060  0.6038  0.1767 -0.5374
 9492SOL     OW40108   1.821   2.272   2.680  0.2494 -0.6620 -0.0005
 9492SOL    HW140109   1.772   2.205   2.632 -1.4902 -0.2407  1.1893
 9492SOL    HW240110   1.768   2.282   2.759 -1.9573  0.7962 -1.6528
 9493SOL     OW40111   4.287   3.059  12.407 -0.1813 -0.3660 -0.2209
 9493SOL    HW140112   4.372   3.082  12.446 -1.0429 -0.7557  1.8658
 9493SOL    HW240113   4.269   3.140  12.360  2.1029 -1.1841 -2.5280
 9494SOL     OW40114   2.755   0.777   8.401 -0.1286  0.2053 -0.2419
 9494SOL    HW140115   2.801   0.700   8.369 -0.9676 -1.5332  2.6906
 9494SOL    HW240116   2.668   0.738   8.388  0.2628 -1.2874  1.6234
 9495SOL     OW40117   4.314   0.198   2.632 -0.5504 -0.3408  0.6767
 9495SOL    HW140118   4.252   0.127   2.615 -2.0471  0.9260  0.8643
 9495SOL    HW240119   4.304   0.227   2.723 -1.2385  3.8838 -0.7310
 9496SOL     OW40120   2.084   0.379  14.270 -0.2241  0.1111 -0.2099
 9496SOL    HW140121   2.166   0.400  14.225 -0.1597  1.3868  0.5220
 9496SOL    HW240122   2.034   0.359  14.191  0.5813 -2.1413 -0.1665
 9497SOL     OW40123   4.293   3.647   5.447 -0.1868  0.0035 -0.7575
 9497SOL    HW140124   4.340   3.632   5.529 -2.3919 -0.2971  0.4495
 9497SOL    HW240125   4.305   3.560   5.409  3.6524 -0.0037  0.4231
 9498SOL     OW40126   3.528   4.005   7.513  0.9059 -0.3574 -0.0022
 9498SOL    HW140127   3.619   4.020   7.487  1.0357 -1.6221 -0.2662
 9498SOL    HW240128   3.483   4.008   7.428  1.1433 -0.0533 -0.1204
 9499SOL     OW40129   2.990   2.469   6.097 -0.5204  0.9846 -0.0123
 9499SOL    HW140130   2.992   2.499   6.188 -1.5041 -1.1280  0.6842
 9499SOL    HW240131   3.079   2.434   6.092 -0.4813  1.3211 -1.6357
 9500SOL     OW40132   0.881   4.078   5.022  0.2412 -0.2620  0.0916
 9500SOL    HW140133   0.835   4.014   5.075  0.5523 -0.3150  0.3010
 9500SOL    HW240134   0.947   4.103   5.087  0.1044  2.2335 -0.7109
 9501SOL     OW40135   3.069   0.405  12.119  0.1924  0.4003  0.3498
 9501SOL    HW140136   3.086   0.342  12.049 -2.0761  2.0714 -1.7144
 9501SOL    HW240137   2.977   0.428  12.105  0.6129  1.2559 -0.9791
 9502SOL     OW40138   1.104   1.793   4.082  0.2314 -0.5500 -0.2706
 9502SOL    HW140139   1.027   1.842   4.053 -0.0187 -0.4065  0.6498
 9502SOL    HW240140   1.169   1.823   4.019  1.3347 -0.6338  0.8219
 9503SOL     OW40141   0.844   2.757   6.761  0.6898  0.1833  0.1976
 9503SOL    HW140142   0.912   2.817   6.791  1.7488 -0.7949 -0.2639
 9503SOL    HW240143   0.894   2.701   6.702 -1.5303  0.5437 -2.0095
 9504SOL     OW40144   2.677   3.759   2.562 -0.1438  0.1126 -0.3906
 9504SOL    HW140145   2.763   3.754   2.519  1.2488  0.3869  2.3643
 9504SOL    HW240146   2.700   3.761   2.655  0.3486  0.2587 -0.5116
 9505SOL     OW40147   0.736   1.295  13.667 -0.7767  0.3576  0.3625
 9505SOL    HW140148   0.744   1.233  13.739 -1.7374  0.8621  0.9039
 9505SOL    HW240149   0.820   1.271  13.627  0.1144  2.3927  0.9772
 9506SOL     OW40150   3.297   0.407   8.403  0.4659 -0.4210 -0.0869
 9506SOL    HW140151   3.219   0.398   8.458  1.2202 -0.5293  0.9592
 9506SOL    HW240152   3.277   0.458   8.324  1.8964 -1.5152 -1.1691
 9507SOL     OW40153   4.548   0.096  12.411  0.3004  0.3348  0.5144
 9507SOL    HW140154   4.634   0.081  12.371  2.0411  0.6525  4.0602
 9507SOL    HW240155   4.559   0.086  12.506  0.1018  1.9485  0.7092
 9508SOL     OW40156   1.764   4.413   8.495  0.3022  0.1252 -0.0299
 9508SOL    HW140157   1.699   4.467   8.451  2.4408  2.2286 -0.5894
 9508SOL    HW240158   1.708   4.340   8.524  0.5820 -1.4891 -3.5569
 9509SOL     OW40159   0.055   3.104   4.902 -0.7191  0.4309 -0.1814
 9509SOL    HW140160   0.008   3.100   4.985 -0.0352  2.0428  0.3066
 9509SOL    HW240161   4.722   3.117   4.839 -2.2994 -2.1586  1.0942
 9510SOL     OW40162   4.712   4.135   0.362  0.0022 -0.1573 -0.3403
 9510SOL    HW140163   4.669   4.204   0.412 -0.4233 -1.6115  1.3217
 9510SOL    HW240164   4.650   4.062   0.366 -1.1048  0.6788 -2.8244
 9511SOL     OW40165   2.926   3.434   8.850 -0.0717 -0.0318 -0.1686
 9511SOL    HW140166   2.886   3.366   8.796 -0.1127 -0.5792  0.5600
 9511SOL    HW240167   2.934   3.512   8.794 -0.8996  1.1240  1.3301
 9512SOL     OW40168   0.431   1.434  10.339 -0.0437 -0.0942  0.0753
 9512SOL    HW140169   0.489   1.493  10.292  0.4844  0.2953  1.2013
 9512SOL    HW240170   0.438   1.354  10.286  2.6032  0.1804  0.0179
 9513SOL     OW40171   3.101   2.220   9.966  1.0025  0.1711 -0.5140
 9513SOL    HW140172   3.083   2.147   9.906 -1.7042  1.8852 -1.7799
 9513SOL    HW240173   3.151   2.279   9.911 -0.1883  3.1772  1.6402
 9514SOL     OW40174   0.590   4.425   2.195  0.6648  0.2740 -0.4973
 9514SOL    HW140175   0.505   4.386   2.216  0.2167  1.1627 -0.6640
 9514SOL    HW240176   0.642   4.345   2.206  1.9647  1.1217 -0.4887
 9515SOL     OW40177   3.021   3.166  13.722  0.1247 -0.3195 -0.0363
 9515SOL    HW140178   3.009   3.162  13.628  2.3917 -1.5675 -0.2821
 9515SOL    HW240179   2.942   3.124  13.757 -0.5722  0.6914 -0.4086
 9516SOL     OW40180   2.817   1.867   8.021 -0.1863 -0.6717 -0.3692
 9516SOL    HW140181   2.870   1.839   8.095 -0.1661  1.0702  0.2817
 9516SOL    HW240182   2.885   1.874   7.954  0.0306  0.1035 -0.0710
 9517SOL     OW40183   1.631   2.013   4.356  0.0235 -0.4000  0.0410
 9517SOL    HW140184   1.616   1.927   4.318 -1.3433  0.3327 -1.0802
 9517SOL    HW240185   1.694   1.972   4.415  0.4228 -0.5889 -0.5133
 9518SOL     OW40186   3.321   3.439  14.210  0.3451 -0.1292  0.2640
 9518SOL    HW140187   3.254   3.371  14.212 -0.7789  1.0363  1.7425
 9518SOL    HW240188   3.270   3.518  14.195  1.1956  0.1922 -0.9311
 9519SOL     OW40189   1.356   0.084  11.612 -0.1038 -0.4852 -0.0962
 9519SOL    HW140190   1.333   0.015  11.550 -2.1835 -0.8724  1.1150
 9519SOL    HW240191   1.363   0.036  11.695 -1.0360 -0.4988 -0.0231
 9520SOL     OW40192   2.905   0.334   5.274  0.0528 -0.0913  0.4636
 9520SOL    HW140193   2.986   0.320   5.325 -0.0688 -1.7908  0.1998
 9520SOL    HW240194   2.836   0.348   5.338 -0.1259  2.6929 -0.3672
 9521SOL     OW40195   0.329   0.415   2.131 -0.2331  0.8547  0.3269
 9521SOL    HW140196   0.423   0.418   2.113 -0.5848  2.6529 -1.1540
 9521SOL    HW240197   0.310   0.334   2.083 -1.3776  1.8876 -0.9577
 9522SOL     OW40198   2.428   2.332   4.994  0.0866  0.0569  0.4059
 9522SOL    HW140199   2.440   2.411   4.941  0.4841 -0.9516 -1.0146
 9522SOL    HW240200   2.333   2.326   5.001 -0.1137  2.2642 -0.5654
 9523SOL     OW40201   1.547   4.118  11.204  0.0514  0.1160 -0.0662
 9523SOL    HW140202   1.642   4.117  11.213  0.0454 -1.8501 -0.1316
 9523SOL    HW240203   1.540   4.041  11.147 -0.5034  0.3604 -0.3222
 9524SOL     OW40204   4.138   1.917   6.782  0.0670 -0.1971  0.1342
 9524SOL    HW140205   4.186   1.993   6.751  0.6242  0.1233  1.7410
 9524SOL    HW240206   4.175   1.850   6.724 -0.3139 -0.8704  0.6715
 9525SOL     OW40207   0.435   0.540   0.351 -0.5292  0.4379  0.2589
 9525SOL    HW140208   0.417   0.604   0.420  2.5992  1.8791 -0.2424
 9525SOL    HW240209   0.494   0.474   0.386  1.4481  2.0499 -0.0449
 9526SOL     OW40210   2.241   1.763   3.961  0.5165 -0.4175 -0.3473
 9526SOL    HW140211   2.224   1.777   4.054  2.2391 -1.5816  0.1474
 9526SOL    HW240212   2.159   1.749   3.914  1.3866 -1.2309 -1.6292
 9527SOL     OW40213   3.713   4.717   8.344  0.0264 -0.7424 -0.0991
 9527SOL    HW140214   3.756   4.632   8.336  1.1696 -0.3676  2.1352
 9527SOL    HW240215   3.688   4.722   8.436 -1.3316  0.5774 -0.5451
 9528SOL     OW40216   3.786   2.037   8.175  0.0329 -0.3704  0.0028
 9528SOL    HW140217   3.784   2.077   8.088  3.4858 -0.2535 -0.0186
 9528SOL    HW240218   3.691   2.045   8.186  0.3187  2.2921  0.6660
 9529SOL     OW40219   4.681   4.498  16.612  0.1417 -0.0993 -0.1378
 9529SOL    HW140220   0.025   4.544  16.633 -0.1168  1.6312 -3.0272
 9529SOL    HW240221   4.621   4.552  16.664  0.6345  1.4297 -1.1433
 9530SOL     OW40222   3.870   0.111   8.631  0.1348  0.6852 -0.3152
 9530SOL    HW140223   3.894   0.022   8.604  1.2441  1.2688 -1.2483
 9530SOL    HW240224   3.917   0.164   8.568  0.0283 -0.4147 -1.3199
 9531SOL     OW40225   3.580   1.184   5.119  0.2326 -0.4017 -0.0111
 9531SOL    HW140226   3.543   1.134   5.047  0.3818  0.1841 -0.4973
 9531SOL    HW240227   3.585   1.271   5.079 -0.2396 -1.5071 -2.4537
 9532SOL     OW40228   1.400   4.574   1.921 -0.4022  0.7551  0.2782
 9532SOL    HW140229   1.431   4.599   1.834  0.7110 -0.8676  0.2136
 9532SOL    HW240230   1.450   4.640   1.970  0.1060 -1.2608  2.4382
 9533SOL     OW40231   2.756   0.907   5.161 -0.4858  0.2519 -0.2747
 9533SOL    HW140232   2.717   0.965   5.096  0.7445  0.5572 -0.7410
 9533SOL    HW240233   2.840   0.895   5.117 -0.6711 -0.6534 -0.3721
 9534SOL     OW40234   0.695   2.428   3.008  0.0743  0.5387  0.3169
 9534SOL    HW140235   0.788   2.406   3.008 -0.6001 -2.3399 -0.7840
 9534SOL    HW240236   0.689   2.500   2.945 -2.0655  0.1579  0.0863
 9535SOL     OW40237   1.493   0.300   7.550  0.5056  0.9831  0.7662
 9535SOL    HW140238   1.459   0.226   7.498  1.8955  0.7494  0.1840
 9535SOL    HW240239   1.494   0.263   7.638 -0.9226 -1.3533 -0.1817
 9536SOL     OW40240   2.235   4.290   5.167 -0.2075 -0.4119  0.2823
 9536SOL    HW140241   2.208   4.357   5.104  0.6860 -0.8874 -0.6199
 9536SOL    HW240242   2.299   4.344   5.213  0.7182 -0.7993 -0.5502
 9537SOL     OW40243   1.603   0.960  12.892  0.0136  0.1553  0.1174
 9537SOL    HW140244   1.541   1.031  12.876  1.5398  1.7498  1.2302
 9537SOL    HW240245   1.549   0.883  12.910 -0.7152  0.6492  0.0251
 9538SOL     OW40246   3.037   2.676   4.879  0.2092 -0.0034 -0.3477
 9538SOL    HW140247   3.121   2.657   4.921 -0.1206 -1.2957 -0.2855
 9538SOL    HW240248   2.982   2.716   4.946  0.1582 -2.1118  0.8780
 9539SOL     OW40249   0.428   4.537   6.649  0.1646 -0.2051  0.3610
 9539SOL    HW140250   0.462   4.458   6.692 -0.1892 -0.6981 -0.2715
 9539SOL    HW240251   0.474   4.600   6.705  0.3608  0.7737 -0.9294
 9540SOL     OW40252   1.616   3.627  13.767 -0.6176 -0.5005  0.1676
 9540SOL    HW140253   1.648   3.645  13.855  0.6886 -0.2338 -0.3569
 9540SOL    HW240254   1.615   3.532  13.767  0.3924 -0.5149 -0.9865
 9541SOL     OW40255   4.608   0.959   3.839  0.3400  0.4600 -0.3819
 9541SOL    HW140256   4.653   1.034   3.877 -2.8682  0.9373  2.4831
 9541SOL    HW240257   4.520   0.992   3.825  0.2682  0.9867  1.2402
 9542SOL     OW40258   2.072   4.329   3.344 -0.0849  0.1134 -0.0103
 9542SOL    HW140259   2.121   4.329   3.426  1.4603  0.2588 -0.9268
 9542SOL    HW240260   1.992   4.290   3.380 -1.1027  2.2389  0.0440
 9543SOL     OW40261   0.138   2.649  12.364 -0.4044 -0.1848  0.3258
 9543SOL    HW140262   0.206   2.646  12.431  0.2030  0.9496 -0.2517
 9543SOL    HW240263   0.107   2.560  12.349  1.7212 -0.8705 -0.0784
 9544SOL     OW40264   4.345   3.960   7.775 -0.6365  0.7182 -0.3233
 9544SOL    HW140265   4.316   3.908   7.851  1.5088 -0.5546 -0.3774
 9544SOL    HW240266   4.437   3.935   7.764 -1.1311 -0.1697 -2.4652
 9545SOL     OW40267   2.425   0.666   8.711 -0.3646  0.2583 -0.0267
 9545SOL    HW140268   2.362   0.725   8.751 -1.7292 -0.9474 -0.4002
 9545SOL    HW240269   2.444   0.601   8.779 -2.6712  0.9239  1.2544
 9546SOL     OW40270   4.640   2.917   7.323 -0.5464 -0.2546 -0.3978
 9546SOL    HW140271   4.693   2.907   7.402 -0.9496  0.6643 -0.0123
 9546SOL    HW240272   4.629   2.825   7.301  0.1411 -0.6271  0.8296
 9547SOL     OW40273   3.817   2.542   6.355  0.0787  0.0953  0.1424
 9547SOL    HW140274   3.877   2.563   6.284 -1.6466  2.4081 -0.6476
 9547SOL    HW240275   3.804   2.448   6.341  0.8114  0.0665 -0.3295
 9548SOL     OW40276   2.349   3.238  16.781  0.6413  0.6971 -0.2414
 9548SOL    HW140277   2.369   3.147  16.759  1.3070  1.5659 -3.3015
 9548SOL    HW240278   2.256   3.231  16.804  0.9558 -2.8959 -0.1057
 9549SOL     OW40279   3.096   1.329  10.922 -0.2564  0.0354 -0.1684
 9549SOL    HW140280   3.075   1.383  10.845  1.4397  1.1222  0.1169
 9549SOL    HW240281   3.044   1.249  10.912 -1.7046  0.9030  0.4430
 9550SOL     OW40282   0.750   3.145  13.591 -0.3533 -0.4476  0.0198
 9550SOL    HW140283   0.810   3.212  13.558  0.7932 -1.4902 -0.0467
 9550SOL    HW240284   0.664   3.186  13.595 -0.3846 -0.8530  3.3671
 9551SOL     OW40285   0.928   2.147   8.807 -0.1585  0.2622  0.1888
 9551SOL    HW140286   1.018   2.125   8.781  0.0563  0.3181  0.8808
 9551SOL    HW240287   0.898   2.202   8.735  2.0914 -0.4336 -1.2726
 9552SOL     OW40288   3.985   0.608  12.837  0.0326 -0.6161 -0.1945
 9552SOL    HW140289   4.051   0.637  12.775  1.8163 -1.2928  1.3922
 9552SOL    HW240290   3.913   0.671  12.829 -1.2712 -1.9388  1.1998
 9553SOL     OW40291   2.101   0.515  10.211 -0.2305  0.2209  0.3554
 9553SOL    HW140292   2.026   0.469  10.174  1.2400  0.0138 -2.4163
 9553SOL    HW240293   2.083   0.608  10.203  0.0229  0.1416 -1.1456
 9554SOL     OW40294   2.551   0.399   1.792 -0.2009  0.3682  0.0384
 9554SOL    HW140295   2.546   0.389   1.697  1.1556  1.6637 -0.1815
 9554SOL    HW240296   2.501   0.324   1.823  1.0012  0.0237  1.1683
 9555SOL     OW40297   0.477   0.665   8.807  0.5397  0.1545  0.4878
 9555SOL    HW140298   0.425   0.648   8.885  0.5001 -1.6200  0.0754
 9555SOL    HW240299   0.457   0.586   8.757  0.8564 -0.3173  1.0935
 9556SOL     OW40300   2.332   1.470   8.576 -0.1174  0.0279  0.5373
 9556SOL    HW140301   2.309   1.546   8.629  2.1555  2.6090 -2.1703
 9556SOL    HW240302   2.248   1.424   8.572 -0.1508  0.3188 -2.0313
 9557SOL     OW40303   4.401   3.860   1.985 -0.4505  0.3360 -0.2926
 9557SOL    HW140304   4.350   3.915   2.044 -2.2640 -1.1526 -0.4950
 9557SOL    HW240305   4.382   3.774   2.022  1.4493 -0.5313 -1.3049
 9558SOL     OW40306   3.450   3.072   8.686 -0.0199 -0.5308  0.5843
 9558SOL    HW140307   3.488   2.999   8.735 -0.2207 -1.0104  0.0286
 9558SOL    HW240308   3.410   3.114   8.762  1.1125 -0.5018  1.1700
 9559SOL     OW40309   3.503   1.730   2.514  0.3096  0.4276 -0.1533
 9559SOL    HW140310   3.524   1.823   2.509 -0.6340  0.6545  0.0525
 9559SOL    HW240311   3.504   1.716   2.609  0.1995  2.6190  0.1644
 9560SOL     OW40312   3.093   1.690   1.995  0.7443  0.8614 -0.0005
 9560SOL    HW140313   3.039   1.750   1.945 -1.5290  0.4706  1.9892
 9560SOL    HW240314   3.110   1.737   2.077 -0.7818 -0.2157  0.9431
 9561SOL     OW40315   3.109   0.538   9.134 -0.7841 -0.3430  0.2396
 9561SOL    HW140316   3.086   0.616   9.185  0.5521  0.5572 -0.5104
 9561SOL    HW240317   3.201   0.560   9.118 -0.4945 -2.9648 -1.6450
 9562SOL     OW40318   4.385   4.683   4.373 -0.3142  0.6441 -1.1480
 9562SOL    HW140319   4.424   4.597   4.357 -1.1694 -0.0192  0.3687
 9562SOL    HW240320   4.457   0.008   4.367 -0.1500  0.5952  0.3248
 9563SOL     OW40321   4.526   2.298   5.067  0.2754 -0.5015  0.4365
 9563SOL    HW140322   4.464   2.302   5.140 -0.0524 -0.2730  0.1434
 9563SOL    HW240323   4.460   2.307   4.998 -1.2710 -0.4762  1.9138
 9564SOL     OW40324   1.866   4.269  10.610  0.4894  0.3726 -1.1734
 9564SOL    HW140325   1.834   4.186  10.574 -0.0233 -0.1321  0.4673
 9564SOL    HW240326   1.833   4.258  10.699  2.0946 -0.1949 -0.6447
 9565SOL     OW40327   1.649   1.424   7.067 -0.2861 -0.0659 -0.4329
 9565SOL    HW140328   1.619   1.510   7.096 -0.5219 -0.8383  1.5957
 9565SOL    HW240329   1.631   1.371   7.145 -1.7080  0.0641 -0.6609
 9566SOL     OW40330   3.500   0.441   9.344  0.0769 -0.1291 -0.3314
 9566SOL    HW140331   3.545   0.480   9.419  1.0372 -2.8018  0.4846
 9566SOL    HW240332   3.412   0.430   9.380  0.4193  0.7058  0.7993
 9567SOL     OW40333   4.268   3.474   9.255  0.3231 -0.3251  1.0980
 9567SOL    HW140334   4.239   3.401   9.200 -0.8987  1.3708 -0.5055
 9567SOL    HW240335   4.194   3.471   9.315  1.2850  1.0455  2.3300
 9568SOL     OW40336   4.167   0.934   5.009  0.1652  0.8084  0.2047
 9568SOL    HW140337   4.198   0.874   4.941  0.7666 -1.0603  2.1152
 9568SOL    HW240338   4.230   0.919   5.080  2.7549 -1.7479 -2.6197
 9569SOL     OW40339   4.017   1.334   2.598  0.1662  0.3057  0.0763
 9569SOL    HW140340   4.102   1.323   2.556 -0.2480 -0.2654 -0.6127
 9569SOL    HW240341   3.986   1.408   2.547 -0.2914  0.2693  0.3034
 9570SOL     OW40342   2.862   4.428   2.838  0.2364  0.2405 -0.4162
 9570SOL    HW140343   2.829   4.517   2.846  0.7640  0.1981  2.2289
 9570SOL    HW240344   2.786   4.388   2.795 -1.4470  1.3414  1.5208
 9571SOL     OW40345   3.578   0.752  14.957  0.0729  0.0216  0.0302
 9571SOL    HW140346   3.560   0.713  14.872 -0.6006 -1.1338  0.6988
 9571SOL    HW240347   3.557   0.675  15.010  1.1472 -0.3834 -0.1330
   4.73782   4.73782  17.74944
