Membrane in water
40347
    1TMC1    C1    1   1.808   1.010  10.929  0.3376 -0.0957 -0.3838
    1TMC1    C2    2   1.887   1.113  10.958 -0.4481  0.4455  0.2970
    1TMC1    C3    3   2.014   1.122  10.900  0.1132  0.1075 -0.3377
    1TMC1    C4    4   1.857   0.902  10.859  0.3671 -0.0149 -0.3649
    1TMC1    C5    5   1.987   0.906  10.814  0.4568  0.2896 -0.4891
    1TMC1    C6    6   2.064   1.020  10.830 -0.0722 -0.2816 -0.0364
    1TMC1     C    7   1.673   0.997  10.981  0.0225 -0.2543 -0.6935
    1TMC1     O    8   1.653   1.049  11.092 -1.1533 -0.0489  0.5201
    1TMC1     H    9   1.851   1.192  11.024  2.8630  2.6585 -0.5716
    1TMC1    H1   10   1.804   0.807  10.853 -2.0349  1.3399 -0.3453
    1TMC1    H2   11   2.167   1.031  10.799 -0.2134 -1.0368 -0.7868
    1TMC1    C7   12   2.049   0.782  10.770  0.2088 -0.2902  0.0182
    1TMC1    C8   13   2.108   1.224  10.944  0.8789 -0.4781  0.0561
    1TMC1    O1   14   1.994   0.687  10.726 -0.3555  0.5651  0.2067
    1TMC1    O2   15   2.227   1.227  10.928  0.4486 -0.3051  0.0814
    1TMC1    O3   16   2.174   0.776  10.821  0.2642  0.0593 -0.4778
    1TMC1    H3   17   2.199   0.860  10.865 -2.4902  0.9709 -0.6891
    1TMC1    O5   18   2.032   1.340  10.946  0.0026 -0.0472 -0.6104
    1TMC1    H5   19   1.935   1.344  10.929 -0.4602  1.3093  2.3255
    2MPD2     C   20   1.236   0.737  10.990  0.1295 -0.6449 -0.0159
    2MPD2    C1   21   1.304   0.801  11.098 -0.0769  0.1079  0.6266
    2MPD2    C2   22   1.414   0.880  11.067 -0.0595  0.0061 -0.2358
    2MPD2    C3   23   1.462   0.877  10.935 -0.3916 -0.1523  0.6403
    2MPD2    C4   24   1.385   0.822  10.838 -0.8498  0.0923  0.5790
    2MPD2    C5   25   1.274   0.759  10.865 -0.3574  1.1414  0.8514
    2MPD2     H   26   1.471   0.925  11.147 -1.9053  1.2421  0.3884
    2MPD2    H1   27   1.425   0.811  10.738 -1.2782 -1.9632  0.6315
    2MPD2    H2   28   1.153   0.668  10.998 -0.6821  0.3298 -0.0401
    2MPD2    H3   29   1.232   0.700  10.785  0.2528  1.8178  0.0373
    2MPD2     N   30   1.588   0.926  10.896  0.0256  0.1606 -0.2552
    2MPD2    H5   31   1.612   0.914  10.798  0.2763 -0.7542 -0.0902
    2MPD2    N1   32   1.271   0.783  11.226  0.0515  0.1604 -0.3439
    2MPD2    H7   33   1.330   0.821  11.299  0.3657 -1.4770  0.2693
    3TMC1    C1   34   0.689   1.079  10.907  0.0578  0.6929  0.8188
    3TMC1    C2   35   0.617   1.025  10.798  0.0510  0.0347  0.0305
    3TMC1    C3   36   0.674   1.023  10.675 -0.3712 -0.1809 -1.6546
    3TMC1    C4   37   0.818   1.127  10.892  0.1624  0.0122 -0.4038
    3TMC1    C5   38   0.864   1.136  10.763 -0.0696  0.4304 -0.1377
    3TMC1    C6   39   0.803   1.073  10.659  0.9566 -0.2426 -0.2639
    3TMC1     C   40   0.620   1.102  11.029  0.0638  0.5683  0.1270
    3TMC1     O   41   0.530   1.020  11.061 -0.3294 -0.3004 -0.4555
    3TMC1     H   42   0.517   0.987  10.809  0.2535 -0.8901 -1.4088
    3TMC1    H1   43   0.886   1.160  10.969  0.8692 -2.1599 -0.1064
    3TMC1    H2   44   0.849   1.063  10.562  0.0259  1.4286 -0.8783
    3TMC1    C7   45   1.003   1.152  10.748  0.7282  0.9547 -0.4984
    3TMC1    C8   46   0.597   0.925  10.588 -0.3738 -0.3373 -0.5404
    3TMC1    O1   47   1.051   1.263  10.766 -0.3214 -0.5371 -0.4730
    3TMC1    O2   48   0.540   0.832  10.646 -0.4717 -0.7384 -0.0125
    3TMC1    O3   49   1.050   1.039  10.794 -0.7591 -0.7674  0.1139
    3TMC1    H3   50   0.991   0.962  10.778 -3.0483  0.9747  0.1796
    3TMC1    O5   51   0.667   0.917  10.473  0.0646  0.1930  0.1792
    3TMC1    H5   52   0.704   1.002  10.442 -0.1969  0.2021 -0.1138
    4MPD2     C   53   0.494   1.401  11.436 -0.3848  0.4949  0.4960
    4MPD2    C1   54   0.570   1.478  11.345 -0.7972  0.4101  0.1393
    4MPD2    C2   55   0.624   1.411  11.233 -0.7280  0.0055 -0.8197
    4MPD2    C3   56   0.597   1.276  11.204 -0.4874 -0.7769  0.0748
    4MPD2    C4   57   0.523   1.204  11.299  0.5450  0.3367  0.0008
    4MPD2    C5   58   0.477   1.265  11.416  0.9753 -0.4740 -0.0950
    4MPD2     H   59   0.687   1.472  11.170 -1.4587 -0.4444 -1.9771
    4MPD2    H1   60   0.499   1.101  11.276  0.7731  0.4378 -0.6747
    4MPD2    H2   61   0.445   1.434  11.527  0.5905 -0.5612  1.4078
    4MPD2    H3   62   0.426   1.202  11.489 -1.5228 -0.4379 -1.8146
    4MPD2     N   63   0.651   1.221  11.083  0.6403  0.8315  0.4076
    4MPD2    H5   64   0.704   1.286  11.024  2.6511 -0.9105  0.2930
    4MPD2    N1   65   0.603   1.611  11.373  0.5903  0.2768 -0.1046
    4MPD2    H7   66   0.653   1.664  11.303 -0.1759 -0.5066 -1.2482
    5TCq1    O1   67   0.127   3.483  11.514  0.3441  0.2597 -0.5417
    5TCq1    C1   68   0.257   3.456  11.520  0.2170 -0.1655 -0.9319
    5TCq1    O2   69   0.331   3.460  11.617 -0.3855  0.1396  0.0204
    5TCq1    C2   70   0.308   3.464  11.386  0.0458 -0.1615 -0.5349
    5TCq1    C3   71   0.248   3.391  11.289 -0.2283 -0.3940  0.1567
    5TCq1    C4   72   0.310   3.370  11.170  0.9176  0.2528 -0.2576
    5TCq1    C5   73   0.439   3.409  11.159 -0.1549  0.3656  0.4156
    5TCq1    C6   74   0.500   3.474  11.260  0.3999  0.0923 -1.0390
    5TCq1    C7   75   0.442   3.504  11.376  0.7287  0.2022 -0.7127
    5TCq1    C8   76   0.645   3.463  11.253 -0.6183 -0.3845  0.3523
    5TCq1    O4   77   0.693   3.371  11.189  0.0792 -0.1228  0.0948
    5TCq1    C9   78   0.244   3.291  11.065  0.4708 -0.6646 -0.4438
    5TCq1    O5   79   0.316   3.217  10.987 -0.1793 -0.2146 -0.8323
    5TCq1    O6   80   0.120   3.288  11.058  0.5787  0.0025 -0.3394
    5TCq1    H1   81   0.094   3.483  11.421  1.3920 -0.6391 -0.9082
    5TCq1    H2   82   0.150   3.345  11.302  0.8460 -2.2231  1.6511
    5TCq1    H3   83   0.489   3.396  11.063 -1.8527 -2.3335 -0.0926
    5TCq1    H4   84   0.492   3.541  11.465 -0.7952 -3.7779  1.7978
    6MPD2     C   85   0.897   3.672  11.416 -0.3307  0.0448  0.0983
    6MPD2    C1   86   0.848   3.559  11.359 -0.3862 -0.4209  1.2118
    6MPD2    C2   87   0.944   3.469  11.318  0.7480  0.1188 -1.2408
    6MPD2    C3   88   1.079   3.490  11.317 -0.1114 -0.9416 -0.3159
    6MPD2    C4   89   1.128   3.612  11.360  0.0528 -0.7376 -0.2224
    6MPD2    C5   90   1.034   3.692  11.421 -0.2325 -0.2619  0.0855
    6MPD2     H   91   0.909   3.375  11.275  0.7620 -1.2385  1.6793
    6MPD2    H1   92   1.234   3.635  11.369  0.1685 -1.3118 -0.0939
    6MPD2    H2   93   0.823   3.745  11.448 -2.1888 -1.7069 -0.1782
    6MPD2    H3   94   1.066   3.784  11.468 -2.6390  1.2359 -1.2597
    6MPD2     N   95   1.163   3.390  11.276 -0.5705  0.1448  0.4241
    6MPD2    H5   96   1.119   3.299  11.269 -1.1744  0.5407 -0.9415
    6MPD2    N1   97   0.708   3.557  11.333 -0.6988 -0.5864 -0.0931
    6MPD2    H7   98   0.644   3.627  11.368 -0.6556 -1.3204  1.4405
    7TCq1    O1   99   3.217   3.022  12.806 -0.5559 -0.4199  0.0183
    7TCq1    C1  100   3.328   3.106  12.816  0.1205 -0.0016 -0.0544
    7TCq1    O2  101   3.342   3.209  12.755  0.2414  0.1871  0.1843
    7TCq1    C2  102   3.390   3.076  12.946  0.3640 -0.2275 -0.4182
    7TCq1    C3  103   3.439   3.181  13.020 -0.4849 -0.1667  0.0730
    7TCq1    C4  104   3.479   3.149  13.152  0.3834  0.6957  0.0097
    7TCq1    C5  105   3.504   3.021  13.189 -0.1455  0.3541  0.7502
    7TCq1    C6  106   3.466   2.920  13.100  0.3041  0.1611 -0.6031
    7TCq1    C7  107   3.421   2.946  12.974 -0.5756 -0.3478 -0.1492
    7TCq1    C8  108   3.528   2.794  13.112  0.5943  0.1151 -0.1363
    7TCq1    O4  109   3.470   2.694  13.072  0.2142 -0.4284  0.3789
    7TCq1    C9  110   3.512   3.257  13.247  0.3298 -0.5453  0.3868
    7TCq1    O5  111   3.458   3.366  13.230 -0.4925  0.1762  0.5648
    7TCq1    O6  112   3.568   3.219  13.353  0.4827  0.0846 -0.0190
    7TCq1    H1  113   3.228   2.939  12.858  0.0098 -0.9514 -0.9469
    7TCq1    H2  114   3.410   3.282  12.993  0.8016  0.3916  0.7828
    7TCq1    H3  115   3.534   3.007  13.292  2.5154  0.9077  0.0592
    7TCq1    H4  116   3.387   2.870  12.905 -0.1612 -2.5326  2.0664
    8MPD2     C  117   3.873   2.528  13.357 -0.2773 -0.4947 -0.0129
    8MPD2    C1  118   3.744   2.491  13.329  0.3787  0.4299 -0.1389
    8MPD2    C2  119   3.670   2.588  13.271  0.6776  0.4983  0.0572
    8MPD2    C3  120   3.722   2.718  13.246 -0.1508  0.1562 -0.3615
    8MPD2    C4  121   3.839   2.753  13.291 -0.2546  0.2521 -0.1698
    8MPD2    C5  122   3.925   2.659  13.338  0.3667  0.5932  0.0049
    8MPD2     H  123   3.571   2.567  13.234  0.6356  0.7910  0.0024
    8MPD2    H1  124   3.886   2.845  13.259  0.2564 -0.4904 -1.5141
    8MPD2    H2  125   3.939   2.456  13.405  2.3440  2.0627  0.2170
    8MPD2    H3  126   4.030   2.683  13.352  1.5078 -3.6178 -1.4542
    8MPD2     N  127   3.647   2.812  13.182 -0.0318 -0.4862  0.4132
    8MPD2    H5  128   3.682   2.907  13.176  2.1925 -1.3190  0.3023
    8MPD2    N1  129   3.694   2.362  13.366  0.3267  0.4374  0.7786
    8MPD2    H7  130   3.758   2.299  13.413  1.7670  0.5162 -1.0384
    9TMC1    C1  131   1.928   1.712  11.305 -0.3469  0.6703  0.3948
    9TMC1    C2  132   1.905   1.579  11.314  0.4141  0.4080  0.2165
    9TMC1    C3  133   1.987   1.496  11.233  0.6784 -0.5520 -0.1610
    9TMC1    C4  134   2.039   1.759  11.234 -0.0645 -0.1729 -0.4923
    9TMC1    C5  135   2.123   1.666  11.177 -0.3439 -0.0401  0.0842
    9TMC1    C6  136   2.105   1.533  11.177 -0.1527 -0.0286 -0.1995
    9TMC1     C  137   1.830   1.815  11.338  0.3222  0.2129  0.3634
    9TMC1     O  138   1.870   1.931  11.339  0.0748  0.0046 -0.2893
    9TMC1     H  139   1.820   1.536  11.366 -0.6642  0.8043 -1.2558
    9TMC1    H1  140   2.056   1.865  11.246  1.0299 -0.4463  0.4062
    9TMC1    H2  141   2.158   1.460  11.116  1.1262  1.1102 -0.4528
    9TMC1    C7  142   2.238   1.725  11.111 -0.7884  0.5303 -0.0404
    9TMC1    C8  143   1.977   1.356  11.263  0.0597  0.2435 -0.3525
    9TMC1    O1  144   2.244   1.845  11.107 -0.4434 -0.7654 -0.8531
    9TMC1    O2  145   2.081   1.296  11.290 -0.1923 -0.2834 -0.4867
    9TMC1    O3  146   2.342   1.638  11.124 -0.0142 -0.2766 -0.2664
    9TMC1    H3  147   2.318   1.543  11.127  0.1495 -0.3595 -1.4149
    9TMC1    O5  148   1.853   1.321  11.295  0.1603 -0.3088  0.1259
    9TMC1    H5  149   1.795   1.376  11.238 -0.2961 -0.9114  0.0065
   10MPD2     C  150   1.617   2.005  11.408  0.6432  0.5836  0.5784
   10MPD2    C1  151   1.612   1.865  11.435 -0.7495 -0.0281  0.1121
   10MPD2    C2  152   1.511   1.825  11.517  0.5222 -0.8099 -0.9734
   10MPD2    C3  153   1.432   1.919  11.579 -0.3737  0.6712  0.4040
   10MPD2    C4  154   1.444   2.048  11.556 -0.5435  0.2087  0.1189
   10MPD2    C5  155   1.535   2.092  11.459  0.1736 -0.1417  0.1009
   10MPD2     H  156   1.487   1.721  11.536 -0.8228 -0.2376  0.5182
   10MPD2    H1  157   1.380   2.124  11.600 -0.8787 -0.0874  0.1416
   10MPD2    H2  158   1.694   2.054  11.349  1.1830 -2.0229 -0.8748
   10MPD2    H3  159   1.550   2.195  11.428  1.6667 -0.9647 -1.9157
   10MPD2     N  160   1.335   1.888  11.673  0.5369 -0.1059 -0.3019
   10MPD2    H5  161   1.298   1.964  11.729  2.0112 -0.0559  0.5942
   10MPD2    N1  162   1.710   1.775  11.395  0.0080  0.1646 -1.0155
   10MPD2    H7  163   1.687   1.677  11.409  1.0936 -0.0443 -0.7258
   11TCq1    O1  164   1.502   1.089  15.343 -0.1684 -0.1417  0.1104
   11TCq1    C1  165   1.434   1.196  15.297  0.0095 -0.3677 -0.4754
   11TCq1    O2  166   1.354   1.179  15.206  0.2208  0.1435 -0.0109
   11TCq1    C2  167   1.539   1.298  15.280 -0.2576 -0.1051  0.0569
   11TCq1    C3  168   1.588   1.357  15.392  0.0115 -1.1796 -0.6972
   11TCq1    C4  169   1.679   1.460  15.374  0.3121  0.7569  0.6822
   11TCq1    C5  170   1.703   1.509  15.252 -0.0251 -0.0518  0.4383
   11TCq1    C6  171   1.646   1.458  15.144 -0.4455 -0.0260 -0.2788
   11TCq1    C7  172   1.566   1.350  15.152  0.0996 -0.3893 -0.0327
   11TCq1    C8  173   1.655   1.531  15.017 -0.0528 -0.0248  0.2209
   11TCq1    O4  174   1.692   1.651  15.016 -0.1395  0.0252 -0.1708
   11TCq1    C9  175   1.735   1.527  15.490  0.5490  0.4937  0.0536
   11TCq1    O5  176   1.807   1.627  15.477  0.2187 -0.1181  0.0551
   11TCq1    O6  177   1.700   1.480  15.600  0.2280  0.3628 -0.1211
   11TCq1    H1  178   1.557   1.117  15.419 -0.5345  0.3480  0.1998
   11TCq1    H2  179   1.554   1.335  15.493 -0.5151  0.7861 -0.4592
   11TCq1    H3  180   1.780   1.586  15.248  0.6279 -0.7061  0.4027
   11TCq1    H4  181   1.524   1.300  15.065  1.3034  0.0076 -0.8308
   12MPD2     C  182   1.583   1.635  14.739 -0.2947 -0.0093  0.1831
   12MPD2    C1  183   1.606   1.505  14.775 -0.7531  0.2909 -0.3805
   12MPD2    C2  184   1.619   1.404  14.678 -0.4749  0.2081 -0.0484
   12MPD2    C3  185   1.608   1.442  14.546  0.8081 -0.1940  0.3030
   12MPD2    C4  186   1.578   1.575  14.512 -0.5166 -1.2465  0.3923
   12MPD2    C5  187   1.584   1.668  14.605 -0.0221 -0.2774  0.0459
   12MPD2     H  188   1.615   1.298  14.702 -0.9094  0.1604 -0.3274
   12MPD2    H1  189   1.570   1.600  14.407  1.3531  1.8617  1.0085
   12MPD2    H2  190   1.570   1.718  14.808 -0.3809 -0.7104  1.0063
   12MPD2    H3  191   1.565   1.772  14.581  0.3846 -0.1362  0.3356
   12MPD2     N  192   1.638   1.354  14.441 -0.6065 -0.2421 -0.8193
   12MPD2    H5  193   1.641   1.399  14.350 -0.4049  0.9699 -0.2187
   12MPD2    N1  194   1.615   1.458  14.907 -0.7430  0.2962  0.5444
   12MPD2    H7  195   1.623   1.360  14.930  0.4346  0.8727  2.6079
   13TCq1    O1  196   1.340   1.301  10.614  0.0397  0.6001 -0.2679
   13TCq1    C1  197   1.420   1.200  10.656 -0.5317 -0.2272  0.6384
   13TCq1    O2  198   1.508   1.142  10.598 -0.2290 -0.0719  0.6254
   13TCq1    C2  199   1.443   1.229  10.793 -0.1138  0.6811 -0.2797
   13TCq1    C3  200   1.563   1.287  10.828 -0.0990  0.5213 -0.2510
   13TCq1    C4  201   1.571   1.331  10.953  0.2142  0.1611  0.7615
   13TCq1    C5  202   1.474   1.313  11.046  0.6254  0.9086  0.0942
   13TCq1    C6  203   1.361   1.245  11.009 -0.0004  0.4974  0.4572
   13TCq1    C7  204   1.340   1.207  10.878 -0.0361 -0.4987 -0.3411
   13TCq1    C8  205   1.272   1.207  11.120  0.1771  0.3907  0.4516
   13TCq1    O4  206   1.286   1.263  11.228  0.1684 -0.3089  0.4687
   13TCq1    C9  207   1.691   1.392  11.005  0.1437 -0.4132 -0.2619
   13TCq1    O5  208   1.698   1.425  11.123  0.1255 -0.5954  0.1280
   13TCq1    O6  209   1.790   1.406  10.926 -0.2114 -0.3972 -0.0529
   13TCq1    H1  210   1.294   1.352  10.684 -0.7088  0.0904 -0.3783
   13TCq1    H2  211   1.645   1.301  10.759  1.4850 -0.6642  1.4004
   13TCq1    H3  212   1.480   1.362  11.142 -2.4020 -1.0666  1.2879
   13TCq1    H4  213   1.260   1.141  10.849 -0.4240  0.2105 -0.9037
   14MPD2     C  214   1.013   0.952  11.125 -0.8353 -0.3025 -0.5489
   14MPD2    C1  215   1.071   1.068  11.163 -0.0830 -0.0131  0.3408
   14MPD2    C2  216   1.017   1.130  11.276 -0.2778  0.5773  0.0343
   14MPD2    C3  217   0.904   1.076  11.350 -0.4081  0.0713  0.1804
   14MPD2    C4  218   0.842   0.968  11.289  0.6793  0.6104  0.6562
   14MPD2    C5  219   0.900   0.901  11.190  0.1098  0.0378  0.1105
   14MPD2     H  220   1.062   1.225  11.302 -0.1828  1.0150 -1.6943
   14MPD2    H1  221   0.739   0.949  11.317 -0.0905  1.2883 -1.6548
   14MPD2    H2  222   1.049   0.897  11.039 -0.3378 -0.9101  0.0439
   14MPD2    H3  223   0.858   0.808  11.155  1.1396 -1.0643  1.7948
   14MPD2     N  224   0.852   1.138  11.467 -0.0110  0.3209  0.1751
   14MPD2    H5  225   0.900   1.223  11.498  3.2911 -1.2753 -0.4986
   14MPD2    N1  226   1.186   1.110  11.090 -0.1784  0.3342 -0.0601
   14MPD2    H7  227   1.212   1.058  11.006  0.4920  1.0788 -0.3140
   15TCq1    O1  228   3.809   4.326   1.671 -0.4185 -0.2914 -0.0193
   15TCq1    C1  229   3.806   4.271   1.548  0.6210 -0.1633  0.4556
   15TCq1    O2  230   3.712   4.274   1.478  0.0070 -0.2733  0.3409
   15TCq1    C2  231   3.885   4.148   1.543  0.0062  0.6353 -0.1565
   15TCq1    C3  232   3.970   4.112   1.643 -0.0411  0.5327 -0.5419
   15TCq1    C4  233   4.036   3.992   1.642  0.0214 -0.3788  0.3900
   15TCq1    C5  234   4.008   3.897   1.544  0.0299  0.2088 -0.5855
   15TCq1    C6  235   3.926   3.936   1.440  0.5027 -0.0898  0.8459
   15TCq1    C7  236   3.857   4.059   1.442  0.3882  0.7159  0.0247
   15TCq1    C8  237   3.901   3.836   1.337  0.1482  0.4235  0.1170
   15TCq1    O4  238   3.980   3.742   1.324 -0.3085  0.4159 -0.2431
   15TCq1    C9  239   4.132   3.962   1.745 -0.1203  0.6064 -0.3330
   15TCq1    O5  240   4.172   3.844   1.748 -0.1133  0.2767 -0.2333
   15TCq1    O6  241   4.158   4.045   1.837 -0.2556 -0.4325 -0.3639
   15TCq1    H1  242   3.904   4.332   1.696 -0.3201  2.1009 -0.9515
   15TCq1    H2  243   3.993   4.179   1.726  1.2914  0.9565 -1.2477
   15TCq1    H3  244   4.070   3.809   1.535 -0.4120 -0.1360 -0.2682
   15TCq1    H4  245   3.805   4.099   1.356  0.2452 -2.0439 -1.1821
   16MPD2     C  246   3.585   3.782   1.146 -0.3883 -0.4582 -0.0114
   16MPD2    C1  247   3.718   3.753   1.183  0.9143  0.3617  0.2649
   16MPD2    C2  248   3.776   3.632   1.127 -1.0855 -0.7980 -0.0183
   16MPD2    C3  249   3.704   3.554   1.040 -0.2739  0.1783 -0.1139
   16MPD2    C4  250   3.573   3.582   1.014  0.4812  0.4610  0.1404
   16MPD2    C5  251   3.523   3.699   1.066 -0.6270  0.0199 -0.4308
   16MPD2     H  252   3.881   3.620   1.151 -1.4243  2.2192  3.0455
   16MPD2    H1  253   3.510   3.523   0.948  1.3633 -0.6410  0.2973
   16MPD2    H2  254   3.541   3.874   1.183 -0.6040 -1.3403  1.9252
   16MPD2    H3  255   3.418   3.722   1.051 -0.6785  0.0804  0.0166
   16MPD2     N  256   3.773   3.440   0.983 -1.0058 -0.5374 -0.1232
   16MPD2    H5  257   3.871   3.433   1.009 -0.6488 -1.1327 -1.6174
   16MPD2    N1  258   3.774   3.841   1.285  0.7041  0.3509  0.5218
   16MPD2    H7  259   3.718   3.925   1.296 -0.8238 -0.5537 -0.3156
   17TMC1    C1  260   0.848   0.466  10.625 -0.8106 -0.1268 -0.9421
   17TMC1    C2  261   0.906   0.339  10.627 -0.5900  0.3896  0.5931
   17TMC1    C3  262   0.823   0.231  10.649  0.5946  0.0390  0.3434
   17TMC1    C4  263   0.715   0.483  10.658 -0.0318 -0.4726 -0.6389
   17TMC1    C5  264   0.634   0.374  10.667  0.6084  1.3008 -0.3116
   17TMC1    C6  265   0.689   0.247  10.658 -0.0005 -0.1257 -0.3725
   17TMC1     C  266   0.924   0.584  10.585 -0.3368  0.4237 -0.5687
   17TMC1     O  267   0.850   0.676  10.560 -0.3038 -0.6859 -0.2579
   17TMC1     H  268   1.010   0.325  10.600 -0.5490  0.2098  0.8516
   17TMC1    H1  269   0.664   0.578  10.644  3.2413  1.2135 -0.9877
   17TMC1    H2  270   0.622   0.164  10.642 -1.6485  1.6869 -2.8181
   17TMC1    C7  271   0.495   0.369  10.631 -0.8868 -0.1401  0.0355
   17TMC1    C8  272   0.882   0.115  10.584  0.6599 -0.5365 -0.7249
   17TMC1    O1  273   0.418   0.317  10.708 -0.0194  0.2444 -0.1765
   17TMC1    O2  274   0.972   0.129  10.500 -0.1907 -0.0153 -0.2946
   17TMC1    O3  275   0.469   0.468  10.547 -0.0991 -0.3990 -0.3304
   17TMC1    H3  276   0.543   0.489  10.486  0.1231 -2.8250 -0.8906
   17TMC1    O5  277   0.824   0.004  10.631  0.8591 -0.2651  0.7991
   17TMC1    H5  278   0.758   0.028  10.700 -0.1590  0.5884 -0.4844
   18MPD2     C  279   1.103   0.808  10.527 -0.5435  0.6144  0.0862
   18MPD2    C1  280   1.139   0.674  10.520  0.6606  0.1582  0.6292
   18MPD2    C2  281   1.253   0.641  10.462 -0.0245 -0.2469  0.1866
   18MPD2    C3  282   1.343   0.736  10.414  0.6228 -0.2818 -0.1838
   18MPD2    C4  283   1.315   0.868  10.436  0.1925  0.2598 -0.1468
   18MPD2    C5  284   1.190   0.901  10.485 -0.2718 -0.3321  0.0859
   18MPD2     H  285   1.271   0.534  10.451  0.5356 -0.3570  2.1720
   18MPD2    H1  286   1.376   0.955  10.412  0.1291  0.8474  1.7829
   18MPD2    H2  287   1.007   0.840  10.566 -0.2482 -0.9798  2.1666
   18MPD2    H3  288   1.160   1.005  10.479 -0.0088 -0.2487  0.2140
   18MPD2     N  289   1.467   0.712  10.359 -0.3177  0.0403  0.1154
   18MPD2    H5  290   1.518   0.793  10.329  0.1716  0.0167  0.8900
   18MPD2    N1  291   1.058   0.569  10.572  0.5448  0.1828 -0.3186
   18MPD2    H7  292   1.093   0.474  10.561 -0.1837 -0.1597  0.3374
   19TMC2    C1  293   3.345   1.279  14.578 -0.1681 -0.1567 -0.1626
   19TMC2    C2  294   3.391   1.362  14.484 -0.3048  0.1469 -0.0405
   19TMC2    C3  295   3.321   1.365  14.367 -0.8103  0.5915 -0.6706
   19TMC2    C4  296   3.233   1.197  14.560 -0.1737 -0.8733 -0.1357
   19TMC2    C5  297   3.170   1.196  14.436 -0.5161 -0.4273  0.3155
   19TMC2    C6  298   3.215   1.280  14.334 -0.0437  0.5324  0.3267
   19TMC2     C  299   3.385   1.304  14.714  0.8840  0.5502 -0.3162
   19TMC2     O  300   3.423   1.419  14.729  0.0152  0.3284  0.4278
   19TMC2     H  301   3.478   1.423  14.507 -0.4954  0.2280  0.4603
   19TMC2    H1  302   3.202   1.117  14.626  0.0448 -1.7530 -1.0890
   19TMC2    H2  303   3.176   1.286  14.233 -2.3540 -2.9643  1.0429
   19TMC2    C7  304   3.065   1.095  14.418 -0.6259 -0.8089 -0.3451
   19TMC2    C8  305   3.365   1.455  14.263  0.3949 -0.2091 -0.4534
   19TMC2    O1  306   3.071   0.994  14.487  0.0948 -0.2629  0.8181
   19TMC2    O2  307   3.376   1.418  14.144  0.4081 -0.3891 -0.3417
   19TMC2    O5  308   3.333   1.579  14.306 -0.3190 -0.0379 -0.0291
   19TMC2    H5  309   3.310   1.582  14.402 -2.4904  1.0011 -0.5807
   20MPD2     C  310   3.443   1.315  14.993 -0.2805  0.1244  0.1898
   20MPD2    C1  311   3.438   1.200  14.922 -0.1185 -0.4393 -0.1933
   20MPD2    C2  312   3.500   1.084  14.978  0.2703 -0.0767  0.5681
   20MPD2    C3  313   3.581   1.094  15.091 -0.4491  0.1449 -0.2520
   20MPD2    C4  314   3.584   1.221  15.159  0.6478  0.8826  0.0851
   20MPD2    C5  315   3.512   1.327  15.114 -0.1944  0.0852 -0.2202
   20MPD2     H  316   3.499   0.995  14.916  0.7579  0.1680  0.2049
   20MPD2    H1  317   3.619   1.230  15.261  2.2491 -1.1691 -0.2929
   20MPD2    H2  318   3.395   1.402  14.949 -1.7705 -0.6943  0.1866
   20MPD2    H3  319   3.517   1.411  15.183 -1.3112 -0.8015  0.9343
   20MPD2     N  320   3.669   0.991  15.130 -0.4090 -0.1909  0.1047
   20MPD2    H5  321   3.738   1.005  15.203 -2.0423 -1.3670  1.8857
   20MPD2    N1  322   3.389   1.195  14.798  0.0650 -0.3565  0.2306
   20MPD2    H7  323   3.382   1.099  14.768  0.2876 -0.3957  0.3101
   21TMC2    C1  324   0.967   1.281  14.392 -0.3253  0.6623  0.1864
   21TMC2    C2  325   0.971   1.384  14.302 -0.6817  0.2593 -0.2795
   21TMC2    C3  326   0.939   1.510  14.336  0.4553  0.6578 -0.3823
   21TMC2    C4  327   0.927   1.311  14.517  0.4086 -0.4546  0.5199
   21TMC2    C5  328   0.884   1.437  14.544  0.3349  0.4277  0.0961
   21TMC2    C6  329   0.884   1.540  14.458 -0.5830 -0.6077  0.4864
   21TMC2     C  330   1.027   1.148  14.368 -0.1324  0.0634 -0.1750
   21TMC2     O  331   1.046   1.072  14.460  0.5476  0.3329 -0.3174
   21TMC2     H  332   1.003   1.367  14.200  0.2666  1.1399 -0.1300
   21TMC2    H1  333   0.920   1.239  14.598  1.0478 -1.2877 -0.1628
   21TMC2    H2  334   0.851   1.640  14.484 -0.2226 -0.2373 -0.4703
   21TMC2    C7  335   0.838   1.476  14.679  0.4481 -0.8469  0.5460
   21TMC2    C8  336   0.927   1.600  14.219 -0.3021 -0.7577 -0.5675
   21TMC2    O1  337   0.882   1.414  14.774 -0.6183  0.0060 -0.1724
   21TMC2    O2  338   0.903   1.566  14.102  0.5841  0.0915 -0.3484
   21TMC2    O5  339   0.917   1.725  14.263 -0.4129 -0.4210  0.1424
   21TMC2    H5  340   0.948   1.742  14.354 -3.3552 -0.9074  1.2527
   22MPD2     C  341   1.422   0.941  14.115 -0.0543  0.1147 -0.0543
   22MPD2    C1  342   1.381   0.929  14.242  0.0510 -0.3282 -0.0757
   22MPD2    C2  343   1.274   1.000  14.291 -0.1520 -1.0036 -0.3155
   22MPD2    C3  344   1.199   1.074  14.203 -0.3835 -0.0619  1.0282
   22MPD2    C4  345   1.230   1.084  14.073  0.5854 -0.3394  0.0258
   22MPD2    C5  346   1.340   1.016  14.034 -0.8862 -0.3479 -0.1306
   22MPD2     H  347   1.239   0.993  14.393  0.6644  1.5526  0.1391
   22MPD2    H1  348   1.180   1.139  13.993 -1.2859  0.4458  1.7429
   22MPD2    H2  349   1.501   0.886  14.063 -0.0933 -0.3495  0.3769
   22MPD2    H3  350   1.362   1.024  13.928 -1.3735  1.8052 -0.0761
   22MPD2     N  351   1.073   1.136  14.243  0.0884  0.0624 -0.4175
   22MPD2    H5  352   1.020   1.175  14.166  0.0789  1.5276  0.3295
   22MPD2    N1  353   1.439   0.844  14.337  0.8359 -0.3113 -0.6156
   22MPD2    H7  354   1.396   0.846  14.429  0.9978  0.4226 -0.5508
   23TMC2    C1  355   2.097   2.277  14.394 -0.1251  0.2386 -0.1691
   23TMC2    C2  356   2.070   2.387  14.326  0.0937  0.1412 -0.4289
   23TMC2    C3  357   1.965   2.387  14.238 -0.5422  0.1590 -0.2978
   23TMC2    C4  358   2.004   2.179  14.399 -0.2136 -0.1191 -0.4066
   23TMC2    C5  359   1.900   2.178  14.313  0.8487  0.1333 -0.7072
   23TMC2    C6  360   1.872   2.284  14.239 -0.0015  0.0121  0.3105
   23TMC2     C  361   2.205   2.271  14.498  0.5411 -0.9745  0.0123
   23TMC2     O  362   2.212   2.166  14.558  0.0143  0.0211  0.1935
   23TMC2     H  363   2.138   2.472  14.320 -0.9851  0.9948 -0.5996
   23TMC2    H1  364   2.003   2.102  14.476  0.0726 -0.1319 -0.4133
   23TMC2    H2  365   1.784   2.282  14.176  0.6846 -3.6802 -0.5088
   23TMC2    C7  366   1.785   2.100  14.365 -0.5368 -0.3258 -0.6391
   23TMC2    C8  367   1.950   2.505  14.147  0.3473 -0.3475 -0.0013
   23TMC2    O1  368   1.804   1.979  14.393 -0.4234 -0.0276 -0.0094
   23TMC2    O2  369   2.047   2.577  14.129  0.3015  0.0263 -0.1315
   23TMC2    O5  370   1.819   2.543  14.157  0.6657 -0.1481 -0.5991
   23TMC2    H5  371   1.753   2.480  14.193  0.6528 -0.1506 -0.6268
   24MPD2     C  372   2.607   2.448  14.760 -0.1340  0.2363  0.0720
   24MPD2    C1  373   2.505   2.366  14.793  0.2511  0.5647  0.4955
   24MPD2    C2  374   2.400   2.340  14.707  0.1405  0.3146  0.3008
   24MPD2    C3  375   2.402   2.395  14.584  0.5220 -0.4040 -0.4170
   24MPD2    C4  376   2.500   2.490  14.556 -0.1398  0.2868  0.1382
   24MPD2    C5  377   2.597   2.517  14.643 -0.4284  0.6424  0.1894
   24MPD2     H  378   2.312   2.284  14.738 -0.8072  0.0490 -2.9085
   24MPD2    H1  379   2.495   2.556  14.470 -1.2351  1.0281  0.7628
   24MPD2    H2  380   2.687   2.481  14.825 -0.2993  0.0431  0.3701
   24MPD2    H3  381   2.669   2.590  14.608  1.5929 -1.2999  0.3469
   24MPD2     N  382   2.293   2.379  14.498 -0.0741 -0.2168  0.0739
   24MPD2    H5  383   2.298   2.439  14.416  0.3514  0.1163  0.3397
   24MPD2    N1  384   2.492   2.319  14.927  0.4037 -0.0762  0.2396
   24MPD2    H7  385   2.400   2.295  14.963 -0.7192  0.6516 -2.1701
   25TMC2    C1  386   0.853   0.241  11.117 -0.9730 -0.1619  0.1733
   25TMC2    C2  387   0.836   0.344  11.034 -0.5203 -0.1319 -0.4444
   25TMC2    C3  388   0.807   0.462  11.106 -0.6167 -0.6969  1.2154
   25TMC2    C4  389   0.838   0.239  11.258 -0.3755 -0.6513 -0.1651
   25TMC2    C5  390   0.819   0.357  11.315  0.1988  0.4192  0.2656
   25TMC2    C6  391   0.792   0.471  11.243 -0.8560  0.7136 -0.4499
   25TMC2     C  392   0.881   0.114  11.040  0.0868  0.9888  0.7719
   25TMC2     O  393   0.936   0.126  10.930  0.3216  0.1319  0.0480
   25TMC2     H  394   0.853   0.333  10.928  0.1990 -0.7853 -0.2625
   25TMC2    H1  395   0.848   0.155  11.327 -4.1202 -1.6337 -0.8103
   25TMC2    H2  396   0.762   0.563  11.293  0.0345  1.5325 -1.4234
   25TMC2    C7  397   0.817   0.366  11.460 -0.2865 -1.5230  0.2846
   25TMC2    C8  398   0.766   0.571  11.024 -0.0728 -0.0733 -0.2231
   25TMC2    O1  399   0.864   0.264  11.517 -0.1294 -0.0581 -0.1297
   25TMC2    O2  400   0.689   0.654  11.068 -0.7351 -0.1266  0.3677
   25TMC2    O5  401   0.865   0.588  10.936 -0.1083 -0.4460  0.2551
   25TMC2    H5  402   0.921   0.507  10.932 -1.9546 -1.7188 -0.1247
   26MPD2     C  403   0.933   4.350  10.949  0.2739 -0.2153 -0.6113
   26MPD2    C1  404   0.899   4.366  11.084  0.7078 -0.2325 -0.3147
   26MPD2    C2  405   0.881   4.495  11.132  0.5384 -0.3783  0.0627
   26MPD2    C3  406   0.894   4.605  11.049 -0.0583 -0.5666 -0.1323
   26MPD2    C4  407   0.943   4.588  10.924  0.9091 -0.5926 -0.5898
   26MPD2    C5  408   0.968   4.459  10.871  0.2838  0.1153  0.2063
   26MPD2     H  409   0.852   4.518  11.234  0.3724 -1.2161  0.2049
   26MPD2    H1  410   0.955   4.667  10.851 -0.3274 -0.6956 -0.8959
   26MPD2    H2  411   0.943   4.248  10.914 -2.0527 -1.2705  1.7690
   26MPD2    H3  412   1.003   4.455  10.769  1.6728  1.5000  0.6352
   26MPD2     N  413   0.868   4.730  11.111  0.8873  0.9128 -0.5556
   26MPD2    H5  414   0.836   4.735  11.207  1.0810 -3.9134 -0.2745
   26MPD2    N1  415   0.890   4.249  11.166 -0.4269  0.2426 -0.4710
   26MPD2    H7  416   0.926   4.165  11.123  1.7726  0.3271  1.1985
   27TMC2    C1  417   0.004   2.051  12.525 -0.4651 -0.3046  1.0248
   27TMC2    C2  418   4.711   2.108  12.404 -0.0161 -0.4519  0.0806
   27TMC2    C3  419   4.690   2.242  12.400 -0.4976 -0.4390 -0.9223
   27TMC2    C4  420   0.030   2.135  12.635 -0.2536 -0.4245 -0.1222
   27TMC2    C5  421   0.022   2.271  12.626  0.1942  0.5639 -0.1266
   27TMC2    C6  422   4.724   2.326  12.501 -0.0115  0.5819 -0.1150
   27TMC2     C  423   4.677   1.926  12.568 -0.1606  0.4294  0.5033
   27TMC2     O  424   4.689   1.828  12.499 -0.6941  0.2065 -0.6089
   27TMC2     H  425   4.698   2.041  12.319  0.1811  0.1262 -0.4062
   27TMC2    H1  426   0.073   2.101  12.728 -0.1669  3.3386  1.2110
   27TMC2    H2  427   4.669   2.420  12.493 -0.6530  0.3212  1.2137
   27TMC2    C7  428   4.671   2.311  12.737 -0.9072  0.1320  0.5765
   27TMC2    C8  429   4.626   2.314  12.287  0.7396 -0.6042  0.0799
   27TMC2    O1  430   4.609   2.217  12.786  0.6143 -0.1416  0.1369
   27TMC2    O2  431   4.644   2.435  12.270  0.2749 -0.5711  0.1636
   27TMC2    O5  432   4.576   2.229  12.191  0.4466 -0.0392 -0.3354
   27TMC2    H5  433   4.560   2.139  12.226  0.5224  1.5087  3.7609
   28MPD2     C  434   4.351   1.718  12.904 -0.3676 -0.4101  0.4307
   28MPD2    C1  435   4.355   1.855  12.928 -0.1877 -0.1506 -1.1142
   28MPD2    C2  436   4.451   1.930  12.854  0.1854  0.0133  0.9112
   28MPD2    C3  437   4.535   1.863  12.766  0.1660  0.3900 -0.0381
   28MPD2    C4  438   4.536   1.729  12.745 -0.1582  0.4029 -0.0950
   28MPD2    C5  439   4.446   1.657  12.827 -0.0775 -0.6187  0.0637
   28MPD2     H  440   4.456   2.038  12.862 -0.6788  0.1937 -1.0276
   28MPD2    H1  441   4.618   1.691  12.686 -2.2401  0.1265 -2.8341
   28MPD2    H2  442   4.275   1.655  12.948 -0.4013 -0.4816  0.2710
   28MPD2    H3  443   4.452   1.549  12.828  0.7161 -0.5664  1.6104
   28MPD2     N  444   4.603   1.953  12.681 -0.2071 -0.3132 -0.3918
   28MPD2    H5  445   4.606   2.050  12.712 -0.4198 -1.1525  2.2419
   28MPD2    N1  446   4.259   1.905  13.020  0.1591  0.3226 -0.2563
   28MPD2    H7  447   4.187   1.842  13.054 -1.0977  1.6041 -0.5395
   29TMC2    C1  448   4.192   4.719  14.597  0.4996  0.1376  0.5310
   29TMC2    C2  449   4.186   4.667  14.725  0.1822 -0.3540 -0.5630
   29TMC2    C3  450   4.209   0.016  14.827 -0.3235 -0.5003 -0.5468
   29TMC2    C4  451   4.207   0.120  14.570 -0.1422 -0.3701 -0.1945
   29TMC2    C5  452   4.229   0.200  14.684 -0.5823  0.2768 -0.2751
   29TMC2    C6  453   4.235   0.149  14.811  0.1008  0.6086  0.6594
   29TMC2     C  454   4.193   4.623  14.483 -0.7506 -0.1156  0.1063
   29TMC2     O  455   4.263   4.523  14.489 -0.1889  0.1496 -0.2234
   29TMC2     H  456   4.192   4.560  14.736  1.9836 -0.2960 -1.0701
   29TMC2    H1  457   4.204   0.153  14.467 -1.0506  1.9148  0.5617
   29TMC2    H2  458   4.227   0.203  14.905  1.5939 -0.4311  1.3891
   29TMC2    C7  459   4.257   0.339  14.656 -0.3285  0.3635 -0.7371
   29TMC2    C8  460   4.198   4.696  14.969  0.3052 -0.6517  0.0269
   29TMC2    O1  461   4.214   0.380  14.547  0.0629 -0.0679  0.0130
   29TMC2    O2  462   4.270   0.009  15.058  0.5915 -0.1146  0.7285
   29TMC2    O5  463   4.104   4.598  14.979  0.2798 -0.0902  0.2183
   29TMC2    H5  464   4.046   4.590  14.900 -1.7738  1.1454  1.6033
   30MPD2     C  465   3.982   4.478  14.033  0.2976 -0.8152  0.2236
   30MPD2    C1  466   4.073   4.424  14.112  0.1902 -0.3338 -0.3532
   30MPD2    C2  467   4.113   4.490  14.226 -0.1820 -0.0974  0.0544
   30MPD2    C3  468   4.057   4.604  14.268 -0.1312  0.3104  0.8674
   30MPD2    C4  469   3.965   4.659  14.185 -0.2941 -0.0318  0.1481
   30MPD2    C5  470   3.932   4.599  14.069  0.2813 -0.1328 -0.1175
   30MPD2     H  471   4.202   4.452  14.275 -0.1755  0.1741  0.2495
   30MPD2    H1  472   3.915   0.010  14.229  0.3496 -0.1298  1.0826
   30MPD2    H2  473   3.956   4.431  13.938 -3.3158  1.2901  0.1569
   30MPD2    H3  474   3.860   4.648  14.005  1.0756  2.2663  0.7934
   30MPD2     N  475   4.101   4.671  14.393 -0.2138  0.3375  0.0712
   30MPD2    H5  476   4.051   0.017  14.427 -0.9447  0.6048 -1.6570
   30MPD2    N1  477   4.117   4.293  14.090 -0.0110 -0.2612 -0.2794
   30MPD2    H7  478   4.189   4.253  14.148 -0.2721  2.6214  2.0368
   31TMC2    C1  479   1.686   2.799  15.837 -0.1283  0.2662 -0.2276
   31TMC2    C2  480   1.556   2.825  15.848  0.1791  0.7416  0.1224
   31TMC2    C3  481   1.500   2.849  15.969 -0.3566 -0.9379 -0.0130
   31TMC2    C4  482   1.764   2.787  15.951  0.6114  1.0477 -0.6484
   31TMC2    C5  483   1.708   2.814  16.073  0.4313 -0.2270  0.2034
   31TMC2    C6  484   1.575   2.848  16.085  0.2055 -0.2613  0.4147
   31TMC2     C  485   1.749   2.879  15.730  0.3983  0.1599 -0.1593
   31TMC2     O  486   1.681   2.958  15.665  0.3940  0.3299  0.2051
   31TMC2     H  487   1.499   2.827  15.755  0.5176 -0.1535 -0.1123
   31TMC2    H1  488   1.871   2.770  15.955  0.3937  0.1820  1.2667
   31TMC2    H2  489   1.524   2.854  16.180  2.2971  2.2266  1.3795
   31TMC2    C7  490   1.774   2.776  16.189  0.5446  0.8827  0.0091
   31TMC2    C8  491   1.379   2.923  15.977  0.0354  0.0956 -0.5550
   31TMC2    O1  492   1.856   2.688  16.178 -0.3034 -0.1382 -0.3271
   31TMC2    O2  493   1.298   2.887  16.059 -0.8724 -0.1308  0.3343
   31TMC2    O5  494   1.418   3.057  15.968  0.0783 -0.4106  0.1606
   31TMC2    H5  495   1.514   3.067  15.955 -0.0554 -0.1517 -0.6689
   32MPD2     C  496   2.117   2.925  15.389  0.1315 -0.5536  0.0037
   32MPD2    C1  497   2.004   3.002  15.400 -0.6119 -0.2749 -1.0709
   32MPD2    C2  498   1.915   2.968  15.507 -0.5828  0.5678 -1.1605
   32MPD2    C3  499   1.936   2.856  15.587  0.1497  0.2831 -0.2757
   32MPD2    C4  500   2.049   2.781  15.567 -0.0934 -0.2415 -0.0451
   32MPD2    C5  501   2.141   2.822  15.470 -0.2100 -0.1733 -0.1460
   32MPD2     H  502   1.831   3.035  15.520 -0.7569 -0.0078  0.6146
   32MPD2    H1  503   2.063   2.701  15.639 -0.0186 -0.6318 -0.4952
   32MPD2    H2  504   2.184   2.957  15.310  1.2162 -0.4070  0.9683
   32MPD2    H3  505   2.233   2.767  15.450 -0.1024 -0.3505  0.8310
   32MPD2     N  506   1.858   2.820  15.695 -0.1121  0.3528 -0.2749
   32MPD2    H5  507   1.876   2.733  15.745 -1.6404 -0.9452 -1.9868
   32MPD2    N1  508   1.997   3.117  15.320 -0.2319 -0.1544 -0.4582
   32MPD2    H7  509   2.063   3.129  15.244  1.6457 -2.0178  0.8991
   33TMC2    C1  510   1.989   1.476  10.557 -0.1346  0.6066 -0.5537
   33TMC2    C2  511   1.877   1.500  10.625  0.2741  0.2331  0.0862
   33TMC2    C3  512   1.836   1.632  10.631  0.4250 -0.1263  0.0041
   33TMC2    C4  513   2.061   1.569  10.480 -0.2376 -0.5653 -0.0682
   33TMC2    C5  514   2.007   1.693  10.482  1.5021 -0.2712  0.1789
   33TMC2    C6  515   1.897   1.734  10.564  0.0000  0.8853  0.2870
   33TMC2     C  516   2.009   1.336  10.540 -0.4188  0.0420  0.3007
   33TMC2     O  517   1.912   1.264  10.560  0.3959  0.0358  0.6866
   33TMC2     H  518   1.828   1.418  10.676  0.1862  0.3805  0.2350
   33TMC2    H1  519   2.140   1.539  10.412  0.2415  0.3340  0.0893
   33TMC2    H2  520   1.845   1.829  10.556 -0.7657  0.5355  1.0511
   33TMC2    C7  521   2.065   1.797  10.392  0.2298  0.1158  0.6809
   33TMC2    C8  522   1.713   1.667  10.690 -0.5892  0.1153  0.3773
   33TMC2    O1  523   2.056   1.917  10.420 -0.3973  0.1663 -0.6456
   33TMC2    O2  524   1.646   1.760  10.649 -0.0314 -0.2216 -0.2389
   33TMC2    O5  525   1.667   1.560  10.755  0.6231  0.2141 -0.4615
   33TMC2    H5  526   1.724   1.491  10.796 -0.3372  0.7324  1.7477
   34MPD2     C  527   2.272   0.928  10.346  0.0037 -0.1588  0.8913
   34MPD2    C1  528   2.145   0.936  10.400 -0.2297  0.6532 -0.1621
   34MPD2    C2  529   2.099   1.059  10.445  0.1857 -0.0433  0.6415
   34MPD2    C3  530   2.171   1.179  10.437  0.4975  0.4726 -0.3121
   34MPD2    C4  531   2.295   1.169  10.378 -0.3909 -0.0143 -0.2602
   34MPD2    C5  532   2.335   1.048  10.330  0.2338  0.1477  0.3465
   34MPD2     H  533   2.002   1.065  10.493  0.9222  0.6168  2.0287
   34MPD2    H1  534   2.357   1.256  10.359 -0.0857 -0.3459 -0.7922
   34MPD2    H2  535   2.294   0.834  10.298  1.8431  1.3525 -1.2472
   34MPD2    H3  536   2.431   1.052  10.278 -0.7860  2.9455 -1.3418
   34MPD2     N  537   2.135   1.304  10.493 -0.2053  0.0423  0.1545
   34MPD2    H5  538   2.203   1.379  10.488 -0.2351  0.0830  0.3559
   34MPD2    N1  539   2.070   0.819  10.400  0.0717  0.5601 -0.3304
   34MPD2    H7  540   2.106   0.744  10.341 -1.1160 -0.4205  0.2010
   35TMC2    C1  541   3.500   2.505  11.475 -0.3069 -0.0607  0.1446
   35TMC2    C2  542   3.502   2.606  11.382  0.0310 -0.5086  0.9995
   35TMC2    C3  543   3.421   2.602  11.274  1.0327 -0.1470 -0.3845
   35TMC2    C4  544   3.414   2.403  11.462 -0.2244  0.9073  0.3063
   35TMC2    C5  545   3.318   2.413  11.364  0.7111 -0.3418 -0.5360
   35TMC2    C6  546   3.323   2.498  11.254 -0.0273  0.4225  0.1226
   35TMC2     C  547   3.602   2.510  11.578 -0.5934 -0.8666  0.0879
   35TMC2     O  548   3.708   2.568  11.546 -0.3643  0.4536 -0.0483
   35TMC2     H  549   3.578   2.682  11.391  0.8053 -0.8914 -2.3523
   35TMC2    H1  550   3.423   2.314  11.524 -0.5371  0.2535 -0.5777
   35TMC2    H2  551   3.270   2.492  11.160 -0.0215  1.6188  0.0343
   35TMC2    C7  552   3.217   2.312  11.358 -0.6289 -0.8142 -0.6487
   35TMC2    C8  553   3.404   2.723  11.197  0.4964  0.3119 -0.1135
   35TMC2    O1  554   3.231   2.209  11.417  0.2441  0.1887 -0.2391
   35TMC2    O2  555   3.338   2.744  11.096  0.4438  0.1398 -0.1062
   35TMC2    O5  556   3.396   2.813  11.300 -0.0453 -0.3189  0.0771
   35TMC2    H5  557   3.431   2.782  11.387  2.3712  0.1735 -0.7131
   36MPD2     C  558   3.859   2.387  11.987  0.0298  0.0224 -0.0862
   36MPD2    C1  559   3.727   2.397  12.016  0.1302  0.4850  0.6898
   36MPD2    C2  560   3.631   2.410  11.921  0.6037  0.2904 -0.2604
   36MPD2    C3  561   3.671   2.415  11.790 -0.9843 -0.0901 -0.6239
   36MPD2    C4  562   3.805   2.404  11.754  0.2392 -0.6555  0.6656
   36MPD2    C5  563   3.895   2.390  11.853 -0.6611 -0.2382  0.3887
   36MPD2     H  564   3.529   2.406  11.958  0.1082 -0.6986 -1.6919
   36MPD2    H1  565   3.839   2.399  11.651 -1.7919 -0.7168  0.0002
   36MPD2    H2  566   3.923   2.365  12.071 -0.5599  2.5301  1.0011
   36MPD2    H3  567   4.001   2.395  11.829 -0.2822 -2.2394  1.6237
   36MPD2     N  568   3.575   2.441  11.695 -0.1751  0.6838 -0.2308
   36MPD2    H5  569   3.479   2.419  11.718  0.2500 -2.0779 -1.0696
   36MPD2    N1  570   3.696   2.405  12.153 -0.3301 -0.3002 -0.2449
   36MPD2    H7  571   3.766   2.386  12.225 -1.7907 -0.3892  1.1468
   37TMC2    C1  572   0.711   2.551  12.078  0.7427 -0.0823  0.4745
   37TMC2    C2  573   0.734   2.484  11.961  0.0577  0.1292  0.4830
   37TMC2    C3  574   0.869   2.470  11.924 -0.1114  0.0892 -0.4107
   37TMC2    C4  575   0.814   2.599  12.157  0.2117 -0.4291  0.2463
   37TMC2    C5  576   0.944   2.576  12.124  0.5332 -0.1134  0.1883
   37TMC2    C6  577   0.975   2.514  12.004 -0.2391 -0.0033 -0.5215
   37TMC2     C  578   0.574   2.550  12.134  0.3288  0.3384 -0.0658
   37TMC2     O  579   0.480   2.547  12.054  0.6359  0.3002  0.2400
   37TMC2     H  580   0.647   2.454  11.903  2.3495 -3.2646 -1.2238
   37TMC2    H1  581   0.787   2.654  12.247  1.0454 -0.3779  0.4664
   37TMC2    H2  582   1.071   2.469  11.981 -0.0620 -0.3989  0.9962
   37TMC2    C7  583   1.055   2.623  12.203 -0.0002  0.2874 -0.1100
   37TMC2    C8  584   0.904   2.363  11.836  0.8785 -0.3446 -0.1414
   37TMC2    O1  585   1.050   2.643  12.326 -0.2267  0.0845 -0.7145
   37TMC2    O2  586   0.823   2.282  11.798  0.1613 -0.2799 -0.1724
   37TMC2    O5  587   0.978   2.425  11.741  0.1263 -0.0312  0.2943
   37TMC2    H5  588   1.020   2.504  11.782  1.7260 -0.5858 -0.2699
   38MPD2     C  589   0.277   2.526  12.559  0.7344 -0.7509 -0.1042
   38MPD2    C1  590   0.408   2.506  12.596 -0.3192 -0.0632  0.1817
   38MPD2    C2  591   0.505   2.524  12.500  0.2930 -0.1222 -0.1801
   38MPD2    C3  592   0.475   2.543  12.368  0.1551  0.2217 -0.1876
   38MPD2    C4  593   0.342   2.540  12.329 -0.1244 -0.3373 -0.4970
   38MPD2    C5  594   0.245   2.538  12.426  0.0759 -0.6687 -0.7243
   38MPD2     H  595   0.605   2.512  12.541  0.7793  0.7771 -1.0944
   38MPD2    H1  596   0.320   2.554  12.224  0.4446  1.0325 -0.4341
   38MPD2    H2  597   0.202   2.531  12.637  0.4366  2.5688 -0.6271
   38MPD2    H3  598   0.146   2.558  12.387  0.6507  1.6572 -1.0075
   38MPD2     N  599   0.580   2.538  12.270  0.0096  0.0619 -0.0077
   38MPD2    H5  600   0.673   2.527  12.311 -1.3497  0.3207  3.1026
   38MPD2    N1  601   0.454   2.464  12.723  0.0050  0.4804 -0.2573
   38MPD2    H7  602   0.553   2.478  12.737 -0.5847  2.2015  2.1772
   39TMC2    C1  603   3.695   3.519   1.451  0.2489  0.1238  0.4017
   39TMC2    C2  604   3.645   3.595   1.545 -0.9709  0.2167  0.6661
   39TMC2    C3  605   3.718   3.642   1.653  0.4302  0.1479  0.5307
   39TMC2    C4  606   3.831   3.495   1.456 -0.5441 -0.6856  0.3800
   39TMC2    C5  607   3.898   3.536   1.565 -0.6542 -1.0887 -0.3506
   39TMC2    C6  608   3.850   3.614   1.668 -0.1356  0.0680  0.5704
   39TMC2     C  609   3.614   3.423   1.386  0.4508 -0.2438  0.2556
   39TMC2     O  610   3.494   3.435   1.394  0.2972  0.4929  0.2757
   39TMC2     H  611   3.541   3.625   1.537 -0.3707  2.1710  0.2042
   39TMC2    H1  612   3.882   3.429   1.386 -1.6634  0.5689 -1.6273
   39TMC2    H2  613   3.901   3.647   1.758  0.2308  1.2632 -0.0739
   39TMC2    C7  614   4.036   3.494   1.573  0.1576 -0.4547 -0.1359
   39TMC2    C8  615   3.685   3.775   1.696 -0.9849 -0.0155 -0.5369
   39TMC2    O1  616   4.065   3.450   1.682 -0.5369 -0.0398 -0.1214
   39TMC2    O2  617   3.640   3.866   1.621 -0.4417  0.1180  0.3450
   39TMC2    O5  618   3.710   3.794   1.824 -0.1430 -0.6413  0.2128
   39TMC2    H5  619   3.702   3.714   1.879 -1.8104  1.3186  2.8266
   40MPD2     C  620   3.710   3.105   1.219 -0.1072  0.3353 -0.3428
   40MPD2    C1  621   3.633   3.219   1.248  0.7636  0.4859 -0.0799
   40MPD2    C2  622   3.507   3.224   1.193 -0.3622 -0.2346 -0.3496
   40MPD2    C3  623   3.453   3.119   1.107 -0.2248  0.1215  0.6836
   40MPD2    C4  624   3.528   3.009   1.080  0.3238 -0.3825  0.7582
   40MPD2    C5  625   3.654   3.010   1.127  0.7759  0.2452  0.3810
   40MPD2     H  626   3.455   3.319   1.198  0.6272  0.3207 -0.5536
   40MPD2    H1  627   3.512   2.945   0.993 -0.2415 -2.3943  2.3366
   40MPD2    H2  628   3.803   3.092   1.274 -0.5340 -0.9492  0.0757
   40MPD2    H3  629   3.713   2.920   1.109  0.9832  0.6880 -1.1675
   40MPD2     N  630   3.324   3.123   1.051 -0.7415 -0.3770  0.1990
   40MPD2    H5  631   3.291   3.041   1.001 -3.0329  0.1469  0.8382
   40MPD2    N1  632   3.684   3.320   1.338 -0.3990  0.1956 -0.4626
   40MPD2    H7  633   3.779   3.303   1.371 -0.3627  0.7439 -0.2852
   41TMC2    C1  634   3.166   2.478  14.186  0.1557 -0.0082 -0.1864
   41TMC2    C2  635   3.253   2.520  14.279  0.5327 -0.1869  0.0170
   41TMC2    C3  636   3.264   2.655  14.304 -0.2481 -0.0994 -0.3569
   41TMC2    C4  637   3.112   2.556  14.093  0.2439  1.1622 -0.4802
   41TMC2    C5  638   3.127   2.688  14.119  0.2665  0.4069 -0.1321
   41TMC2    C6  639   3.195   2.744  14.226  0.7832  0.1397 -0.0055
   41TMC2     C  640   3.071   2.391  14.240 -0.0224 -0.7018  0.6271
   41TMC2     O  641   2.986   2.333  14.171  0.2522  0.0212  0.1970
   41TMC2     H  642   3.325   2.451  14.321 -0.9741 -0.7510  1.6815
   41TMC2    H1  643   3.036   2.515  14.028  1.6891  0.1795 -1.5587
   41TMC2    H2  644   3.193   2.851  14.246  1.0651  0.4057 -1.3929
   41TMC2    C7  645   3.033   2.777  14.060  0.5344  0.8384  0.6222
   41TMC2    C8  646   3.385   2.688  14.385 -0.0632 -0.1153 -0.0562
   41TMC2    O1  647   3.008   2.884  14.112 -0.3272 -0.6027  0.2969
   41TMC2    O2  648   3.440   2.602  14.457  0.8606 -0.4620  0.2610
   41TMC2    O5  649   3.455   2.792  14.332  0.2561  0.0229  0.1835
   41TMC2    H5  650   3.420   2.838  14.253 -1.4853  0.6334  1.3052
   42MPD2     C  651   2.932   2.224  14.457 -0.1483  0.8469  0.6824
   42MPD2    C1  652   3.005   2.333  14.479  0.1820  0.0188 -0.3444
   42MPD2    C2  653   3.003   2.389  14.602 -0.4124  0.4436  0.2145
   42MPD2    C3  654   2.934   2.335  14.708  0.4010 -0.2949 -0.0430
   42MPD2    C4  655   2.860   2.220  14.685  0.0039  0.6012  0.0515
   42MPD2    C5  656   2.861   2.165  14.563 -0.3715  0.0157 -0.1387
   42MPD2     H  657   3.077   2.465  14.622  0.9984 -1.0578  0.7388
   42MPD2    H1  658   2.789   2.182  14.757 -0.1748 -1.8612 -1.4500
   42MPD2    H2  659   2.930   2.173  14.362 -1.5923  0.3944  0.9571
   42MPD2    H3  660   2.814   2.068  14.550 -1.5213  0.4959  0.4166
   42MPD2     N  661   2.934   2.393  14.836  0.1833 -0.5594  0.0324
   42MPD2    H5  662   2.876   2.346  14.905 -3.0362  0.6694 -1.8314
   42MPD2    N1  663   3.084   2.394  14.375  0.1358  0.5372 -0.6647
   42MPD2    H7  664   3.144   2.470  14.406 -0.4873  0.0317  1.7105
   43TMC2    C1  665   4.672   4.346   0.706  0.9729  0.2505  0.0277
   43TMC2    C2  666   0.065   4.404   0.700 -0.2127  0.3674 -0.5733
   43TMC2    C3  667   0.086   4.512   0.779  0.2716  0.2363 -0.2953
   43TMC2    C4  668   4.565   4.406   0.773 -0.7038 -0.1315  0.5754
   43TMC2    C5  669   4.589   4.519   0.843 -0.8102  0.6274 -0.0203
   43TMC2    C6  670   4.718   4.574   0.847  0.1564  0.0895  0.1654
   43TMC2     C  671   4.669   4.207   0.664 -0.5014 -0.5089  0.4697
   43TMC2     O  672   0.022   4.183   0.586 -0.1141 -0.2332 -0.3383
   43TMC2     H  673   0.151   4.365   0.647  1.2666  1.6273  0.8820
   43TMC2    H1  674   4.471   4.354   0.760 -1.0854  0.2903  1.6456
   43TMC2    H2  675   0.004   4.673   0.884  0.4258  0.5288 -1.1816
   43TMC2    C7  676   4.480   4.564   0.927  0.9224  0.6161 -0.2664
   43TMC2    C8  677   0.206   4.581   0.762 -0.0144  0.4075  0.8785
   43TMC2    O1  678   4.373   4.510   0.927  0.2783  0.4535 -0.7387
   43TMC2    O2  679   0.204   4.703   0.776 -0.0427 -0.7665 -0.3831
   43TMC2    O5  680   0.313   4.498   0.772  0.3653  0.0621  0.7143
   43TMC2    H5  681   0.288   4.408   0.801 -0.9331  1.1655  3.0298
   44MPD2     C  682   4.515   3.723   0.695  0.1042  0.0788  0.8891
   44MPD2    C1  683   4.625   3.777   0.625  0.0285 -0.4163 -0.5639
   44MPD2    C2  684   4.639   3.916   0.634  0.1562  0.4619 -0.2501
   44MPD2    C3  685   4.563   3.993   0.721  0.6893 -0.2219  0.5755
   44MPD2    C4  686   4.466   3.934   0.799  0.0990  0.0202  0.0389
   44MPD2    C5  687   4.446   3.802   0.784 -0.3503  0.9459  0.4662
   44MPD2     H  688   4.717   3.962   0.574 -0.7540 -0.2164 -1.9622
   44MPD2    H1  689   4.395   3.992   0.857  0.6674 -1.0685  1.8293
   44MPD2    H2  690   4.483   3.620   0.695 -0.2249  0.1847  1.4679
   44MPD2    H3  691   4.359   3.766   0.837 -1.6748  0.9710 -1.6975
   44MPD2     N  692   4.586   4.136   0.741  0.0698 -0.6520  0.4513
   44MPD2    H5  693   4.529   4.190   0.806 -1.5032 -0.4530 -1.0952
   44MPD2    N1  694   4.714   3.701   0.542  0.2726 -0.3438 -0.5251
   44MPD2    H7  695   0.068   3.740   0.514 -0.9690  2.0973 -1.1408
   45TMC2    C1  696   0.454   2.176   9.940 -0.2334  0.5125  0.4265
   45TMC2    C2  697   0.543   2.098   9.872 -0.3881 -0.7954  0.1167
   45TMC2    C3  698   0.643   2.165   9.814  0.1305  0.3226 -1.1351
   45TMC2    C4  699   0.470   2.313   9.959 -0.3213  0.4024 -0.5619
   45TMC2    C5  700   0.583   2.372   9.906 -0.3191 -0.5157 -0.6714
   45TMC2    C6  701   0.675   2.300   9.834  0.7093  0.4732 -0.1434
   45TMC2     C  702   0.327   2.117   9.984  0.4319  0.3768  0.8486
   45TMC2     O  703   0.330   2.000  10.026 -0.3197 -0.6714 -0.1458
   45TMC2     H  704   0.517   1.996   9.845 -0.7244 -0.2696 -1.5664
   45TMC2    H1  705   0.402   2.379  10.010 -0.0247  1.0294 -0.9721
   45TMC2    H2  706   0.756   2.349   9.782 -0.5461  0.9230 -1.6630
   45TMC2    C7  707   0.602   2.515   9.940  0.2032  0.2879  0.1904
   45TMC2    C8  708   0.735   2.097   9.724  0.3078 -0.9536 -0.1482
   45TMC2    O1  709   0.574   2.553  10.054 -0.2861  0.0124 -0.0885
   45TMC2    O2  710   0.859   2.098   9.731 -0.1287  0.2024  0.4661
   45TMC2    O5  711   0.677   1.991   9.664 -0.3196 -0.4032  0.4172
   45TMC2    H5  712   0.583   2.017   9.651  0.3362  1.5224 -0.4498
   46MPD2     C  713   0.044   2.049   9.978 -0.3165  0.1535  0.0497
   46MPD2    C1  714   0.090   2.180   9.963  1.0766  0.1560 -0.0781
   46MPD2    C2  715   0.005   2.274   9.914  0.4292 -0.2318 -0.1108
   46MPD2    C3  716   4.605   2.241   9.896 -0.6927 -0.3190 -0.5189
   46MPD2    C4  717   4.558   2.108   9.913 -0.2826 -0.1572  0.5522
   46MPD2    C5  718   4.652   2.013   9.954 -0.0527  0.4972 -0.5370
   46MPD2     H  719   0.040   2.377   9.904 -0.8093  0.3409  1.4004
   46MPD2    H1  720   4.455   2.077   9.900 -0.7743  2.2245 -1.3142
   46MPD2    H2  721   0.106   1.967  10.014  1.4622  1.1914 -0.6732
   46MPD2    H3  722   4.613   1.916   9.981  2.7997 -0.6792 -0.6985
   46MPD2     N  723   4.529   2.353   9.844  0.0486  0.8558 -0.1313
   46MPD2    H5  724   4.578   2.439   9.822  0.6385 -0.1756 -2.8207
   46MPD2    N1  725   0.229   2.208   9.971 -0.0225 -0.3665  0.2517
   46MPD2    H7  726   0.247   2.306   9.952  0.1524 -0.2135  1.2289
   47TMC2    C1  727   2.161   3.145   9.098  0.3719 -0.5095 -0.0482
   47TMC2    C2  728   2.256   3.130   9.002 -0.2255 -0.0189 -0.0279
   47TMC2    C3  729   2.224   3.063   8.888 -0.3566  0.2612 -0.2829
   47TMC2    C4  730   2.039   3.084   9.092 -0.2128 -0.7734 -0.0403
   47TMC2    C5  731   2.011   3.032   8.973  0.2030 -0.1049  0.2257
   47TMC2    C6  732   2.100   3.019   8.868 -0.6032  0.0578  0.1200
   47TMC2     C  733   2.189   3.239   9.212 -0.4516  0.3670  0.0814
   47TMC2     O  734   2.098   3.258   9.286 -0.3794  0.7482 -0.4571
   47TMC2     H  735   2.356   3.172   9.010 -0.3172  0.0044  0.9457
   47TMC2    H1  736   1.961   3.101   9.165 -0.4438  0.5110 -0.5883
   47TMC2    H2  737   2.061   2.996   8.770  2.4438 -0.2568 -1.0223
   47TMC2    C7  738   1.875   2.971   8.960 -0.3794 -0.2036 -0.4282
   47TMC2    C8  739   2.302   3.067   8.769  0.2808  0.1984  0.4389
   47TMC2    O1  740   1.800   2.977   9.058  0.3923  0.3526 -0.1524
   47TMC2    O2  741   2.261   3.029   8.661 -0.8193  0.0421 -0.6223
   47TMC2    O5  742   2.426   3.033   8.821 -0.3035 -0.2202 -0.5013
   47TMC2    H5  743   2.429   3.035   8.919 -0.6697 -2.9574 -0.4242
   48MPD2     C  744   2.312   3.471   9.359  0.1973 -0.2827  0.3237
   48MPD2    C1  745   2.381   3.361   9.316  0.1519 -0.7541 -0.1507
   48MPD2    C2  746   2.509   3.352   9.361  0.1864  0.2269  0.2731
   48MPD2    C3  747   2.563   3.426   9.458 -0.3701 -0.5638  0.8350
   48MPD2    C4  748   2.487   3.536   9.498  0.1924  0.1380  0.1513
   48MPD2    C5  749   2.371   3.568   9.442 -0.2676 -0.0498 -0.0547
   48MPD2     H  750   2.561   3.262   9.329 -0.4979 -0.3546  0.7817
   48MPD2    H1  751   2.523   3.618   9.560  0.0807  0.2596  0.0559
   48MPD2    H2  752   2.212   3.487   9.319  0.6373 -4.7826 -2.6073
   48MPD2    H3  753   2.312   3.654   9.473  0.1979 -0.5207  2.1303
   48MPD2     N  754   2.686   3.391   9.509  0.3895  0.0789 -0.3515
   48MPD2    H5  755   2.729   3.309   9.468 -3.1310 -0.9150 -2.0183
   48MPD2    N1  756   2.328   3.261   9.225 -0.3729  0.0200  0.2371
   48MPD2    H7  757   2.391   3.185   9.201  1.8555  1.0317  2.9561
   49TMC2    C1  758   0.583   4.497  10.860  0.1485  0.1513 -0.3661
   49TMC2    C2  759   0.660   4.456  10.750 -0.2217  1.4675 -0.0414
   49TMC2    C3  760   0.686   4.321  10.738 -0.3107 -0.1749  0.0294
   49TMC2    C4  761   0.527   4.400  10.947  0.0255 -0.5712 -1.3322
   49TMC2    C5  762   0.538   4.270  10.916  0.2084 -0.0144 -0.9196
   49TMC2    C6  763   0.611   4.230  10.805 -0.1811  0.8069  0.6459
   49TMC2     C  764   0.578   4.646  10.883 -0.4306 -0.4041  0.8972
   49TMC2     O  765   0.594   4.722  10.784 -0.0180  0.5755  0.0358
   49TMC2     H  766   0.710   4.526  10.685  1.6154 -0.8333 -1.1167
   49TMC2    H1  767   0.483   4.434  11.040  1.9841 -1.6033 -0.0296
   49TMC2    H2  768   0.614   4.122  10.794  0.7019  0.7890  1.0520
   49TMC2    C7  769   0.454   4.179  10.984  0.6273  0.3593 -0.0993
   49TMC2    C8  770   0.744   4.262  10.620  0.1643 -0.0398 -0.1133
   49TMC2    O1  771   0.490   4.064  10.962 -0.2520  0.2397  0.5954
   49TMC2    O2  772   0.780   4.143  10.611 -0.3331 -0.1142 -0.7688
   49TMC2    O5  773   0.753   4.353  10.520 -0.5768  0.1174 -0.4254
   49TMC2    H5  774   0.684   4.423  10.518  0.5574  1.2496  0.2244
   50MPD2     C  775   0.500   0.183  10.986  0.4406 -0.4356 -0.1300
   50MPD2    C1  776   0.527   0.069  11.066 -0.6507 -0.1695  0.1404
   50MPD2    C2  777   0.522   0.103  11.199  0.4373 -0.0850  0.1957
   50MPD2    C3  778   0.486   0.224  11.247  0.4526 -0.3620 -0.3382
   50MPD2    C4  779   0.467   0.328  11.164 -0.0281 -0.1540  0.0361
   50MPD2    C5  780   0.478   0.308  11.031  0.2597 -0.0266  0.4688
   50MPD2     H  781   0.535   0.028  11.277 -0.0695  0.5395  0.8831
   50MPD2    H1  782   0.436   0.429  11.190 -0.2915 -0.5528  1.2655
   50MPD2    H2  783   0.504   0.174  10.879  0.2553  0.3086 -0.2013
   50MPD2    H3  784   0.451   0.381  10.955  0.8354 -1.5073 -1.1697
   50MPD2     N  785   0.487   0.259  11.389 -0.2734 -0.3912  0.1551
   50MPD2    H5  786   0.465   0.356  11.408 -0.0362 -0.0036 -1.5154
   50MPD2    N1  787   0.550   4.677  11.018  0.2297  0.0337 -0.0143
   50MPD2    H7  788   0.553   4.602  11.087 -0.9499  0.3006  0.3116
   51TMC2    C1  789   1.020   3.135   1.558  0.8065  0.3509  0.1302
   51TMC2    C2  790   0.902   3.124   1.633 -0.8412 -0.7083 -0.8982
   51TMC2    C3  791   0.878   3.201   1.744 -0.1175 -1.1002  0.0133
   51TMC2    C4  792   1.123   3.219   1.602 -0.6414 -0.6775 -0.2312
   51TMC2    C5  793   1.103   3.285   1.726  0.1050 -0.7376 -0.2905
   51TMC2    C6  794   0.979   3.281   1.789  0.1329  0.0251  0.4234
   51TMC2     C  795   1.049   3.039   1.459  0.3960 -0.7035  0.2965
   51TMC2     O  796   1.162   3.029   1.414  0.0134 -0.1407 -0.4872
   51TMC2     H  797   0.824   3.056   1.604 -0.9325  0.6190 -3.7701
   51TMC2    H1  798   1.224   3.216   1.563 -1.1056  2.7916 -1.7458
   51TMC2    H2  799   0.963   3.338   1.880 -2.9692 -1.8039  1.0312
   51TMC2    C7  800   1.211   3.347   1.797  0.7623 -0.2865  0.0591
   51TMC2    C8  801   0.760   3.174   1.820 -0.0437 -0.5362 -0.0092
   51TMC2    O1  802   1.175   3.429   1.881  0.2608 -0.3838 -0.2322
   51TMC2    O2  803   0.698   3.070   1.797  0.8764  0.4726 -0.6130
   51TMC2    O5  804   0.749   3.264   1.922 -0.7018  0.4168  0.0817
   51TMC2    H5  805   0.778   3.349   1.881 -1.3748  0.1513 -0.9525
   52MPD2     C  806   0.949   2.626   1.169 -0.0307  0.4694  0.2529
   52MPD2    C1  807   1.068   2.688   1.205  0.0165  0.4965  0.0627
   52MPD2    C2  808   1.070   2.792   1.295 -0.1536 -0.3512  0.3366
   52MPD2    C3  809   0.948   2.849   1.337  0.4981 -0.3952  0.2283
   52MPD2    C4  810   0.830   2.802   1.286 -0.3380  0.2016  0.6264
   52MPD2    C5  811   0.832   2.689   1.210  0.1766  0.0211  0.6145
   52MPD2     H  812   1.166   2.822   1.336 -0.0156  1.0155 -0.9743
   52MPD2    H1  813   0.734   2.840   1.320  0.4020  1.9261  0.8276
   52MPD2    H2  814   0.951   2.538   1.106  1.4678 -0.3099  1.3918
   52MPD2    H3  815   0.735   2.648   1.182  0.3508 -2.4319  3.5613
   52MPD2     N  816   0.941   2.954   1.428  0.0537 -0.0947 -0.0958
   52MPD2    H5  817   0.853   2.983   1.468 -0.3800 -3.0527  1.1073
   52MPD2    N1  818   1.194   2.634   1.160  0.2158  0.5637  0.0548
   52MPD2    H7  819   1.271   2.697   1.182  0.0660  0.6014  0.4685
   53TMC2    C1  820   1.521   2.991  12.641  0.4088 -0.2354 -0.0174
   53TMC2    C2  821   1.616   3.070  12.694 -0.0278  0.6974  0.3852
   53TMC2    C3  822   1.614   3.087  12.830 -0.5198 -0.2715 -0.2832
   53TMC2    C4  823   1.429   2.925  12.722  0.3196 -0.4424 -0.2666
   53TMC2    C5  824   1.446   2.937  12.860  0.4301  0.5944  0.4085
   53TMC2    C6  825   1.536   3.023  12.917  0.4181  0.0763  0.1667
   53TMC2     C  826   1.546   2.937  12.510  0.0508 -0.1220 -0.6817
   53TMC2     O  827   1.653   2.966  12.460  0.1039  0.1104  0.5271
   53TMC2     H  828   1.699   3.106  12.635 -2.3275  2.5871 -1.6997
   53TMC2    H1  829   1.370   2.839  12.693 -0.4825  0.3276 -0.8976
   53TMC2    H2  830   1.538   3.037  13.025 -1.7835 -0.9934  0.3348
   53TMC2    C7  831   1.340   2.886  12.939  0.3423 -0.2269  0.1626
   53TMC2    C8  832   1.713   3.171  12.891  0.4366 -0.3795 -0.3799
   53TMC2    O1  833   1.228   2.888  12.889  0.1691  0.5865  0.7538
   53TMC2    O2  834   1.748   3.152  13.010  0.5394  0.1354 -0.0795
   53TMC2    O5  835   1.764   3.257  12.807 -0.9324 -0.2852 -0.4875
   53TMC2    H5  836   1.703   3.281  12.733 -2.1774  0.2290  0.7036
   54MPD2     C  837   1.527   2.825  12.245 -0.1640 -0.4360 -0.2686
   54MPD2    C1  838   1.420   2.821  12.339 -0.2756 -0.2489 -0.6228
   54MPD2    C2  839   1.298   2.769  12.299 -0.2881  0.2369 -0.2199
   54MPD2    C3  840   1.281   2.720  12.172  0.3132 -0.6796  0.7178
   54MPD2    C4  841   1.378   2.730  12.076 -0.7349 -0.6100 -0.2313
   54MPD2    C5  842   1.497   2.778  12.116 -0.7734  0.1695  0.0516
   54MPD2     H  843   1.220   2.763  12.374  1.4064 -1.0525  1.4422
   54MPD2    H1  844   1.384   2.687  11.977  2.8486 -1.8640  0.5325
   54MPD2    H2  845   1.626   2.854  12.276 -0.1433 -2.3651  1.4668
   54MPD2    H3  846   1.579   2.766  12.045 -1.8822  1.6386 -1.4751
   54MPD2     N  847   1.167   2.647  12.123 -0.3711 -0.5050 -0.4947
   54MPD2    H5  848   1.169   2.618  12.026 -2.0965  2.5441 -1.4390
   54MPD2    N1  849   1.432   2.881  12.465  0.5094  0.1136  0.3726
   54MPD2    H7  850   1.359   2.881  12.535  0.7718 -2.0335  0.6694
   55TMC2    C1  851   2.577   0.144   0.982 -0.7111 -0.2200 -0.3165
   55TMC2    C2  852   2.671   0.212   1.052  0.5499  0.6815 -0.4070
   55TMC2    C3  853   2.788   0.149   1.088 -0.5754  0.7903  0.0789
   55TMC2    C4  854   2.599   0.008   0.961 -0.7346 -0.1026 -0.0651
   55TMC2    C5  855   2.720   4.687   0.992  0.0440  0.8925  0.5529
   55TMC2    C6  856   2.813   0.017   1.063  0.7306  0.1866  0.1145
   55TMC2     C  857   2.442   0.192   0.958 -0.6863  0.8109 -0.3440
   55TMC2     O  858   2.356   0.114   0.931  0.0438  0.1226  0.2952
   55TMC2     H  859   2.662   0.320   1.055  3.0114  0.8383  1.2530
   55TMC2    H1  860   2.534   4.692   0.891  0.9447 -0.7019 -1.1742
   55TMC2    H2  861   2.905   4.707   1.097 -0.1634 -2.5428 -1.1596
   55TMC2    C7  862   2.742   4.537   0.983 -0.2186  0.1154  0.8215
   55TMC2    C8  863   2.878   0.222   1.174 -0.3796 -0.2131  0.1845
   55TMC2    O1  864   2.855   4.501   1.017 -0.0863 -0.6779 -0.0631
   55TMC2    O2  865   2.866   0.340   1.179 -0.0288  0.1043  0.5320
   55TMC2    O5  866   2.894   0.157   1.293  0.3456  0.3484 -0.2712
   55TMC2    H5  867   2.894   0.060   1.287  1.2980  0.2744  0.7895
   56MPD2     C  868   2.321   0.532   0.924 -0.1052  0.0964 -0.4245
   56MPD2    C1  869   2.314   0.399   0.945 -0.1902 -0.7274  1.1536
   56MPD2    C2  870   2.190   0.338   0.961  0.0782  0.4084 -0.1466
   56MPD2    C3  871   2.071   0.400   0.940  0.7695 -0.3486  0.3046
   56MPD2    C4  872   2.067   0.537   0.914  0.1053  0.3118 -0.2803
   56MPD2    C5  873   2.198   0.594   0.908  0.3385  0.2569 -0.2415
   56MPD2     H  874   2.185   0.235   0.994  3.0396 -0.3584 -2.0843
   56MPD2    H1  875   1.975   0.591   0.896 -0.7782 -0.5803  1.5725
   56MPD2    H2  876   2.414   0.587   0.915 -0.3380  0.9458  2.6063
   56MPD2    H3  877   2.205   0.701   0.892 -1.0889  0.1856 -1.3149
   56MPD2     N  878   1.952   0.326   0.941 -0.2394 -0.0347 -0.2354
   56MPD2    H5  879   1.975   0.231   0.967  1.0707  1.4175  3.9479
   56MPD2    N1  880   2.434   0.320   0.959 -0.2183  0.4129 -0.1037
   56MPD2    H7  881   2.523   0.365   0.943  0.1069 -0.2616 -0.1891
   57TMC2    C1  882   1.176   1.464  13.160  0.7319 -0.2574 -0.7302
   57TMC2    C2  883   1.155   1.328  13.172  0.6733 -0.0808  0.4388
   57TMC2    C3  884   1.250   1.241  13.124  0.3230 -0.5068 -0.3630
   57TMC2    C4  885   1.298   1.512  13.132 -0.5968 -0.5869 -0.2658
   57TMC2    C5  886   1.399   1.423  13.106 -0.2182  0.0944 -0.8170
   57TMC2    C6  887   1.376   1.284  13.096 -0.2904 -0.0110 -1.1735
   57TMC2     C  888   1.121   1.535  13.272 -0.0893  0.2066  0.4792
   57TMC2     O  889   1.108   1.656  13.270 -0.5102  0.5212 -0.3398
   57TMC2     H  890   1.063   1.289  13.215 -0.1595  0.7345 -0.5876
   57TMC2    H1  891   1.309   1.620  13.138 -1.3621 -0.5961  1.3378
   57TMC2    H2  892   1.454   1.208  13.092 -1.7677 -1.4802 -1.9647
   57TMC2    C7  893   1.530   1.471  13.111 -0.3510  0.0114  0.1898
   57TMC2    C8  894   1.246   1.102  13.157  0.3630 -0.4552  0.8458
   57TMC2    O1  895   1.547   1.589  13.145 -0.1901 -1.2699  0.0977
   57TMC2    O2  896   1.339   1.039  13.196 -0.2808 -0.2730 -0.3251
   57TMC2    O5  897   1.163   1.057  13.062 -0.5800 -0.0087 -0.0783
   57TMC2    H5  898   1.105   1.120  13.015  0.3324 -0.7521 -2.1825
   58MPD2     C  899   0.966   1.598  13.762  0.1855  0.2937  0.1680
   58MPD2    C1  900   0.926   1.661  13.640 -0.3704 -0.6633 -0.2786
   58MPD2    C2  901   0.966   1.611  13.519 -0.7811  0.0322 -0.3695
   58MPD2    C3  902   1.058   1.504  13.506  0.0645 -0.9870 -0.0611
   58MPD2    C4  903   1.094   1.436  13.618  0.0710 -0.3190  0.0864
   58MPD2    C5  904   1.048   1.485  13.738  0.8534 -0.5603 -0.4259
   58MPD2     H  905   0.918   1.641  13.426 -2.2395 -1.4888 -0.1065
   58MPD2    H1  906   1.163   1.353  13.612 -0.4293 -0.6397 -1.3036
   58MPD2    H2  907   0.931   1.628  13.860 -0.7866 -0.0308 -0.0751
   58MPD2    H3  908   1.079   1.438  13.831 -2.8594 -0.5927  0.8147
   58MPD2     N  909   1.109   1.458  13.385  0.2001  0.1773 -0.0394
   58MPD2    H5  910   1.161   1.372  13.393  2.5657  1.9117  3.3710
   58MPD2    N1  911   0.852   1.777  13.636  0.1591  0.5631 -0.1320
   58MPD2    H7  912   0.822   1.806  13.544 -2.1484  1.3487  0.8518
   59TMC2    C1  913   3.776   1.445  13.169 -1.0306  0.2152  0.3102
   59TMC2    C2  914   3.658   1.406  13.120  0.3784  0.0994  0.1323
   59TMC2    C3  915   3.610   1.486  13.015  0.0172 -0.1734  0.0289
   59TMC2    C4  916   3.841   1.554  13.134 -0.5008 -0.3198  0.1923
   59TMC2    C5  917   3.790   1.631  13.034 -0.5712 -0.5206  0.4065
   59TMC2    C6  918   3.673   1.597  12.968  0.1435 -0.0250  0.0870
   59TMC2     C  919   3.838   1.346  13.259  0.3956 -0.6632 -1.0349
   59TMC2     O  920   3.816   1.230  13.230  0.2348 -0.1039 -0.5577
   59TMC2     H  921   3.603   1.328  13.171  2.1165 -0.7007  0.8172
   59TMC2    H1  922   3.947   1.563  13.156 -0.5692 -0.8591  0.7211
   59TMC2    H2  923   3.636   1.656  12.885 -1.2629 -2.1988 -0.8273
   59TMC2    C7  924   3.882   1.734  12.981  0.3801 -0.3989  0.0468
   59TMC2    C8  925   3.475   1.463  12.972  0.3765  0.2295  0.8117
   59TMC2    O1  926   4.004   1.714  12.997  0.4563 -0.2605  0.3330
   59TMC2    O2  927   3.400   1.548  12.928 -0.1892  0.0633  0.2606
   59TMC2    O5  928   3.438   1.342  13.014  0.0201 -0.1404 -0.3419
   59TMC2    H5  929   3.504   1.270  13.023  0.4155  0.0089 -1.9613
   60MPD2     C  930   4.064   1.212  13.387 -1.1072 -0.5007 -0.6595
   60MPD2    C1  931   4.022   1.347  13.415  0.6530  0.6797  0.2008
   60MPD2    C2  932   4.099   1.431  13.490  0.2862 -0.2940  0.5743
   60MPD2    C3  933   4.214   1.387  13.549  0.0087 -0.0651  0.8701
   60MPD2    C4  934   4.252   1.254  13.537 -0.0098  0.4015  0.2943
   60MPD2    C5  935   4.180   1.168  13.450 -0.2486 -0.2465  0.1634
   60MPD2     H  936   4.072   1.535  13.478 -0.9867 -0.2331  3.8521
   60MPD2    H1  937   4.336   1.211  13.590  0.3486 -2.6672 -2.7336
   60MPD2    H2  938   4.009   1.146  13.320 -0.1052 -3.0315  1.0285
   60MPD2    H3  939   4.208   1.064  13.438  0.0142 -0.2343  0.6857
   60MPD2     N  940   4.296   1.465  13.628  0.0643  0.1319  0.7199
   60MPD2    H5  941   4.374   1.416  13.670  0.3536  1.1318  1.3413
   60MPD2    N1  942   3.913   1.412  13.350 -0.2689 -0.2183  0.2936
   60MPD2    H7  943   3.907   1.512  13.365  0.7424 -0.3077  1.3602
   61TMC2    C1  944   3.735   3.047  15.576  0.0009  0.5853 -0.5364
   61TMC2    C2  945   3.695   2.964  15.679 -0.2355  0.0383  0.7673
   61TMC2    C3  946   3.650   3.018  15.795 -0.1871  0.1011 -1.1720
   61TMC2    C4  947   3.723   3.185  15.591 -0.0550 -0.7221  0.7270
   61TMC2    C5  948   3.670   3.232  15.710  0.1203 -0.0184  1.6098
   61TMC2    C6  949   3.633   3.151  15.811  0.7693  0.4469 -0.3716
   61TMC2     C  950   3.747   2.986  15.447  0.8377 -0.6327 -0.0558
   61TMC2     O  951   3.772   2.866  15.453 -0.3824 -0.1025  0.2060
   61TMC2     H  952   3.722   2.859  15.678 -0.8869 -0.1250  0.8793
   61TMC2    H1  953   3.759   3.257  15.519 -0.6784  0.0554  1.1937
   61TMC2    H2  954   3.588   3.193  15.900 -2.0774  1.0003 -2.0833
   61TMC2    C7  955   3.631   3.370  15.705 -1.0383  0.0406 -0.7247
   61TMC2    C8  956   3.633   2.940  15.914 -0.0519  0.0927 -0.3787
   61TMC2    O1  957   3.699   3.455  15.651 -0.9474  0.4058  0.0572
   61TMC2    O2  958   3.567   2.986  16.007 -0.5751 -0.2029  0.1921
   61TMC2    O5  959   3.660   2.806  15.896  0.2818  0.0995  0.2100
   61TMC2    H5  960   3.735   2.786  15.836 -0.0686 -1.3296  0.2352
   62MPD2     C  961   3.873   2.978  15.187 -0.2439  0.2651 -0.8948
   62MPD2    C1  962   3.758   3.049  15.212  0.3225  0.0081  0.3674
   62MPD2    C2  963   3.703   3.126  15.107  0.1260  0.6977 -0.2579
   62MPD2    C3  964   3.757   3.124  14.981  0.6376  0.4860 -0.1208
   62MPD2    C4  965   3.866   3.048  14.961 -0.4576  0.0814 -0.1300
   62MPD2    C5  966   3.923   2.969  15.058  0.3598  0.0398  0.5190
   62MPD2     H  967   3.613   3.183  15.124 -0.3417 -0.6897  1.9996
   62MPD2    H1  968   3.916   3.061  14.865  0.1912 -3.0550 -0.1948
   62MPD2    H2  969   3.923   2.913  15.257 -3.1425 -0.8360  0.1353
   62MPD2    H3  970   4.016   2.923  15.027  0.8070  0.7564  0.8118
   62MPD2     N  971   3.709   3.203  14.877  0.3506 -0.8572  0.1606
   62MPD2    H5  972   3.772   3.227  14.801  1.0535  0.4057  1.1347
   62MPD2    N1  973   3.710   3.069  15.345  0.5203 -0.0780  0.2901
   62MPD2    H7  974   3.653   3.151  15.364  1.1445  0.3788  0.2378
   63TMC2    C1  975   2.514   3.250  10.363 -0.5281 -0.2541  0.5620
   63TMC2    C2  976   2.518   3.387  10.365  0.1278 -0.1297 -0.1304
   63TMC2    C3  977   2.467   3.456  10.257 -0.3183  0.1712 -0.3843
   63TMC2    C4  978   2.466   3.184  10.249  0.7994 -1.1975  0.1295
   63TMC2    C5  979   2.425   3.260  10.145 -0.0023  0.2911 -0.4348
   63TMC2    C6  980   2.417   3.395  10.144 -0.5301  0.3062  0.2099
   63TMC2     C  981   2.482   3.194  10.494 -0.2911 -0.3930 -0.3509
   63TMC2     O  982   2.443   3.279  10.570 -0.1257  0.4573  0.6272
   63TMC2     H  983   2.562   3.443  10.447 -3.0381  1.2669  0.6185
   63TMC2    H1  984   2.453   3.077  10.245 -1.5181 -0.9383  0.4372
   63TMC2    H2  985   2.375   3.454  10.064  0.0658  1.5916  0.8501
   63TMC2    C7  986   2.368   3.185  10.028 -0.5568  0.2764 -0.1035
   63TMC2    C8  987   2.432   3.590  10.276  0.1526 -0.1088  0.0043
   63TMC2    O1  988   2.374   3.064  10.030 -0.5397  0.0259 -0.3500
   63TMC2    O2  989   2.325   3.629  10.240  0.4785 -0.2868 -0.6009
   63TMC2    O5  990   2.508   3.658  10.365  0.4055 -0.1136  0.2139
   63TMC2    H5  991   2.594   3.610  10.363  0.6716  0.4446 -1.9671
   64MPD2     C  992   2.337   2.821  10.812 -0.1748 -0.5184 -0.8683
   64MPD2    C1  993   2.352   2.766  10.687 -0.4187 -0.6009 -0.6467
   64MPD2    C2  994   2.404   2.847  10.594  0.6596 -0.4875  0.4592
   64MPD2    C3  995   2.413   2.988  10.610 -0.1329 -0.0979 -0.6014
   64MPD2    C4  996   2.387   3.042  10.730  0.0429  0.1065  0.3625
   64MPD2    C5  997   2.339   2.955  10.823 -0.4416  0.3353  0.2768
   64MPD2     H  998   2.424   2.807  10.495  0.2737  0.0105  0.1798
   64MPD2    H1  999   2.384   3.148  10.751 -0.0294 -0.0076  0.9360
   64MPD2    H2 1000   2.298   2.767  10.897  1.1898 -1.1096 -0.6146
   64MPD2    H3 1001   2.314   3.005  10.916  0.8816  1.8347 -0.1664
   64MPD2     N 1002   2.466   3.055  10.499 -0.1381  0.0505  0.2675
   64MPD2    H5 1003   2.500   3.005  10.417  1.4378 -0.4864  1.2426
   64MPD2    N1 1004   2.354   2.630  10.654  0.3160  0.3461  0.0738
   64MPD2    H7 1005   2.395   2.597  10.567 -1.4518  0.5999 -0.8631
   65TMC2    C1 1006   3.933   2.465  15.415  0.5015  0.8529  0.1739
   65TMC2    C2 1007   3.950   2.411  15.294 -0.3062 -0.0799 -0.4000
   65TMC2    C3 1008   4.034   2.472  15.203 -0.3456  0.1681 -0.2893
   65TMC2    C4 1009   3.978   2.596  15.448 -0.2934  0.6207 -0.5825
   65TMC2    C5 1010   4.054   2.655  15.346 -0.2364  0.2971  0.0105
   65TMC2    C6 1011   4.078   2.601  15.224  0.9034 -1.1019 -0.4182
   65TMC2     C 1012   3.886   2.389  15.529 -0.3112 -0.0555 -0.2783
   65TMC2     O 1013   3.833   2.443  15.626 -0.1387 -0.5945 -0.3347
   65TMC2     H 1014   3.890   2.325  15.269  1.5420 -1.1670 -1.1088
   65TMC2    H1 1015   3.951   2.653  15.536 -0.2628  0.1725 -0.2879
   65TMC2    H2 1016   4.148   2.638  15.150  0.9490  1.2379  0.7993
   65TMC2    C7 1017   4.117   2.784  15.367 -0.3670 -0.4121 -0.0111
   65TMC2    C8 1018   4.089   2.372  15.106 -0.4353  0.7724 -0.0796
   65TMC2    O1 1019   4.203   2.807  15.282  0.1148  0.0139 -0.1067
   65TMC2    O2 1020   4.069   2.255  15.119 -0.1223 -0.3699  0.0545
   65TMC2    O5 1021   4.204   2.428  15.055  0.0256 -0.5108 -0.6824
   65TMC2    H5 1022   4.201   2.526  15.044  1.5444 -0.2931  0.8236
   66MPD2     C 1023   3.812   2.179  15.736  0.6466  0.7544 -0.3485
   66MPD2    C1 1024   3.881   2.160  15.616 -0.5123  0.0119 -0.1664
   66MPD2    C2 1025   3.925   2.033  15.590 -0.4814  0.7364 -0.6424
   66MPD2    C3 1026   3.882   1.925  15.666 -0.5390 -1.1165  1.0096
   66MPD2    C4 1027   3.810   1.947  15.781  0.3075 -0.0399 -0.4851
   66MPD2    C5 1028   3.771   2.074  15.812 -0.4309 -0.0025  0.0839
   66MPD2     H 1029   3.981   2.016  15.499 -1.4207 -3.1426 -0.4744
   66MPD2    H1 1030   3.775   1.871  15.850  2.0343 -0.1788  0.2376
   66MPD2    H2 1031   3.776   2.276  15.768  0.5678  0.0308  1.7389
   66MPD2    H3 1032   3.710   2.090  15.900 -2.0316  1.1741 -1.2528
   66MPD2     N 1033   3.911   1.792  15.630 -0.1937  0.2852  0.4000
   66MPD2    H5 1034   3.878   1.722  15.696  0.1856  1.7505  2.1478
   66MPD2    N1 1035   3.920   2.257  15.519 -0.1205 -0.2335  0.2629
   66MPD2    H7 1036   3.967   2.220  15.437  0.8702 -0.6153  1.0067
   67TMC2    C1 1037   4.129   1.848  14.430 -0.1557 -0.0716  0.1496
   67TMC2    C2 1038   4.098   1.981  14.444  0.1349 -0.5008  0.1647
   67TMC2    C3 1039   4.144   2.038  14.553 -0.1381  0.4105 -0.2059
   67TMC2    C4 1040   4.215   1.779  14.505 -0.3220 -0.1746  0.4965
   67TMC2    C5 1041   4.268   1.846  14.613  0.2289 -0.3299 -1.3730
   67TMC2    C6 1042   4.228   1.978  14.643  0.7079 -0.3219 -0.8167
   67TMC2     C 1043   4.065   1.777  14.319  0.1549 -0.4580  0.0666
   67TMC2     O 1044   4.112   1.667  14.285 -0.6609 -0.0525  0.3442
   67TMC2     H 1045   4.056   2.037  14.361 -1.7582 -0.5248  1.0958
   67TMC2    H1 1046   4.230   1.673  14.491 -1.4250 -0.4950  1.6874
   67TMC2    H2 1047   4.276   2.051  14.708 -0.3174 -1.0912  0.8030
   67TMC2    C7 1048   4.367   1.775  14.695 -0.3490 -0.6716  0.4052
   67TMC2    C8 1049   4.112   2.180  14.564 -0.4086 -0.5191 -0.2677
   67TMC2    O1 1050   4.417   1.676  14.651 -0.0856  0.5065  0.4912
   67TMC2    O2 1051   4.061   2.240  14.470 -0.1553 -0.4022 -0.1331
   67TMC2    O5 1052   4.102   2.218  14.692  0.5094 -0.3786 -0.1012
   67TMC2    H5 1053   4.140   2.152  14.754 -1.1648 -2.1929 -1.0009
   68MPD2     C 1054   3.905   1.701  14.083  0.3133 -0.1920 -0.2346
   68MPD2    C1 1055   3.865   1.786  14.186 -0.9280  0.6154  1.0912
   68MPD2    C2 1056   3.732   1.821  14.188  0.3789  0.0777  0.0549
   68MPD2    C3 1057   3.638   1.774  14.092 -0.3326  0.1940  0.0782
   68MPD2    C4 1058   3.686   1.704  13.986  0.5777 -0.3033  0.5649
   68MPD2    C5 1059   3.815   1.675  13.986  0.2024 -0.8220  0.2351
   68MPD2     H 1060   3.703   1.881  14.274  1.4860  1.9829 -0.9056
   68MPD2    H1 1061   3.628   1.673  13.900 -0.9698  2.0231  0.7639
   68MPD2    H2 1062   4.006   1.664  14.066  0.7732  0.3126  1.4694
   68MPD2    H3 1063   3.853   1.619  13.900 -1.1482 -1.2086 -0.1008
   68MPD2     N 1064   3.505   1.817  14.097  0.3706 -0.3711  0.5788
   68MPD2    H5 1065   3.457   1.796  14.010 -1.1936 -0.8605  1.5525
   68MPD2    N1 1066   3.948   1.836  14.285 -0.3139 -0.2238 -0.1238
   68MPD2    H7 1067   3.911   1.903  14.352 -0.0113  1.2241 -1.3844
   69TMC2    C1 1068   0.837   3.133  12.856  0.1076 -0.5884  0.4877
   69TMC2    C2 1069   0.706   3.151  12.816 -0.5554  0.4610 -0.0403
   69TMC2    C3 1070   0.679   3.163  12.688 -0.3822  0.4388  0.4251
   69TMC2    C4 1071   0.924   3.089  12.762 -0.1951 -0.1306 -0.6914
   69TMC2    C5 1072   0.891   3.096  12.630 -0.1404  0.4803 -0.7885
   69TMC2    C6 1073   0.768   3.133  12.588 -0.3897  0.1552  0.1666
   69TMC2     C 1074   0.864   3.097  12.990 -0.7494 -0.9121 -0.2775
   69TMC2     O 1075   0.768   3.069  13.063  0.5740 -0.3311 -0.6215
   69TMC2     H 1076   0.632   3.187  12.887 -0.1027 -0.2318  0.7878
   69TMC2    H1 1077   1.018   3.050  12.800  0.1263  0.1871 -1.1540
   69TMC2    H2 1078   0.744   3.145  12.483  2.4837 -0.4920 -0.5497
   69TMC2    C7 1079   1.005   3.085  12.534  0.0563 -0.9011 -0.2019
   69TMC2    C8 1080   0.543   3.202  12.655  0.2030  0.4548 -0.0139
   69TMC2    O1 1081   1.117   3.092  12.581 -0.2457 -0.0507  0.1288
   69TMC2    O2 1082   0.452   3.185  12.733 -0.0339  0.0829 -0.6824
   69TMC2    O5 1083   0.551   3.299  12.557 -0.0802 -0.2951 -0.7823
   69TMC2    H5 1084   0.638   3.307  12.512  0.3351 -1.0740 -0.1020
   70MPD2     C 1085   1.182   3.173  13.169  0.1357  0.3774  0.0457
   70MPD2    C1 1086   1.051   3.126  13.158 -0.0678  0.4534 -0.1907
   70MPD2    C2 1087   0.980   3.075  13.269  0.1778  0.3120 -0.6991
   70MPD2    C3 1088   1.033   3.080  13.397 -0.0239  0.1185 -0.4422
   70MPD2    C4 1089   1.164   3.138  13.404 -0.6593  0.1342 -0.1402
   70MPD2    C5 1090   1.244   3.167  13.293  0.0700  0.3503 -0.0874
   70MPD2     H 1091   0.877   3.039  13.267  0.4917 -0.4659 -2.5753
   70MPD2    H1 1092   1.206   3.140  13.504 -0.3680 -0.4203 -0.2531
   70MPD2    H2 1093   1.233   3.217  13.084 -0.5478 -0.3898 -0.7403
   70MPD2    H3 1094   1.350   3.177  13.310  0.1797  0.0125 -0.5641
   70MPD2     N 1095   0.985   3.010  13.509 -0.5978  0.1373  0.3200
   70MPD2    H5 1096   1.045   2.995  13.590 -0.9256  0.2581  0.5850
   70MPD2    N1 1097   0.998   3.124  13.023  0.0146  0.1119 -0.3825
   70MPD2    H7 1098   1.059   3.162  12.952  1.8649 -1.5007  0.3454
   71TMC2    C1 1099   2.887   1.520   1.422  0.0388 -0.0798 -1.3014
   71TMC2    C2 1100   2.928   1.402   1.481  0.3588  0.5497  0.5836
   71TMC2    C3 1101   2.821   1.325   1.525  0.0267  0.0361  0.7251
   71TMC2    C4 1102   2.755   1.566   1.424  0.4296 -0.2776  0.2548
   71TMC2    C5 1103   2.656   1.484   1.471 -0.1064  0.2957 -0.0346
   71TMC2    C6 1104   2.684   1.356   1.518  0.0689 -0.0394  0.3981
   71TMC2     C 1105   2.982   1.601   1.363 -0.0358 -0.3731 -0.5439
   71TMC2     O 1106   2.944   1.713   1.338  0.1960 -0.2410 -0.1790
   71TMC2     H 1107   3.029   1.362   1.480 -0.2315 -0.9286  0.4985
   71TMC2    H1 1108   2.720   1.651   1.368  0.3822  0.9998  2.2238
   71TMC2    H2 1109   2.618   1.286   1.569 -1.6996  0.7340 -0.7902
   71TMC2    C7 1110   2.535   1.544   1.529 -0.1726 -0.3739  0.3339
   71TMC2    C8 1111   2.853   1.197   1.591  0.2898  0.5182 -0.0179
   71TMC2    O1 1112   2.492   1.480   1.624  0.1077 -0.2979  0.0454
   71TMC2    O2 1113   2.770   1.113   1.603 -0.2178 -0.1037 -0.2148
   71TMC2    O5 1114   2.969   1.207   1.662  0.4035  0.0441 -0.2674
   71TMC2    H5 1115   2.999   1.299   1.671 -0.3440  0.3586 -0.9993
   72MPD2     C 1116   3.437   1.702   1.140  0.0729  0.2006  0.3225
   72MPD2    C1 1117   3.323   1.774   1.147  0.7494 -0.7945 -0.3497
   72MPD2    C2 1118   3.212   1.726   1.212  0.8123 -0.5052  0.7678
   72MPD2    C3 1119   3.212   1.600   1.270  0.6161  0.0498  0.3288
   72MPD2    C4 1120   3.316   1.520   1.252  0.2345  0.1159  0.5934
   72MPD2    C5 1121   3.425   1.575   1.188 -0.0922 -0.3918 -0.3951
   72MPD2     H 1122   3.128   1.793   1.224  0.6078 -0.5824 -0.2561
   72MPD2    H1 1123   3.317   1.415   1.282 -1.2359 -0.0713 -0.0211
   72MPD2    H2 1124   3.530   1.721   1.088  0.1272 -1.6401 -0.2831
   72MPD2    H3 1125   3.509   1.509   1.168 -0.0809 -1.3376  2.8395
   72MPD2     N 1126   3.102   1.538   1.339  0.0762  0.2506 -0.6289
   72MPD2    H5 1127   3.114   1.441   1.366 -1.0217 -0.1488 -1.5583
   72MPD2    N1 1128   3.307   1.903   1.095  0.5017  0.1396  0.3085
   72MPD2    H7 1129   3.212   1.937   1.106  0.4984  0.1989  0.0872
   73TMC2    C1 1130   3.555   0.296  14.720 -0.6600 -0.1749  0.2509
   73TMC2    C2 1131   3.598   0.214  14.614  0.3695 -0.3630  0.1826
   73TMC2    C3 1132   3.722   0.161  14.626  0.2682 -0.1557  0.0347
   73TMC2    C4 1133   3.624   0.293  14.837 -0.2224 -0.6248 -0.0746
   73TMC2    C5 1134   3.743   0.232  14.848  0.0103  0.1982 -0.8448
   73TMC2    C6 1135   3.786   0.171  14.740 -0.4072 -0.6866 -0.2103
   73TMC2     C 1136   3.484   0.417  14.687 -0.5768 -0.0219  0.4064
   73TMC2     O 1137   3.524   0.510  14.758  0.0477 -0.2533  0.7012
   73TMC2     H 1138   3.549   0.215  14.518  1.4320  1.5572 -0.3408
   73TMC2    H1 1139   3.598   0.344  14.929  1.0706 -0.9144  0.4466
   73TMC2    H2 1140   3.886   0.129  14.745 -0.6395 -1.3971 -1.6771
   73TMC2    C7 1141   3.848   0.320  14.895 -0.0726 -0.5392 -0.4303
   73TMC2    C8 1142   3.806   0.159  14.505  0.0075 -0.6763  0.0052
   73TMC2    O1 1143   3.959   0.270  14.916  0.0516  0.3326 -0.7995
   73TMC2    O2 1144   3.927   0.125  14.519  0.1672 -0.0888  0.4766
   73TMC2    O5 1145   3.750   0.205  14.392 -0.5443  0.3504 -0.2161
   73TMC2    H5 1146   3.652   0.213  14.390 -0.7133 -1.7611 -0.1010
   74MPD2     C 1147   3.281   0.719  14.335  0.4347  0.4599  0.1306
   74MPD2    C1 1148   3.377   0.745  14.425 -1.2712 -0.3512 -0.4035
   74MPD2    C2 1149   3.412   0.646  14.516  0.0344  0.2844  0.7534
   74MPD2    C3 1150   3.368   0.510  14.496 -0.0847 -0.3519  0.1668
   74MPD2    C4 1151   3.275   0.488  14.394  0.2675  0.2784 -1.0728
   74MPD2    C5 1152   3.230   0.594  14.322 -0.2472 -0.4356  0.0248
   74MPD2     H 1153   3.478   0.672  14.599  0.6768 -1.3743  0.7576
   74MPD2    H1 1154   3.240   0.388  14.372  0.4377 -0.2486  1.0459
   74MPD2    H2 1155   3.259   0.797  14.263  1.1387  0.7968  0.2786
   74MPD2    H3 1156   3.160   0.588  14.239 -1.1939  0.6966  0.7409
   74MPD2     N 1157   3.403   0.400  14.574  0.0507  0.3386  1.0789
   74MPD2    H5 1158   3.373   0.309  14.542 -2.9866  1.7234 -0.0222
   74MPD2    N1 1159   3.417   0.879  14.433  0.4139  0.3805 -0.5637
   74MPD2    H7 1160   3.388   0.949  14.366 -1.9440 -1.2015 -1.1907
   75TMC2    C1 1161   3.298   1.923  14.176  0.8202  0.0766 -0.2654
   75TMC2    C2 1162   3.202   1.901  14.272 -0.0504  0.6782 -0.0956
   75TMC2    C3 1163   3.073   1.942  14.248 -0.7159 -0.1305  0.4619
   75TMC2    C4 1164   3.269   1.982  14.061 -0.2616 -0.6394 -0.2882
   75TMC2    C5 1165   3.139   2.030  14.048 -0.6888 -0.0489  0.7277
   75TMC2    C6 1166   3.038   2.017  14.140  0.5616  0.2741  0.5533
   75TMC2     C 1167   3.432   1.874  14.201 -0.0114 -0.0505  0.3557
   75TMC2     O 1168   3.472   1.896  14.316  0.4600  0.4343  0.0137
   75TMC2     H 1169   3.234   1.841  14.356 -0.3873 -1.2184 -1.3420
   75TMC2    H1 1170   3.348   2.004  13.990  0.2419  2.0472  1.1094
   75TMC2    H2 1171   2.933   2.013  14.115  0.6978 -0.0462  0.0095
   75TMC2    C7 1172   3.108   2.088  13.913  0.1891 -0.1244 -0.7449
   75TMC2    C8 1173   2.961   1.888  14.325  0.1233  0.9314  0.0182
   75TMC2    O1 1174   3.170   2.051  13.814  0.3680 -0.6622  0.3441
   75TMC2    O2 1175   2.846   1.882  14.283 -0.2752  0.0888  0.0322
   75TMC2    O5 1176   2.995   1.905  14.456 -0.2170 -0.1211  0.0437
   75TMC2    H5 1177   3.088   1.932  14.470  0.2600 -2.5762  1.6885
   76TMC2    C1 1178   1.889   2.458  12.648  0.1568  0.4485 -0.6508
   76TMC2    C2 1179   1.785   2.378  12.613 -0.2033  0.5091 -0.0145
   76TMC2    C3 1180   1.759   2.275  12.706 -0.4118  0.4754  0.1938
   76TMC2    C4 1181   1.985   2.431  12.744 -0.2047  0.2253 -0.0599
   76TMC2    C5 1182   1.962   2.322  12.826 -0.0062 -0.3093  0.2017
   76TMC2    C6 1183   1.852   2.249  12.807  0.4418 -0.2160 -0.2716
   76TMC2     C 1184   1.891   2.585  12.577  0.4428 -0.2518 -0.5701
   76TMC2     O 1185   1.783   2.636  12.543 -0.3057 -0.3997 -0.1169
   76TMC2     H 1186   1.720   2.393  12.527 -1.5738 -0.9915  0.7528
   76TMC2    H1 1187   2.057   2.504  12.779 -1.1172  1.5903 -1.0380
   76TMC2    H2 1188   1.829   2.164  12.870 -0.9560  0.3133 -0.0765
   76TMC2    C7 1189   2.038   2.302  12.943  0.2383 -0.2360  0.2421
   76TMC2    C8 1190   1.680   2.165  12.648  0.0856 -0.0943  0.3878
   76TMC2    O1 1191   2.003   2.200  13.000 -0.0936 -0.1286 -0.3846
   76TMC2    O2 1192   1.603   2.178  12.554  0.4501 -0.6606 -0.0897
   76TMC2    O5 1193   1.740   2.044  12.664  0.3368  0.1090 -0.1462
   76TMC2    H5 1194   1.827   2.027  12.706 -0.1523 -0.3189  0.7063
   77MPD2     C 1195   2.131   3.023  12.440  0.3511  0.2575 -0.8146
   77MPD2    C1 1196   2.000   2.991  12.432  0.2572 -0.1656 -0.3605
   77MPD2    C2 1197   1.961   2.863  12.476 -0.3050  0.2549  0.9840
   77MPD2    C3 1198   2.047   2.769  12.533 -0.3294  0.4546  0.2642
   77MPD2    C4 1199   2.180   2.812  12.528 -0.2970 -0.3420 -0.0045
   77MPD2    C5 1200   2.222   2.934  12.477 -0.5890 -0.2132 -0.4125
   77MPD2     H 1201   1.855   2.851  12.460  0.0304  0.1101 -1.1020
   77MPD2    H1 1202   2.262   2.749  12.560  0.0203  0.7546  1.3186
   77MPD2    H2 1203   2.164   3.122  12.412 -0.6912 -0.0458 -3.1507
   77MPD2    H3 1204   2.325   2.968  12.482 -0.5143 -0.6544  1.3890
   77MPD2     N 1205   2.022   2.636  12.571  0.7846 -0.0280  0.1009
   77MPD2    H5 1206   2.092   2.573  12.610 -0.0510 -0.3498  1.0929
   77MPD2    N1 1207   1.901   3.078  12.373 -0.2325  0.1354 -0.3143
   77MPD2    H7 1208   1.805   3.045  12.367  0.0059 -0.3792 -1.3759
   78TMC2    C1 1209   1.775   3.191   2.114 -0.0170  0.1203 -0.1706
   78TMC2    C2 1210   1.769   3.294   2.194  0.5072 -0.0857  0.1100
   78TMC2    C3 1211   1.651   3.325   2.252  0.1831  1.0858 -0.3016
   78TMC2    C4 1212   1.662   3.124   2.083  0.9431  0.0509  0.3185
   78TMC2    C5 1213   1.546   3.157   2.138  0.4282  0.1395 -0.1453
   78TMC2    C6 1214   1.535   3.255   2.231 -0.2755 -0.7194 -0.3739
   78TMC2     C 1215   1.882   3.179   2.022  0.0393  0.5016  0.3305
   78TMC2     O 1216   1.946   3.283   2.009  0.3017 -0.0474 -0.1787
   78TMC2     H 1217   1.861   3.346   2.218 -0.9288  3.5880 -2.3278
   78TMC2    H1 1218   1.659   3.044   2.010 -1.7484  2.2643 -2.0072
   78TMC2    H2 1219   1.443   3.289   2.276  0.3918 -1.9251  1.8859
   78TMC2    C7 1220   1.441   3.071   2.114 -0.2979  0.1107  0.3948
   78TMC2    C8 1221   1.655   3.451   2.324  0.5038 -0.1033 -0.0849
   78TMC2    O1 1222   1.462   2.952   2.088 -0.4205  0.1655  0.3647
   78TMC2    O2 1223   1.765   3.498   2.364  0.3672 -0.3411  0.0882
   78TMC2    O5 1224   1.555   3.524   2.278  0.8929  0.1461 -0.3824
   78TMC2    H5 1225   1.501   3.471   2.216  1.0538 -0.3463 -0.1002
   79MPD1     C 1226   2.172   2.990   1.642  0.0574 -0.2184 -0.5179
   79MPD1    C1 1227   2.156   3.116   1.692  0.2972 -0.1938 -0.1476
   79MPD1    C2 1228   2.064   3.146   1.788  0.3344  1.0003  0.1619
   79MPD1    C3 1229   1.976   3.047   1.838 -0.1701 -0.1978 -0.0183
   79MPD1    C4 1230   1.985   2.917   1.779 -0.2077 -0.2786  0.4024
   79MPD1    C5 1231   2.079   2.895   1.678 -0.1368  0.2545  0.2398
   79MPD1     H 1232   2.073   3.239   1.842 -1.7072  0.3721  1.5519
   79MPD1    H1 1233   1.912   2.838   1.791 -1.9309  1.1362 -0.7249
   79MPD1    H2 1234   2.247   2.965   1.568 -1.2447 -2.8393 -0.9608
   79MPD1    H3 1235   2.086   2.797   1.632  0.9913  0.4325  0.0343
   79MPD1     N 1236   1.884   3.070   1.941 -0.9193  0.6709  0.0416
   79MPD1    H5 1237   1.829   2.989   1.968 -2.6841  0.7223 -3.4122
   79MPD1    N1 1238   2.240   3.231   1.662  0.4301 -0.6439 -0.3840
   79MPD1    H6 1239   2.287   3.219   1.573 -0.8319  0.1363 -1.1541
   79MPD1    H7 1240   2.203   3.326   1.674 -0.4193 -1.1756  1.2360
   80TMC2    C1 1241   1.392   2.468  12.522  0.2760 -0.0735  0.3673
   80TMC2    C2 1242   1.496   2.518  12.452  0.7547 -0.1314 -0.0147
   80TMC2    C3 1243   1.517   2.480  12.321  0.1269 -0.1333 -0.2850
   80TMC2    C4 1244   1.292   2.401  12.464  0.2241  0.0351  0.2342
   80TMC2    C5 1245   1.315   2.366  12.331 -0.2568  0.0778 -0.3627
   80TMC2    C6 1246   1.425   2.406  12.253 -0.8727 -0.1438 -0.4410
   80TMC2     C 1247   1.398   2.467  12.660  1.1000 -0.1280 -0.7188
   80TMC2     O 1248   1.506   2.479  12.712 -0.1997 -0.0279  0.1640
   80TMC2     H 1249   1.581   2.553  12.509 -0.4714  1.2260  0.9815
   80TMC2    H1 1250   1.208   2.364  12.522 -1.2191  0.6403 -1.4704
   80TMC2    H2 1251   1.430   2.373  12.149  1.1108 -1.8303  0.1839
   80TMC2    C7 1252   1.210   2.293  12.261  0.8573 -0.2289  0.3777
   80TMC2    C8 1253   1.652   2.463  12.259  0.3849 -0.3025 -0.0501
   80TMC2    O1 1254   1.189   2.305  12.135 -0.4329  0.3047  0.0454
   80TMC2    O2 1255   1.653   2.409  12.150 -0.4531 -0.0822 -0.1773
   80TMC2    O5 1256   1.732   2.559  12.300  0.2833  0.7583  0.2356
   80TMC2    H5 1257   1.719   2.594  12.391 -0.2388 -1.3671  0.9797
   81MPD2     C 1258   1.337   2.405  12.945  0.2590 -0.1290 -0.8435
   81MPD2    C1 1259   1.243   2.454  12.853 -0.2377 -0.1384  0.0371
   81MPD2    C2 1260   1.108   2.468  12.882  0.2944  0.0881 -0.3274
   81MPD2    C3 1261   1.061   2.427  13.002 -0.4628 -0.5704  0.3483
   81MPD2    C4 1262   1.150   2.357  13.084  0.2321 -0.6695  0.0379
   81MPD2    C5 1263   1.281   2.350  13.059  0.2322 -0.7051 -0.0892
   81MPD2     H 1264   1.041   2.522  12.816  2.2135  0.8549 -1.6662
   81MPD2    H1 1265   1.128   2.313  13.180 -0.5296 -0.7865 -0.1916
   81MPD2    H2 1266   1.443   2.394  12.926  0.5424 -2.0563  1.8701
   81MPD2    H3 1267   1.341   2.302  13.135  0.6133  1.4231  0.9555
   81MPD2     N 1268   0.925   2.422  13.040  0.0122  0.1835 -0.3782
   81MPD2    H5 1269   0.907   2.379  13.130  2.6074 -0.9690 -0.3943
   81MPD2    N1 1270   1.274   2.468  12.717 -0.0050 -0.5472  0.0303
   81MPD2    H7 1271   1.189   2.483  12.664 -0.8002 -2.4799  0.7877
   82TMC2    C1 1272   4.330   1.632  11.560 -0.7988  0.0997  0.7632
   82TMC2    C2 1273   4.343   1.733  11.655  0.8916 -0.1302  0.0736
   82TMC2    C3 1274   4.384   1.702  11.787 -0.0378 -0.4826 -0.1611
   82TMC2    C4 1275   4.366   1.504  11.598 -1.0369  0.1813  0.0867
   82TMC2    C5 1276   4.402   1.475  11.731  0.0570  0.0760  1.0214
   82TMC2    C6 1277   4.407   1.573  11.828  0.4952  0.3280  0.4241
   82TMC2     C 1278   4.214   1.638  11.473  0.1388  0.1505  0.6421
   82TMC2     O 1279   4.145   1.535  11.480  0.5518 -0.2525 -0.0879
   82TMC2     H 1280   4.333   1.838  11.627  2.5746 -0.0435 -0.2443
   82TMC2    H1 1281   4.342   1.420  11.535 -2.1481  0.7594 -0.2541
   82TMC2    H2 1282   4.436   1.549  11.929 -0.4438  1.8632  1.0489
   82TMC2    C7 1283   4.392   1.339  11.783  0.1350  0.4244 -0.5560
   82TMC2    C8 1284   4.428   1.805  11.877 -0.3088 -0.9041 -0.6270
   82TMC2    O1 1285   4.338   1.316  11.891 -0.0254  0.1193 -0.4588
   82TMC2    O2 1286   4.504   1.794  11.976  0.2572 -0.1598  0.9282
   82TMC2    O5 1287   4.346   1.905  11.847 -0.3409 -0.0465 -0.2272
   82TMC2    H5 1288   4.263   1.871  11.806 -0.1900 -1.5352  0.7207
   83MPD2     C 1289   3.887   1.880  11.159 -0.0285  0.3249  0.5074
   83MPD2    C1 1290   3.888   1.751  11.209 -0.7387  0.2046 -0.6462
   83MPD2    C2 1291   3.989   1.713  11.296  0.3316 -0.4603 -0.3159
   83MPD2    C3 1292   4.082   1.799  11.342  0.6958  0.7096 -0.6209
   83MPD2    C4 1293   4.074   1.930  11.302  0.6080  0.1800 -0.5119
   83MPD2    C5 1294   3.975   1.966  11.214  0.2657  0.2449 -0.4495
   83MPD2     H 1295   3.984   1.611  11.332 -2.9154 -0.1601  0.1053
   83MPD2    H1 1296   4.128   2.010  11.351  2.2733  0.3346 -2.5860
   83MPD2    H2 1297   3.808   1.916  11.094 -0.3815 -0.7738  0.3296
   83MPD2    H3 1298   3.968   2.070  11.184 -1.8559 -0.1933 -1.5141
   83MPD2     N 1299   4.181   1.767  11.437  0.6879  0.2191 -0.6490
   83MPD2    H5 1300   4.239   1.845  11.465  2.3881 -0.3106 -2.7491
   83MPD2    N1 1301   3.789   1.662  11.171 -0.6600 -0.2855  0.7604
   83MPD2    H7 1302   3.710   1.698  11.118 -1.2917 -0.7105  1.4243
   84TMC2    C1 1303   0.456   0.425  11.763 -0.0182 -0.2715  0.5444
   84TMC2    C2 1304   0.532   0.371  11.861 -0.1600  1.1416 -0.3781
   84TMC2    C3 1305   0.597   0.249  11.849 -0.0055 -0.1134  0.7096
   84TMC2    C4 1306   0.440   0.365  11.639  0.2498 -0.0521  0.2596
   84TMC2    C5 1307   0.511   0.247  11.625 -0.0170  0.2231  0.4326
   84TMC2    C6 1308   0.588   0.180  11.725 -0.2990  0.1489 -0.4900
   84TMC2     C 1309   0.350   0.514  11.806 -0.1677  0.3212 -0.1571
   84TMC2     O 1310   0.384   0.597  11.886  0.2830 -0.2307 -0.4196
   84TMC2     H 1311   0.536   0.412  11.961  0.7237 -2.4357  1.0592
   84TMC2    H1 1312   0.378   0.405  11.560  0.1482 -1.0246 -0.1551
   84TMC2    H2 1313   0.635   0.083  11.714 -2.5998 -1.0562  0.3727
   84TMC2    C7 1314   0.501   0.173  11.495  0.8987 -0.7767  0.3051
   84TMC2    C8 1315   0.668   0.201  11.959 -0.5447 -0.9291 -0.7163
   84TMC2    O1 1316   0.536   0.056  11.502 -0.1366 -0.0490 -0.5646
   84TMC2    O2 1317   0.641   0.239  12.073  0.3045 -0.4907 -0.7602
   84TMC2    O5 1318   0.772   0.132  11.913 -0.4179 -0.2025  0.1744
   84TMC2    H5 1319   0.777   0.108  11.818 -1.7843  0.2677 -0.0087
   85TMC2    C1 1320   1.370   3.270  16.216 -0.0985  0.8042 -0.5282
   85TMC2    C2 1321   1.246   3.309  16.187  0.5886  0.6935 -0.6667
   85TMC2    C3 1322   1.235   3.408  16.097  0.0883  1.0222  0.4084
   85TMC2    C4 1323   1.481   3.331  16.169 -0.2433  0.0587  0.4067
   85TMC2    C5 1324   1.464   3.428  16.074  0.3529 -0.2498 -0.6842
   85TMC2    C6 1325   1.335   3.475  16.041 -0.1002 -0.8186  0.2737
   85TMC2     C 1326   1.399   3.177  16.319  0.0984  0.4256 -0.1200
   85TMC2     O 1327   1.516   3.181  16.362  0.3599 -0.2740 -0.5255
   85TMC2     H 1328   1.161   3.251  16.221 -0.8640  1.3532 -3.2031
   85TMC2    H1 1329   1.573   3.276  16.186  0.0569  0.8203  1.2486
   85TMC2    H2 1330   1.318   3.538  15.955  0.2804 -1.0099  0.0568
   85TMC2    C7 1331   1.584   3.478  16.012  0.0568  0.3492  0.7540
   85TMC2    C8 1332   1.104   3.464  16.085 -0.0747 -0.3498 -0.1651
   85TMC2    O1 1333   1.686   3.418  16.032 -0.0944  0.3600  0.1292
   85TMC2    O2 1334   1.100   3.584  16.108  0.0603 -0.1128 -0.4221
   85TMC2    O5 1335   1.043   3.397  15.986 -0.3072 -0.4484  0.8260
   85TMC2    H5 1336   1.099   3.317  15.978  0.5383  0.3133 -0.8673
   86MPD2     C 1337   1.350   2.731  16.569  0.3336  0.3797  0.4534
   86MPD2    C1 1338   1.239   2.747  16.484 -0.1215  0.3361 -0.3099
   86MPD2    C2 1339   1.223   2.856  16.410  0.1379  0.7652 -0.9783
   86MPD2    C3 1340   1.319   2.956  16.407  0.2294 -0.2717  0.9967
   86MPD2    C4 1341   1.433   2.939  16.491  0.0059 -0.4712 -0.6310
   86MPD2    C5 1342   1.444   2.827  16.570  0.1789  0.6848  0.7757
   86MPD2     H 1343   1.146   2.858  16.334 -0.1061 -2.0704 -0.8136
   86MPD2    H1 1344   1.521   3.004  16.493  1.5113 -2.5603  1.0565
   86MPD2    H2 1345   1.370   2.659  16.647 -0.7062 -0.1641  0.2126
   86MPD2    H3 1346   1.533   2.819  16.632  2.2974 -0.2710 -2.3692
   86MPD2     N 1347   1.301   3.077  16.336  0.0721  0.6866 -0.1110
   86MPD2    H5 1348   1.209   3.077  16.295  0.2766  0.5307 -0.5736
   86MPD2    N1 1349   1.140   2.651  16.470 -0.5034 -0.1334 -0.4176
   86MPD2    H7 1350   1.068   2.663  16.400 -1.2935 -0.4698  0.3285
   87TMC2    C1 1351   3.620   0.606   0.599 -0.4642  0.4214  0.7401
   87TMC2    C2 1352   3.519   0.584   0.509  0.0459  0.3345 -0.0710
   87TMC2    C3 1353   3.424   0.681   0.487 -0.1496 -0.4779 -0.2971
   87TMC2    C4 1354   3.628   0.723   0.666  0.2778  0.4933  0.3325
   87TMC2    C5 1355   3.537   0.817   0.644 -0.5536 -0.0006  0.2508
   87TMC2    C6 1356   3.433   0.801   0.551  0.0035  0.5089 -0.4070
   87TMC2     C 1357   3.727   0.513   0.625  0.5691  0.1956  0.6098
   87TMC2     O 1358   3.820   0.552   0.697 -0.3251  0.5618 -0.5448
   87TMC2     H 1359   3.496   0.496   0.450 -0.0605 -1.8213  3.2149
   87TMC2    H1 1360   3.687   0.734   0.757  0.4059  1.5613  0.1181
   87TMC2    H2 1361   3.356   0.877   0.546 -3.4558 -3.1632 -2.2119
   87TMC2    C7 1362   3.554   0.946   0.709 -0.0881 -0.7124  0.4946
   87TMC2    C8 1363   3.346   0.672   0.361  0.2095 -0.8928  0.4709
   87TMC2    O1 1364   3.457   1.015   0.732 -0.4193  0.4676 -0.8897
   87TMC2    O2 1365   3.394   0.700   0.249  0.0310 -0.1198 -0.6754
   87TMC2    O5 1366   3.280   0.556   0.390  0.4916 -0.3146 -0.3888
   87TMC2    H5 1367   3.282   0.538   0.487  3.6294  0.9844 -0.1967
   88MPD2     C 1368   3.886   1.100   0.763 -0.5157 -0.0561 -0.2809
   88MPD2    C1 1369   3.746   1.094   0.766  0.7935  0.1000  0.5803
   88MPD2    C2 1370   3.679   1.208   0.803  0.0945  0.1413 -0.6562
   88MPD2    C3 1371   3.742   1.327   0.835  0.1307  0.1057  0.3572
   88MPD2    C4 1372   3.879   1.325   0.842  0.2189 -0.2248  0.0979
   88MPD2    C5 1373   3.955   1.213   0.806  0.0944  0.7791 -0.0920
   88MPD2     H 1374   3.571   1.197   0.793 -0.1278  0.3180  1.4602
   88MPD2    H1 1375   3.933   1.414   0.874  0.9306 -0.7834  0.4645
   88MPD2    H2 1376   3.940   1.015   0.721  1.5148  1.0125  0.1570
   88MPD2    H3 1377   4.063   1.218   0.801  0.0496  0.9163 -1.0121
   88MPD2     N 1378   3.678   1.449   0.855 -0.0020 -0.5622 -0.8046
   88MPD2    H5 1379   3.740   1.526   0.877 -2.0647  0.7284  0.5117
   88MPD2    N1 1380   3.687   0.972   0.718  0.2526  0.3538  1.0947
   88MPD2    H7 1381   3.749   0.906   0.672 -0.9527 -0.7850  1.1094
   89TMC2    C1 1382   4.651   3.835   1.162  0.9605  1.3227 -0.4496
   89TMC2    C2 1383   0.028   3.819   1.080  1.1542 -0.1934 -0.5089
   89TMC2    C3 1384   0.059   3.917   0.995  0.4134  0.0323  0.1644
   89TMC2    C4 1385   4.600   3.962   1.185 -0.0033 -0.2566 -0.0049
   89TMC2    C5 1386   4.653   4.064   1.111  0.6624  0.6802 -0.1131
   89TMC2    C6 1387   0.012   4.047   1.011 -0.7490  0.5094  0.1287
   89TMC2     C 1388   4.639   3.733   1.261 -0.3324 -0.0556 -0.3468
   89TMC2     O 1389   4.718   3.637   1.271 -0.3732 -0.1121 -0.3551
   89TMC2     H 1390   0.074   3.722   1.070  1.6981 -0.0075  0.2072
   89TMC2    H1 1391   4.563   3.980   1.285  1.2262 -3.5636  1.0428
   89TMC2    H2 1392   0.051   4.131   0.954 -0.3759 -0.2914 -0.7812
   89TMC2    C7 1393   4.641   4.198   1.169 -0.1463 -0.4809  0.2113
   89TMC2    C8 1394   0.145   3.903   0.870  0.4698 -0.1002  0.5237
   89TMC2    O1 1395   4.540   4.223   1.235  0.6572 -0.2367 -0.2222
   89TMC2    O2 1396   0.191   4.002   0.812  0.2875  0.1569  0.0868
   89TMC2    O5 1397   0.208   3.786   0.875  0.7032 -0.0276 -0.5018
   89TMC2    H5 1398   0.153   3.713   0.909 -1.7112  1.5757 -0.9508
   90MPD2     C 1399   4.324   3.456   1.530 -0.2013  0.1577 -0.2915
   90MPD2    C1 1400   4.253   3.546   1.456 -0.3701 -0.8044 -0.1533
   90MPD2    C2 1401   4.324   3.645   1.401  0.7652  0.3792  0.6428
   90MPD2    C3 1402   4.457   3.653   1.396 -0.8111  0.5434 -0.0782
   90MPD2    C4 1403   4.528   3.560   1.466 -0.1299 -0.1525  0.4865
   90MPD2    C5 1404   4.458   3.468   1.541  0.1830  1.0245  0.0685
   90MPD2     H 1405   4.276   3.711   1.329  0.4833  0.7480  1.1677
   90MPD2    H1 1406   4.635   3.565   1.475  0.2364 -1.8603 -2.7854
   90MPD2    H2 1407   4.274   3.380   1.589 -0.0264  0.6363  0.4651
   90MPD2    H3 1408   4.512   3.407   1.612 -0.6279  1.0930  0.7566
   90MPD2     N 1409   4.515   3.744   1.312  0.7061 -0.1360  0.0757
   90MPD2    H5 1410   4.454   3.822   1.292 -1.1491 -1.4894  0.4310
   90MPD2    N1 1411   4.118   3.544   1.466  0.7834 -0.0105 -0.8326
   90MPD2    H7 1412   4.070   3.609   1.405 -1.0400 -0.0307  0.6007
   91TMC2    C1 1413   1.261   4.204  16.166 -0.2829  0.4984  0.2071
   91TMC2    C2 1414   1.294   4.232  16.298 -0.2864  0.0469  0.4688
   91TMC2    C3 1415   1.215   4.178  16.390  0.3231 -0.5188  0.3453
   91TMC2    C4 1416   1.146   4.149  16.133 -0.2727 -0.8219  0.6553
   91TMC2    C5 1417   1.069   4.099  16.231 -0.1242 -0.3468  0.9322
   91TMC2    C6 1418   1.111   4.103  16.360  0.4107 -0.7640 -0.4546
   91TMC2     C 1419   1.340   4.261  16.059  0.7755  0.1048  0.2935
   91TMC2     O 1420   1.298   4.233  15.947  0.4300 -0.5898 -0.2900
   91TMC2     H 1421   1.385   4.286  16.324 -0.4727  0.1197  0.9610
   91TMC2    H1 1422   1.117   4.132  16.030 -0.7154  0.1953  0.6129
   91TMC2    H2 1423   1.062   4.050  16.442  2.3007 -0.7729  0.6582
   91TMC2    C7 1424   0.929   4.111  16.219  0.2766  0.1705  0.6915
   91TMC2    C8 1425   1.275   4.172  16.524  0.4127 -0.2199  0.2340
   91TMC2    O1 1426   0.859   4.103  16.317  0.2329 -0.3260 -0.3577
   91TMC2    O2 1427   1.207   4.141  16.620 -0.1390  0.3281  0.1416
   91TMC2    O5 1428   1.389   4.117  16.493 -0.0292 -0.1841 -0.2375
   91TMC2    H5 1429   1.417   4.126  16.400  1.0303  0.6215  0.1641
   92MPD2     C 1430   1.485   4.444  15.884 -0.7576 -0.3343 -0.0857
   92MPD2    C1 1431   1.532   4.399  16.008 -0.0375 -0.4479 -0.6337
   92MPD2    C2 1432   1.657   4.440  16.056  0.3575 -0.9939  0.2374
   92MPD2    C3 1433   1.725   4.523  15.969  0.2741  1.1503 -0.7902
   92MPD2    C4 1434   1.672   4.575  15.854 -0.2156 -0.1221 -0.4419
   92MPD2    C5 1435   1.548   4.538  15.812  0.1371 -0.3643 -0.2063
   92MPD2     H 1436   1.690   4.416  16.156 -2.0436  0.7917  1.4421
   92MPD2    H1 1437   1.733   4.644  15.797 -0.2273 -0.7558 -1.2162
   92MPD2    H2 1438   1.390   4.413  15.843 -1.6327  0.8848  0.9907
   92MPD2    H3 1439   1.498   4.555  15.718  1.4697  0.5344 -0.7451
   92MPD2     N 1440   1.853   4.556  16.018  0.3405 -0.9610 -0.4005
   92MPD2    H5 1441   1.882   4.499  16.097 -0.6981  0.5440  1.0519
   92MPD2    N1 1442   1.454   4.322  16.101  0.2850  0.0217 -0.2951
   92MPD2    H7 1443   1.478   4.318  16.200 -0.2506  0.2991 -0.1500
   93TMC2    C1 1444   2.863   3.767  13.523  0.1442  0.0183 -0.5279
   93TMC2    C2 1445   2.841   3.635  13.491  0.4558  0.5259  0.4088
   93TMC2    C3 1446   2.912   3.598  13.371  0.2657  0.0584 -0.1848
   93TMC2    C4 1447   2.952   3.843  13.459  0.2256 -1.1519 -0.2680
   93TMC2    C5 1448   3.024   3.794  13.351  0.6549 -0.0116 -0.0891
   93TMC2    C6 1449   3.006   3.669  13.304 -0.4318 -0.4666 -0.4652
   93TMC2     C 1450   2.764   3.833  13.607  0.3508 -0.2822  0.6258
   93TMC2     O 1451   2.712   3.749  13.678 -0.5130 -0.3725  0.0819
   93TMC2     H 1452   2.769   3.572  13.541  0.0936  0.3604 -0.3164
   93TMC2    H1 1453   2.980   3.941  13.497 -2.1762 -0.5434 -0.0526
   93TMC2    H2 1454   3.047   3.630  13.211  0.4656 -1.8033  0.4887
   93TMC2    C7 1455   3.100   3.894  13.269 -0.3695 -0.0176 -0.8543
   93TMC2    C8 1456   2.920   3.459  13.336  0.1093 -0.5582  0.6613
   93TMC2    O1 1457   3.069   4.012  13.283  0.2206  0.5528 -0.2025
   93TMC2    O2 1458   3.026   3.407  13.297 -0.0636  0.2680 -0.3914
   93TMC2    O5 1459   2.803   3.395  13.358  0.1018 -0.1006  0.0157
   93TMC2    H5 1460   2.732   3.457  13.384 -0.4934 -1.0089  0.5745
   94MPD2     C 1461   2.600   4.007  13.785 -0.2179 -0.0482 -0.2077
   94MPD2    C1 1462   2.655   4.051  13.668 -0.1016  0.7143 -0.0788
   94MPD2    C2 1463   2.623   4.169  13.606  0.4053 -0.4636  0.7585
   94MPD2    C3 1464   2.534   4.255  13.672 -0.2006 -0.5232 -1.4799
   94MPD2    C4 1465   2.491   4.219  13.798  0.6735  0.3367 -0.4432
   94MPD2    C5 1466   2.515   4.094  13.852 -0.4296 -0.6742  0.2404
   94MPD2     H 1467   2.667   4.196  13.510  1.4648 -3.4380  0.4416
   94MPD2    H1 1468   2.413   4.274  13.851 -0.5430 -0.2588 -1.6187
   94MPD2    H2 1469   2.625   3.910  13.827 -1.9993 -0.8685 -0.9847
   94MPD2    H3 1470   2.489   4.075  13.955 -0.4863  0.9197  0.5194
   94MPD2     N 1471   2.489   4.382  13.621 -0.5149 -0.2764  0.6279
   94MPD2    H5 1472   2.438   4.441  13.685  1.6352  0.8577  1.2814
   94MPD2    N1 1473   2.738   3.964  13.592 -0.0453  0.0463  0.2721
   94MPD2    H7 1474   2.782   4.012  13.515 -1.4562  0.3059 -0.3785
   95TMC2    C1 1475   3.237   1.169  15.920  0.5316  0.9902 -0.3169
   95TMC2    C2 1476   3.136   1.235  15.856  0.1546  0.5854 -0.2062
   95TMC2    C3 1477   3.022   1.263  15.923  0.2442  0.3686 -0.1910
   95TMC2    C4 1478   3.232   1.132  16.051 -0.1983  0.4565  0.8683
   95TMC2    C5 1479   3.118   1.159  16.112 -0.3201  0.3137 -0.6220
   95TMC2    C6 1480   3.014   1.220  16.057  0.2430  0.1536  1.1987
   95TMC2     C 1481   3.367   1.159  15.846  0.5593  0.0422 -0.3485
   95TMC2     O 1482   3.387   1.251  15.766 -0.4838  0.0560  0.2857
   95TMC2     H 1483   3.138   1.256  15.749  0.7208 -1.3263 -0.5812
   95TMC2    H1 1484   3.311   1.085  16.108 -0.8721 -1.0761  0.5697
   95TMC2    H2 1485   2.921   1.235  16.111 -0.5034 -1.5779  0.4028
   95TMC2    C7 1486   3.109   1.128  16.257  0.2585 -0.0809 -0.6415
   95TMC2    C8 1487   2.903   1.284  15.852  0.5610  0.3166  0.0114
   95TMC2    O1 1488   3.104   1.013  16.299  0.0182  0.5374 -0.9420
   95TMC2    O2 1489   2.805   1.210  15.845  0.9343 -0.9631  0.2487
   95TMC2    O5 1490   2.919   1.402  15.787  0.5987 -0.5554 -0.0308
   95TMC2    H5 1491   2.994   1.451  15.826 -0.0986  0.9266 -0.5305
   96MPD2     C 1492   3.856   0.978  15.796  0.3728  0.1787 -0.8225
   96MPD2    C1 1493   3.797   1.096  15.746 -0.1870 -0.0545  0.0765
   96MPD2    C2 1494   3.665   1.121  15.789 -0.5532  0.3659  0.2275
   96MPD2    C3 1495   3.586   1.034  15.860 -0.4125 -0.1470  0.0955
   96MPD2    C4 1496   3.651   0.919  15.909  0.5633 -0.5033 -0.4525
   96MPD2    C5 1497   3.782   0.890  15.875 -0.2080 -0.1194  0.2504
   96MPD2     H 1498   3.624   1.214  15.750 -0.8531 -0.2137 -0.8488
   96MPD2    H1 1499   3.599   0.840  15.961 -0.9961  1.0490  0.3421
   96MPD2    H2 1500   3.954   0.944  15.762  0.0446 -0.0146 -1.5799
   96MPD2    H3 1501   3.826   0.801  15.917  2.8075  1.5255  0.5963
   96MPD2     N 1502   3.447   1.050  15.884 -0.2617 -0.1644  0.2240
   96MPD2    H5 1503   3.405   0.977  15.941  0.4335 -0.4500  0.3632
   96MPD2    N1 1504   3.872   1.188  15.662 -0.4163 -0.4957 -0.4370
   96MPD2    H7 1505   3.966   1.163  15.632 -0.5803  0.3902 -1.6477
   97TMC2    C1 1506   1.334   2.993  17.593 -0.1001 -0.5183  0.0690
   97TMC2    C2 1507   1.340   2.945  17.462  0.3367 -0.8772  0.1093
   97TMC2    C3 1508   1.308   3.033  17.366  1.1317 -0.6766  0.2811
   97TMC2    C4 1509   1.294   3.118  17.617  0.4504  0.7713  0.3349
   97TMC2    C5 1510   1.269   3.199  17.513 -0.1242 -0.1348 -0.0444
   97TMC2    C6 1511   1.277   3.165  17.386  1.1047 -0.5974 -0.9993
   97TMC2     C 1512   1.375   2.919  17.707 -0.1429 -0.1645  1.0924
   97TMC2     O 1513   1.343   2.961   0.078 -0.1837 -0.4863  0.4664
   97TMC2     H 1514   1.358   2.839  17.447  2.1305 -0.3763 -1.2519
   97TMC2    H1 1515   1.294   3.155  17.719 -0.4157  1.7786 -0.0282
   97TMC2    H2 1516   1.231   3.215  17.302 -0.2611 -2.6045 -1.4332
   97TMC2    C7 1517   1.278   3.343  17.540 -0.1675  0.3850 -0.4932
   97TMC2    C8 1518   1.297   2.960  17.241  0.4086 -0.7497 -0.1584
   97TMC2    O1 1519   1.304   3.381  17.656  0.3809 -0.5358 -0.1072
   97TMC2    O2 1520   1.274   2.843  17.233  0.3254  0.2631 -0.3618
   97TMC2    O5 1521   1.293   3.052  17.141  0.0264  0.1247 -0.2347
   97TMC2    H5 1522   1.346   3.132  17.163  0.9037 -0.7119  0.7335
   98MPD2     C 1523   1.570   2.487   0.166 -0.2451 -0.5642 -0.0049
   98MPD2    C1 1524   1.465   2.563   0.205 -0.5154  0.3027  0.4130
   98MPD2    C2 1525   1.427   2.677   0.130 -0.2768  0.4620  0.2519
   98MPD2    C3 1526   1.500   2.714   0.015 -1.3381 -0.0075 -0.8055
   98MPD2    C4 1527   1.609   2.634  17.723 -0.2695 -0.0460  0.8046
   98MPD2    C5 1528   1.644   2.525   0.057  0.0209  0.1291  0.0704
   98MPD2     H 1529   1.341   2.738   0.154 -0.8667 -0.4966  0.6020
   98MPD2    H1 1530   1.669   2.659  17.636 -0.9922 -0.7310  0.1123
   98MPD2    H2 1531   1.613   2.408   0.227  0.8423  0.2151  0.2429
   98MPD2    H3 1532   1.735   2.469   0.039  0.0284  0.0886  0.2267
   98MPD2     N 1533   1.469   2.829  17.676  0.7605 -0.9461  0.3471
   98MPD2    H5 1534   1.515   2.835  17.586  0.7470  2.7437  0.6138
   98MPD2    N1 1535   1.403   2.533   0.327 -0.1549 -0.0639 -0.2199
   98MPD2    H7 1536   1.428   2.441   0.362 -1.2289 -0.8762 -1.5966
   99TMC2    C1 1537   4.464   0.546   1.361 -0.1510 -0.2130  0.1637
   99TMC2    C2 1538   4.559   0.578   1.261  0.3859  0.1917  0.6943
   99TMC2    C3 1539   4.567   0.711   1.231  0.6672  0.9983 -0.2352
   99TMC2    C4 1540   4.368   0.641   1.407 -0.0979 -0.1145  0.0189
   99TMC2    C5 1541   4.375   0.766   1.359  0.0009 -0.0575  0.7374
   99TMC2    C6 1542   4.473   0.808   1.274  0.1674 -0.1854 -0.2032
   99TMC2     C 1543   4.386   0.420   1.337 -0.0839 -0.0570 -0.1759
   99TMC2     O 1544   4.261   0.417   1.350  0.1981 -0.4219  0.0003
   99TMC2     H 1545   4.624   0.510   1.206 -1.0641  0.0781 -0.8828
   99TMC2    H1 1546   4.306   0.610   1.491  0.7768 -0.0246  0.6943
   99TMC2    H2 1547   4.472   0.912   1.245 -0.1802  0.2295  1.2967
   99TMC2    C7 1548   4.239   0.824   1.335 -0.4274 -0.3837 -0.4272
   99TMC2    C8 1549   4.678   0.749   1.145  0.4003  0.0759 -0.4441
   99TMC2    O1 1550   4.231   0.945   1.325  0.1650  0.1631  0.2783
   99TMC2    O2 1551   4.732   0.856   1.158  0.0487 -0.2249  0.5175
   99TMC2    O5 1552   4.642   0.702   1.024 -0.7505  0.0978  0.1381
   99TMC2    H5 1553   4.572   0.633   1.025  1.0464 -1.6753  4.1920
  100MPD2     C 1554   4.287   0.147   1.286  0.7066 -0.2085  0.6494
  100MPD2    C1 1555   4.409   0.189   1.243 -0.0240 -0.1601 -0.3166
  100MPD2    C2 1556   4.491   0.106   1.163 -0.3688 -0.1947 -0.1275
  100MPD2    C3 1557   4.439   4.733   1.098 -0.0615  0.2426  0.0853
  100MPD2    C4 1558   4.306   4.694   1.131 -0.9049  0.0773 -0.3092
  100MPD2    C5 1559   4.239   0.031   1.225 -0.3139  0.3937  0.5643
  100MPD2     H 1560   4.589   0.150   1.146  0.0699 -1.7453 -1.5675
  100MPD2    H1 1561   4.257   4.606   1.093  0.2423  0.0152 -1.6254
  100MPD2    H2 1562   4.222   0.202   1.352  0.6835 -0.4016  0.7872
  100MPD2    H3 1563   4.137   0.001   1.246  0.5821 -3.2261 -0.4090
  100MPD2     N 1564   4.524   4.663   1.015 -0.3707  0.6321 -0.0766
  100MPD2    H5 1565   4.614   4.703   0.993 -0.0868 -1.9113 -3.5304
  100MPD2    N1 1566   4.460   0.312   1.289 -0.5353 -0.2649 -0.5703
  100MPD2    H7 1567   4.560   0.328   1.276 -0.0838 -2.2380  0.5530
  101TMC2    C1 1568   4.558   2.132  13.668 -0.0169  0.3889  0.1250
  101TMC2    C2 1569   4.457   2.168  13.745  0.0252 -0.1451 -0.1259
  101TMC2    C3 1570   4.444   2.303  13.763 -0.5392 -0.2432 -0.9081
  101TMC2    C4 1571   4.649   2.225  13.620  0.2839  0.7382 -0.2892
  101TMC2    C5 1572   4.625   2.355  13.638 -0.2228 -0.4203 -0.5074
  101TMC2    C6 1573   4.518   2.404  13.706  0.1538  0.5642  0.1795
  101TMC2     C 1574   4.599   1.991  13.665  0.2215 -0.5449  0.3877
  101TMC2     O 1575   4.534   1.930  13.746  0.1105 -0.0306  0.0109
  101TMC2     H 1576   4.383   2.095  13.778  0.5250 -0.7479 -0.3376
  101TMC2    H1 1577   4.729   2.192  13.554 -1.0880  0.7250 -1.9606
  101TMC2    H2 1578   4.496   2.508  13.726 -0.6841  0.4703 -0.2523
  101TMC2    C7 1579   4.708   2.443  13.561  0.3347  0.7476 -0.3732
  101TMC2    C8 1580   4.318   2.340  13.822 -0.0997  0.7450 -0.2213
  101TMC2    O1 1581   0.082   2.405  13.528  0.7104  0.1997 -0.1829
  101TMC2    O2 1582   4.211   2.282  13.795  0.3271 -0.7519  0.0887
  101TMC2    O5 1583   4.338   2.465  13.874  0.2477  0.0458 -0.4642
  101TMC2    H5 1584   4.430   2.467  13.909  0.0985  0.7639 -0.1242
  102MPD2     C 1585   0.085   1.793  13.452 -0.8968  0.0977  0.3541
  102MPD2    C1 1586   0.018   1.832  13.561 -0.0206 -0.5525 -1.0373
  102MPD2    C2 1587   0.018   1.750  13.676 -0.2115  0.7333 -0.0617
  102MPD2    C3 1588   0.050   1.610  13.660 -0.3172  0.3168 -1.1325
  102MPD2    C4 1589   0.110   1.570  13.542 -0.0061 -0.8773  0.7986
  102MPD2    C5 1590   0.126   1.665  13.444 -0.2018 -1.0676 -0.0571
  102MPD2     H 1591   4.715   1.793  13.767 -0.8369  2.8001 -1.3116
  102MPD2    H1 1592   0.148   1.472  13.516  2.0229  0.0712  0.1424
  102MPD2    H2 1593   0.103   1.840  13.356 -1.7450  0.6063  0.4484
  102MPD2    H3 1594   0.176   1.626  13.356  2.1257 -0.8639  1.1806
  102MPD2     N 1595   0.041   1.518  13.766 -0.2639  0.2729  0.2993
  102MPD2    H5 1596   0.107   1.441  13.760  0.3128  0.7725  0.2109
  102MPD2    N1 1597   4.682   1.955  13.559  0.0941 -0.1250  0.5315
  102MPD2    H7 1598   4.696   2.016  13.480 -0.7098  1.1162  1.3491
  103TMC2    C1 1599   2.710   2.700  13.133 -0.3863  0.5373  0.9935
  103TMC2    C2 1600   2.802   2.729  13.038 -0.0775  0.1868  0.3002
  103TMC2    C3 1601   2.936   2.730  13.071 -0.3109  0.2890  0.4778
  103TMC2    C4 1602   2.749   2.680  13.259  0.6591 -0.4055 -0.3527
  103TMC2    C5 1603   2.883   2.686  13.295 -0.2893  0.5407  0.5687
  103TMC2    C6 1604   2.983   2.714  13.201 -0.2707  0.0159  0.1530
  103TMC2     C 1605   2.590   2.639  13.082  0.6505 -0.0047 -0.0504
  103TMC2     O 1606   2.541   2.685  12.975 -0.1420  0.1882 -0.0523
  103TMC2     H 1607   2.774   2.742  12.934  0.1794  0.3936  0.2555
  103TMC2    H1 1608   2.673   2.672  13.335  0.2330  1.1336 -0.6285
  103TMC2    H2 1609   3.088   2.710  13.229  0.5193 -0.7150 -2.9160
  103TMC2    C7 1610   2.907   2.717  13.433 -0.2184  0.4567 -0.5417
  103TMC2    C8 1611   3.029   2.764  12.971 -0.3103 -0.9542 -0.6626
  103TMC2    O1 1612   3.020   2.682  13.474 -0.7376 -0.5830 -0.3813
  103TMC2    O2 1613   2.997   2.738  12.856 -0.7223  0.0692 -0.7151
  103TMC2    O5 1614   3.117   2.858  13.009  0.4740 -0.4228 -0.2014
  103TMC2    H5 1615   3.122   2.897  13.098  1.6595 -0.6250 -0.1676
  104MPD2     C 1616   2.441   2.357  13.253  0.2566 -0.2971 -0.1319
  104MPD2    C1 1617   2.447   2.458  13.157 -0.2850 -0.0484 -0.0281
  104MPD2    C2 1618   2.331   2.485  13.082  0.1020 -0.4717 -0.0553
  104MPD2    C3 1619   2.226   2.391  13.074 -0.5335 -1.0355  0.3541
  104MPD2    C4 1620   2.237   2.282  13.155 -0.4800 -0.6368  0.3046
  104MPD2    C5 1621   2.338   2.265  13.246  0.1346  0.3882 -0.7131
  104MPD2     H 1622   2.338   2.571  13.017 -0.8263 -1.5624 -1.6120
  104MPD2    H1 1623   2.162   2.203  13.156 -0.5260 -0.6202 -1.6214
  104MPD2    H2 1624   2.527   2.359  13.319  0.1519  0.4512 -0.0200
  104MPD2    H3 1625   2.322   2.185  13.318 -0.0304  0.4004 -0.7377
  104MPD2     N 1626   2.129   2.401  12.974  0.3953 -0.4805 -0.0792
  104MPD2    H5 1627   2.148   2.480  12.913  1.0855 -0.1730  0.5395
  104MPD2    N1 1628   2.558   2.535  13.165  0.5165  0.3788  0.2673
  104MPD2    H7 1629   2.624   2.518  13.240  2.9669  0.1712 -1.9142
  105TMC2    C1 1630   4.507   0.186   0.721  0.1414  0.0500 -0.4408
  105TMC2    C2 1631   4.500   0.315   0.763  0.0942 -0.3274 -0.5137
  105TMC2    C3 1632   4.395   0.343   0.847 -0.4011 -0.1455 -0.0738
  105TMC2    C4 1633   4.404   0.104   0.745 -0.3076 -0.2590  0.1189
  105TMC2    C5 1634   4.299   0.134   0.822  0.1795 -0.3850  0.5691
  105TMC2    C6 1635   4.298   0.255   0.886 -0.1529  0.7265 -0.8666
  105TMC2     C 1636   4.545   0.166   0.581 -0.3525  0.9036  0.0848
  105TMC2     O 1637   4.571   0.054   0.547 -0.5143 -0.1033 -0.1128
  105TMC2     H 1638   4.572   0.391   0.734  0.1533  0.2608  1.2075
  105TMC2    H1 1639   4.406   0.015   0.684  0.4422  0.1509 -0.4568
  105TMC2    H2 1640   4.214   0.282   0.948  0.3398  0.0979  0.0781
  105TMC2    C7 1641   4.178   0.083   0.760  0.1038  0.5845 -0.4662
  105TMC2    C8 1642   4.384   0.471   0.900  0.0947 -0.4005  0.5418
  105TMC2    O1 1643   4.182   4.707   0.714 -0.0480  0.1237  0.0389
  105TMC2    O2 1644   4.452   0.505   0.992  0.6396  0.2903  0.0444
  105TMC2    O5 1645   4.372   0.537   0.787  0.2697 -0.2283 -0.3037
  105TMC2    H5 1646   4.334   0.472   0.724 -0.4125 -0.9086  0.8072
  106MPD2     C 1647   4.555   0.320   0.097 -0.1747  0.2209 -0.4289
  106MPD2    C1 1648   4.486   0.418   0.169  0.6909 -0.4420 -0.2737
  106MPD2    C2 1649   4.465   0.393   0.307 -0.0710  0.1770 -0.1474
  106MPD2    C3 1650   4.522   0.287   0.370 -0.3233  0.1572  0.2028
  106MPD2    C4 1651   4.590   0.194   0.291  0.3971 -0.2762  0.6647
  106MPD2    C5 1652   4.594   0.204   0.154  0.0999 -0.0191 -0.3160
  106MPD2     H 1653   4.421   0.468   0.371  0.0572 -0.9887  1.3221
  106MPD2    H1 1654   4.636   0.110   0.342 -1.7525 -2.5206 -1.1272
  106MPD2    H2 1655   4.554   0.324  17.730  0.4451  2.6191 -0.3402
  106MPD2    H3 1656   4.646   0.126   0.100  0.2789  1.1374 -1.8117
  106MPD2     N 1657   4.506   0.277   0.509  0.3666  0.4387  0.2249
  106MPD2    H5 1658   4.443   0.344   0.552 -1.1947 -0.5429 -0.5108
  106MPD2    N1 1659   4.424   0.535   0.113  0.2754 -0.3817 -0.6468
  106MPD2    H7 1660   4.354   0.579   0.172  2.2722  1.9958 -0.0547
  107TMC2    C1 1661   4.607   1.261  12.117  0.1890  0.6333  0.0066
  107TMC2    C2 1662   4.717   1.331  12.069 -1.0054 -0.6763  0.3028
  107TMC2    C3 1663   0.060   1.262  11.986  0.0824 -0.3167  0.0730
  107TMC2    C4 1664   4.571   1.146  12.072  0.4481  0.4522 -0.2868
  107TMC2    C5 1665   4.648   1.078  11.983 -0.5284  0.0900 -0.5348
  107TMC2    C6 1666   0.024   1.138  11.930  0.1875 -0.0950  0.3918
  107TMC2     C 1667   4.519   1.310  12.218 -0.1757 -0.2873 -1.1081
  107TMC2     O 1668   4.459   1.222  12.278  0.0788 -0.6302  0.1424
  107TMC2     H 1669   0.009   1.430  12.102 -3.7772  0.0338  0.5272
  107TMC2    H1 1670   4.471   1.105  12.087  0.0831  0.4215 -2.8315
  107TMC2    H2 1671   0.087   1.109  11.847 -3.3035 -5.0963 -0.4745
  107TMC2    C7 1672   4.618   0.935  11.965  0.1408  0.2075  0.1980
  107TMC2    C8 1673   0.177   1.326  11.943 -0.5065  0.9710  0.1598
  107TMC2    O1 1674   4.524   0.882  12.019  0.2904  0.6055  0.1112
  107TMC2    O2 1675   0.216   1.315  11.828  0.2737 -0.1306  0.1612
  107TMC2    O5 1676   0.242   1.394  12.042  0.1089  0.2128 -0.2052
  107TMC2    H5 1677   0.210   1.375  12.133 -1.5565  0.8142 -0.6666
  108MPD2     C 1678   4.448   1.653  12.323  0.4270  0.4737 -0.5931
  108MPD2    C1 1679   4.447   1.513  12.333 -0.1482 -0.7064 -1.0476
  108MPD2    C2 1680   4.368   1.454  12.426 -0.2657 -0.7551 -0.2046
  108MPD2    C3 1681   4.307   1.534  12.527  0.3623  0.1926 -0.3347
  108MPD2    C4 1682   4.321   1.673  12.526  0.3051 -0.7173 -0.0533
  108MPD2    C5 1683   4.380   1.735  12.420 -0.8379 -0.5056 -0.0723
  108MPD2     H 1684   4.362   1.346  12.433  2.1828 -1.0364 -2.4080
  108MPD2    H1 1685   4.271   1.730  12.603  0.8332 -1.0957  0.5584
  108MPD2    H2 1686   4.497   1.710  12.245 -1.1480  0.8961 -1.2638
  108MPD2    H3 1687   4.375   1.843  12.413  0.4508 -0.5780 -2.2023
  108MPD2     N 1688   4.234   1.464  12.623 -0.3279 -0.0624  0.7786
  108MPD2    H5 1689   4.240   1.363  12.631 -1.7165 -0.2173  0.0119
  108MPD2    N1 1690   4.524   1.445  12.236  0.7127 -0.2244 -0.1476
  108MPD2    H7 1691   4.575   1.504  12.171 -1.2968  2.1101  0.3956
  109TMC2    C1 1692   1.555   1.756   1.393 -0.3800 -0.0063  0.3599
  109TMC2    C2 1693   1.574   1.618   1.378  0.4567 -0.5166 -0.1608
  109TMC2    C3 1694   1.586   1.578   1.252  1.2513  0.1632 -0.5588
  109TMC2    C4 1695   1.567   1.850   1.293  0.1610  0.2387 -0.0047
  109TMC2    C5 1696   1.599   1.798   1.175  0.4745  0.1987 -0.3357
  109TMC2    C6 1697   1.602   1.662   1.152 -0.4469 -0.3113  0.7126
  109TMC2     C 1698   1.500   1.795   1.517 -0.8131 -0.7123  0.2921
  109TMC2     O 1699   1.517   1.724   1.616 -0.6976 -0.1550  0.2852
  109TMC2     H 1700   1.567   1.541   1.455  0.6859 -1.1406 -0.7679
  109TMC2    H1 1701   1.575   1.957   1.311 -0.8527  0.5487 -1.3314
  109TMC2    H2 1702   1.619   1.635   1.049 -0.1112 -0.3865  0.7887
  109TMC2    C7 1703   1.566   1.886   1.065 -0.6340 -0.3938 -0.4120
  109TMC2    C8 1704   1.644   1.453   1.223 -0.6690 -0.4619  0.0691
  109TMC2    O1 1705   1.473   1.964   1.081  0.2556 -0.1906  0.0316
  109TMC2    O2 1706   1.672   1.427   1.108  0.1093  0.3628 -0.5673
  109TMC2    O5 1707   1.726   1.418   1.325 -0.0824 -0.1591  0.2315
  109TMC2    H5 1708   1.700   1.456   1.412 -0.6941 -0.2517  0.0882
  110MPD2     C 1709   1.291   2.146   1.819  0.3670 -0.3243 -0.2061
  110MPD2    C1 1710   1.256   2.177   1.692  0.1018 -0.4713  0.2960
  110MPD2    C2 1711   1.305   2.103   1.589 -0.0259  0.0544  0.2733
  110MPD2    C3 1712   1.389   1.990   1.613  0.1329 -0.7942 -0.1025
  110MPD2    C4 1713   1.414   1.956   1.744 -0.0037 -0.0057 -0.2210
  110MPD2    C5 1714   1.362   2.036   1.845 -0.4123 -0.5687 -0.3346
  110MPD2     H 1715   1.290   2.140   1.488  0.1145  0.5297  0.4296
  110MPD2    H1 1716   1.477   1.872   1.773 -0.2042  0.0639  0.4079
  110MPD2    H2 1717   1.270   2.209   1.905  2.8833 -1.2573  1.0829
  110MPD2    H3 1718   1.373   2.010   1.949  1.2458 -0.5767 -0.5025
  110MPD2     N 1719   1.432   1.913   1.509  0.8170  0.3624  0.4993
  110MPD2    H5 1720   1.418   1.958   1.419 -0.2803 -2.9313 -0.9557
  110MPD2    N1 1721   1.177   2.292   1.664 -0.2366  0.2213 -0.6202
  110MPD2    H7 1722   1.160   2.352   1.744 -0.0282  1.8627 -1.8192
  111TMC2    C1 1723   0.048   2.991  12.272  0.1831  0.5255  1.0035
  111TMC2    C2 1724   4.664   2.936  12.312 -0.6030  1.1552 -0.2128
  111TMC2    C3 1725   4.651   2.881  12.438  1.1423 -0.0048 -0.3077
  111TMC2    C4 1726   0.154   3.000  12.356 -0.4690 -0.2622  0.5921
  111TMC2    C5 1727   0.135   2.942  12.481  0.0117  0.6563  0.1800
  111TMC2    C6 1728   0.016   2.888  12.527  0.4580 -0.0752  0.0219
  111TMC2     C 1729   0.065   3.040  12.133 -0.6236 -0.7918  0.0074
  111TMC2     O 1730   0.004   2.982  12.046 -0.1384  0.4089 -1.0498
  111TMC2     H 1731   4.587   2.917  12.237 -0.3929  0.6986 -0.3114
  111TMC2    H1 1732   0.250   3.040  12.326 -0.3856  1.1780  2.7353
  111TMC2    H2 1733   4.723   2.857  12.627 -0.0126 -1.2812 -0.4875
  111TMC2    C7 1734   0.250   2.898  12.566  0.1911  0.1659  0.2358
  111TMC2    C8 1735   4.532   2.819  12.491 -0.0443 -1.0224  0.1554
  111TMC2    O1 1736   0.230   2.844  12.675 -0.4850  0.0332 -0.4640
  111TMC2    O2 1737   4.485   2.820  12.605  0.7134 -0.4098  0.0150
  111TMC2    O5 1738   4.456   2.774  12.386  0.1063 -0.6088 -0.0310
  111TMC2    H5 1739   4.507   2.750  12.307 -0.6303  1.4811 -1.1366
  112MPD2     C 1740   0.387   3.166  11.770 -0.2973  0.3241  0.4767
  112MPD2    C1 1741   0.260   3.122  11.749  0.5226  0.5521  0.0213
  112MPD2    C2 1742   0.187   3.099  11.864  0.2715  0.3277  0.1529
  112MPD2    C3 1743   0.238   3.144  11.989  0.1723  0.4529  0.0740
  112MPD2    C4 1744   0.361   3.211  12.003 -0.1361 -0.0396  0.2031
  112MPD2    C5 1745   0.438   3.213  11.889  0.0210 -0.3405  0.6103
  112MPD2     H 1746   0.092   3.048  11.851  0.5577 -0.3510  0.7306
  112MPD2    H1 1747   0.387   3.250  12.100  2.2715  1.9901 -1.2595
  112MPD2    H2 1748   0.454   3.180  11.686  0.3345  4.0452  1.5889
  112MPD2    H3 1749   0.527   3.275  11.889 -1.3382  1.6072 -0.6705
  112MPD2     N 1750   0.181   3.113  12.115 -0.2096  0.3362  0.1664
  112MPD2    H5 1751   0.224   3.160  12.194  1.5079 -1.9744  0.6169
  112MPD2    N1 1752   0.200   3.079  11.623 -0.4067 -0.0923  0.1077
  112MPD2    H7 1753   0.099   3.067  11.628 -0.4389  0.2684  0.3770
  113TMC2    C1 1754   3.244   0.110   0.891 -0.6021  0.5174  0.7926
  113TMC2    C2 1755   3.118   0.127   0.842  0.5391  0.1171  0.7797
  113TMC2    C3 1756   3.034   0.019   0.826  0.7407 -0.4555 -0.2291
  113TMC2    C4 1757   3.282   4.722   0.943 -0.7650 -0.5759  0.1943
  113TMC2    C5 1758   3.186   4.622   0.945  0.7921 -0.7795  0.3793
  113TMC2    C6 1759   3.068   4.634   0.878 -0.0243  0.0506 -0.1195
  113TMC2     C 1760   3.323   0.226   0.929  0.2541 -0.0801  0.1829
  113TMC2     O 1761   3.267   0.331   0.920  0.0770  0.1225  0.0052
  113TMC2     H 1762   3.085   0.226   0.813 -0.4120 -0.6867 -0.8273
  113TMC2    H1 1763   3.373   4.704   0.999 -0.9806 -2.0020  0.0746
  113TMC2    H2 1764   3.009   4.546   0.855 -2.3725  1.9964 -1.4277
  113TMC2    C7 1765   3.228   4.491   0.982 -0.2657  0.2641 -0.5869
  113TMC2    C8 1766   2.920   0.023   0.740 -0.2382  0.0348  0.5874
  113TMC2    O1 1767   3.346   4.462   0.975 -0.1977  0.1256 -0.5183
  113TMC2    O2 1768   2.874   4.655   0.697  0.1810  0.4132 -0.2974
  113TMC2    O5 1769   2.844   0.138   0.752  0.9002 -0.0306  0.0043
  113TMC2    H5 1770   2.892   0.215   0.790 -0.7692  1.6791 -1.2980
  114MPD2     C 1771   3.759   0.480   0.995 -0.0175 -0.2289 -0.4235
  114MPD2    C1 1772   3.630   0.528   0.987 -0.2009 -0.1376  0.2705
  114MPD2    C2 1773   3.526   0.434   0.980 -0.0998 -0.2491  0.3849
  114MPD2    C3 1774   3.555   0.300   0.961 -0.6163  0.2676 -0.5301
  114MPD2    C4 1775   3.686   0.260   0.962 -0.0621  0.1578 -0.4397
  114MPD2    C5 1776   3.785   0.345   0.994 -1.0670 -0.1629  0.0189
  114MPD2     H 1777   3.432   0.488   0.983  0.4424  0.7168  0.1674
  114MPD2    H1 1778   3.717   0.163   0.926  0.1080  0.1318 -0.2246
  114MPD2    H2 1779   3.844   0.546   1.013 -0.8747  0.6362  0.4574
  114MPD2    H3 1780   3.884   0.302   1.001  0.5710  3.8010  0.9759
  114MPD2     N 1781   3.455   0.198   0.943 -0.0979  0.4560  0.1364
  114MPD2    H5 1782   3.479   0.100   0.930 -1.7041  0.0878 -0.0123
  114MPD2    N1 1783   3.596   0.665   1.013  0.2330  0.1214  0.2946
  114MPD2    H7 1784   3.497   0.687   1.023 -0.0418  0.0440 -2.2495
  115TMC2    C1 1785   4.142   2.870   0.157  0.4252  0.7505 -0.3516
  115TMC2    C2 1786   4.275   2.834   0.165  0.1238 -0.2513  0.3659
  115TMC2    C3 1787   4.361   2.944   0.165  0.3409 -0.4977  0.6503
  115TMC2    C4 1788   4.094   3.004   0.151  0.2387 -0.7609  0.0743
  115TMC2    C5 1789   4.193   3.102   0.146 -0.0761  1.0213 -0.1171
  115TMC2    C6 1790   4.326   3.072   0.140  0.1827  0.3941 -0.4244
  115TMC2     C 1791   4.056   2.757   0.138  0.9910 -0.1384  0.6416
  115TMC2     O 1792   4.111   2.649   0.110 -0.5428 -0.0018  0.3905
  115TMC2     H 1793   4.326   2.738   0.173 -0.9529 -0.8386  0.0829
  115TMC2    H1 1794   3.990   3.036   0.147  0.4750  0.1530  1.2358
  115TMC2    H2 1795   4.405   3.147   0.143 -2.4485  3.1382  0.3677
  115TMC2    C7 1796   4.154   3.246   0.142  0.1758  0.1992  0.1879
  115TMC2    C8 1797   4.488   2.914   0.108 -0.4071 -0.3470  0.2952
  115TMC2    O1 1798   4.049   3.277   0.200 -0.3199 -0.2890 -0.4244
  115TMC2    O2 1799   4.592   2.957   0.157 -0.2856 -0.2744 -0.1317
  115TMC2    O5 1800   4.467   2.864  17.728  0.1929  0.2256 -0.4662
  115TMC2    H5 1801   4.376   2.870  17.693  1.1252  0.4430 -2.8186
  116MPD2     C 1802   3.587   2.574   0.036  0.0157 -0.1062 -0.1473
  116MPD2    C1 1803   3.712   2.523   0.007  0.1067  0.7479  0.1355
  116MPD2    C2 1804   3.820   2.595   0.044 -0.0132 -0.3833 -0.1625
  116MPD2    C3 1805   3.816   2.718   0.096 -1.0454  0.6298  0.7009
  116MPD2    C4 1806   3.695   2.774   0.127  0.1115  0.8080  0.3666
  116MPD2    C5 1807   3.582   2.697   0.100  0.1155 -0.1495  0.4586
  116MPD2     H 1808   3.917   2.551   0.021 -0.3048 -0.7495 -0.6748
  116MPD2    H1 1809   3.689   2.872   0.173 -0.5921 -0.1289  2.2820
  116MPD2    H2 1810   3.498   2.519   0.007  0.7451 -1.2677 -0.1705
  116MPD2    H3 1811   3.484   2.739   0.118 -0.2814  0.4753 -3.2741
  116MPD2     N 1812   3.929   2.792   0.134 -0.0482  0.5415 -0.6870
  116MPD2    H5 1813   3.906   2.887   0.160 -2.6718 -0.1435 -0.5125
  116MPD2    N1 1814   3.717   2.391  17.691  0.3418 -0.1678  0.3773
  116MPD2    H7 1815   3.628   2.357  17.657  1.4168 -0.6335 -1.9900
  117TMC2    C1 1816   2.492   0.397  14.317  0.6945  0.3017  0.0795
  117TMC2    C2 1817   2.524   0.295  14.405 -0.1842 -0.8675 -0.3675
  117TMC2    C3 1818   2.639   0.317  14.477 -0.0048  0.3254 -0.9004
  117TMC2    C4 1819   2.563   0.511  14.302  0.0014 -0.0592 -0.7163
  117TMC2    C5 1820   2.673   0.528  14.386 -0.1887 -0.0938  0.0905
  117TMC2    C6 1821   2.707   0.432  14.474 -0.5482 -0.1208 -0.0347
  117TMC2     C 1822   2.357   0.389  14.266  0.0208  0.4373 -0.7870
  117TMC2     O 1823   2.299   0.281  14.270  0.1309  0.4455 -0.3655
  117TMC2     H 1824   2.460   0.208  14.408 -0.1122 -0.8047  2.7126
  117TMC2    H1 1825   2.531   0.592  14.239  1.3865 -0.4336 -1.9100
  117TMC2    H2 1826   2.801   0.450  14.525 -1.0265  1.6221  0.2429
  117TMC2    C7 1827   2.746   0.647  14.378  0.2817 -0.6881 -0.0599
  117TMC2    C8 1828   2.685   0.224  14.565  0.1847 -0.4454  0.0723
  117TMC2    O1 1829   2.805   0.686  14.478 -0.6752  0.6562 -0.3324
  117TMC2    O2 1830   2.622   0.136  14.617 -0.1542 -0.0144  0.3618
  117TMC2    O5 1831   2.819   0.226  14.558  0.0022 -0.3674 -0.0843
  117TMC2    H5 1832   2.850   0.286  14.487  0.4530 -1.4932 -0.8266
  118MPD2     C 1833   2.706   0.894  14.114 -0.4113 -0.5018  0.0604
  118MPD2    C1 1834   2.767   0.837  14.217 -0.2111 -0.0695  0.0618
  118MPD2    C2 1835   2.852   0.915  14.300 -0.2811 -0.7543 -0.3173
  118MPD2    C3 1836   2.881   1.046  14.265 -0.1172 -0.1615  0.6664
  118MPD2    C4 1837   2.813   1.101  14.154  0.3440  0.2391  0.7181
  118MPD2    C5 1838   2.733   1.024  14.077 -0.5031  0.4108  0.2450
  118MPD2     H 1839   2.910   0.864  14.376 -0.1052 -0.4018 -0.2159
  118MPD2    H1 1840   2.827   1.199  14.110  1.2412 -0.7898 -1.2948
  118MPD2    H2 1841   2.630   0.835  14.064  1.3724 -0.4904 -2.6454
  118MPD2    H3 1842   2.671   1.052  13.992  1.7122  1.7806 -0.9089
  118MPD2     N 1843   2.989   1.130  14.310  0.1198  0.0980 -0.2330
  118MPD2    H5 1844   2.999   1.222  14.266  0.8529  1.1665  2.1597
  118MPD2    N1 1845   2.740   0.703  14.246  0.7426  0.5399 -0.4189
  118MPD2    H7 1846   2.695   0.642  14.180  2.0802 -2.1788  1.1921
  119TMC2    C1 1847   0.641   1.241  13.678 -0.1435  0.0680  0.5235
  119TMC2    C2 1848   0.760   1.245  13.747  0.1464  0.5760  0.3529
  119TMC2    C3 1849   0.750   1.206  13.876  0.8350 -0.4394 -0.2914
  119TMC2    C4 1850   0.518   1.210  13.740 -0.7219 -0.4926  0.3371
  119TMC2    C5 1851   0.521   1.151  13.859 -0.1997 -0.8511 -0.1276
  119TMC2    C6 1852   0.641   1.153  13.936  0.6291 -1.2843 -0.4626
  119TMC2     C 1853   0.620   1.350  13.579  0.1086  0.1388  1.1840
  119TMC2     O 1854   0.530   1.427  13.612  0.1172 -0.1075  0.5059
  119TMC2     H 1855   0.849   1.289  13.703 -0.4602  2.0147  0.5563
  119TMC2    H1 1856   0.429   1.224  13.680 -0.0132 -0.0252 -0.5950
  119TMC2    H2 1857   0.640   1.103  14.032 -0.6575 -1.2150 -0.4305
  119TMC2    C7 1858   0.395   1.146  13.930 -0.1682  0.2871 -0.2521
  119TMC2    C8 1859   0.876   1.165  13.930  0.3339 -0.2157  0.3816
  119TMC2    O1 1860   0.313   1.217  13.876  0.3224 -0.2951  0.1287
  119TMC2    O2 1861   0.979   1.151  13.867 -0.2055 -0.5049 -0.0196
  119TMC2    O5 1862   0.866   1.180  14.067  0.0944 -0.5521  0.5108
  119TMC2    H5 1863   0.790   1.236  14.093  0.8898 -0.2028  2.0799
  120MPD2     C 1864   0.747   1.656  13.196 -0.2235 -0.7440 -0.7276
  120MPD2    C1 1865   0.667   1.681  13.310 -0.4883 -0.0360 -0.0553
  120MPD2    C2 1866   0.645   1.573  13.393  0.8634 -0.1655  0.6048
  120MPD2    C3 1867   0.709   1.456  13.371  0.3505  0.6903  0.3567
  120MPD2    C4 1868   0.782   1.433  13.257 -0.3168  0.1351 -0.4492
  120MPD2    C5 1869   0.801   1.534  13.166  1.0255 -0.0640 -0.1474
  120MPD2     H 1870   0.586   1.593  13.482  1.2595 -0.8631  1.0211
  120MPD2    H1 1871   0.823   1.335  13.235  1.7514  0.6635  1.0806
  120MPD2    H2 1872   0.757   1.743  13.132  0.3110  1.1777  1.9576
  120MPD2    H3 1873   0.864   1.527  13.078  0.1166  2.2728 -0.9838
  120MPD2     N 1874   0.700   1.353  13.466  0.2321 -0.3195  0.2066
  120MPD2    H5 1875   0.763   1.276  13.445 -0.0420 -0.5699  0.2904
  120MPD2    N1 1876   0.623   1.808  13.341  0.8317  0.5038  0.7767
  120MPD2    H7 1877   0.672   1.892  13.314 -1.2792  0.4276 -3.2218
  121TMC2    C1 1878   2.060   3.284  14.265  0.5056  0.0532  0.4162
  121TMC2    C2 1879   2.167   3.215  14.216  0.1020  0.0324  0.2546
  121TMC2    C3 1880   2.185   3.081  14.253  0.1005  0.2339  0.2913
  121TMC2    C4 1881   1.971   3.226  14.363 -0.2520 -0.1187 -0.0673
  121TMC2    C5 1882   1.998   3.097  14.388  0.2289 -0.7510 -0.1164
  121TMC2    C6 1883   2.098   3.025  14.336  0.0118  0.8582  0.2453
  121TMC2     C 1884   2.048   3.428  14.249  0.0350 -0.2627  0.5645
  121TMC2     O 1885   1.968   3.494  14.314 -0.3650 -0.7744  0.2491
  121TMC2     H 1886   2.251   3.255  14.161  0.4727  0.3713  1.0726
  121TMC2    H1 1887   1.893   3.280  14.416  1.3017  1.1103  0.9760
  121TMC2    H2 1888   2.107   2.919  14.357 -2.0656  0.2538 -1.9471
  121TMC2    C7 1889   1.927   3.022  14.485 -0.2091 -0.1390  0.1605
  121TMC2    C8 1890   2.312   3.022  14.237  0.1150  0.8395 -0.1980
  121TMC2    O1 1891   1.969   2.919  14.528  0.0264 -0.2041 -0.1406
  121TMC2    O2 1892   2.415   3.075  14.279 -0.2894  0.1814  0.1550
  121TMC2    O5 1893   2.302   2.893  14.206  0.3907  0.4566  0.0118
  121TMC2    H5 1894   2.217   2.881  14.159  0.2513 -2.0675  0.9359
  122MPD2     C 1895   2.182   3.694  14.230 -0.4780  0.5054 -0.2175
  122MPD2    C1 1896   2.185   3.600  14.130 -0.6592  0.2116 -0.4554
  122MPD2    C2 1897   2.246   3.625  14.013  0.2481 -0.2220 -0.0676
  122MPD2    C3 1898   2.274   3.754  13.974  0.4429 -0.4111 -0.5139
  122MPD2    C4 1899   2.257   3.849  14.074 -0.2809 -0.3552 -0.3683
  122MPD2    C5 1900   2.225   3.818  14.202  0.1844  0.0481 -1.1283
  122MPD2     H 1901   2.251   3.540  13.946 -0.4130 -0.9665  0.8307
  122MPD2    H1 1902   2.286   3.950  14.050  1.8691 -0.9781 -0.3350
  122MPD2    H2 1903   2.160   3.668  14.333 -0.7545  0.9180 -0.1693
  122MPD2    H3 1904   2.211   3.897  14.275 -0.9851 -0.6165 -0.6336
  122MPD2     N 1905   2.333   3.782  13.848  0.4346 -0.0647 -0.6281
  122MPD2    H5 1906   2.374   3.872  13.829  0.2257  0.2365  0.3781
  122MPD2    N1 1907   2.123   3.467  14.146  0.1342 -0.1564 -0.7220
  122MPD2    H7 1908   2.154   3.393  14.084  2.5180  1.3024 -1.2432
  123TMC2    C1 1909   0.836   1.619  10.694 -0.3967 -0.1097 -1.0273
  123TMC2    C2 1910   0.843   1.755  10.685 -0.0469 -0.0143  0.3539
  123TMC2    C3 1911   0.894   1.802  10.569  0.2521  0.2712 -0.2595
  123TMC2    C4 1912   0.877   1.532  10.597 -0.4921 -0.2963 -0.1217
  123TMC2    C5 1913   0.925   1.585  10.478  0.1529 -0.0850  0.6686
  123TMC2    C6 1914   0.935   1.723  10.464 -1.1454  0.0939 -0.2929
  123TMC2     C 1915   0.725   1.568  10.769 -0.2997  0.3490  0.7012
  123TMC2     O 1916   0.691   1.628  10.870  0.7707 -0.0498  0.0025
  123TMC2     H 1917   0.803   1.822  10.761  1.3218  1.1220  0.0817
  123TMC2    H1 1918   0.876   1.426  10.620 -2.5358 -0.4988 -1.1430
  123TMC2    H2 1919   0.969   1.775  10.376  0.5592  0.7058  0.7128
  123TMC2    C7 1920   0.916   1.498  10.357 -0.0580  0.4127  0.0339
  123TMC2    C8 1921   0.877   1.951  10.559 -0.3321 -0.1120 -0.1801
  123TMC2    O1 1922   0.855   1.393  10.367 -0.2685  0.0889 -0.1661
  123TMC2    O2 1923   0.797   2.016  10.626  0.2733 -0.1454  0.2346
  123TMC2    O5 1924   1.001   1.999  10.532  0.1991 -0.6152  0.4939
  123TMC2    H5 1925   1.061   1.927  10.503  0.5351 -0.9723  2.0687
  124MPD2     C 1926   0.334   1.230  10.794 -0.0199 -0.1150 -0.2118
  124MPD2    C1 1927   0.381   1.227  10.666 -0.5150 -0.0690  0.0129
  124MPD2    C2 1928   0.489   1.312  10.633 -0.3039 -0.5012  0.4208
  124MPD2    C3 1929   0.543   1.393  10.731  0.2420  0.5816  0.1517
  124MPD2    C4 1930   0.490   1.393  10.857  0.1534  0.0498  0.1356
  124MPD2    C5 1931   0.390   1.309  10.893 -0.1104 -0.5227  0.2702
  124MPD2     H 1932   0.516   1.325  10.529 -2.9102 -1.0422 -0.3104
  124MPD2    H1 1933   0.525   1.456  10.938  0.0741 -0.5245  0.6180
  124MPD2    H2 1934   0.240   1.187  10.825 -0.7384 -0.1130 -2.4534
  124MPD2    H3 1935   0.342   1.305  10.990 -0.2457 -4.3312  0.0772
  124MPD2     N 1936   0.653   1.475  10.700 -0.3655  0.2077  0.2625
  124MPD2    H5 1937   0.683   1.478  10.603 -0.0861 -5.7666  0.1383
  124MPD2    N1 1938   0.313   1.146  10.574 -0.1133  0.3458 -0.2014
  124MPD2    H7 1939   0.230   1.099  10.609  0.1584  0.8398  1.0993
  125TMC2    C1 1940   0.950   2.723   9.027 -0.4927  0.2928 -0.0226
  125TMC2    C2 1941   0.910   2.854   9.036 -0.3131 -0.3508  0.1232
  125TMC2    C3 1942   1.007   2.948   9.003 -0.0759  0.3397 -0.1359
  125TMC2    C4 1943   1.065   2.680   8.971 -0.3938  0.0106 -0.4453
  125TMC2    C5 1944   1.164   2.775   8.958  0.2434 -0.4794 -0.3075
  125TMC2    C6 1945   1.130   2.906   8.958 -0.7891  0.2040 -0.5287
  125TMC2     C 1946   0.864   2.619   9.094 -0.7835 -0.4910 -0.0418
  125TMC2     O 1947   0.741   2.648   9.108  1.0366 -0.0239 -0.2796
  125TMC2     H 1948   0.828   2.889   9.098 -0.9579 -2.1008  0.2483
  125TMC2    H1 1949   1.084   2.579   8.936  0.8616  0.7546 -1.8953
  125TMC2    H2 1950   1.210   2.978   8.970  0.9147 -1.8391  0.4278
  125TMC2    C7 1951   1.260   2.753   8.865  0.0713  0.4666 -0.1173
  125TMC2    C8 1952   1.002   3.062   9.093 -0.7075  0.1648  0.1148
  125TMC2    O1 1953   1.229   2.671   8.780 -0.5305 -0.0600 -0.2650
  125TMC2    O2 1954   0.933   3.068   9.195  0.4718  0.5281 -0.4715
  125TMC2    O5 1955   1.046   3.173   9.027 -0.1372 -0.3068 -0.1319
  125TMC2    H5 1956   1.079   3.142   8.940  0.7970  0.4295 -0.0309
  126MPD1     C 1957   0.788   2.165   9.319 -0.0716 -0.1212  0.2979
  126MPD1    C1 1958   0.925   2.175   9.305  0.9024  0.1283 -0.2921
  126MPD1    C2 1959   0.974   2.285   9.229  0.1903  0.7711 -0.1998
  126MPD1    C3 1960   0.888   2.391   9.201 -0.0463 -0.1909  0.1302
  126MPD1    C4 1961   0.755   2.387   9.239 -0.3584 -0.1818  0.2192
  126MPD1    C5 1962   0.704   2.272   9.301  0.0769  0.3417  1.0665
  126MPD1     H 1963   1.078   2.292   9.199  0.5298 -0.4921  0.6829
  126MPD1    H1 1964   0.682   2.466   9.226  0.2427  0.3540  0.1041
  126MPD1    H2 1965   0.749   2.077   9.368 -1.2962  0.2361 -0.0327
  126MPD1    H3 1966   0.600   2.272   9.331  0.5999 -1.5142  2.8774
  126MPD1     N 1967   0.939   2.506   9.140  0.3642 -0.4925  0.0490
  126MPD1    H5 1968   1.035   2.509   9.109 -0.4704  3.5541 -2.1702
  126MPD1    N1 1969   1.013   2.062   9.330  0.0793 -0.2239  0.0627
  126MPD1    H6 1970   0.982   2.013   9.413 -0.2346  0.1009  0.1395
  126MPD1    H7 1971   1.105   2.099   9.354 -0.2302  0.4958  0.1636
  127TMC2    C1 1972   2.556   2.530   9.992  0.7583  0.1224  0.0819
  127TMC2    C2 1973   2.576   2.559  10.122  0.1872 -0.5134 -0.4139
  127TMC2    C3 1974   2.548   2.461  10.212 -0.1436  0.0902 -0.2889
  127TMC2    C4 1975   2.503   2.415   9.949 -0.1122 -0.2465  0.3155
  127TMC2    C5 1976   2.456   2.329  10.045  0.6841  0.1744 -0.2163
  127TMC2    C6 1977   2.493   2.341  10.176 -0.3517 -0.7103 -0.5144
  127TMC2     C 1978   2.636   2.620   9.909 -0.4013 -0.1567  0.2507
  127TMC2     O 1979   2.698   2.715   9.960  0.7103 -0.1947  0.1596
  127TMC2     H 1980   2.618   2.655  10.151 -0.7438 -1.0645  2.6731
  127TMC2    H1 1981   2.481   2.398   9.844 -0.0189 -0.7905  0.3845
  127TMC2    H2 1982   2.473   2.264  10.250  1.0441 -0.8417 -0.2768
  127TMC2    C7 1983   2.404   2.206   9.999 -0.7471  0.1557  0.0240
  127TMC2    C8 1984   2.545   2.507  10.348  0.1327 -0.4985 -0.1122
  127TMC2    O1 1985   2.427   2.186   9.884 -1.1272 -0.1234 -0.2339
  127TMC2    O2 1986   2.615   2.603  10.382  0.1111  0.2161 -0.6234
  127TMC2    O5 1987   2.415   2.502  10.383  0.3737 -0.1638  0.0008
  127TMC2    H5 1988   2.370   2.429  10.335 -0.2852 -0.3544  0.9168
  128MPD2     C 1989   2.648   2.628   9.547  0.1824 -0.3501 -0.1951
  128MPD2    C1 1990   2.695   2.659   9.674 -0.4636 -0.5802  0.0804
  128MPD2    C2 1991   2.792   2.755   9.693  0.2233  0.3819  0.1591
  128MPD2    C3 1992   2.817   2.835   9.584  0.1983  0.4219 -0.4008
  128MPD2    C4 1993   2.767   2.806   9.459 -0.6043  0.1701 -0.1703
  128MPD2    C5 1994   2.681   2.696   9.436  0.3190  0.6404  0.2617
  128MPD2     H 1995   2.817   2.786   9.794 -1.1787  0.2416  0.5520
  128MPD2    H1 1996   2.777   2.871   9.373  3.3609  0.3144  0.4082
  128MPD2    H2 1997   2.586   2.542   9.524 -0.7864  0.1083  0.7258
  128MPD2    H3 1998   2.627   2.676   9.345  0.8556  2.8714 -0.5617
  128MPD2     N 1999   2.895   2.951   9.607 -0.1497  0.4575  0.1298
  128MPD2    H5 2000   2.937   2.952   9.699  0.7341  1.6378 -0.2906
  128MPD2    N1 2001   2.622   2.595   9.777 -0.0948  0.1227  0.2607
  128MPD2    H7 2002   2.558   2.523   9.747  0.9714 -1.2378  1.2895
  129TMC2    C1 2003   1.761   1.943   1.756  0.9611  0.6199  0.1030
  129TMC2    C2 2004   1.769   2.054   1.845 -0.1101 -0.1487 -0.0326
  129TMC2    C3 2005   1.736   2.032   1.975  0.1214 -0.0866  0.2885
  129TMC2    C4 2006   1.737   1.821   1.797 -0.1778 -0.8822 -0.4110
  129TMC2    C5 2007   1.704   1.806   1.930  0.5262  0.6514  0.3991
  129TMC2    C6 2008   1.699   1.907   2.020 -0.6395 -0.2581  0.7482
  129TMC2     C 2009   1.816   1.951   1.621 -0.1186 -0.0675 -0.2634
  129TMC2     O 2010   1.857   1.844   1.575  0.3727 -0.4234 -0.0245
  129TMC2     H 2011   1.813   2.147   1.812 -0.8171 -0.0693 -0.7565
  129TMC2    H1 2012   1.733   1.738   1.728  1.5506 -1.8187  0.5865
  129TMC2    H2 2013   1.662   1.888   2.120  0.7696  1.3382  1.5794
  129TMC2    C7 2014   1.649   1.671   1.970  0.3991 -0.0646  0.8224
  129TMC2    C8 2015   1.736   2.153   2.059  0.4926 -0.7334 -0.4886
  129TMC2    O1 2016   1.663   1.647   2.088  0.2659  0.6967  0.0805
  129TMC2    O2 2017   1.793   2.254   2.016 -0.0111 -0.2232 -0.1888
  129TMC2    O5 2018   1.617   2.154   2.131 -0.0222 -0.4202  0.1096
  129TMC2    H5 2019   1.566   2.071   2.129  2.4983 -1.9945  0.6826
  130MPD2     C 2020   1.872   1.998   1.342 -0.4492  0.1620  0.5043
  130MPD2    C1 2021   1.793   2.086   1.419 -0.7706 -0.4914 -0.7142
  130MPD2    C2 2022   1.733   2.194   1.359 -0.0458  0.5042 -0.4031
  130MPD2    C3 2023   1.731   2.217   1.223  1.0977  0.5445  0.2162
  130MPD2    C4 2024   1.806   2.127   1.148 -0.0251 -0.5924  0.2594
  130MPD2    C5 2025   1.878   2.025   1.211 -0.3463 -0.3354  0.2193
  130MPD2     H 2026   1.677   2.264   1.421  2.2762  2.6753 -0.7710
  130MPD2    H1 2027   1.801   2.140   1.040  0.6503  0.1312  0.3139
  130MPD2    H2 2028   1.929   1.917   1.385  1.4961  0.0335 -2.3304
  130MPD2    H3 2029   1.943   1.960   1.153  1.5487  1.1921  0.6363
  130MPD2     N 2030   1.657   2.318   1.170 -0.2567  0.0370  0.6881
  130MPD2    H5 2031   1.613   2.380   1.237 -2.3966 -1.0396  0.2845
  130MPD2    N1 2032   1.765   2.056   1.554  0.1685  0.1510  0.0067
  130MPD2    H7 2033   1.701   2.124   1.596  0.8001  1.1730 -0.6879
  131TMC2    C1 2034   0.739   1.604   9.846 -0.0290  0.1775  0.0645
  131TMC2    C2 2035   0.774   1.638   9.718  0.0016 -0.0298 -0.3295
  131TMC2    C3 2036   0.858   1.743   9.702  0.5178 -0.4304 -0.3499
  131TMC2    C4 2037   0.791   1.667   9.955  0.1174 -0.0256  0.0067
  131TMC2    C5 2038   0.884   1.765   9.934 -0.3262 -0.4939  0.0262
  131TMC2    C6 2039   0.923   1.795   9.810 -0.0646  1.0305 -0.7335
  131TMC2     C 2040   0.638   1.503   9.876  0.0817 -0.9245  0.0458
  131TMC2     O 2041   0.601   1.499   9.990  0.3861 -0.3129 -0.1143
  131TMC2     H 2042   0.711   1.606   9.635  1.4239 -0.2473 -1.3178
  131TMC2    H1 2043   0.752   1.634  10.050 -3.7231  2.5823 -0.6512
  131TMC2    H2 2044   1.005   1.864   9.793  1.0186  0.3996  1.9476
  131TMC2    C7 2045   0.889   1.860  10.043  0.0173 -0.8919 -0.1540
  131TMC2    C8 2046   0.921   1.762   9.578 -0.2834 -0.0212 -0.3284
  131TMC2    O1 2047   0.830   1.823  10.144 -0.2278 -0.4156  0.2163
  131TMC2    O2 2048   0.939   1.676   9.491  0.0295 -0.5511  0.3028
  131TMC2    O5 2049   0.950   1.898   9.570  0.7725  0.8797 -0.3760
  131TMC2    H5 2050   0.909   1.949   9.642  0.7127  0.1545  0.1001
  132MPD2     C 2051   0.515   1.246   9.655 -0.6203  0.2533 -0.4155
  132MPD2    C1 2052   0.515   1.326   9.762 -0.1812 -0.0339 -0.5603
  132MPD2    C2 2053   0.430   1.293   9.865 -0.4029 -0.2148  0.4832
  132MPD2    C3 2054   0.355   1.175   9.858 -0.2714  0.7417 -0.8436
  132MPD2    C4 2055   0.335   1.116   9.740  0.0616 -0.0739 -0.6729
  132MPD2    C5 2056   0.421   1.146   9.641  0.4015 -0.4011  0.1174
  132MPD2     H 2057   0.443   1.345   9.959  0.6244 -1.1211  0.8421
  132MPD2    H1 2058   0.273   1.028   9.728  0.9643 -0.2944 -3.7632
  132MPD2    H2 2059   0.586   1.264   9.575 -3.3850  0.0759 -2.9144
  132MPD2    H3 2060   0.426   1.100   9.542 -0.7927  3.5658 -1.8049
  132MPD2     N 2061   0.290   1.137   9.983 -0.1632 -0.2492  0.1755
  132MPD2    H5 2062   0.315   1.187  10.068  3.4215  1.7680 -2.0468
  132MPD2    N1 2063   0.594   1.438   9.758 -0.1113  0.3056 -0.1880
  132MPD2    H7 2064   0.638   1.464   9.671 -1.2798  0.3288 -0.7735
  133TMC2    C1 2065   0.245   3.222   9.997 -0.1171 -0.7606  0.6597
  133TMC2    C2 2066   0.322   3.195   9.886 -0.0483 -0.6700 -0.5741
  133TMC2    C3 2067   0.422   3.278   9.843  0.5479  0.4363 -0.5208
  133TMC2    C4 2068   0.286   3.327  10.078  0.0356 -0.4760  0.6944
  133TMC2    C5 2069   0.394   3.399  10.039 -0.2926 -0.0231 -0.4815
  133TMC2    C6 2070   0.462   3.384   9.921 -0.3218 -0.1119 -0.3608
  133TMC2     C 2071   0.116   3.151  10.007  0.2962  0.7835  0.2800
  133TMC2     O 2072   0.114   3.049   9.939  0.3818  0.4960  0.2585
  133TMC2     H 2073   0.302   3.104   9.831 -0.3814 -1.5627  1.0138
  133TMC2    H1 2074   0.213   3.344  10.157 -0.6417 -1.3866  0.2709
  133TMC2    H2 2075   0.551   3.436   9.884 -1.0506  1.9344  0.7765
  133TMC2    C7 2076   0.438   3.508  10.124 -0.1128 -0.1741  0.2001
  133TMC2    C8 2077   0.496   3.251   9.719  0.0160 -0.4020 -0.4709
  133TMC2    O1 2078   0.518   3.585  10.072 -0.4020  0.0525 -0.1299
  133TMC2    O2 2079   0.600   3.310   9.694 -0.3203  0.6760 -0.1666
  133TMC2    O5 2080   0.428   3.161   9.641  0.4727  0.0731  0.1518
  133TMC2    H5 2081   0.332   3.159   9.664  0.5749 -3.5225  0.1773
  134MPD2     C 2082   4.534   3.297  10.126 -0.0342 -0.0154  0.5632
  134MPD2    C1 2083   4.615   3.198  10.070 -0.0861  0.3600 -0.8422
  134MPD2    C2 2084   4.570   3.067  10.063  0.0221  0.2443  0.3633
  134MPD2    C3 2085   4.443   3.034  10.102 -0.3742 -0.0869  0.7747
  134MPD2    C4 2086   4.362   3.124  10.163 -0.2675  0.2038 -0.3256
  134MPD2    C5 2087   4.411   3.250  10.173 -0.1156 -1.0400  0.1024
  134MPD2     H 2088   4.635   2.990  10.022  0.6718  0.5548  0.8147
  134MPD2    H1 2089   4.263   3.105  10.203 -0.4835  0.7641 -0.5876
  134MPD2    H2 2090   4.566   3.399  10.143  1.7476 -0.7547  1.7206
  134MPD2    H3 2091   4.351   3.325  10.223  0.7024  0.2055 -0.8088
  134MPD2     N 2092   4.378   2.906  10.071 -0.6536 -0.5068  0.1149
  134MPD2    H5 2093   4.278   2.916  10.079 -0.4844 -0.1254  1.8641
  134MPD2    N1 2094   0.014   3.236  10.054 -0.3094  0.2152 -0.4078
  134MPD2    H7 2095   0.037   3.333  10.071  1.4073 -0.4950  1.3646
  135TMC2    C1 2096   1.527   3.439  10.241 -0.3760  0.5139 -0.2308
  135TMC2    C2 2097   1.507   3.316  10.189 -0.5300  0.4688  0.5714
  135TMC2    C3 2098   1.447   3.229  10.276 -1.1476 -0.3522  0.1070
  135TMC2    C4 2099   1.487   3.482  10.363 -0.2084  0.1380  0.1423
  135TMC2    C5 2100   1.424   3.398  10.441 -0.1476 -0.7190 -0.2732
  135TMC2    C6 2101   1.403   3.270  10.399  0.0807 -0.0006 -0.0284
  135TMC2     C 2102   1.579   3.543  10.146  0.9656  0.5028 -0.7976
  135TMC2     O 2103   1.636   3.643  10.190  0.3607  0.3145  0.5323
  135TMC2     H 2104   1.555   3.287  10.095  2.1881  0.4400  1.9626
  135TMC2    H1 2105   1.505   3.579  10.408 -1.6586  1.1452 -1.4651
  135TMC2    H2 2106   1.340   3.196  10.446  1.8961 -0.4566  1.6711
  135TMC2    C7 2107   1.361   3.457  10.559  0.3088  0.6229 -0.4035
  135TMC2    C8 2108   1.411   3.097  10.229 -0.3209  0.3560 -1.3424
  135TMC2    O1 2109   1.380   3.578  10.588  0.2429  0.6460  1.2349
  135TMC2    O2 2110   1.403   2.996  10.302  0.1631 -0.3285 -0.4484
  135TMC2    O5 2111   1.422   3.098  10.098  0.6169 -0.7432  0.1608
  135TMC2    H5 2112   1.366   3.166  10.055  0.0982 -1.5847 -0.5034
  136MPD2     C 2113   1.692   3.674   9.897 -0.0565 -0.3504  0.0551
  136MPD2    C1 2114   1.606   3.570   9.897 -0.0087 -0.6776  0.1708
  136MPD2    C2 2115   1.561   3.523   9.775  0.6022 -0.1699 -0.0949
  136MPD2    C3 2116   1.602   3.572   9.655 -0.1414 -0.2008 -0.3462
  136MPD2    C4 2117   1.700   3.668   9.657  0.0927 -0.0976  0.3652
  136MPD2    C5 2118   1.740   3.720   9.777 -0.4520  0.5836  0.2961
  136MPD2     H 2119   1.494   3.438   9.785 -0.9806  1.0980  0.0206
  136MPD2    H1 2120   1.741   3.708   9.564 -0.6848 -1.7259 -0.6769
  136MPD2    H2 2121   1.734   3.727   9.982 -0.6193  0.3853 -0.1209
  136MPD2    H3 2122   1.811   3.802   9.777  1.7620 -1.3204 -1.4052
  136MPD2     N 2123   1.576   3.514   9.527 -0.3646  0.3819 -0.3964
  136MPD2    H5 2124   1.620   3.553   9.445  1.2207  1.9218  1.1774
  136MPD2    N1 2125   1.560   3.508  10.018 -0.2021 -0.0527  0.5851
  136MPD2    H7 2126   1.505   3.425   9.999  1.5219 -1.2957  1.0584
  137TMC2    C1 2127   2.020   2.371   9.718  0.1015  1.1165 -0.4619
  137TMC2    C2 2128   2.138   2.320   9.663 -0.9327 -0.4676  0.3010
  137TMC2    C3 2129   2.189   2.402   9.565  0.1986  0.7705  0.0514
  137TMC2    C4 2130   1.946   2.481   9.683  0.6165 -0.5412  0.2497
  137TMC2    C5 2131   2.004   2.551   9.585 -0.1012  0.3561  0.4016
  137TMC2    C6 2132   2.125   2.512   9.527  0.6842 -0.2259  0.6561
  137TMC2     C 2133   1.984   2.316   9.846  0.2127 -0.1802  0.5010
  137TMC2     O 2134   1.907   2.383   9.914  0.2515 -0.1694  0.3257
  137TMC2     H 2135   2.188   2.234   9.706  0.5237  0.9257  1.4114
  137TMC2    H1 2136   1.858   2.519   9.734 -0.5796 -0.1765 -2.1056
  137TMC2    H2 2137   2.163   2.571   9.444  0.4187 -0.8246  0.1090
  137TMC2    C7 2138   1.947   2.677   9.545 -0.1742 -0.3343  0.5283
  137TMC2    C8 2139   2.328   2.406   9.544  0.7604 -0.5680  0.9981
  137TMC2    O1 2140   2.023   2.764   9.508 -0.6410  0.3836  0.4267
  137TMC2    O2 2141   2.413   2.388   9.631  0.2983  0.2890 -0.2690
  137TMC2    O5 2142   2.343   2.364   9.422  0.1181  0.0139  0.0207
  137TMC2    H5 2143   2.260   2.358   9.370  0.8648  0.8277 -1.2585
  138MPD2     C 2144   1.970   1.969   9.944  0.2203 -0.5620  0.9771
  138MPD2    C1 2145   1.943   2.101   9.959  0.1435 -0.1019  0.2521
  138MPD2    C2 2146   1.871   2.137  10.072  0.3582 -0.1200  0.1713
  138MPD2    C3 2147   1.805   2.050  10.160  0.0755  0.1581 -0.0353
  138MPD2    C4 2148   1.815   1.921  10.120  0.0064 -0.3479 -0.4597
  138MPD2    C5 2149   1.898   1.881  10.022  0.1674 -0.7522  0.7691
  138MPD2     H 2150   1.859   2.244  10.084 -2.2117 -0.4067  0.0900
  138MPD2    H1 2151   1.783   1.844  10.189  0.5090 -0.2643 -0.1282
  138MPD2    H2 2152   2.044   1.930   9.876  0.0594  0.6945  0.0786
  138MPD2    H3 2153   1.935   1.779  10.026 -1.6402 -1.3540  1.9224
  138MPD2     N 2154   1.735   2.094  10.270  0.1857  0.3185  0.0544
  138MPD2    H5 2155   1.724   2.193  10.289 -1.2071  0.1709 -0.0095
  138MPD2    N1 2156   1.999   2.178   9.857 -0.4738  0.4539  0.1786
  138MPD2    H7 2157   2.044   2.124   9.783 -1.3516  0.0067 -0.0278
  139TMC2    C1 2158   2.515   1.406  13.309 -0.4455 -0.8365  0.1155
  139TMC2    C2 2159   2.491   1.443  13.185 -0.1067  0.1219 -0.9677
  139TMC2    C3 2160   2.385   1.527  13.169  0.1447  0.5406  0.2639
  139TMC2    C4 2161   2.420   1.424  13.413 -0.3307  0.9201 -0.7843
  139TMC2    C5 2162   2.309   1.495  13.381  0.4576 -0.7039  0.6957
  139TMC2    C6 2163   2.288   1.547  13.259 -0.1614 -0.0981 -0.8071
  139TMC2     C 2164   2.622   1.315  13.333 -0.2702 -0.0390 -0.4985
  139TMC2     O 2165   2.657   1.251  13.234  0.4061  0.0780 -0.1841
  139TMC2     H 2166   2.566   1.431  13.108  0.8820 -1.7354  0.2822
  139TMC2    H1 2167   2.432   1.392  13.516 -0.1370  2.2151 -0.4102
  139TMC2    H2 2168   2.194   1.586  13.223 -2.0952 -0.6274  3.6596
  139TMC2    C7 2169   2.208   1.515  13.484  0.2648  0.6649  0.1339
  139TMC2    C8 2170   2.368   1.586  13.040  0.0738  0.1466 -0.0020
  139TMC2    O1 2171   2.122   1.598  13.462  0.0520  0.2916  0.3479
  139TMC2    O2 2172   2.368   1.530  12.934  0.3365 -0.2426 -0.6641
  139TMC2    O5 2173   2.320   1.709  13.051  0.4281  0.0083 -0.2857
  139TMC2    H5 2174   2.328   1.753  13.138  1.6043 -2.6907  0.9754
  140MPD2     C 2175   2.809   1.213  13.637  0.1630  0.0490  0.2978
  140MPD2    C1 2176   2.764   1.211  13.509 -0.9604 -0.7547 -0.4435
  140MPD2    C2 2177   2.826   1.125  13.424  0.0900 -0.3842  0.4888
  140MPD2    C3 2178   2.924   1.035  13.462 -0.1420  0.2251 -0.0496
  140MPD2    C4 2179   2.971   1.042  13.588 -0.7975 -0.0546  0.2587
  140MPD2    C5 2180   2.914   1.128  13.679 -0.1894  0.1655 -0.4380
  140MPD2     H 2181   2.805   1.117  13.318 -0.7802 -1.4260  0.7364
  140MPD2    H1 2182   3.051   0.975  13.618  0.9235  2.7507  1.8749
  140MPD2    H2 2183   2.773   1.283  13.711 -1.1883 -0.5190  0.1757
  140MPD2    H3 2184   2.954   1.132  13.780 -1.0982  1.4276 -0.1383
  140MPD2     N 2185   2.970   0.953  13.361  0.3972 -0.1428 -0.0223
  140MPD2    H5 2186   2.934   0.968  13.267 -1.1876  2.2935  0.9819
  140MPD2    N1 2187   2.673   1.311  13.463  0.5883  0.1715 -0.5837
  140MPD2    H7 2188   2.642   1.381  13.530  1.1165 -0.4644  0.3296
  141TMC2    C1 2189   2.947   2.561  14.995 -0.2290 -0.6082 -0.0770
  141TMC2    C2 2190   2.922   2.473  15.095 -0.0406  0.2718 -0.3956
  141TMC2    C3 2191   2.878   2.530  15.202 -0.4234 -0.0242 -0.0383
  141TMC2    C4 2192   2.942   2.699  15.008  0.0932  1.4622  0.1649
  141TMC2    C5 2193   2.893   2.741  15.124 -0.1210  0.6901  0.2775
  141TMC2    C6 2194   2.862   2.661  15.229  0.8918 -0.4978 -0.0306
  141TMC2     C 2195   2.981   2.525  14.864 -0.4658  0.8770  0.2910
  141TMC2     O 2196   3.040   2.603  14.786 -0.5446 -0.4675  0.5003
  141TMC2     H 2197   2.935   2.365  15.092 -1.1131  0.2111 -2.7455
  141TMC2    H1 2198   2.929   2.761  14.920  0.3186  0.0662 -0.8498
  141TMC2    H2 2199   2.828   2.701  15.323 -1.3211 -1.1760 -0.5167
  141TMC2    C7 2200   2.880   2.880  15.147  0.3727 -0.4625 -0.3023
  141TMC2    C8 2201   2.816   2.436  15.302 -0.0467  0.0541 -0.0273
  141TMC2    O1 2202   2.830   2.917  15.251 -0.5346 -0.0243 -0.3159
  141TMC2    O2 2203   2.864   2.335  15.347  0.7445 -0.4869 -0.3210
  141TMC2    O5 2204   2.700   2.494  15.344  0.0163  0.0493 -0.6352
  141TMC2    H5 2205   2.660   2.537  15.266  0.9638 -0.7834 -1.5764
  142TMC2    C1 2206   0.596   0.831   9.901 -0.1310  0.0090 -0.3236
  142TMC2    C2 2207   0.600   0.825   9.766  0.0009 -0.5441 -0.2882
  142TMC2    C3 2208   0.683   0.915   9.700  0.2746 -0.0671  0.5320
  142TMC2    C4 2209   0.659   0.929   9.975 -1.0080  0.3048  0.0777
  142TMC2    C5 2210   0.728   1.023   9.904 -0.0356  0.3017  0.4035
  142TMC2    C6 2211   0.744   1.018   9.766 -0.4795 -0.0700  0.8355
  142TMC2     C 2212   0.477   0.773   9.956  0.7268  0.0495  0.1698
  142TMC2     O 2213   0.379   0.767   9.883 -0.7104 -0.3756 -0.9138
  142TMC2     H 2214   0.539   0.752   9.714  1.5229 -1.7348 -0.3858
  142TMC2    H1 2215   0.665   0.936  10.083 -0.1705  0.9540 -0.0077
  142TMC2    H2 2216   0.783   1.102   9.711  0.0565 -1.4707 -0.9216
  142TMC2    C7 2217   0.760   1.148   9.972 -0.2513 -0.2706 -0.3365
  142TMC2    C8 2218   0.677   0.917   9.562 -0.1579 -0.7046  0.1415
  142TMC2    O1 2219   0.709   1.165  10.082  0.4563 -0.5139  0.2812
  142TMC2    O2 2220   0.693   1.025   9.505 -0.5239  0.1570  0.2020
  142TMC2    O5 2221   0.633   0.801   9.509 -0.1145 -0.2650  0.1771
  142TMC2    H5 2222   0.664   0.725   9.563 -1.6165 -0.5449  0.6585
  143MPD2     C 2223   0.176   0.696  10.362 -0.3577  0.0126  0.3686
  143MPD2    C1 2224   0.147   0.674  10.225  0.4827 -0.3523 -0.4940
  143MPD2    C2 2225   0.252   0.690  10.133 -0.3784 -0.3258 -0.1047
  143MPD2    C3 2226   0.385   0.713  10.173  0.2614  0.3113  0.0496
  143MPD2    C4 2227   0.412   0.727  10.307  0.1147  0.1922 -1.0074
  143MPD2    C5 2228   0.305   0.730  10.398 -0.2060  0.3352 -0.2452
  143MPD2     H 2229   0.234   0.669  10.029 -0.8734  0.5442 -0.2020
  143MPD2    H1 2230   0.510   0.752  10.345 -0.9938  0.0184  1.9637
  143MPD2    H2 2231   0.098   0.704  10.437  0.9308 -0.0028  1.7121
  143MPD2    H3 2232   0.322   0.754  10.502  1.3807 -0.8796 -0.2381
  143MPD2     N 2233   0.490   0.738  10.086 -0.2528 -0.3938  0.0817
  143MPD2    H5 2234   0.587   0.740  10.117 -1.0422  1.2528  2.4350
  143MPD2    N1 2235   0.019   0.629  10.185 -0.4920  0.1238  0.1835
  143MPD2    H7 2236   4.682   0.598  10.249  1.3744  2.6344  3.5360
  144TMC2    C1 2237   3.481   3.931   0.790  0.1591  0.3895  0.1201
  144TMC2    C2 2238   3.542   3.825   0.734 -0.1071  0.0432 -0.5960
  144TMC2    C3 2239   3.680   3.814   0.747  0.2708  0.2743 -0.2236
  144TMC2    C4 2240   3.553   4.010   0.878  0.3684  0.4383 -0.2066
  144TMC2    C5 2241   3.692   3.999   0.880 -0.0921 -0.8176  0.8569
  144TMC2    C6 2242   3.760   3.897   0.821 -0.7401 -0.2458  0.0883
  144TMC2     C 2243   3.348   3.959   0.747  0.2768  0.1322 -0.1712
  144TMC2     O 2244   3.282   3.866   0.705 -0.9412 -0.2355  0.0999
  144TMC2     H 2245   3.496   3.759   0.661 -0.3139  1.2612 -1.5634
  144TMC2    H1 2246   3.497   4.087   0.930 -1.2800 -0.0554 -1.2239
  144TMC2    H2 2247   3.867   3.883   0.828 -0.9244 -2.0471 -0.8205
  144TMC2    C7 2248   3.786   4.071   0.972 -1.1142  0.3265  0.2602
  144TMC2    C8 2249   3.744   3.741   0.635 -0.6169  0.2392 -0.1037
  144TMC2    O1 2250   3.895   4.018   0.997 -0.5033 -0.1920 -0.4919
  144TMC2    O2 2251   3.697   3.734   0.526 -0.4408 -0.7159  0.1119
  144TMC2    O5 2252   3.818   3.638   0.686  0.7063  0.0330  0.5444
  144TMC2    H5 2253   3.853   3.658   0.775  1.5428  1.7113 -0.1442
  145MPD2     C 2254   2.962   4.258   0.597  0.4339 -0.0411 -0.1012
  145MPD2    C1 2255   2.980   4.122   0.582 -0.3679  0.7073  0.2717
  145MPD2    C2 2256   3.100   4.068   0.624 -0.5285  0.3188  0.5597
  145MPD2    C3 2257   3.198   4.148   0.683  0.2843 -0.2226 -0.8734
  145MPD2    C4 2258   3.179   4.284   0.695  0.3370 -0.2230  0.5619
  145MPD2    C5 2259   3.055   4.336   0.661 -0.3310 -0.2737  0.1378
  145MPD2     H 2260   3.105   3.960   0.618 -0.2932  0.3987 -0.6517
  145MPD2    H1 2261   3.261   4.343   0.735  0.5274  0.1851 -0.4158
  145MPD2    H2 2262   2.873   4.310   0.565 -0.4543 -2.3088 -1.2967
  145MPD2    H3 2263   3.032   4.439   0.681 -1.5019 -0.2589 -1.2806
  145MPD2     N 2264   3.322   4.094   0.733  0.4682  0.5564 -0.1747
  145MPD2    H5 2265   3.388   4.168   0.757  0.5416 -0.3901  2.5220
  145MPD2    N1 2266   2.879   4.034   0.524  0.4507  0.3044  0.0363
  145MPD2    H7 2267   2.904   3.935   0.521 -1.8569 -0.2656 -0.3317
  146TMC2    C1 2268   4.567   3.942  12.792 -0.0347 -0.4392  0.7914
  146TMC2    C2 2269   4.445   3.920  12.725  0.0343  0.0005 -0.2862
  146TMC2    C3 2270   4.459   3.831  12.622  0.1613  0.8602  0.3488
  146TMC2    C4 2271   4.690   3.881  12.762  0.3716  0.6883 -0.3825
  146TMC2    C5 2272   4.690   3.792  12.659 -0.9315 -0.2827 -0.1939
  146TMC2    C6 2273   4.580   3.769  12.580  0.2290  0.4368  0.4914
  146TMC2     C 2274   4.574   4.038  12.905  0.1362 -0.0419  0.5947
  146TMC2     O 2275   4.489   4.123  12.907  0.2107 -0.5142  0.1573
  146TMC2     H 2276   4.357   3.984  12.730 -0.3760 -0.7406  1.8432
  146TMC2    H1 2277   0.050   3.904  12.806 -0.1484 -0.4416  1.3813
  146TMC2    H2 2278   4.572   3.695  12.501  1.3172  1.7914 -0.9194
  146TMC2    C7 2279   0.083   3.739  12.606 -0.7480  0.3706  0.1731
  146TMC2    C8 2280   4.346   3.802  12.542  0.8039 -0.1463  0.2667
  146TMC2    O1 2281   0.098   3.734  12.488  0.1655 -0.1525  0.0972
  146TMC2    O2 2282   4.346   3.762  12.428 -0.1683  0.0103  0.0906
  146TMC2    O5 2283   4.235   3.816  12.612 -0.0019 -0.6341 -0.8881
  146TMC2    H5 2284   4.249   3.834  12.708 -0.1478 -3.3167 -0.3704
  147MPD2     C 2285   0.572   3.587  12.713 -0.2322  0.1930  0.5150
  147MPD2    C1 2286   0.491   3.544  12.812 -0.3554 -0.3448 -0.0375
  147MPD2    C2 2287   0.353   3.575  12.805  0.5239  0.2014 -0.3728
  147MPD2    C3 2288   0.298   3.652  12.698  0.0361 -0.4009 -0.3490
  147MPD2    C4 2289   0.382   3.686  12.591  0.3540  0.1984  0.1427
  147MPD2    C5 2290   0.511   3.654  12.601 -1.0726  0.3931 -0.5966
  147MPD2     H 2291   0.284   3.560  12.887 -1.3622 -0.6707 -2.1005
  147MPD2    H1 2292   0.341   3.741  12.508  0.7432 -0.0151 -0.1894
  147MPD2    H2 2293   0.679   3.572  12.710 -0.3240  0.0498 -2.2505
  147MPD2    H3 2294   0.571   3.689  12.518 -0.4013 -0.7404 -0.5845
  147MPD2     N 2295   0.158   3.685  12.704  0.2294  0.0534 -0.2580
  147MPD2    H5 2296   0.116   3.678  12.797 -0.0376 -0.0649 -0.3865
  147MPD2    N1 2297   0.548   3.476  12.922  0.2756  0.4149  0.2698
  147MPD2    H7 2298   0.649   3.468  12.929  0.1252 -1.2759  0.5141
  148TMC2    C1 2299   0.040   2.343  10.994  0.3222  0.0511 -0.0128
  148TMC2    C2 2300   0.160   2.396  11.007  0.3437  0.1940  0.9788
  148TMC2    C3 2301   0.256   2.320  11.067 -0.2630 -0.2373  0.0103
  148TMC2    C4 2302   0.006   2.232  11.059  0.5957 -0.4120  0.9823
  148TMC2    C5 2303   0.094   2.164  11.132 -0.7675  0.1360  0.3682
  148TMC2    C6 2304   0.222   2.210  11.142  1.2437 -0.6449 -0.2475
  148TMC2     C 2305   4.673   2.422  10.931  0.4191  0.3228 -0.0505
  148TMC2     O 2306   4.674   2.545  10.943  0.3525 -0.0354 -0.3826
  148TMC2     H 2307   0.180   2.482  10.943 -0.4014 -2.5563 -2.9357
  148TMC2    H1 2308   4.637   2.204  11.061  0.4977  0.0093  1.5718
  148TMC2    H2 2309   0.296   2.163  11.206  1.0386  0.4444  0.7761
  148TMC2    C7 2310   0.082   2.019  11.114 -0.1032  0.2257 -0.2542
  148TMC2    C8 2311   0.389   2.375  11.080 -0.7148 -0.0765 -0.0052
  148TMC2    O1 2312   0.066   1.988  10.996  0.3051  0.2247  0.6702
  148TMC2    O2 2313   0.423   2.493  11.076  0.1137 -0.2012  0.3224
  148TMC2    O5 2314   0.474   2.277  11.117  0.4253  0.6700 -0.5643
  148TMC2    H5 2315   0.437   2.192  11.086 -2.4769  0.9165  2.2988
  149MPD2     C 2316   4.416   2.516  10.817 -0.1811 -0.1483 -0.5262
  149MPD2    C1 2317   4.474   2.400  10.787  0.5213 -0.2859 -0.3208
  149MPD2    C2 2318   4.404   2.312  10.705 -0.5211  0.3798 -0.3030
  149MPD2    C3 2319   4.282   2.340  10.649 -0.6753  0.7680 -0.0689
  149MPD2    C4 2320   4.242   2.469  10.664 -0.3480  0.0306  0.0978
  149MPD2    C5 2321   4.306   2.552  10.752 -1.1800  0.4562  0.6352
  149MPD2     H 2322   4.454   2.216  10.691  0.5942  0.7183  1.4366
  149MPD2    H1 2323   4.151   2.507  10.618  0.9386  2.3013 -0.5409
  149MPD2    H2 2324   4.464   2.591  10.878  0.2216 -0.0490 -0.9658
  149MPD2    H3 2325   4.271   2.654  10.751  1.9579  1.5292 -0.6074
  149MPD2     N 2326   4.207   2.252  10.567  0.4747 -0.4923 -0.3545
  149MPD2    H5 2327   4.136   2.286  10.503  1.1786 -0.1279 -0.9443
  149MPD2    N1 2328   4.596   2.352  10.844  0.2968  0.1959 -0.6396
  149MPD2    H7 2329   4.623   2.257  10.822 -1.0234 -0.1502 -0.7873
  150TMC2    C1 2330   1.997   1.975  12.317 -0.6413  0.3864 -0.3489
  150TMC2    C2 2331   1.984   2.106  12.303 -0.6950  0.3931  0.2639
  150TMC2    C3 2332   2.100   2.181  12.309  0.3241  0.8533 -0.1146
  150TMC2    C4 2333   2.112   1.913  12.333  0.1799 -0.1892 -0.2849
  150TMC2    C5 2334   2.223   1.994  12.350 -0.3292 -1.0193 -0.0941
  150TMC2    C6 2335   2.225   2.128  12.329 -0.5146  0.5091 -0.4731
  150TMC2     C 2336   1.881   1.903  12.366  0.3104 -0.2034 -0.5283
  150TMC2     O 2337   1.896   1.809  12.443  0.5024 -0.2061 -0.2718
  150TMC2     H 2338   1.889   2.158  12.304 -1.4254 -0.9897  1.7129
  150TMC2    H1 2339   2.118   1.814  12.376 -1.3888 -0.2879 -0.2929
  150TMC2    H2 2340   2.318   2.182  12.319 -0.7366  1.4048  2.1824
  150TMC2    C7 2341   2.344   1.939  12.414 -0.2282  0.2132  0.0529
  150TMC2    C8 2342   2.082   2.326  12.318 -0.2111 -0.7563 -0.6486
  150TMC2    O1 2343   2.426   2.023  12.437  0.5665  0.1710 -0.2664
  150TMC2    O2 2344   2.130   2.375  12.419  0.2331 -0.1536  0.5683
  150TMC2    O5 2345   1.966   2.356  12.255  0.1836 -0.3626  0.4181
  150TMC2    H5 2346   1.964   2.307  12.170 -1.6175  0.8820 -0.2502
  151MPD2     C 2347   1.380   1.817  12.402  0.0256  0.5379 -1.2108
  151MPD2    C1 2348   1.403   1.873  12.280  0.1487  0.9775  0.1706
  151MPD2    C2 2349   1.533   1.911  12.247  0.2909 -0.6643 -0.6624
  151MPD2    C3 2350   1.636   1.891  12.337  0.2841  0.8071 -0.3322
  151MPD2    C4 2351   1.608   1.845  12.460 -0.3993  0.2916  0.0289
  151MPD2    C5 2352   1.478   1.819  12.495  0.3633 -0.1485 -0.2573
  151MPD2     H 2353   1.554   1.950  12.148  0.3399 -2.4850 -1.3730
  151MPD2    H1 2354   1.680   1.851  12.541  0.0822 -0.2595 -0.3603
  151MPD2    H2 2355   1.282   1.786  12.436  0.5363 -0.4952 -0.6910
  151MPD2    H3 2356   1.453   1.788  12.596 -2.2494 -0.7440 -1.0835
  151MPD2     N 2357   1.762   1.940  12.299 -0.2960  0.2878  0.5039
  151MPD2    H5 2358   1.775   2.005  12.222  0.0578 -0.7743 -0.3359
  151MPD2    N1 2359   1.310   1.892  12.171 -0.3758  0.1671  0.1269
  151MPD2    H7 2360   1.334   1.952  12.093 -1.5643 -0.9183 -1.0767
  152TMC2    C1 2361   1.895   1.519  12.687 -0.2917 -0.2639  0.0682
  152TMC2    C2 2362   1.989   1.431  12.647  0.3351  0.1972  0.2976
  152TMC2    C3 2363   2.115   1.476  12.669 -0.0573  0.8076 -0.5401
  152TMC2    C4 2364   1.920   1.648  12.726 -0.0632 -0.0268 -0.4333
  152TMC2    C5 2365   2.052   1.690  12.726  0.1880  0.0124  0.0162
  152TMC2    C6 2366   2.156   1.599  12.712 -0.2190 -0.2650 -0.5466
  152TMC2     C 2367   1.756   1.484  12.685  0.9877  0.3396  0.2956
  152TMC2     O 2368   1.675   1.575  12.698 -0.5140  0.5677  0.1529
  152TMC2     H 2369   1.964   1.330  12.619 -1.7423  0.8406 -0.2014
  152TMC2    H1 2370   1.847   1.728  12.737 -0.1746  0.2213 -2.8739
  152TMC2    H2 2371   2.261   1.624  12.721 -0.8466  2.4440 -0.9073
  152TMC2    C7 2372   2.080   1.836  12.731  0.0477  0.0636  0.4802
  152TMC2    C8 2373   2.211   1.369  12.656  0.2244  0.3559  0.6855
  152TMC2    O1 2374   1.994   1.913  12.691 -0.3912  0.5469 -0.2270
  152TMC2    O2 2375   2.279   1.319  12.749 -0.0885 -0.5334 -0.2739
  152TMC2    O5 2376   2.179   1.314  12.544 -0.1671 -0.2011 -0.2597
  152TMC2    H5 2377   2.135   1.383  12.491  0.1211  0.8328  0.8321
  153MPD2     C 2378   1.589   1.163  12.738 -0.1503 -0.1358  0.0737
  153MPD2    C1 2379   1.599   1.298  12.722 -0.1933  0.7358 -0.7232
  153MPD2    C2 2380   1.482   1.371  12.722 -0.1023  1.0777 -0.2246
  153MPD2    C3 2381   1.360   1.310  12.760 -0.5344  0.3734  0.2154
  153MPD2    C4 2382   1.358   1.172  12.772  0.6420 -0.0585 -0.0493
  153MPD2    C5 2383   1.475   1.104  12.762  0.2913 -0.1397 -0.1210
  153MPD2     H 2384   1.481   1.476  12.694  1.4959  1.1573  0.0092
  153MPD2    H1 2385   1.269   1.115  12.795  1.5094 -1.1232  0.7459
  153MPD2    H2 2386   1.678   1.102  12.746  0.6739  1.1026  0.4997
  153MPD2    H3 2387   1.483   1.001  12.796  0.6366 -0.3821 -0.9352
  153MPD2     N 2388   1.241   1.388  12.767  0.6254 -0.1508 -0.4747
  153MPD2    H5 2389   1.244   1.487  12.747 -0.6331  0.4415  2.2500
  153MPD2    N1 2390   1.732   1.349  12.706 -0.5578 -0.1194 -0.0098
  153MPD2    H7 2391   1.806   1.280  12.718 -0.1642  0.0920 -1.2446
  154TMC2    C1 2392   3.491   0.045   0.248  0.6979 -0.8958 -0.7629
  154TMC2    C2 2393   3.616   0.089   0.269 -0.8407  0.2328 -0.6016
  154TMC2    C3 2394   3.721   0.007   0.242 -0.1770 -0.5123  1.6706
  154TMC2    C4 2395   3.471   4.652   0.203  0.0632  0.1364  0.3202
  154TMC2    C5 2396   3.575   4.568   0.184 -0.4867 -0.0602  0.1788
  154TMC2    C6 2397   3.704   4.618   0.203  0.3094 -0.2335  0.3577
  154TMC2     C 2398   3.390   0.144   0.235  0.1414  0.5448  0.1669
  154TMC2     O 2399   3.419   0.253   0.287  0.6082  0.4086  0.4773
  154TMC2     H 2400   3.641   0.188   0.307 -0.3489  0.2692 -1.0256
  154TMC2    H1 2401   3.371   4.610   0.209  0.1188 -0.0130  0.2054
  154TMC2    H2 2402   3.789   4.562   0.166  0.9159 -1.2218  3.2569
  154TMC2    C7 2403   3.561   4.433   0.127  0.5144 -0.2740 -0.4381
  154TMC2    C8 2404   3.855   0.066   0.246 -0.2605 -0.7372  0.2618
  154TMC2    O1 2405   3.655   4.356   0.151  0.3990  0.3352  0.3923
  154TMC2    O2 2406   3.887   0.185   0.231  0.8465  0.0057 -0.2274
  154TMC2    O5 2407   3.931   4.703   0.287  0.8701 -0.5046  0.4124
  154TMC2    H5 2408   3.878   4.628   0.319  0.3116  0.0997  0.8990
  155MPD2     C 2409   3.104   0.158   0.022  0.0521 -0.5093 -0.3708
  155MPD2    C1 2410   3.185   0.204   0.124  0.0624  0.2880 -0.0773
  155MPD2    C2 2411   3.186   0.335   0.158  0.5184 -0.0715 -0.1097
  155MPD2    C3 2412   3.099   0.419   0.096  0.2624  0.4894 -0.0865
  155MPD2    C4 2413   3.010   0.372  17.737 -0.1596  0.1077 -0.5464
  155MPD2    C5 2414   3.020   0.244  17.695 -0.2647 -0.2048  0.1779
  155MPD2     H 2415   3.257   0.383   0.224  1.9323  0.6257 -2.1259
  155MPD2    H1 2416   2.937   0.435  17.687 -0.5661  0.0947  0.0339
  155MPD2    H2 2417   3.103   0.055  17.731  1.3877 -0.5840 -0.1741
  155MPD2    H3 2418   2.958   0.217  17.611  1.3083  0.7228 -1.2938
  155MPD2     N 2419   3.098   0.549   0.146  0.3804 -0.3937  0.0113
  155MPD2    H5 2420   3.143   0.557   0.236  0.0794  2.2997 -0.0638
  155MPD2    N1 2421   3.278   0.108   0.170  0.1208 -0.4193 -0.4963
  155MPD2    H7 2422   3.273   0.016   0.126 -1.0177 -0.1420 -0.9460
  156TMC2    C1 2423   1.216   4.134  11.955 -0.0561 -0.3756 -0.0155
  156TMC2    C2 2424   1.096   4.119  11.890  0.6132  0.2510 -0.2605
  156TMC2    C3 2425   1.084   4.183  11.769 -0.2059 -0.9191  0.2271
  156TMC2    C4 2426   1.326   4.185  11.897  0.0232 -0.4231 -0.6289
  156TMC2    C5 2427   1.311   4.250  11.782 -0.2573  0.1411  0.6072
  156TMC2    C6 2428   1.191   4.246  11.710  0.0264  0.7190 -0.5438
  156TMC2     C 2429   1.229   4.110  12.104 -0.2056 -0.1677 -0.0462
  156TMC2     O 2430   1.337   4.129  12.156 -0.4566 -0.4531  0.3542
  156TMC2     H 2431   1.019   4.060  11.940  2.7708 -2.0919  0.2859
  156TMC2    H1 2432   1.424   4.183  11.942  0.5081 -1.8088 -1.7592
  156TMC2    H2 2433   1.176   4.306  11.621 -0.0280 -0.6920 -1.4895
  156TMC2    C7 2434   1.420   4.333  11.718  0.8031 -0.0098  0.5213
  156TMC2    C8 2435   0.961   4.151  11.692 -0.5259  0.0428 -0.8240
  156TMC2    O1 2436   1.392   4.381  11.612 -0.1432  0.2810  0.8283
  156TMC2    O2 2437   0.866   4.096  11.744 -0.2036  0.1848  0.4304
  156TMC2    O5 2438   0.989   4.144  11.560  0.8030  0.5100  0.8922
  156TMC2    H5 2439   1.078   4.165  11.525 -0.9211  0.8977 -3.2891
  157MPD2     C 2440   0.981   3.991  12.341 -0.7184  0.0696 -0.4976
  157MPD2    C1 2441   1.105   4.023  12.298 -0.0988 -0.0683 -0.0106
  157MPD2    C2 2442   1.215   3.993  12.376  0.9962 -0.3663  0.3504
  157MPD2    C3 2443   1.194   3.938  12.498 -0.1109 -0.0958 -0.0263
  157MPD2    C4 2444   1.065   3.903  12.545 -0.1036  0.4303 -0.1113
  157MPD2    C5 2445   0.962   3.932  12.465  0.1215  0.4920 -0.1664
  157MPD2     H 2446   1.317   4.009  12.343  0.4664  1.1155 -0.5936
  157MPD2    H1 2447   1.045   3.841  12.631 -1.0672 -1.6507 -1.8450
  157MPD2    H2 2448   0.894   4.027  12.287  0.2581 -0.6017 -2.5340
  157MPD2    H3 2449   0.862   3.915  12.505 -0.1133 -0.0996 -1.0083
  157MPD2     N 2450   1.307   3.909  12.574  0.5798  0.0566  0.0784
  157MPD2    H5 2451   1.394   3.954  12.546  1.0732 -0.8958  0.0600
  157MPD2    N1 2452   1.114   4.075  12.171 -0.3278 -0.3571 -0.1717
  157MPD2    H7 2453   1.027   4.065  12.120 -0.7037 -1.3286  0.6782
  158TMC2    C1 2454   2.307   2.781  13.819  0.1918  0.1551  0.0965
  158TMC2    C2 2455   2.315   2.888  13.738 -0.3476 -0.3472 -0.7183
  158TMC2    C3 2456   2.212   2.922  13.657 -0.7682  0.6195 -0.9623
  158TMC2    C4 2457   2.197   2.701  13.814  0.0024 -0.2189  0.0869
  158TMC2    C5 2458   2.096   2.728  13.727  0.7186 -0.3793 -0.4726
  158TMC2    C6 2459   2.106   2.837  13.642  0.0532  0.5089  0.0217
  158TMC2     C 2460   2.400   2.769  13.929 -0.6722  0.4913  0.9604
  158TMC2     O 2461   2.467   2.872  13.951  0.2224  0.2002 -0.4306
  158TMC2     H 2462   2.404   2.948  13.741  0.8743 -2.1420 -0.8835
  158TMC2    H1 2463   2.184   2.621  13.886  0.2761 -1.0514 -0.7799
  158TMC2    H2 2464   2.030   2.866  13.570  0.4999 -1.0702 -1.0888
  158TMC2    C7 2465   1.961   2.674  13.734 -0.5829 -0.6248 -0.0792
  158TMC2    C8 2466   2.204   3.052  13.595 -0.4007 -0.1453  0.0510
  158TMC2    O1 2467   1.872   2.730  13.675 -0.1855  0.3186  0.3629
  158TMC2    O2 2468   2.112   3.082  13.516 -0.0186  0.4234  0.0309
  158TMC2    O5 2469   2.281   3.145  13.655 -0.0610  0.2975 -0.2516
  158TMC2    H5 2470   2.334   3.112  13.730  0.9871  0.7950 -0.7806
  159MPD2     C 2471   2.706   2.509  14.235 -0.4082  0.5173 -0.5169
  159MPD2    C1 2472   2.591   2.434  14.215 -0.3777 -0.3176  0.1601
  159MPD2    C2 2473   2.498   2.480  14.125  0.1725 -0.7406 -0.9231
  159MPD2    C3 2474   2.504   2.606  14.079 -0.2499  0.7096 -0.6745
  159MPD2    C4 2475   2.617   2.682  14.102  0.4390  0.3137  0.2345
  159MPD2    C5 2476   2.724   2.637  14.178  0.2517  0.5207 -0.6531
  159MPD2     H 2477   2.413   2.419  14.096  0.3477 -1.2473 -0.3494
  159MPD2    H1 2478   2.636   2.774  14.048  1.3419 -0.2349 -0.3800
  159MPD2    H2 2479   2.787   2.489  14.304  1.5781  1.6413 -2.4981
  159MPD2    H3 2480   2.819   2.689  14.170  0.1912  0.9261  1.4056
  159MPD2     N 2481   2.408   2.646  13.983  0.3402 -0.4424  0.3287
  159MPD2    H5 2482   2.332   2.583  13.959  0.4110 -0.5290  0.3320
  159MPD2    N1 2483   2.584   2.303  14.274  0.1212 -0.1363  0.4273
  159MPD2    H7 2484   2.666   2.274  14.325  1.8647 -2.7393 -3.8273
  160TMC2    C1 2485   1.686   4.335   1.600  0.7059  0.0788  0.3690
  160TMC2    C2 2486   1.624   4.214   1.631 -0.4184  0.0767 -0.2245
  160TMC2    C3 2487   1.682   4.096   1.593  0.0104  0.1286  0.1901
  160TMC2    C4 2488   1.811   4.341   1.547  0.1560  0.0615  0.3493
  160TMC2    C5 2489   1.865   4.219   1.506 -0.5036  0.2768 -0.2660
  160TMC2    C6 2490   1.809   4.096   1.533  0.4015  0.0372  0.3984
  160TMC2     C 2491   1.617   4.462   1.645  0.0381  0.2873 -0.1466
  160TMC2     O 2492   1.536   4.449   1.738 -0.1401 -0.2689  0.6656
  160TMC2     H 2493   1.521   4.220   1.665 -1.0990 -0.3217 -2.2061
  160TMC2    H1 2494   1.859   4.436   1.526 -0.1215 -0.1760 -1.3584
  160TMC2    H2 2495   1.850   4.001   1.500 -2.3914 -1.3443  0.8881
  160TMC2    C7 2496   1.984   4.216   1.424  0.1088  0.8879 -0.0685
  160TMC2    C8 2497   1.610   3.972   1.591  0.4947  0.3167  0.1262
  160TMC2    O1 2498   2.039   4.111   1.408  0.6565 -0.0320  0.4816
  160TMC2    O2 2499   1.642   3.880   1.514 -0.0135 -0.7275 -0.1203
  160TMC2    O5 2500   1.538   3.971   1.703 -0.0213 -0.3446 -0.0036
  160TMC2    H5 2501   1.534   4.043   1.770 -0.5577  0.1163 -0.5357
  161MPD2     C 2502   1.504   0.002   1.663  0.0667  0.7996  0.2284
  161MPD2    C1 2503   1.574   4.686   1.552  0.2912 -0.1386 -0.0239
  161MPD2    C2 2504   1.572   0.017   1.429  0.4918  0.3823  0.4621
  161MPD2    C3 2505   1.512   0.142   1.418  0.2596  0.4808  0.6009
  161MPD2    C4 2506   1.452   0.198   1.529  0.2234  0.1645  0.1635
  161MPD2    C5 2507   1.458   0.130   1.649  0.0998  0.2105 -0.0975
  161MPD2     H 2508   1.628   4.713   1.345 -0.8070 -0.1622 -0.1489
  161MPD2    H1 2509   1.403   0.295   1.531  1.0329  0.5972 -1.0071
  161MPD2    H2 2510   1.507   4.682   1.755 -0.5641  0.9136  0.3175
  161MPD2    H3 2511   1.392   0.174   1.723  0.9636  1.0258  0.2003
  161MPD2     N 2512   1.508   0.219   1.296 -0.0198  0.0589 -0.0425
  161MPD2    H5 2513   1.451   0.303   1.299 -1.7635 -1.1231  0.5169
  161MPD2    N1 2514   1.642   4.564   1.550  0.5599  0.6787  0.8913
  161MPD2    H7 2515   1.706   4.540   1.476 -2.5175  0.8072 -1.8238
  162TMC2    C1 2516   0.243   1.978   1.432 -0.4616  0.2576 -0.2726
  162TMC2    C2 2517   0.167   2.071   1.500 -0.1225  0.2759  0.3270
  162TMC2    C3 2518   0.244   2.174   1.566 -0.1125  0.1642  0.5984
  162TMC2    C4 2519   0.380   1.990   1.420 -0.2175 -0.8545 -0.7213
  162TMC2    C5 2520   0.446   2.088   1.491 -0.3688  0.1420 -0.4865
  162TMC2    C6 2521   0.381   2.186   1.559 -0.5204  0.5904 -0.3309
  162TMC2     C 2522   0.191   1.912   1.319  0.4350 -0.2883  0.2566
  162TMC2     O 2523   0.235   1.804   1.286 -0.0147 -0.2874 -0.0703
  162TMC2     H 2524   0.060   2.053   1.508  0.6244 -4.0448  0.1383
  162TMC2    H1 2525   0.428   1.915   1.358 -0.7662 -0.8318 -1.1773
  162TMC2    H2 2526   0.441   2.258   1.615 -0.8221 -1.2607  2.3880
  162TMC2    C7 2527   0.587   2.075   1.501 -0.1973  0.3995 -0.5937
  162TMC2    C8 2528   0.168   2.271   1.644  0.3968 -0.2954  0.4508
  162TMC2    O1 2529   0.647   2.175   1.538 -0.4003  0.3560 -0.0295
  162TMC2    O2 2530   0.044   2.291   1.649  0.4454  0.4510  0.5274
  162TMC2    O5 2531   0.246   2.332   1.732 -0.1894 -0.0817 -0.3505
  162TMC2    H5 2532   0.336   2.293   1.737 -0.8815 -2.0652 -3.5038
  163MPD2     C 2533   4.627   1.897   0.914  0.0099 -0.1545  0.1155
  163MPD2    C1 2534   4.721   1.812   0.952 -0.5453  0.2423 -0.1220
  163MPD2    C2 2535   0.058   1.840   1.066  0.1352  0.7351 -0.4781
  163MPD2    C3 2536   0.006   1.941   1.152  0.5610  0.5811  0.0011
  163MPD2    C4 2537   4.632   2.015   1.118  0.2549 -0.2230  0.3326
  163MPD2    C5 2538   4.576   1.997   0.993 -0.4005 -0.4624 -0.1903
  163MPD2     H 2539   0.147   1.783   1.089 -1.0850 -1.0737 -0.2455
  163MPD2    H1 2540   4.585   2.094   1.176 -2.2552 -0.2431 -1.6668
  163MPD2    H2 2541   4.564   1.881   0.827 -0.9688 -0.1271  0.8193
  163MPD2    H3 2542   4.489   2.058   0.975 -0.3695 -0.2186  0.4673
  163MPD2     N 2543   0.079   1.979   1.269  0.6694  0.2436 -0.2154
  163MPD2    H5 2544   0.045   2.062   1.318  0.9579 -0.0052  0.4059
  163MPD2    N1 2545   0.014   1.708   0.863  0.0546  0.0820 -0.3247
  163MPD2    H7 2546   4.697   1.713   0.776 -1.2713 -0.6326  0.4419
  164TMC2    C1 2547   0.583   1.827  11.457  1.0517  1.0027  0.5962
  164TMC2    C2 2548   0.696   1.859  11.383 -0.1460  0.6184  0.2858
  164TMC2    C3 2549   0.698   1.994  11.345  0.0321  0.4357 -0.6234
  164TMC2    C4 2550   0.483   1.910  11.499  0.5618 -0.0548  0.6810
  164TMC2    C5 2551   0.506   2.044  11.469  0.1543 -0.2003  0.7770
  164TMC2    C6 2552   0.611   2.089  11.396 -0.4440  0.5100  0.5628
  164TMC2     C 2553   0.555   1.683  11.476  0.4585  0.5539 -0.6615
  164TMC2     O 2554   0.465   1.661  11.558  0.1061 -0.0247 -0.4598
  164TMC2     H 2555   0.773   1.787  11.356 -1.7707 -0.9196 -0.2643
  164TMC2    H1 2556   0.390   1.875  11.542  0.8693  0.6835  1.9173
  164TMC2    H2 2557   0.632   2.192  11.368  1.6282 -0.2442 -0.6468
  164TMC2    C7 2558   0.383   2.115  11.457  0.1932 -0.1159  0.4330
  164TMC2    C8 2559   0.812   2.042  11.268 -0.2691 -0.3980 -0.2298
  164TMC2    O1 2560   0.288   2.049  11.415 -0.1934 -0.2146 -0.4611
  164TMC2    O2 2561   0.862   2.155  11.273 -0.7882 -0.0770  0.7024
  164TMC2    O5 2562   0.830   1.945  11.175 -0.3231  0.1555  0.5078
  164TMC2    H5 2563   0.766   1.871  11.175 -0.6751  0.4632  1.0551
  165TMC2    C1 2564   1.616   3.828   2.056  0.3248  0.8006  0.1354
  165TMC2    C2 2565   1.566   3.891   2.167 -0.0242  0.5159  0.1971
  165TMC2    C3 2566   1.643   3.983   2.221  1.0150  0.3518 -0.1459
  165TMC2    C4 2567   1.732   3.868   1.999 -0.3707 -0.5836  0.3230
  165TMC2    C5 2568   1.789   3.983   2.048  0.4986 -0.1028  0.5567
  165TMC2    C6 2569   1.751   4.039   2.167  0.4823 -0.0822  0.8254
  165TMC2     C 2570   1.548   3.711   2.014  0.5954  0.3072  0.6710
  165TMC2     O 2571   1.427   3.699   2.027  0.0726 -0.1019  0.0871
  165TMC2     H 2572   1.463   3.875   2.196 -0.4028 -0.3641 -1.6539
  165TMC2    H1 2573   1.769   3.822   1.908 -1.7375 -0.8502 -0.1035
  165TMC2    H2 2574   1.808   4.116   2.217  0.7841  1.2519 -1.5991
  165TMC2    C7 2575   1.913   4.027   1.988 -0.5807 -0.5249  0.3496
  165TMC2    C8 2576   1.571   4.074   2.307  0.5929 -0.2916 -0.2883
  165TMC2    O1 2577   1.969   3.938   1.929 -0.7482 -0.0001 -0.1809
  165TMC2    O2 2578   1.556   4.192   2.277  0.6768 -0.2288  0.0325
  165TMC2    O5 2579   1.507   4.008   2.405  0.5967 -0.4790 -0.3080
  165TMC2    H5 2580   1.520   3.912   2.420  0.1726 -0.6588 -1.1122
  166MPD2     C 2581   1.564   3.250   1.788 -0.2276  0.1601  0.6136
  166MPD2    C1 2582   1.457   3.329   1.815 -0.0103  0.3485  0.7451
  166MPD2    C2 2583   1.472   3.454   1.879 -0.4433 -0.0998 -0.1070
  166MPD2    C3 2584   1.605   3.501   1.905  0.1428 -0.1027  0.8234
  166MPD2    C4 2585   1.711   3.430   1.848 -0.1140 -0.0551 -0.2907
  166MPD2    C5 2586   1.690   3.303   1.794  0.0452 -0.1127 -0.2291
  166MPD2     H 2587   1.389   3.517   1.908 -0.5508  0.3098 -1.3266
  166MPD2    H1 2588   1.808   3.477   1.848 -0.6623  1.0676  0.4178
  166MPD2    H2 2589   1.541   3.154   1.742  1.0966  1.3082 -2.4996
  166MPD2    H3 2590   1.772   3.242   1.757  1.2757  0.0911  2.1615
  166MPD2     N 2591   1.643   3.618   1.973  0.4937 -0.4012 -0.1559
  166MPD2    H5 2592   1.741   3.645   1.973  0.2439  0.4952  0.0248
  166MPD2    N1 2593   1.333   3.279   1.779  0.0432  0.5094  0.5604
  166MPD2    H7 2594   1.336   3.190   1.730 -0.7208  0.4671  0.5944
  167TMC2    C1 2595   4.329   2.286  13.382  0.4984  0.0796  0.0947
  167TMC2    C2 2596   4.218   2.310  13.460 -0.4234 -0.9917 -0.3087
  167TMC2    C3 2597   4.148   2.203  13.512 -0.3345  1.0679 -0.4974
  167TMC2    C4 2598   4.383   2.167  13.371 -0.1611  0.2728 -0.3046
  167TMC2    C5 2599   4.317   2.064  13.427 -0.0504  0.1546  0.3613
  167TMC2    C6 2600   4.198   2.077  13.497  0.9994  0.3107 -0.4467
  167TMC2     C 2601   4.383   2.401  13.305 -0.1243 -0.0379  0.2905
  167TMC2     O 2602   4.347   2.511  13.339 -0.5692 -0.3082 -0.0982
  167TMC2     H 2603   4.169   2.406  13.449 -0.1858 -0.9399 -0.9190
  167TMC2    H1 2604   4.472   2.154  13.310  0.3008  0.3554  0.3586
  167TMC2    H2 2605   4.134   2.000  13.539  1.8038  0.2500  0.6863
  167TMC2    C7 2606   4.366   1.925  13.417  0.1967  0.0653 -0.0791
  167TMC2    C8 2607   4.006   2.229  13.536 -0.4416 -0.2266  0.5189
  167TMC2    O1 2608   4.295   1.846  13.482 -0.1122 -0.9509 -0.3564
  167TMC2    O2 2609   3.923   2.200  13.451  0.3436  0.2452 -0.4907
  167TMC2    O5 2610   4.009   2.326  13.626 -0.4392  0.3383  0.0037
  167TMC2    H5 2611   4.070   2.310  13.701  0.5544  1.2024 -0.6142
  168MPD2     C 2612   4.555   2.592  13.148 -0.1015  0.0486 -0.1532
  168MPD2    C1 2613   4.532   2.458  13.117  0.0977 -0.1624 -0.3992
  168MPD2    C2 2614   4.569   2.414  12.985 -0.9136 -0.1985 -0.5028
  168MPD2    C3 2615   4.633   2.495  12.899 -0.2438 -0.2994  0.0056
  168MPD2    C4 2616   4.653   2.628  12.934  0.0218  0.4207  0.7527
  168MPD2    C5 2617   4.602   2.683  13.051 -0.3506 -0.1741 -0.4245
  168MPD2     H 2618   4.530   2.315  12.963  2.6258 -1.9845  1.2064
  168MPD2    H1 2619   4.693   2.697  12.860 -0.1900  0.1032  0.3419
  168MPD2    H2 2620   4.518   2.634  13.240  0.0976  1.9279 -0.9375
  168MPD2    H3 2621   4.598   2.790  13.071 -1.2393 -0.5873  1.5602
  168MPD2     N 2622   4.692   2.445  12.778  0.2142  0.1190 -0.1865
  168MPD2    H5 2623   0.023   2.504  12.728 -1.1618  2.2438  0.5229
  168MPD2    N1 2624   4.459   2.366  13.199  0.1297 -0.5283 -0.2882
  168MPD2    H7 2625   4.458   2.273  13.159  0.7578 -0.9184  0.6218
  169MPD1     C 2626   2.505   1.268   9.100 -0.4570  0.2825  0.2247
  169MPD1    C1 2627   2.381   1.281   9.164  0.7306 -0.3390  0.0921
  169MPD1    C2 2628   2.350   1.405   9.220  0.1802 -0.3352  0.1548
  169MPD1    C3 2629   2.434   1.517   9.212 -0.1470 -0.3012 -0.6349
  169MPD1    C4 2630   2.553   1.498   9.146 -0.2652  0.8820  0.4372
  169MPD1    C5 2631   2.586   1.378   9.089 -0.2125 -0.4889 -0.0470
  169MPD1     H 2632   2.256   1.403   9.274  0.8883  1.7363  1.4740
  169MPD1    H1 2633   2.619   1.583   9.127 -0.0474  0.5302 -0.4032
  169MPD1    H2 2634   2.549   1.174   9.070  0.4865  1.0453 -0.7885
  169MPD1    H3 2635   2.678   1.377   9.031 -1.8478 -0.7061 -2.6614
  169MPD1     N 2636   2.393   1.641   9.271 -0.0024 -0.6557  0.3208
  169MPD1    H5 2637   2.298   1.654   9.306 -0.3390 -0.0921 -0.8119
  169MPD1    N1 2638   2.309   1.162   9.184  0.2657  0.5898  0.2735
  169MPD1    H6 2639   2.215   1.189   9.210 -0.2609  1.6847 -2.7403
  169MPD1    H7 2640   2.322   1.086   9.117 -2.2057  1.3837 -1.0930
  170MPD1     C 2641   0.925   4.520  12.810  0.8693  0.1896  0.3370
  170MPD1    C1 2642   1.041   4.594  12.830 -0.0810 -0.0431  0.0759
  170MPD1    C2 2643   1.068   4.644  12.953 -0.0303  0.5563 -0.5320
  170MPD1    C3 2644   0.995   4.607  13.068 -0.3046 -0.2920 -0.2700
  170MPD1    C4 2645   0.882   4.538  13.045 -0.2295  1.2611  0.2120
  170MPD1    C5 2646   0.852   4.489  12.920  0.0287 -0.7126  0.1455
  170MPD1     H 2647   1.143   4.722  12.959  0.0551  0.5646 -1.7306
  170MPD1    H1 2648   0.815   4.509  13.125  0.9934 -0.7209  0.5094
  170MPD1    H2 2649   0.898   4.485  12.711  0.9611 -0.6530  0.6129
  170MPD1    H3 2650   0.762   4.430  12.905 -0.0208  0.0440 -2.5511
  170MPD1     N 2651   1.032   4.650  13.199 -0.1243 -0.3397  0.0711
  170MPD1    H5 2652   1.110   4.715  13.203 -0.6486  0.3537 -0.8516
  170MPD1    N1 2653   1.129   4.640  12.718  0.3736 -0.2909  0.2693
  170MPD1    H6 2654   1.230   4.634  12.730  0.4868 -0.3423 -0.7257
  170MPD1    H7 2655   1.105   4.596  12.630  1.3087  1.4961 -0.8721
  171MPD1     C 2656   4.391   0.855  15.511 -0.1922 -0.1064 -0.2140
  171MPD1    C1 2657   4.517   0.806  15.489 -0.0344  0.4588  0.1854
  171MPD1    C2 2658   4.546   0.666  15.509  0.5582  0.4474 -0.7726
  171MPD1    C3 2659   4.440   0.584  15.548 -0.8086  0.1711 -0.3338
  171MPD1    C4 2660   4.315   0.642  15.559  0.0468 -0.3395 -0.8664
  171MPD1    C5 2661   4.287   0.772  15.532  0.0985  0.0784  0.2566
  171MPD1     H 2662   4.642   0.628  15.477  1.2354 -0.5332  2.4436
  171MPD1    H1 2663   4.231   0.590  15.603 -0.4750  0.9634 -0.3173
  171MPD1    H2 2664   4.376   0.963  15.512  0.6897  0.0299 -1.8384
  171MPD1    H3 2665   4.192   0.824  15.543  1.4021  2.7864 -1.0715
  171MPD1     N 2666   4.461   0.449  15.585 -0.6270  0.7225  0.7660
  171MPD1    H5 2667   4.555   0.422  15.556 -0.7638 -0.7376  1.7024
  171MPD1    N1 2668   4.622   0.898  15.465 -0.1683  0.5759 -0.3315
  171MPD1    H6 2669   4.713   0.859  15.441 -1.1570 -2.2961  0.6560
  171MPD1    H7 2670   4.596   0.962  15.391  1.0571 -0.2353 -1.4672
  172MPD1     C 2671   2.996   3.395   0.432  0.0734 -0.0877 -0.1340
  172MPD1    C1 2672   2.944   3.516   0.413 -0.2822  0.4958  0.2763
  172MPD1    C2 2673   3.036   3.619   0.393 -0.0027 -0.1791  0.1633
  172MPD1    C3 2674   3.175   3.602   0.403  0.4667  0.2251 -0.1323
  172MPD1    C4 2675   3.220   3.476   0.431  0.3726 -0.1392 -0.1902
  172MPD1    C5 2676   3.131   3.373   0.440  0.1930  0.4720  0.4128
  172MPD1     H 2677   3.001   3.717   0.362  1.6618  0.4948  0.4039
  172MPD1    H1 2678   3.323   3.448   0.445  0.0689 -0.2977  1.7885
  172MPD1    H2 2679   2.942   3.304   0.458  1.0575 -0.3959  0.8515
  172MPD1    H3 2680   3.162   3.272   0.463 -0.0752  0.0095 -1.2692
  172MPD1     N 2681   3.278   3.695   0.368 -0.0248 -0.1692  0.2946
  172MPD1    H5 2682   3.374   3.664   0.378  0.3945  0.3379 -2.1879
  172MPD1    N1 2683   2.803   3.536   0.403 -0.6157  0.2102  0.0336
  172MPD1    H6 2684   2.751   3.449   0.390 -0.5717  0.3407 -1.0281
  172MPD1    H7 2685   2.790   3.588   0.316 -0.6158 -1.1850 -0.7976
  173MPD1     C 2686   4.328   4.275  13.693  0.7477  0.3617 -0.3430
  173MPD1    C1 2687   4.454   4.262  13.748 -0.0035 -0.0940  0.7402
  173MPD1    C2 2688   4.486   4.353  13.852  0.1658  0.9491  0.2064
  173MPD1    C3 2689   4.385   4.433  13.902 -0.1245 -1.4404 -0.3269
  173MPD1    C4 2690   4.265   4.439  13.844 -0.1225  0.3797 -0.3236
  173MPD1    C5 2691   4.230   4.350  13.748 -0.5518  0.0481 -0.3571
  173MPD1     H 2692   4.587   4.366  13.890 -0.2325 -0.0479  1.6325
  173MPD1    H1 2693   4.186   4.501  13.887 -0.1348 -0.4730  0.8975
  173MPD1    H2 2694   4.306   4.213  13.607 -0.5072 -2.4936  2.0514
  173MPD1    H3 2695   4.130   4.348  13.705 -0.9278 -2.4672  0.6350
  173MPD1     N 2696   4.426   4.527  13.997  0.4683 -0.0735  0.2289
  173MPD1    H5 2697   4.522   4.518  14.031  0.5760  0.0415 -0.0448
  173MPD1    N1 2698   4.560   4.209  13.680  0.9933  0.1682 -0.1401
  173MPD1    H6 2699   4.627   4.175  13.749  1.3761 -1.4933 -1.3423
  173MPD1    H7 2700   4.520   4.134  13.625 -1.4877  0.8475  0.7223
  174MPD1     C 2701   0.398   0.489  13.801  0.0155 -0.4733 -0.3465
  174MPD1    C1 2702   0.318   0.402  13.729  1.1442 -0.4378  0.1577
  174MPD1    C2 2703   0.200   0.343  13.785  0.0230 -0.0372 -0.4937
  174MPD1    C3 2704   0.180   0.353  13.919  0.8953 -0.0836  0.1843
  174MPD1    C4 2705   0.267   0.430  13.991  0.0313 -0.6331 -0.5005
  174MPD1    C5 2706   0.374   0.497  13.936 -0.2885  0.4076  0.4781
  174MPD1     H 2707   0.153   0.265  13.727 -1.8775 -0.7507  1.9802
  174MPD1    H1 2708   0.239   0.450  14.094 -0.3100  2.2833 -1.1568
  174MPD1    H2 2709   0.486   0.539  13.763  0.6752 -1.8606 -0.6420
  174MPD1    H3 2710   0.434   0.567  13.993 -1.2537  0.9421  0.8402
  174MPD1     N 2711   0.082   0.283  13.991  0.1695  0.1291  0.3584
  174MPD1    H5 2712   0.080   0.292  14.093  2.0379 -1.3938  0.5438
  174MPD1    N1 2713   0.340   0.394  13.593 -0.0431 -0.0721  0.3296
  174MPD1    H6 2714   0.314   0.303  13.554 -2.5440  1.0388 -0.5992
  174MPD1    H7 2715   0.433   0.414  13.558  1.7977 -1.5870  4.4560
  175MPD1     C 2716   2.520   1.523  16.063 -0.0165 -0.7100  0.8654
  175MPD1    C1 2717   2.582   1.413  15.999  0.2341  0.3067 -0.0349
  175MPD1    C2 2718   2.614   1.308  16.085 -0.2079 -0.0356 -0.2424
  175MPD1    C3 2719   2.608   1.321  16.226  0.6665  0.4192  0.3998
  175MPD1    C4 2720   2.535   1.419  16.285 -0.4997 -0.3647 -0.7159
  175MPD1    C5 2721   2.498   1.521  16.205  0.1164 -0.2759 -0.0056
  175MPD1     H 2722   2.650   1.215  16.043 -0.8548 -0.1752 -0.4832
  175MPD1    H1 2723   2.509   1.421  16.390 -2.4079  0.4385 -1.1894
  175MPD1    H2 2724   2.487   1.610  16.007  0.7050 -0.3429  0.9961
  175MPD1    H3 2725   2.445   1.605  16.249  1.0489 -0.3220  1.1889
  175MPD1     N 2726   2.641   1.212  16.307  0.2959  0.8375  0.5503
  175MPD1    H5 2727   2.610   1.222  16.403 -2.0862 -0.1249 -0.1023
  175MPD1    N1 2728   2.588   1.397  15.863 -0.1246  0.2151  0.2258
  175MPD1    H6 2729   2.587   1.488  15.816  0.2914  0.0631 -0.0899
  175MPD1    H7 2730   2.674   1.352  15.831 -1.4580 -1.6185 -0.8069
  176MPD1     C 2731   4.515   2.533   0.505 -0.6463  0.1532 -0.0307
  176MPD1    C1 2732   4.518   2.668   0.475 -0.2897  0.1535 -0.2861
  176MPD1    C2 2733   4.586   2.710   0.365  0.5964  1.0096 -0.1729
  176MPD1    C3 2734   4.641   2.619   0.275 -0.2763  0.2829 -0.2059
  176MPD1    C4 2735   4.627   2.482   0.302 -0.0728 -0.2740 -0.2630
  176MPD1    C5 2736   4.570   2.443   0.418  0.2109  0.4941 -0.0125
  176MPD1     H 2737   4.611   2.813   0.347  0.5404  1.5348  2.8056
  176MPD1    H1 2738   4.683   2.413   0.240  1.2410  0.1847  0.4253
  176MPD1    H2 2739   4.475   2.505   0.602 -0.7589  1.7146  0.3691
  176MPD1    H3 2740   4.574   2.340   0.452 -4.5419  0.3705  0.2555
  176MPD1     N 2741   4.717   2.682   0.176 -0.4620  0.0525 -0.2062
  176MPD1    H5 2742   4.705   2.782   0.161 -2.4384  0.2066  2.4628
  176MPD1    N1 2743   4.481   2.755   0.581  0.1965  0.2154  0.2833
  176MPD1    H6 2744   4.460   2.852   0.561  1.0003 -0.0139 -1.6720
  176MPD1    H7 2745   4.419   2.716   0.652 -0.6312 -0.4409 -0.7837
  177MPD1     C 2746   3.311   3.093  10.348  0.5638 -0.0576 -0.0265
  177MPD1    C1 2747   3.282   2.987  10.269 -0.0582 -1.0573  0.2942
  177MPD1    C2 2748   3.214   3.013  10.148 -0.5120  0.3801 -0.7393
  177MPD1    C3 2749   3.172   3.140  10.106 -1.1234 -0.0165  0.0654
  177MPD1    C4 2750   3.203   3.241  10.192 -0.4262 -0.2566 -0.2771
  177MPD1    C5 2751   3.272   3.220  10.310  0.1004  0.3824  0.8507
  177MPD1     H 2752   3.204   2.943  10.066  2.2775 -0.4973 -0.3044
  177MPD1    H1 2753   3.183   3.344  10.165 -0.8454 -0.3927 -0.4959
  177MPD1    H2 2754   3.367   3.086  10.441 -0.1070 -0.3880  0.3550
  177MPD1    H3 2755   3.309   3.307  10.364  0.4357 -0.4202  1.9322
  177MPD1     N 2756   3.110   3.160   9.977 -0.8608  0.6061 -0.0146
  177MPD1    H5 2757   3.096   3.075   9.923 -0.2427  0.9236 -0.6681
  177MPD1    N1 2758   3.335   2.858  10.289  0.6199 -0.1572 -0.1948
  177MPD1    H6 2759   3.349   2.838  10.388 -0.1836  1.1185  0.1796
  177MPD1    H7 2760   3.270   2.788  10.254  0.3613 -0.1107  0.1890
  178MPD1     C 2761   0.972   2.201   0.510 -0.7676  0.5326 -0.1185
  178MPD1    C1 2762   0.892   2.298   0.449 -0.0559  0.1804 -0.8140
  178MPD1    C2 2763   0.935   2.361   0.335 -0.3680  0.1165  0.4361
  178MPD1    C3 2764   1.061   2.345   0.281 -0.1310  0.1781  0.3887
  178MPD1    C4 2765   1.144   2.260   0.354  0.0596 -0.1788 -0.6214
  178MPD1    C5 2766   1.094   2.178   0.454  0.1590  0.0532 -0.4566
  178MPD1     H 2767   0.864   2.422   0.280 -2.5828 -1.7042  1.2720
  178MPD1    H1 2768   1.246   2.235   0.325  0.8857  1.4667  0.8540
  178MPD1    H2 2769   0.936   2.139   0.591 -4.3339 -0.1925 -2.2843
  178MPD1    H3 2770   1.162   2.099   0.486 -0.7891 -0.7196 -0.3547
  178MPD1     N 2771   1.112   2.403   0.160  0.5049  0.5659  0.0301
  178MPD1    H5 2772   1.204   2.375   0.128 -1.0324 -2.0169 -2.1848
  178MPD1    N1 2773   0.762   2.316   0.503 -0.0962  0.2527  0.5096
  178MPD1    H6 2774   0.770   2.302   0.604 -2.3970  1.8918  0.9009
  178MPD1    H7 2775   0.738   2.414   0.491  0.6867  0.5214  1.1573
  179MPD1     C 2776   0.072   1.812  17.184 -0.3835 -1.0749 -0.1956
  179MPD1    C1 2777   0.055   1.840  17.054 -0.5493  0.4426  0.1799
  179MPD1    C2 2778   0.107   1.749  16.960  0.2407  0.1774  0.5005
  179MPD1    C3 2779   0.154   1.625  17.001 -0.6026  0.0110 -1.0784
  179MPD1    C4 2780   0.164   1.605  17.131  0.3055 -0.7875  0.0086
  179MPD1    C5 2781   0.115   1.689  17.218  0.3833 -0.5235  0.1670
  179MPD1     H 2782   0.119   1.776  16.855  2.8536  1.3774  1.1188
  179MPD1    H1 2783   0.186   1.502  17.157 -0.5425 -0.7224  0.9998
  179MPD1    H2 2784   0.041   1.872  17.268  2.4390 -2.0385  1.5701
  179MPD1    H3 2785   0.116   1.666  17.324  0.5857  0.5570  0.4011
  179MPD1     N 2786   0.205   1.533  16.909 -0.1343  0.0070 -0.0331
  179MPD1    H5 2787   0.254   1.455  16.952  0.8407 -0.3848 -1.8507
  179MPD1    N1 2788   0.035   1.974  17.012 -0.4260 -0.0819  0.1395
  179MPD1    H6 2789   4.711   2.017  17.082 -2.6235 -0.9800 -1.2088
  179MPD1    H7 2790   4.715   1.982  16.927  0.5742  3.5906 -0.1957
  180MPD1     C 2791   0.317   3.040  15.589  0.5847 -0.3140 -0.0389
  180MPD1    C1 2792   0.418   2.994  15.509  0.1851  0.1317  0.2636
  180MPD1    C2 2793   0.413   3.039  15.376 -0.0339 -0.6778 -0.5673
  180MPD1    C3 2794   0.307   3.110  15.321  0.0929 -0.5465  0.1925
  180MPD1    C4 2795   0.203   3.150  15.403 -0.4965 -0.1924 -0.2006
  180MPD1    C5 2796   0.213   3.111  15.536  0.3678  0.2549 -0.1282
  180MPD1     H 2797   0.496   3.000  15.319  0.9938  0.1593  0.3561
  180MPD1    H1 2798   0.127   3.224  15.380 -0.7171 -0.7831 -1.4105
  180MPD1    H2 2799   0.310   3.002  15.691 -2.3483 -0.3830 -0.2524
  180MPD1    H3 2800   0.140   3.151  15.606  0.8104  1.4606 -0.3565
  180MPD1     N 2801   0.312   3.141  15.182  0.6279 -0.1533  0.1570
  180MPD1    H5 2802   0.388   3.093  15.133  0.7715  0.2925 -0.0514
  180MPD1    N1 2803   0.533   2.933  15.559  0.3256  0.2189 -0.2637
  180MPD1    H6 2804   0.600   2.893  15.493  0.3660 -0.6261  0.2918
  180MPD1    H7 2805   0.519   2.871  15.638  0.0208 -0.3117 -0.7361
  181MPD1     C 2806   0.777   0.267   9.869  0.0449 -0.0405 -0.0039
  181MPD1    C1 2807   0.834   0.381   9.910  0.0460  0.2356  0.1643
  181MPD1    C2 2808   0.968   0.392   9.868  0.4641  0.1806 -0.7576
  181MPD1    C3 2809   1.049   0.291   9.817  0.3858  0.3011  0.1568
  181MPD1    C4 2810   0.983   0.175   9.786 -0.7698  0.5993 -0.5476
  181MPD1    C5 2811   0.852   0.168   9.815  0.2168  0.1236  0.5233
  181MPD1     H 2812   1.016   0.484   9.899  2.7292 -1.0449 -0.6616
  181MPD1    H1 2813   1.038   0.087   9.755 -0.0326  0.5448  0.8930
  181MPD1    H2 2814   0.673   0.255   9.898 -0.3692  0.1081 -1.4059
  181MPD1    H3 2815   0.802   0.072   9.818  0.2837  0.1006  0.8984
  181MPD1     N 2816   1.189   0.293   9.799  0.3202 -0.2670 -0.3186
  181MPD1    H5 2817   1.226   0.208   9.758 -0.3846 -0.4169 -0.6593
  181MPD1    N1 2818   0.756   0.494   9.944  0.4588 -0.7456  0.2722
  181MPD1    H6 2819   0.672   0.467   9.995 -0.4637  1.1079 -0.2450
  181MPD1    H7 2820   0.812   0.562   9.995 -2.3198  1.7582 -0.0129
  182MPD1     C 2821   3.275   2.686   1.213 -0.2245 -0.0935  0.0342
  182MPD1    C1 2822   3.242   2.821   1.230  0.2264  0.5393 -0.0762
  182MPD1    C2 2823   3.116   2.857   1.174  0.6132 -0.1917  0.1196
  182MPD1    C3 2824   3.035   2.769   1.106 -0.0616 -0.0381  0.0267
  182MPD1    C4 2825   3.069   2.639   1.094  0.6094 -0.4549  0.8346
  182MPD1    C5 2826   3.195   2.599   1.138 -0.1944  0.0023 -0.5901
  182MPD1     H 2827   3.087   2.960   1.193  0.3692 -0.5118  1.4851
  182MPD1    H1 2828   3.009   2.573   1.032  1.0047  0.8621 -0.9680
  182MPD1    H2 2829   3.372   2.657   1.253 -0.0111 -1.4280 -1.4399
  182MPD1    H3 2830   3.226   2.495   1.134 -1.1671 -0.3756  1.4011
  182MPD1     N 2831   2.912   2.800   1.048 -0.0298 -0.2904 -0.4339
  182MPD1    H5 2832   2.858   2.735   0.992  1.0365 -1.3579 -0.2277
  182MPD1    N1 2833   3.322   2.908   1.300 -0.3286 -0.2066 -0.8108
  182MPD1    H6 2834   3.422   2.891   1.298 -0.1733  0.4615  0.6458
  182MPD1    H7 2835   3.315   3.004   1.267  0.0197 -0.3449 -1.2745
  183MPD1     C 2836   2.752   3.732   8.790  0.1422 -0.0628 -0.0340
  183MPD1    C1 2837   2.642   3.811   8.772 -0.0620  0.4613  0.4331
  183MPD1    C2 2838   2.622   3.923   8.855 -0.0026 -0.1766 -0.8244
  183MPD1    C3 2839   2.707   3.941   8.963  0.7129 -0.1569 -0.0791
  183MPD1    C4 2840   2.817   3.855   8.988  0.0995  0.1986 -0.3204
  183MPD1    C5 2841   2.841   3.757   8.892 -0.6414  0.4345 -0.1326
  183MPD1     H 2842   2.541   3.993   8.839 -0.2957 -0.3687 -0.1685
  183MPD1    H1 2843   2.879   3.864   9.076 -1.5071 -2.6438  1.0898
  183MPD1    H2 2844   2.767   3.648   8.723 -1.0884 -1.2971  1.2679
  183MPD1    H3 2845   2.928   3.692   8.893 -1.3743 -0.5154  2.0127
  183MPD1     N 2846   2.667   4.053   9.044  0.1476  0.5780  0.3767
  183MPD1    H5 2847   2.590   4.113   9.017 -0.5556 -1.2071 -1.6715
  183MPD1    N1 2848   2.565   3.800   8.652 -0.0940  0.3173 -0.0073
  183MPD1    H6 2849   2.568   3.707   8.612  0.6485  1.1828 -1.9872
  183MPD1    H7 2850   2.469   3.830   8.670 -0.7791 -0.3992 -2.4731
  184MPD1     C 2851   2.114   2.649  10.305 -0.2492 -0.2985 -0.0782
  184MPD1    C1 2852   2.084   2.582  10.187 -0.0737 -0.7287 -0.3769
  184MPD1    C2 2853   2.147   2.632  10.076 -0.4281  0.4143 -0.3518
  184MPD1    C3 2854   2.228   2.745  10.079 -0.6712  0.2461  0.2222
  184MPD1    C4 2855   2.238   2.811  10.194 -0.2420 -0.1314 -0.9622
  184MPD1    C5 2856   2.181   2.762  10.305 -0.1442  0.1658 -0.1786
  184MPD1     H 2857   2.136   2.582   9.980 -0.0668  1.3391 -0.8769
  184MPD1    H1 2858   2.284   2.909  10.193  0.6506 -0.5436  0.1651
  184MPD1    H2 2859   2.075   2.611  10.398  0.7377  1.2976  0.9908
  184MPD1    H3 2860   2.189   2.817  10.399 -2.2889 -1.6398  1.0404
  184MPD1     N 2861   2.294   2.800   9.967  0.4786  0.6917  0.2648
  184MPD1    H5 2862   2.343   2.889   9.975 -1.3800  2.0017 -3.1844
  184MPD1    N1 2863   2.011   2.466  10.185 -0.5647  0.0254 -0.2481
  184MPD1    H6 2864   1.958   2.446  10.270 -0.2843  0.3631  0.0095
  184MPD1    H7 2865   1.971   2.443  10.095  2.2323 -0.3375 -1.3923
  185MPD1     C 2866   2.225   2.693   8.979 -0.8064  0.8694  0.4059
  185MPD1    C1 2867   2.351   2.740   9.013  0.0002 -0.1352 -0.5160
  185MPD1    C2 2868   2.371   2.778   9.146  0.4876 -0.8170  0.1208
  185MPD1    C3 2869   2.266   2.804   9.226 -0.0184 -0.1374 -0.0726
  185MPD1    C4 2870   2.140   2.770   9.191 -0.1323 -0.8024  0.1425
  185MPD1    C5 2871   2.120   2.718   9.064  0.6664 -0.4719  0.1044
  185MPD1     H 2872   2.475   2.800   9.167  0.5633 -1.3974  0.3414
  185MPD1    H1 2873   2.056   2.803   9.251 -0.2740  0.4564 -0.7399
  185MPD1    H2 2874   2.214   2.648   8.881 -2.2457  0.1004  0.9075
  185MPD1    H3 2875   2.019   2.689   9.038  0.6950 -0.6749  0.2241
  185MPD1     N 2876   2.291   2.849   9.361  0.0753 -0.2523  0.2562
  185MPD1    H5 2877   2.224   2.830   9.435  0.6100  0.7848  1.0054
  185MPD1    N1 2878   2.464   2.705   8.932  0.6344 -0.5015 -0.2201
  185MPD1    H6 2879   2.446   2.720   8.833 -0.0078  1.1715  0.1438
  185MPD1    H7 2880   2.546   2.765   8.944 -0.3866  0.8850 -0.2416
  186MPD1     C 2881   1.427   0.839  16.302  0.1003  0.1096  0.3127
  186MPD1    C1 2882   1.503   0.951  16.288  0.2992  0.5544 -0.1753
  186MPD1    C2 2883   1.463   1.067  16.345  0.0554  0.3509  0.3388
  186MPD1    C3 2884   1.341   1.072  16.414  0.3845 -0.6431  0.8344
  186MPD1    C4 2885   1.258   0.955  16.418  0.3107  0.2289 -0.1338
  186MPD1    C5 2886   1.300   0.845  16.350 -0.0175 -0.0528 -0.6816
  186MPD1     H 2887   1.533   1.149  16.334 -1.1832  1.2451 -0.8163
  186MPD1    H1 2888   1.159   0.964  16.462 -0.0273  3.6415 -1.6164
  186MPD1    H2 2889   1.453   0.754  16.239  0.0219 -0.9707  1.7424
  186MPD1    H3 2890   1.242   0.754  16.340 -0.1346 -0.5548  4.4497
  186MPD1     N 2891   1.297   1.189  16.480 -0.8200  0.6956  0.1057
  186MPD1    H5 2892   1.208   1.186  16.528  0.5691  0.0967  2.6452
  186MPD1    N1 2893   1.631   0.949  16.230 -0.4246 -0.0825  0.5287
  186MPD1    H6 2894   1.630   0.912  16.135 -0.7322  0.2329  0.4102
  186MPD1    H7 2895   1.663   1.044  16.214  0.0488 -0.3185  0.0688
  187MPD1     C 2896   0.383   2.531  16.822 -0.3395  0.5411  0.5116
  187MPD1    C1 2897   0.471   2.623  16.891  0.1619 -0.8684  0.1323
  187MPD1    C2 2898   0.412   2.712  16.979  0.0806 -0.1094 -0.1684
  187MPD1    C3 2899   0.275   2.718  16.987  0.0357  0.7170  0.0153
  187MPD1    C4 2900   0.198   2.640  16.902 -0.2155  0.8137 -0.5855
  187MPD1    C5 2901   0.250   2.543  16.828  0.0350  0.1644 -0.8120
  187MPD1     H 2902   0.472   2.784  17.034 -1.3637  0.9069  0.0849
  187MPD1    H1 2903   0.090   2.648  16.895 -0.4094  0.1192  1.4461
  187MPD1    H2 2904   0.426   2.457  16.757 -0.0480  0.6475  0.5819
  187MPD1    H3 2905   0.187   2.474  16.774 -2.4526  1.0649  0.9500
  187MPD1     N 2906   0.205   2.809  17.067  0.2663  0.3196 -0.4790
  187MPD1    H5 2907   0.104   2.812  17.053  0.2522 -1.9326 -0.8498
  187MPD1    N1 2908   0.604   2.640  16.854 -0.0900  0.3650  0.3579
  187MPD1    H6 2909   0.669   2.679  16.922  1.8748 -1.0675 -0.7091
  187MPD1    H7 2910   0.647   2.565  16.801 -1.5509 -0.3331  0.1788
  188MPD1     C 2911   0.116   4.016  10.788 -0.0100  0.6279 -0.1351
  188MPD1    C1 2912   0.021   3.943  10.854  0.3195 -0.2634 -0.8697
  188MPD1    C2 2913   4.725   3.815  10.800 -0.5212  0.0601  0.3890
  188MPD1    C3 2914   0.058   3.763  10.691  0.6660  0.2446  0.9074
  188MPD1    C4 2915   0.159   3.832  10.629 -1.1256 -0.6321 -0.0768
  188MPD1    C5 2916   0.182   3.962  10.676  0.6439  0.7335  0.3889
  188MPD1     H 2917   4.647   3.757  10.847 -2.1562  2.8677  1.1640
  188MPD1    H1 2918   0.213   3.802  10.540 -1.3936  0.6643 -0.6835
  188MPD1    H2 2919   0.143   4.114  10.827 -1.9024  1.6606 -1.4116
  188MPD1    H3 2920   0.254   4.031  10.634  0.9828  1.9541  2.9960
  188MPD1     N 2921   0.029   3.635  10.628  0.3142 -0.1008 -0.4413
  188MPD1    H5 2922   0.071   3.607  10.540  3.4127 -1.9313  1.6160
  188MPD1    N1 2923   4.673   3.996  10.953  0.4163 -0.6562 -0.2984
  188MPD1    H6 2924   4.644   3.927  11.022 -1.1366  0.1811 -0.0989
  188MPD1    H7 2925   4.734   4.064  10.998  0.1811  0.1131 -1.1390
  189MPD1     C 2926   1.363   4.215   0.935  0.2398 -0.1122 -0.0922
  189MPD1    C1 2927   1.288   4.304   0.861 -0.3484  0.4598  0.0693
  189MPD1    C2 2928   1.274   4.272   0.725 -0.5242 -0.3017  0.3471
  189MPD1    C3 2929   1.332   4.154   0.669 -0.5314  0.0184 -0.1319
  189MPD1    C4 2930   1.402   4.067   0.746  0.0239 -0.4415 -0.4362
  189MPD1    C5 2931   1.408   4.102   0.874 -0.0092 -0.9051 -0.4439
  189MPD1     H 2932   1.220   4.336   0.656 -0.9104  1.6793  2.5178
  189MPD1    H1 2933   1.450   3.973   0.723  0.7475  0.0600 -0.9488
  189MPD1    H2 2934   1.387   4.238   1.038  0.8126  0.3346 -0.3284
  189MPD1    H3 2935   1.465   4.030   0.933  0.6148 -0.2518 -0.2512
  189MPD1     N 2936   1.313   4.135   0.530 -0.1788  0.2509  0.3421
  189MPD1    H5 2937   1.258   4.210   0.490 -0.1128  0.6959  1.0704
  189MPD1    N1 2938   1.259   4.430   0.914  0.4699  0.3170 -0.0803
  189MPD1    H6 2939   1.183   4.477   0.864 -0.1765  1.6841  2.1951
  189MPD1    H7 2940   1.251   4.433   1.015 -2.3398  3.5202 -0.3656
  190MPD1     C 2941   0.534   2.416  15.177  0.2820 -0.0991  0.1283
  190MPD1    C1 2942   0.625   2.327  15.222  0.0010 -0.3003 -0.1990
  190MPD1    C2 2943   0.686   2.363  15.340  0.5038  1.2676 -0.1521
  190MPD1    C3 2944   0.654   2.480  15.413 -0.3365  0.3791 -0.3788
  190MPD1    C4 2945   0.552   2.553  15.367  0.3046 -0.1124 -0.5318
  190MPD1    C5 2946   0.483   2.522  15.251 -0.7805  0.3641  0.0430
  190MPD1     H 2947   0.761   2.294  15.378 -1.4791  0.3258  2.0192
  190MPD1    H1 2948   0.510   2.637  15.420 -3.2207 -2.4587  0.3541
  190MPD1    H2 2949   0.490   2.387  15.082  1.2677  1.3146 -0.7641
  190MPD1    H3 2950   0.408   2.586  15.206 -1.5188 -0.9782 -0.6257
  190MPD1     N 2951   0.729   2.507  15.528  0.0794  0.4839  0.0562
  190MPD1    H5 2952   0.815   2.453  15.531  0.2965  0.7408 -1.4929
  190MPD1    N1 2953   0.684   2.223  15.143  0.1753  0.5195  0.8009
  190MPD1    H6 2954   0.717   2.147  15.202  0.5659  2.4061  3.0441
  190MPD1    H7 2955   0.622   2.183  15.073  1.3013 -0.0705  0.1440
  191MPD1     C 2956   0.541   4.404  13.088 -0.0809  0.2160 -0.1619
  191MPD1    C1 2957   0.542   4.521  13.163  1.1998  0.5546  0.5269
  191MPD1    C2 2958   0.479   4.628  13.105 -0.7133  0.7401 -0.3571
  191MPD1    C3 2959   0.418   4.617  12.980  0.4300 -0.4220  0.2723
  191MPD1    C4 2960   0.413   4.499  12.908 -0.2941 -0.6268  0.3946
  191MPD1    C5 2961   0.480   4.395  12.965  0.2309  0.7303 -0.1003
  191MPD1     H 2962   0.473   4.722  13.160 -1.5807 -1.1774  2.8158
  191MPD1    H1 2963   0.361   4.479  12.814  0.7055 -0.1749 -0.2564
  191MPD1    H2 2964   0.597   4.317  13.121 -0.3287  0.5717  1.1774
  191MPD1    H3 2965   0.483   4.300  12.913  1.4664  0.9712 -0.4867
  191MPD1     N 2966   0.373   0.002  12.924 -0.0763 -0.4261  0.6662
  191MPD1    H5 2967   0.408   0.086  12.969  1.4786  0.5758 -2.3951
  191MPD1    N1 2968   0.587   4.517  13.296  0.3443 -0.0433 -0.4746
  191MPD1    H6 2969   0.632   4.603  13.328  1.1976 -0.4313 -0.6265
  191MPD1    H7 2970   0.654   4.442  13.312  1.5449  1.6710  2.5913
  192MPD1     C 2971   0.182   0.747  13.305  0.3166 -0.5865 -0.5598
  192MPD1    C1 2972   0.080   0.735  13.212 -0.7125 -0.2934 -0.9296
  192MPD1    C2 2973   0.103   0.646  13.104  0.0984  0.7140  0.6305
  192MPD1    C3 2974   0.214   0.567  13.093  0.9155 -0.0790  0.2697
  192MPD1    C4 2975   0.312   0.586  13.188 -0.2100  0.3197  0.8145
  192MPD1    C5 2976   0.299   0.676  13.292 -0.1209 -0.1903  0.4412
  192MPD1     H 2977   0.027   0.640  13.027  0.9199 -2.2171  0.0696
  192MPD1    H1 2978   0.407   0.533  13.184 -0.4669 -0.0381 -0.9302
  192MPD1    H2 2979   0.160   0.813  13.388 -0.8604 -0.3890 -1.0300
  192MPD1    H3 2980   0.379   0.678  13.366 -1.7380 -0.3024  2.1822
  192MPD1     N 2981   0.243   0.478  12.992 -0.4242 -0.1261  0.2425
  192MPD1    H5 2982   0.323   0.416  13.005  0.8183  1.1009 -1.6854
  192MPD1    N1 2983   4.688   0.785  13.243  0.6112  0.8489 -0.3252
  192MPD1    H6 2984   4.687   0.879  13.282 -2.3605  0.2806  0.9633
  192MPD1    H7 2985   4.624   0.787  13.164 -0.0405  0.8941  0.2090
  193MPD1     C 2986   3.601   0.261  16.743 -0.0966  0.0562 -0.1082
  193MPD1    C1 2987   3.717   0.255  16.673  0.7505 -0.8759  0.7516
  193MPD1    C2 2988   3.837   0.285  16.737  0.2066  0.1023 -0.1615
  193MPD1    C3 2989   3.843   0.293  16.871  0.7543  0.1008  0.5467
  193MPD1    C4 2990   3.721   0.284  16.940  0.0363  0.0834  0.2397
  193MPD1    C5 2991   3.599   0.281  16.875  0.2448 -0.1203 -0.5686
  193MPD1     H 2992   3.928   0.289  16.679  1.4843  2.3221  2.0132
  193MPD1    H1 2993   3.722   0.299  17.047 -1.2946 -1.2058  0.4409
  193MPD1    H2 2994   3.503   0.248  16.700 -0.1168  0.3445 -0.1480
  193MPD1    H3 2995   3.508   0.279  16.933  0.4617  0.3477 -0.2135
  193MPD1     N 2996   3.960   0.318  16.944  0.2206 -0.2177 -0.0933
  193MPD1    H5 2997   3.950   0.314  17.045  0.2424 -1.1756 -0.1302
  193MPD1    N1 2998   3.706   0.249  16.534  0.3354 -0.2147  0.2872
  193MPD1    H6 2999   3.792   0.220  16.488  0.3086 -0.0111  0.1082
  193MPD1    H7 3000   3.632   0.185  16.507  1.9012 -1.3742 -1.2359
  194MPD1     C 3001   3.581   2.466   0.590 -0.2986 -0.7453 -0.3185
  194MPD1    C1 3002   3.477   2.502   0.507 -0.1798 -0.7777  0.0050
  194MPD1    C2 3003   3.387   2.405   0.463 -0.4398  0.0788  0.9332
  194MPD1    C3 3004   3.399   2.274   0.503 -0.6694  0.8321 -0.1622
  194MPD1    C4 3005   3.511   2.243   0.588 -0.3817 -0.3795  0.0483
  194MPD1    C5 3006   3.601   2.337   0.633 -0.7651 -0.5486 -0.1439
  194MPD1     H 3007   3.304   2.439   0.402 -1.1196 -1.5481  0.9693
  194MPD1    H1 3008   3.523   2.139   0.616  0.9233 -0.7073 -1.7661
  194MPD1    H2 3009   3.644   2.545   0.629  0.1513 -0.6642 -1.2017
  194MPD1    H3 3010   3.682   2.319   0.702 -1.0020  0.8672  0.5031
  194MPD1     N 3011   3.303   2.173   0.480  0.2940  0.4672 -0.4021
  194MPD1    H5 3012   3.305   2.085   0.532  2.7542  0.2443 -0.9176
  194MPD1    N1 3013   3.461   2.633   0.479  0.1818 -0.2577  0.1608
  194MPD1    H6 3014   3.415   2.648   0.389  0.5962  0.0248 -0.0034
  194MPD1    H7 3015   3.554   2.674   0.472  1.0017 -2.3198 -0.9305
  195MPD1     C 3016   4.194   4.283   0.671  0.9023 -0.0201  0.2514
  195MPD1    C1 3017   4.142   4.178   0.748  0.2260  0.6521 -0.2467
  195MPD1    C2 3018   4.167   4.045   0.703  0.1274  0.2757  0.4151
  195MPD1    C3 3019   4.233   4.027   0.583 -0.0930  0.3895 -0.0075
  195MPD1    C4 3020   4.280   4.131   0.514 -0.0236 -0.5152  0.3825
  195MPD1    C5 3021   4.261   4.258   0.555  0.5495 -0.1195  0.1077
  195MPD1     H 3022   4.137   3.962   0.765  0.9246  0.9267  1.6868
  195MPD1    H1 3023   4.332   4.119   0.420  0.5255 -1.8226  0.8549
  195MPD1    H2 3024   4.168   4.385   0.698  1.6205 -0.4676  2.6219
  195MPD1    H3 3025   4.303   4.330   0.486  1.0524  0.8081  1.3796
  195MPD1     N 3026   4.242   3.905   0.518 -0.2192 -0.0532 -0.0790
  195MPD1    H5 3027   4.292   3.914   0.430 -0.5463  2.3365 -0.0035
  195MPD1    N1 3028   4.099   4.203   0.878  0.4950  0.2214 -0.2310
  195MPD1    H6 3029   4.070   4.299   0.893  1.8605  1.1524 -3.6929
  195MPD1    H7 3030   4.030   4.137   0.915  1.1618 -0.3336  0.0227
  196MPD1     C 3031   2.650   2.099   0.691 -0.1590  0.1895 -0.3786
  196MPD1    C1 3032   2.721   2.203   0.635  0.3627 -0.8106  0.0043
  196MPD1    C2 3033   2.832   2.250   0.707 -0.9088 -0.1128  1.0175
  196MPD1    C3 3034   2.882   2.178   0.814  0.8162  0.0378 -0.0818
  196MPD1    C4 3035   2.819   2.064   0.859 -0.4611 -0.1949  0.2189
  196MPD1    C5 3036   2.700   2.034   0.803 -0.2108 -0.0643 -0.5115
  196MPD1     H 3037   2.880   2.340   0.671  0.8632 -0.5205  2.3575
  196MPD1    H1 3038   2.857   2.013   0.947  1.2576 -1.1027 -1.0413
  196MPD1    H2 3039   2.559   2.050   0.657 -0.6955 -0.9586  2.7004
  196MPD1    H3 3040   2.646   1.946   0.837  1.7113 -1.3442 -0.7353
  196MPD1     N 3041   2.998   2.210   0.881 -0.1434  0.1069  0.1012
  196MPD1    H5 3042   3.028   2.148   0.956  1.6541  1.1932  0.2703
  196MPD1    N1 3043   2.669   2.280   0.528  0.6457 -0.2932  0.0163
  196MPD1    H6 3044   2.736   2.341   0.482  0.8793  0.5038  1.4277
  196MPD1    H7 3045   2.616   2.224   0.461  1.3076  0.1049 -0.8418
  197MPD1     C 3046   3.034   0.191  16.709  0.3362 -0.3773 -0.4094
  197MPD1    C1 3047   2.937   0.294  16.735 -0.1263  0.0400 -0.6385
  197MPD1    C2 3048   2.991   0.423  16.734  0.1711 -0.2069  0.2343
  197MPD1    C3 3049   3.124   0.455  16.711  0.2482 -0.2255 -0.2530
  197MPD1    C4 3050   3.213   0.346  16.697  0.4933  0.3918  0.7337
  197MPD1    C5 3051   3.166   0.218  16.704 -0.3356 -0.3439  0.1784
  197MPD1     H 3052   2.931   0.512  16.742 -1.5328 -1.2627 -0.8011
  197MPD1    H1 3053   3.319   0.352  16.675  0.0948  1.2239 -0.9927
  197MPD1    H2 3054   3.013   0.086  16.693  1.0868 -0.5380 -0.3384
  197MPD1    H3 3055   3.235   0.135  16.699 -1.8302 -1.8138  3.8956
  197MPD1     N 3056   3.167   0.589  16.721  0.7787 -0.8208  0.6317
  197MPD1    H5 3057   3.093   0.654  16.745  0.3231 -1.2650  0.4198
  197MPD1    N1 3058   2.797   0.273  16.727 -0.0023 -0.9667  0.0265
  197MPD1    H6 3059   2.752   0.347  16.781  1.9898 -0.6637  1.2416
  197MPD1    H7 3060   2.768   0.183  16.764  0.6962 -0.6001  1.4548
  198MPD1     C 3061   0.279   3.946  14.750  0.1473  0.6473  0.3845
  198MPD1    C1 3062   0.409   3.975  14.740 -0.5287 -0.5489 -0.2641
  198MPD1    C2 3063   0.470   4.040  14.846  0.2080 -0.2559  0.2026
  198MPD1    C3 3064   0.405   4.078  14.958 -0.1935  0.6275 -0.1053
  198MPD1    C4 3065   0.274   4.039  14.968 -0.3269 -0.5800  0.1805
  198MPD1    C5 3066   0.213   3.973  14.863 -0.8122  0.1766 -0.0224
  198MPD1     H 3067   0.575   4.064  14.834  0.0471  0.9445  1.2169
  198MPD1    H1 3068   0.214   4.053  15.058 -0.3750 -0.2347  0.0935
  198MPD1    H2 3069   0.221   3.887  14.679  1.7108  0.4438 -0.7303
  198MPD1    H3 3070   0.114   3.930  14.878 -1.1794 -0.0017 -2.8177
  198MPD1     N 3071   0.475   4.146  15.057  0.2463 -0.2564 -0.4100
  198MPD1    H5 3072   0.576   4.148  15.049  0.2113  2.1352 -0.4538
  198MPD1    N1 3073   0.474   3.966  14.617  0.7333  0.1723  0.1871
  198MPD1    H6 3074   0.576   3.958  14.613  0.7561  0.4257  0.2533
  198MPD1    H7 3075   0.437   3.903  14.546 -1.0077  0.1259  1.1429
  199MPD1     C 3076   1.759   0.387   9.423 -0.4749  0.0199  0.0927
  199MPD1    C1 3077   1.874   0.460   9.452 -0.0204  0.1946  0.3103
  199MPD1    C2 3078   1.866   0.587   9.508 -0.3419  0.2101  0.1168
  199MPD1    C3 3079   1.735   0.635   9.552  0.1358  0.5269  0.1055
  199MPD1    C4 3080   1.621   0.557   9.531  0.5816 -0.3441 -0.4976
  199MPD1    C5 3081   1.633   0.434   9.470 -0.5128 -0.1655 -0.0028
  199MPD1     H 3082   1.953   0.652   9.514 -0.2301  0.2277 -1.9438
  199MPD1    H1 3083   1.520   0.597   9.535  0.9864  0.8416 -2.3540
  199MPD1    H2 3084   1.763   0.288   9.379 -1.0995 -0.6831  1.6095
  199MPD1    H3 3085   1.544   0.375   9.452  0.4957 -1.8478  0.5139
  199MPD1     N 3086   1.715   0.765   9.605 -0.0243 -0.4317 -0.5213
  199MPD1    H5 3087   1.625   0.789   9.644  1.1460  2.5512  0.3325
  199MPD1    N1 3088   2.001   0.414   9.408 -0.0300  0.2692 -0.3603
  199MPD1    H6 3089   2.015   0.313   9.409  1.4590  0.4719  0.1284
  199MPD1    H7 3090   2.077   0.468   9.449 -1.3911  0.4122  1.9591
  200MPD1     C 3091   1.485   4.715  15.454 -0.8301  0.4946 -0.1131
  200MPD1    C1 3092   1.410   0.076  15.395 -0.9148  0.0540  0.3144
  200MPD1    C2 3093   1.447   0.206  15.414  0.2465 -0.1585 -0.5138
  200MPD1    C3 3094   1.560   0.244  15.481  0.3208  0.7836  0.4050
  200MPD1    C4 3095   1.637   0.139  15.541 -0.0961  0.3165 -0.2110
  200MPD1    C5 3096   1.594   0.012  15.523 -0.2012 -0.1012 -0.0956
  200MPD1     H 3097   1.379   0.284  15.383  1.5792  1.0737 -0.3525
  200MPD1    H1 3098   1.730   0.161  15.593  1.2210 -0.2375 -2.3227
  200MPD1    H2 3099   1.452   4.612  15.460  2.7818 -0.6225  0.7702
  200MPD1    H3 3100   1.648   4.667  15.570 -1.4883  0.2202  1.9233
  200MPD1     N 3101   1.594   0.379  15.485  0.0784  0.4497  0.1405
  200MPD1    H5 3102   1.534   0.445  15.436 -2.9268 -3.2481 -1.1120
  200MPD1    N1 3103   1.275   0.042  15.357 -0.0634 -0.5858  0.0921
  200MPD1    H6 3104   1.249   4.683  15.331  2.6707 -1.0117 -1.0032
  200MPD1    H7 3105   1.226   0.112  15.301  0.7722 -2.0099 -2.4075
  201MPD1     C 3106   3.140   4.149  12.367  0.3203 -0.2606 -0.4085
  201MPD1    C1 3107   3.225   4.261  12.362 -0.1030 -0.1892  0.1925
  201MPD1    C2 3108   3.359   4.252  12.340  0.4964 -0.0370 -0.2651
  201MPD1    C3 3109   3.414   4.128  12.341 -0.4539 -0.6297  0.3797
  201MPD1    C4 3110   3.332   4.015  12.338 -0.4559 -0.4929  0.6205
  201MPD1    C5 3111   3.194   4.025  12.346  0.2722 -0.1026 -0.4433
  201MPD1     H 3112   3.418   4.343  12.331  1.3624 -0.6016 -0.2019
  201MPD1    H1 3113   3.374   3.915  12.336 -0.5157 -0.4858 -1.7282
  201MPD1    H2 3114   3.033   4.160  12.382  0.7883  1.6859  1.5199
  201MPD1    H3 3115   3.129   3.938  12.352 -2.2343  1.7962  0.1136
  201MPD1     N 3116   3.557   4.105  12.340  0.1791  0.0763  0.4734
  201MPD1    H5 3117   3.592   4.012  12.320  0.1107  0.2712 -0.5715
  201MPD1    N1 3118   3.170   4.389  12.359  0.5213 -0.6330  0.1122
  201MPD1    H6 3119   3.235   4.461  12.330  0.1711  0.7668  2.7658
  201MPD1    H7 3120   3.113   4.415  12.440  1.5170 -0.8991  0.9032
  202MPD1     C 3121   3.328   3.156   9.417  0.6634 -0.6045  0.2290
  202MPD1    C1 3122   3.277   3.280   9.395 -0.2760  0.6131 -0.2382
  202MPD1    C2 3123   3.303   3.377   9.491 -0.0822 -0.0733  0.0716
  202MPD1    C3 3124   3.330   3.343   9.622  0.4263 -0.0614  0.1510
  202MPD1    C4 3125   3.346   3.205   9.646 -1.0561  0.3273  0.2561
  202MPD1    C5 3126   3.343   3.116   9.542 -0.0599  0.2399 -0.3312
  202MPD1     H 3127   3.278   3.480   9.469  2.7795  0.3337 -1.3429
  202MPD1    H1 3128   3.369   3.174   9.747  0.1015  1.5400  0.3570
  202MPD1    H2 3129   3.325   3.082   9.338  0.5228 -0.8706  0.4857
  202MPD1    H3 3130   3.366   3.014   9.571  1.5453  1.0576  1.2706
  202MPD1     N 3131   3.348   3.438   9.728  0.1070 -0.1252 -0.3481
  202MPD1    H5 3132   3.371   3.396   9.817 -0.7923 -0.5425 -0.3117
  202MPD1    N1 3133   3.259   3.318   9.258  0.0818 -0.4758  0.2559
  202MPD1    H6 3134   3.227   3.238   9.204  0.3363  0.4850 -1.3139
  202MPD1    H7 3135   3.198   3.395   9.234 -0.7963 -1.4911 -0.7362
  203MPD1     C 3136   1.985   4.721  12.234  0.5737  0.9177  0.2475
  203MPD1    C1 3137   2.068   4.613  12.200 -0.1217  0.5602 -0.4455
  203MPD1    C2 3138   2.139   4.557  12.309 -0.2134 -0.0040 -0.2207
  203MPD1    C3 3139   2.137   4.620  12.434 -0.2064  0.2234  0.7675
  203MPD1    C4 3140   2.076   0.003  12.454 -0.6476 -0.1332  0.1442
  203MPD1    C5 3141   2.001   0.050  12.353 -0.8643  0.2557 -0.5872
  203MPD1     H 3142   2.195   4.465  12.297 -1.3138 -0.6926 -0.1572
  203MPD1    H1 3143   2.083   0.064  12.543 -1.7882  0.6439 -0.3021
  203MPD1    H2 3144   1.924   0.033  12.158  1.3042  0.7368 -0.4496
  203MPD1    H3 3145   1.946   0.143  12.367  1.3934  1.8307 -2.1091
  203MPD1     N 3146   2.222   4.562  12.538 -0.0171  0.1181 -0.2042
  203MPD1    H5 3147   2.284   4.484  12.518 -0.3714 -0.0174 -0.7639
  203MPD1    N1 3148   2.048   4.548  12.077 -0.2179 -0.0532 -0.2069
  203MPD1    H6 3149   2.135   4.511  12.041 -0.1713 -0.1302 -0.0153
  203MPD1    H7 3150   2.012   4.610  12.005 -1.7269 -1.5100 -0.7048
  204MPD1     C 3151   2.383   1.439   0.382 -0.1925  0.4969  0.1799
  204MPD1    C1 3152   2.411   1.425   0.246  0.2404  0.9264  0.2534
  204MPD1    C2 3153   2.378   1.305   0.182 -0.3291  0.2853 -0.0026
  204MPD1    C3 3154   2.325   1.200   0.264  0.4401 -0.6708 -0.4035
  204MPD1    C4 3155   2.303   1.219   0.400  0.1083 -0.0669 -0.3982
  204MPD1    C5 3156   2.333   1.337   0.456  0.0135 -0.8510  0.5332
  204MPD1     H 3157   2.397   1.297   0.075 -0.8193  2.3825 -0.2428
  204MPD1    H1 3158   2.243   1.154   0.463  1.3397 -1.1404 -0.3310
  204MPD1    H2 3159   2.407   1.531   0.435 -1.4756 -0.0944  1.7440
  204MPD1    H3 3160   2.314   1.333   0.562 -2.7458 -2.0003 -0.0244
  204MPD1     N 3161   2.287   1.078   0.209 -0.3163 -0.4383 -0.1503
  204MPD1    H5 3162   2.279   1.076   0.108 -0.8959  0.2932 -0.1142
  204MPD1    N1 3163   2.452   1.530   0.165 -0.1131 -0.0513  0.2222
  204MPD1    H6 3164   2.505   1.603   0.213  1.3010 -0.3183 -0.9285
  204MPD1    H7 3165   2.511   1.495   0.090 -0.8297 -1.1869  0.1948
  205MPD1     C 3166   2.225   4.409  17.152  0.2879 -0.6694 -0.1530
  205MPD1    C1 3167   2.239   4.299  17.238 -0.1157 -0.1105 -0.0339
  205MPD1    C2 3168   2.237   4.321  17.375 -0.1935 -0.4402 -0.0583
  205MPD1    C3 3169   2.207   4.446  17.425  0.0268 -0.1770 -0.1467
  205MPD1    C4 3170   2.200   4.552  17.342 -0.3800  0.8018 -0.5613
  205MPD1    C5 3171   2.210   4.531  17.208 -0.3670  0.2670  0.3265
  205MPD1     H 3172   2.275   4.243  17.440 -0.6420  0.1970  0.9706
  205MPD1    H1 3173   2.179   4.648  17.386 -0.3378  0.6696 -0.2511
  205MPD1    H2 3174   2.240   4.412  17.044  2.8840  0.6416  0.2352
  205MPD1    H3 3175   2.216   4.622  17.149 -0.1631  0.6595  0.9597
  205MPD1     N 3176   2.200   4.473  17.562 -0.3026  0.2903 -0.0532
  205MPD1    H5 3177   2.192   4.570  17.589  1.7612 -0.0292  1.6986
  205MPD1    N1 3178   2.280   4.172  17.187  0.3389  0.0705  0.1296
  205MPD1    H6 3179   2.226   4.158  17.102 -0.7860 -0.7110  0.9596
  205MPD1    H7 3180   2.259   4.094  17.249  2.2057  0.0609  0.7425
  206MPD1     C 3181   2.942   2.356  16.202  0.0821 -0.0871 -0.7635
  206MPD1    C1 3182   2.824   2.402  16.148  0.4230  0.0888 -0.1603
  206MPD1    C2 3183   2.716   2.402  16.236 -0.0491 -0.3600  0.5867
  206MPD1    C3 3184   2.730   2.369  16.369  0.1938  0.2328  0.0502
  206MPD1    C4 3185   2.848   2.318  16.417 -0.0262 -0.1921 -0.5861
  206MPD1    C5 3186   2.952   2.315  16.330  0.4810 -0.0131  0.7486
  206MPD1     H 3187   2.616   2.422  16.199  1.2758  1.0770 -2.1803
  206MPD1    H1 3188   2.872   2.293  16.519  1.4550 -1.6910 -1.3169
  206MPD1    H2 3189   3.031   2.352  16.140  1.0824  0.8947  0.6009
  206MPD1    H3 3190   3.048   2.279  16.366  0.2898  0.8565  2.0907
  206MPD1     N 3191   2.626   2.377  16.465  0.0592  0.9667 -0.2989
  206MPD1    H5 3192   2.640   2.324  16.551 -1.9688 -0.0065 -0.5812
  206MPD1    N1 3193   2.815   2.418  16.002  0.3826 -0.7174  0.5736
  206MPD1    H6 3194   2.900   2.455  15.960 -0.1718  1.2495  1.1813
  206MPD1    H7 3195   2.733   2.471  15.972  1.6217  0.2417 -1.1931
  207MPD1     C 3196   3.868   0.557   9.578  0.7911 -0.9847 -0.5654
  207MPD1    C1 3197   3.920   0.679   9.617  0.2419  0.5269 -0.1026
  207MPD1    C2 3198   4.025   0.661   9.701 -0.4196 -0.5720 -0.2357
  207MPD1    C3 3199   4.044   0.541   9.780  0.0561 -0.8528  0.4273
  207MPD1    C4 3200   3.962   0.439   9.745  0.5852 -0.1513 -0.2717
  207MPD1    C5 3201   3.873   0.442   9.648 -0.2148 -0.0035  0.3499
  207MPD1     H 3202   4.080   0.750   9.727  1.6659 -2.3002  1.3391
  207MPD1    H1 3203   3.982   0.348   9.801 -3.7545 -0.8631  0.0820
  207MPD1    H2 3204   3.806   0.558   9.489 -3.0844  0.2890  2.1630
  207MPD1    H3 3205   3.815   0.360   9.609 -2.8173  1.5890  0.8983
  207MPD1     N 3206   4.148   0.522   9.878  0.2583  0.2310  0.4532
  207MPD1    H5 3207   4.144   0.430   9.918 -0.1950 -1.3526 -3.2043
  207MPD1    N1 3208   3.908   0.800   9.546  0.1549 -0.4666 -0.3816
  207MPD1    H6 3209   3.810   0.807   9.521 -0.2632 -2.0142  0.7974
  207MPD1    H7 3210   3.935   0.878   9.605  1.0742 -0.2721 -1.0625
  208MPD1     C 3211   3.013   3.344  17.661  0.3378  0.2682 -0.5344
  208MPD1    C1 3212   2.987   3.279   0.042  0.0729 -0.1946  0.0502
  208MPD1    C2 3213   2.876   3.305   0.115  0.4034 -0.1758 -0.8084
  208MPD1    C3 3214   2.784   3.401   0.074 -0.2978  0.7071  0.3692
  208MPD1    C4 3215   2.819   3.477  17.704  0.1911 -0.4502 -0.1159
  208MPD1    C5 3216   2.926   3.442  17.622 -0.1261  0.2026 -0.0267
  208MPD1     H 3217   2.853   3.245   0.202  1.8051  1.1354  0.4664
  208MPD1    H1 3218   2.754   3.547  17.654  0.7780 -0.0520 -0.3161
  208MPD1    H2 3219   3.102   3.322  17.604 -0.5686 -1.0990 -1.4033
  208MPD1    H3 3220   2.945   3.497  17.531  1.4835 -1.7613 -0.8848
  208MPD1     N 3221   2.658   3.397   0.138  0.0731  0.0392  0.7336
  208MPD1    H5 3222   2.645   3.323   0.207 -1.3040  0.8411  1.3398
  208MPD1    N1 3223   3.070   3.173   0.081 -0.5646  0.1979  0.0814
  208MPD1    H6 3224   3.168   3.179   0.054 -0.5021 -0.3778  0.1848
  208MPD1    H7 3225   3.058   3.158   0.181 -0.9132  3.3957  0.5123
  209MPD1     C 3226   0.274   3.918  10.187  1.1701  1.0171  0.0224
  209MPD1    C1 3227   0.141   3.935  10.193 -0.0636  0.0542 -0.0923
  209MPD1    C2 3228   0.093   4.031  10.281 -0.0922 -0.2029  0.4349
  209MPD1    C3 3229   0.172   4.122  10.339  0.5716  0.3753  0.1555
  209MPD1    C4 3230   0.308   4.117  10.316 -0.0732 -0.2042 -0.1086
  209MPD1    C5 3231   0.359   4.012  10.239 -0.4150  0.2326 -0.6054
  209MPD1     H 3232   4.724   4.053  10.299 -0.4832 -0.9049 -0.9315
  209MPD1    H1 3233   0.374   4.195  10.354 -0.0220  0.6952 -2.0586
  209MPD1    H2 3234   0.318   3.840  10.125 -0.2787 -0.8682  1.3542
  209MPD1    H3 3235   0.467   3.998  10.234 -0.6042 -1.7624  0.8226
  209MPD1     N 3236   0.109   4.214  10.433  0.8029 -0.1433 -0.9278
  209MPD1    H5 3237   0.011   4.204  10.458  1.6884 -2.7155  1.5844
  209MPD1    N1 3238   0.050   3.837  10.145 -0.3652 -0.3932  0.1685
  209MPD1    H6 3239   4.694   3.879  10.131  0.1249 -0.1663 -2.3410
  209MPD1    H7 3240   0.077   3.796  10.056  0.6075  3.0739 -1.1456
  210MPD1     C 3241   0.190   0.032  11.375  0.2377  0.6103 -0.2401
  210MPD1    C1 3242   0.264   4.656  11.328  0.2267  0.1033  0.2022
  210MPD1    C2 3243   0.227   4.607  11.201 -0.0358  0.5075  0.2986
  210MPD1    C3 3244   0.151   4.689  11.115 -0.4224  0.7764 -0.0046
  210MPD1    C4 3245   0.092   0.070  11.162 -0.5754  0.0077 -1.1723
  210MPD1    C5 3246   0.115   0.110  11.289 -0.0943 -0.1890 -0.1905
  210MPD1     H 3247   0.276   4.518  11.164 -1.2171  0.7386 -1.8532
  210MPD1    H1 3248   0.015   0.122  11.106 -1.3177 -0.5429 -0.6704
  210MPD1    H2 3249   0.190   0.075  11.475  1.7551  0.6432 -0.2626
  210MPD1    H3 3250   0.068   0.201  11.326  0.6409 -0.4077  1.2845
  210MPD1     N 3251   0.116   4.649  10.982  0.1212  0.6403  0.2061
  210MPD1    H5 3252   0.068   4.721  10.929 -1.7280 -0.0206  0.9909
  210MPD1    N1 3253   0.347   4.577  11.412 -0.0563 -0.3003  0.8506
  210MPD1    H6 3254   0.429   4.541  11.364 -2.6728 -0.7608 -3.2670
  210MPD1    H7 3255   0.388   4.638  11.482 -0.8685  0.6216  0.5195
  211MPD1     C 3256   2.583   4.105  16.491  0.1872  0.2867  0.4219
  211MPD1    C1 3257   2.566   4.230  16.553 -0.4725  0.1015 -0.2941
  211MPD1    C2 3258   2.475   4.319  16.502 -0.1472  0.1152  0.2428
  211MPD1    C3 3259   2.411   4.298  16.380 -0.2160 -0.2473 -0.4046
  211MPD1    C4 3260   2.433   4.173  16.314 -0.0569 -0.5661  0.5462
  211MPD1    C5 3261   2.513   4.085  16.372  0.0577 -0.0065 -0.3714
  211MPD1     H 3262   2.452   4.410  16.556  2.6943 -0.1809  1.9329
  211MPD1    H1 3263   2.400   4.153  16.213  0.7807 -1.3956  0.4364
  211MPD1    H2 3264   2.644   4.028  16.535 -0.2330  0.9562  2.1791
  211MPD1    H3 3265   2.550   4.000  16.316  0.7285 -1.8234  2.8402
  211MPD1     N 3266   2.339   4.405  16.323 -0.0965  0.4225  0.8438
  211MPD1    H5 3267   2.341   4.494  16.373  1.4960  1.1844 -0.5902
  211MPD1    N1 3268   2.615   4.251  16.681 -0.0228 -0.2801  0.0269
  211MPD1    H6 3269   2.630   4.348  16.708  0.1818 -0.2128 -0.3250
  211MPD1    H7 3270   2.696   4.195  16.705 -0.5924 -2.4007 -2.9530
  212MPD1     C 3271   1.841   2.430  16.637 -0.3163 -0.0860  0.3317
  212MPD1    C1 3272   1.725   2.460  16.703 -0.3332  0.1531  0.0412
  212MPD1    C2 3273   1.691   2.379  16.810 -0.4920 -0.6667 -0.6186
  212MPD1    C3 3274   1.781   2.294  16.863 -0.2996 -0.6399 -0.3877
  212MPD1    C4 3275   1.902   2.276  16.798 -0.1739 -0.5471  0.3981
  212MPD1    C5 3276   1.929   2.338  16.680 -0.5257 -0.3177 -0.2286
  212MPD1     H 3277   1.593   2.389  16.856 -1.0953 -1.3335 -1.7705
  212MPD1    H1 3278   1.984   2.215  16.837 -0.6862 -1.3706  0.1933
  212MPD1    H2 3279   1.853   2.459  16.534  1.0709 -1.3071  0.1526
  212MPD1    H3 3280   2.007   2.310  16.611 -0.6611 -1.2864  0.0135
  212MPD1     N 3281   1.765   2.239  16.987  0.4556  0.4508  0.1216
  212MPD1    H5 3282   1.838   2.180  17.025 -2.1643 -1.8573  1.6000
  212MPD1    N1 3283   1.632   2.544  16.642  0.2849  0.5495  0.1306
  212MPD1    H6 3284   1.672   2.618  16.585 -1.3721  1.1680 -0.2387
  212MPD1    H7 3285   1.577   2.581  16.720 -0.8264  0.3161 -0.5399
  213MPD1     C 3286   0.138   3.714  15.630  0.1603  0.3649 -0.1232
  213MPD1    C1 3287   0.003   3.696  15.640 -0.0396 -1.0024 -0.2842
  213MPD1    C2 3288   4.670   3.711  15.522 -0.8933  0.9003 -0.3539
  213MPD1    C3 3289   4.718   3.764  15.407  0.2566  0.1085 -0.0349
  213MPD1    C4 3290   0.116   3.807  15.410 -0.1602  0.3795 -1.1551
  213MPD1    C5 3291   0.192   3.782  15.526 -0.0991 -0.2705  0.4827
  213MPD1     H 3292   4.565   3.683  15.513 -0.6166 -0.1220 -0.4202
  213MPD1    H1 3293   0.167   3.854  15.327 -2.4709  0.3376 -2.5849
  213MPD1    H2 3294   0.205   3.682  15.709 -3.9428 -0.2229  3.1182
  213MPD1    H3 3295   0.299   3.795  15.523 -0.1984  0.3345 -0.7118
  213MPD1     N 3296   4.631   3.780  15.299 -0.2450  0.3977  0.0452
  213MPD1    H5 3297   4.536   3.745  15.313 -0.7849  1.5460 -0.7107
  213MPD1    N1 3298   4.689   3.606  15.741 -0.3529  0.3354 -0.4309
  213MPD1    H6 3299   4.730   3.606  15.834 -2.3753  0.3776  0.4756
  213MPD1    H7 3300   4.588   3.614  15.751 -0.0716  0.8509  1.9250
  214MPD1     C 3301   3.859   3.465  15.313 -0.4465  0.1115 -0.9131
  214MPD1    C1 3302   3.846   3.554  15.212  0.3408 -0.1230  0.2456
  214MPD1    C2 3303   3.947   3.638  15.171 -0.8630  0.2738  0.1557
  214MPD1    C3 3304   4.074   3.612  15.217 -0.5908 -0.3959  0.1421
  214MPD1    C4 3305   4.090   3.518  15.320  0.0115  0.6097 -0.6380
  214MPD1    C5 3306   3.985   3.451  15.371  1.0784  0.1904 -0.3787
  214MPD1     H 3307   3.921   3.715  15.099  1.0056  0.2734 -0.5243
  214MPD1    H1 3308   4.185   3.504  15.370 -0.6142  0.0934  0.4326
  214MPD1    H2 3309   3.774   3.424  15.368 -0.5507  0.7903 -0.5696
  214MPD1    H3 3310   4.001   3.372  15.444  1.9580  0.1712 -0.5844
  214MPD1     N 3311   4.190   3.670  15.165  0.8298 -0.4415 -0.2801
  214MPD1    H5 3312   4.270   3.627  15.211 -0.4515 -0.1364  2.2254
  214MPD1    N1 3313   3.718   3.576  15.164 -0.4567  0.1689 -0.2175
  214MPD1    H6 3314   3.671   3.486  15.170 -0.6820  0.1919 -1.7292
  214MPD1    H7 3315   3.727   3.616  15.071  2.3982  0.5499  0.2268
  215MPD1     C 3316   3.819   4.205  10.511 -0.2149 -0.0749 -0.5833
  215MPD1    C1 3317   3.775   4.334  10.499  0.6957  0.5782  1.1760
  215MPD1    C2 3318   3.869   4.436  10.537 -0.3285  1.2147 -0.5780
  215MPD1    C3 3319   3.990   4.400  10.593  0.2993  0.3215 -0.4357
  215MPD1    C4 3320   4.024   4.265  10.606 -0.2537 -0.6161 -0.1959
  215MPD1    C5 3321   3.934   4.169  10.574 -1.0693  0.7567  0.1165
  215MPD1     H 3322   3.846   4.541  10.528 -0.6129  1.2498  0.5422
  215MPD1    H1 3323   4.115   4.226  10.652 -0.4353 -0.0783  0.6256
  215MPD1    H2 3324   3.750   4.129  10.476 -0.3888 -1.2680  2.4374
  215MPD1    H3 3325   3.964   4.067  10.593  2.2336  1.6929  0.0417
  215MPD1     N 3326   4.077   4.501  10.641  0.2606 -0.7798 -0.6261
  215MPD1    H5 3327   4.052   4.596  10.614  1.2816 -0.1170  0.7444
  215MPD1    N1 3328   3.657   4.361  10.434  0.0917  0.0513  0.4569
  215MPD1    H6 3329   3.592   4.285  10.453  0.0340 -0.4890 -1.9413
  215MPD1    H7 3330   3.609   4.441  10.476 -0.6260  0.5192 -1.2755
  216MPD1     C 3331   2.493   1.856  17.516  0.6736  0.7990 -0.0256
  216MPD1    C1 3332   2.419   1.905  17.614  1.3409  0.7550  0.2128
  216MPD1    C2 3333   2.320   1.831  17.677  1.4291 -0.3548  0.2463
  216MPD1    C3 3334   2.314   1.699  17.646 -0.1917 -0.0936 -0.4540
  216MPD1    C4 3335   2.401   1.644  17.553 -0.2599 -0.3701 -0.0336
  216MPD1    C5 3336   2.491   1.722  17.489  0.4376  0.4018 -0.0917
  216MPD1     H 3337   2.249   1.872   0.007 -1.1148 -2.7228 -0.8936
  216MPD1    H1 3338   2.405   1.537  17.537 -2.6222 -0.3387 -0.8352
  216MPD1    H2 3339   2.566   1.912  17.458  0.6889  0.9547  0.1461
  216MPD1    H3 3340   2.569   1.679  17.428 -0.8332  2.7390 -3.3894
  216MPD1     N 3341   2.213   1.620  17.711  0.1930  0.4408  0.3764
  216MPD1    H5 3342   2.153   1.661   0.040 -0.0186  2.6880 -1.0905
  216MPD1    N1 3343   2.423   2.044  17.629 -0.5020  0.0729  0.1003
  216MPD1    H6 3344   2.406   2.071  17.726 -1.6473  0.6456 -0.2613
  216MPD1    H7 3345   2.515   2.080  17.606 -1.2381  0.6262 -1.9528
  217MPD1     C 3346   1.096   2.662   9.377  0.4686 -0.6721  0.2998
  217MPD1    C1 3347   1.221   2.649   9.321  0.2456 -0.1555 -0.5460
  217MPD1    C2 3348   1.293   2.768   9.294  0.0362  0.1517  0.0930
  217MPD1    C3 3349   1.231   2.890   9.315  0.1388  0.0586  0.1611
  217MPD1    C4 3350   1.113   2.894   9.381 -0.8544  0.4693  0.6556
  217MPD1    C5 3351   1.042   2.781   9.404  0.3774 -0.1411 -0.2705
  217MPD1     H 3352   1.392   2.765   9.250  0.1291 -1.2068  0.3881
  217MPD1    H1 3353   1.067   2.991   9.395  1.1961  1.4621  0.4497
  217MPD1    H2 3354   1.021   2.590   9.407  1.3424 -1.1413  1.3566
  217MPD1    H3 3355   0.952   2.786   9.464 -0.3371 -1.7075 -1.2126
  217MPD1     N 3356   1.291   3.013   9.292 -0.1175  0.1721  0.0620
  217MPD1    H5 3357   1.251   3.102   9.319  1.5342  0.8357  0.2868
  217MPD1    N1 3358   1.287   2.526   9.308 -0.7533 -0.1053  1.1309
  217MPD1    H6 3359   1.226   2.445   9.298  0.4525 -0.9054  0.2333
  217MPD1    H7 3360   1.354   2.530   9.232 -1.5550 -2.0559  0.3269
  218MPD1     C 3361   0.238   0.969  12.190 -0.5504 -0.3620  0.0252
  218MPD1    C1 3362   0.270   0.853  12.120  0.2062  0.7338  0.1841
  218MPD1    C2 3363   0.207   0.733  12.146 -0.2465  0.4032  0.2999
  218MPD1    C3 3364   0.095   0.731  12.232 -0.2421  0.6976  0.3660
  218MPD1    C4 3365   0.061   0.848  12.299  0.0353 -0.3285  0.0715
  218MPD1    C5 3366   0.138   0.963  12.286 -0.1331 -0.4263 -0.1032
  218MPD1     H 3367   0.240   0.654  12.080 -0.9873  1.4095 -1.2659
  218MPD1    H1 3368   4.711   0.857  12.363 -0.2552  1.0826 -0.5212
  218MPD1    H2 3369   0.295   1.061  12.178 -2.0584  0.3395 -1.8056
  218MPD1    H3 3370   0.112   1.057  12.333 -0.3499 -0.4390 -0.2003
  218MPD1     N 3371   0.027   0.611  12.240  0.4117 -0.4304  1.0379
  218MPD1    H5 3372   0.070   0.534  12.191  0.4926 -0.0026  0.4366
  218MPD1    N1 3373   0.352   0.865  12.006  0.0698  0.2111 -0.3188
  218MPD1    H6 3374   0.379   0.770  11.983 -0.8716  0.1696 -1.2677
  218MPD1    H7 3375   0.437   0.916  12.030 -1.2297  1.9233  0.6790
  219MPD1     C 3376   4.194   4.633  11.870 -0.0118  0.2599  0.1645
  219MPD1    C1 3377   4.288   4.709  11.802 -0.0527  0.6938  0.5251
  219MPD1    C2 3378   4.364   0.052  11.880  0.5692 -0.1397 -0.2547
  219MPD1    C3 3379   4.358   0.041  12.017  0.1338 -0.5572  0.3084
  219MPD1    C4 3380   4.264   4.702  12.080  0.9833  0.9414  0.9783
  219MPD1    C5 3381   4.182   4.634  12.003 -0.6107 -0.3098  0.4609
  219MPD1     H 3382   4.444   0.112  11.839 -0.8696  2.6302  0.9265
  219MPD1    H1 3383   4.263   4.679  12.186  2.0045  0.8062  0.9595
  219MPD1    H2 3384   4.130   4.568  11.811  0.9277  2.2171 -3.0125
  219MPD1    H3 3385   4.107   4.566  12.042 -3.9024  1.5137 -2.6127
  219MPD1     N 3386   4.443   0.117  12.098 -0.3444 -0.3239  0.1837
  219MPD1    H5 3387   4.428   0.099  12.197 -0.1878 -2.1780 -0.1401
  219MPD1    N1 3388   4.278   4.727  11.663  0.2890  0.1445 -0.7435
  219MPD1    H6 3389   4.230   4.650  11.618 -0.2895  1.5813 -2.5530
  219MPD1    H7 3390   4.363   0.015  11.612  0.5913  0.0705 -0.2718
  220MPD1     C 3391   3.459   0.924   9.510 -0.4098  0.0689  0.5228
  220MPD1    C1 3392   3.574   0.930   9.588 -0.1082  0.9464 -0.5897
  220MPD1    C2 3393   3.606   0.826   9.668  0.5450  0.2532  0.4411
  220MPD1    C3 3394   3.535   0.707   9.659  0.0083 -0.5853  0.6546
  220MPD1    C4 3395   3.423   0.695   9.576  0.4749 -0.3893 -0.2227
  220MPD1    C5 3396   3.382   0.810   9.507  0.3545  0.2115  0.0359
  220MPD1     H 3397   3.685   0.839   9.741  1.8727 -0.4820 -0.8690
  220MPD1    H1 3398   3.361   0.606   9.570  0.3994 -0.3873  0.6093
  220MPD1    H2 3399   3.426   1.020   9.472 -3.2534 -1.1964 -0.1566
  220MPD1    H3 3400   3.285   0.819   9.461  0.5070 -1.2407 -0.5758
  220MPD1     N 3401   3.571   0.603   9.753 -0.5072  0.4214  0.8519
  220MPD1    H5 3402   3.640   0.626   9.824  0.2529 -1.7311  0.8082
  220MPD1    N1 3403   3.651   1.043   9.597  0.2225 -0.3206  0.5597
  220MPD1    H6 3404   3.737   1.032   9.650  1.2242  0.5780 -0.8821
  220MPD1    H7 3405   3.656   1.100   9.513 -0.3986  0.6950  1.2141
  221MPD1     C 3406   1.464   3.938  16.125  0.1325  1.0882 -0.4237
  221MPD1    C1 3407   1.398   3.821  16.159  0.1235 -0.4850  0.0226
  221MPD1    C2 3408   1.439   3.757  16.277  0.0821 -0.3302  0.3059
  221MPD1    C3 3409   1.550   3.800  16.344 -0.0818  0.4209  0.0692
  221MPD1    C4 3410   1.604   3.927  16.322 -0.9633  0.0812 -0.5773
  221MPD1    C5 3411   1.555   3.994  16.213 -0.3496 -0.1679 -0.4401
  221MPD1     H 3412   1.392   3.661  16.295  0.6817 -0.9416 -1.2833
  221MPD1    H1 3413   1.681   3.975  16.381 -1.8438  1.3274 -0.4483
  221MPD1    H2 3414   1.444   4.000  16.038  0.0777  1.2073 -0.3259
  221MPD1    H3 3415   1.594   4.094  16.198  0.3685 -0.3861 -0.0372
  221MPD1     N 3416   1.606   3.727  16.444  0.0465  0.7158  0.1848
  221MPD1    H5 3417   1.684   3.771  16.493  1.4516 -1.1113 -0.4010
  221MPD1    N1 3418   1.316   3.765  16.066 -0.3564 -0.6177 -0.0767
  221MPD1    H6 3419   1.248   3.705  16.113 -0.8723 -2.0960 -2.7390
  221MPD1    H7 3420   1.261   3.830  16.010 -0.5274 -0.0585  0.7420
  222MPD1     C 3421   2.935   2.734  17.158  0.7683 -0.9070  0.2579
  222MPD1    C1 3422   2.950   2.679  17.283  0.0087 -0.2603  0.1179
  222MPD1    C2 3423   2.840   2.640  17.357  0.0222 -0.5525  0.2269
  222MPD1    C3 3424   2.715   2.691  17.320 -0.2669  0.5480 -0.7919
  222MPD1    C4 3425   2.714   2.775  17.207 -0.0562 -0.5431  0.8926
  222MPD1    C5 3426   2.817   2.786  17.127 -0.5107 -0.3899 -0.1454
  222MPD1     H 3427   2.848   2.585  17.451 -0.4571 -1.8242 -0.4712
  222MPD1    H1 3428   2.624   2.816  17.161  1.3812  1.0108 -0.5559
  222MPD1    H2 3429   3.017   2.736  17.088  0.2816 -2.2564 -0.3366
  222MPD1    H3 3430   2.811   2.828  17.028 -1.0516 -2.0514 -0.8078
  222MPD1     N 3431   2.588   2.657  17.387  0.1867  0.7656 -0.2479
  222MPD1    H5 3432   2.506   2.707  17.355 -0.9100 -0.5306  0.5583
  222MPD1    N1 3433   3.072   2.622  17.326 -0.3158 -0.5488 -0.2369
  222MPD1    H6 3434   3.081   2.614  17.427 -1.2339  0.6630 -0.0545
  222MPD1    H7 3435   3.162   2.656  17.292 -2.6059  1.6713 -4.0863
  223MPD1     C 3436   1.932   2.083   0.322  0.2641 -0.2761  0.5210
  223MPD1    C1 3437   1.851   2.135   0.223  0.5855 -0.8695  0.4724
  223MPD1    C2 3438   1.916   2.209   0.127  0.5879 -0.0036  0.3472
  223MPD1    C3 3439   2.060   2.223   0.130 -0.4795  0.0663  0.0910
  223MPD1    C4 3440   2.135   2.160   0.228 -0.4209  0.0350  0.2829
  223MPD1    C5 3441   2.070   2.090   0.324 -0.9989 -0.5344  0.3651
  223MPD1     H 3442   1.852   2.263   0.059  2.2123 -0.2170 -1.3686
  223MPD1    H1 3443   2.243   2.162   0.233 -0.1933 -2.4117 -3.0395
  223MPD1    H2 3444   1.879   2.035   0.404  2.3536  0.5647  2.3657
  223MPD1    H3 3445   2.130   2.038   0.399 -0.9964  0.9388  1.3759
  223MPD1     N 3446   2.121   2.298   0.026  0.7135 -0.4735  0.3943
  223MPD1    H5 3447   2.054   2.337  17.703  1.5643 -0.2384 -0.3397
  223MPD1    N1 3448   1.709   2.119   0.228  0.8809 -0.6560 -0.2236
  223MPD1    H6 3449   1.668   2.114   0.135  0.0073  2.7547 -0.0152
  223MPD1    H7 3450   1.678   2.039   0.283 -2.0006  1.2256  0.8168
  224MPD1     C 3451   1.421   3.640   9.187  0.4605 -0.2237 -0.1751
  224MPD1    C1 3452   1.369   3.700   9.298  0.3478 -0.7598 -0.2908
  224MPD1    C2 3453   1.441   3.796   9.360 -0.3464 -0.0343  0.4497
  224MPD1    C3 3454   1.561   3.837   9.304 -0.2978 -0.2844 -0.0954
  224MPD1    C4 3455   1.606   3.785   9.185  0.2022 -0.4904 -0.6180
  224MPD1    C5 3456   1.538   3.687   9.128 -0.7690  0.0444 -0.1725
  224MPD1     H 3457   1.405   3.848   9.449 -3.3514 -0.5196 -0.4851
  224MPD1    H1 3458   1.700   3.805   9.134  0.1647  1.3734  0.0467
  224MPD1    H2 3459   1.380   3.553   9.136  1.2350 -0.6603 -0.0664
  224MPD1    H3 3460   1.568   3.648   9.031  0.5396 -0.1359  0.3118
  224MPD1     N 3461   1.654   3.907   9.379 -0.2830 -0.2372  0.0626
  224MPD1    H5 3462   1.746   3.922   9.341 -1.8629 -0.2213 -3.7913
  224MPD1    N1 3463   1.262   3.642   9.361 -0.3220 -0.5451  0.3165
  224MPD1    H6 3464   1.192   3.598   9.301 -2.0941  2.0709  0.4561
  224MPD1    H7 3465   1.209   3.712   9.412  0.6924  1.5207 -1.4381
  225MPD1     C 3466   4.270   0.362  12.997 -0.0318 -0.1185 -0.0935
  225MPD1    C1 3467   4.227   0.485  13.038 -0.0307  0.3836  0.4122
  225MPD1    C2 3468   4.103   0.528  13.012  0.4029  0.5095 -0.2742
  225MPD1    C3 3469   4.016   0.445  12.946 -0.3844  0.5681  0.4273
  225MPD1    C4 3470   4.055   0.313  12.915 -0.2041 -0.1406 -0.4671
  225MPD1    C5 3471   4.182   0.275  12.940 -0.5209  0.1042 -0.7249
  225MPD1     H 3472   4.067   0.627  13.038  0.1926  0.6677 -1.1525
  225MPD1    H1 3473   3.984   0.251  12.862  0.5912 -1.2307 -0.2759
  225MPD1    H2 3474   4.372   0.330  13.017 -1.1863 -3.1339  0.9231
  225MPD1    H3 3475   4.217   0.177  12.908 -1.9377 -0.7441  0.3321
  225MPD1     N 3476   3.895   0.483  12.888 -0.2977 -0.2697 -0.0777
  225MPD1    H5 3477   3.848   0.413  12.830 -1.1677 -0.4214  0.8035
  225MPD1    N1 3478   4.323   0.580  13.077 -0.0482 -0.8012  0.0938
  225MPD1    H6 3479   4.397   0.535  13.131  0.4437 -0.2777 -0.1430
  225MPD1    H7 3480   4.299   0.656  13.140  1.2504 -0.5489  0.2835
  226MPD1     C 3481   1.578   3.567   8.755  0.3018 -0.0221  0.2938
  226MPD1    C1 3482   1.451   3.621   8.739 -0.5914 -0.0938  0.3880
  226MPD1    C2 3483   1.437   3.753   8.779 -0.4669  0.3076  0.7416
  226MPD1    C3 3484   1.541   3.832   8.820  0.2600 -0.2689  0.2016
  226MPD1    C4 3485   1.664   3.781   8.824 -0.6925  0.1046  0.3275
  226MPD1    C5 3486   1.682   3.644   8.796 -0.1772  0.5123  0.0941
  226MPD1     H 3487   1.335   3.783   8.759 -0.6354  0.6596  2.1516
  226MPD1    H1 3488   1.751   3.831   8.866  1.1033 -3.6101  1.0270
  226MPD1    H2 3489   1.599   3.461   8.742  1.1105 -0.0400  1.7069
  226MPD1    H3 3490   1.782   3.602   8.804 -0.2438  0.3696  0.1916
  226MPD1     N 3491   1.516   3.961   8.873 -0.7024  0.3038  0.0664
  226MPD1    H5 3492   1.418   3.989   8.874 -1.2032 -1.4557  0.8922
  226MPD1    N1 3493   1.335   3.544   8.703  0.2302 -0.1860  0.2280
  226MPD1    H6 3494   1.262   3.593   8.651  1.0517 -0.5134 -1.2435
  226MPD1    H7 3495   1.355   3.466   8.641  0.6450  0.5274 -0.5339
  227MPD1     C 3496   0.921   3.875   9.591  0.2943 -0.6960  0.2508
  227MPD1    C1 3497   0.992   3.978   9.650  0.0590  0.0796 -0.7892
  227MPD1    C2 3498   1.088   4.038   9.572 -0.6057  0.7628 -0.2371
  227MPD1    C3 3499   1.122   3.997   9.446 -0.2328  0.2293  0.4462
  227MPD1    C4 3500   1.060   3.888   9.400 -0.2720 -0.3744 -0.3291
  227MPD1    C5 3501   0.952   3.828   9.467 -0.5922 -0.8205 -0.5042
  227MPD1     H 3502   1.121   4.134   9.608  3.5821 -1.5440  2.1807
  227MPD1    H1 3503   1.085   3.850   9.302  0.0379 -1.3407  0.1242
  227MPD1    H2 3504   0.830   3.845   9.642  0.1257 -0.0058  0.3654
  227MPD1    H3 3505   0.889   3.748   9.428  0.9605 -1.2073 -2.2321
  227MPD1     N 3506   1.218   4.078   9.378  0.1924 -0.8041  0.2000
  227MPD1    H5 3507   1.276   4.146   9.426 -1.5447 -1.5295  3.3264
  227MPD1    N1 3508   0.951   4.043   9.767 -0.1053 -0.4392 -0.2469
  227MPD1    H6 3509   1.029   4.095   9.808 -1.3822  0.1702  1.4278
  227MPD1    H7 3510   0.913   3.976   9.833 -1.1672 -1.1417 -1.5739
  228MPD1     C 3511   1.278   3.656  13.291  0.0312 -0.2986  0.1887
  228MPD1    C1 3512   1.264   3.596  13.165 -0.4797  0.1386  0.1883
  228MPD1    C2 3513   1.150   3.517  13.138 -0.6882  0.3217  0.2569
  228MPD1    C3 3514   1.060   3.494  13.242 -0.9578 -0.5551  0.1161
  228MPD1    C4 3515   1.086   3.549  13.372 -0.4381  0.9595  0.2496
  228MPD1    C5 3516   1.191   3.637  13.394 -0.0523  0.6762  0.2312
  228MPD1     H 3517   1.134   3.485  13.036 -0.5703  0.7644  0.1001
  228MPD1    H1 3518   1.024   3.519  13.457 -0.0938  0.4983  0.3409
  228MPD1    H2 3519   1.363   3.723  13.301  0.6582 -1.1973  0.9250
  228MPD1    H3 3520   1.211   3.672  13.494  1.7317 -1.6871  0.6902
  228MPD1     N 3521   0.934   3.428  13.215  0.5817  0.4957 -0.1227
  228MPD1    H5 3522   0.917   3.411  13.117 -1.3033 -0.7714  0.4382
  228MPD1    N1 3523   1.357   3.615  13.060  0.2697  0.3291 -0.2111
  228MPD1    H6 3524   1.311   3.658  12.980 -1.0185  0.4055  0.5667
  228MPD1    H7 3525   1.422   3.691  13.083 -0.5383  1.0383 -0.2643
  229MPD1     C 3526   1.265   1.614  14.114 -0.3379 -0.6679 -0.2095
  229MPD1    C1 3527   1.311   1.485  14.135  0.3039  0.2450  0.0654
  229MPD1    C2 3528   1.306   1.431  14.260 -0.2081  0.5384  0.3316
  229MPD1    C3 3529   1.270   1.505  14.368 -0.5209  0.0299 -0.0773
  229MPD1    C4 3530   1.236   1.636  14.348 -0.2090 -0.0451 -0.4388
  229MPD1    C5 3531   1.227   1.689  14.219 -0.4428  0.0741 -0.4687
  229MPD1     H 3532   1.333   1.327  14.275 -0.8967 -0.0215 -2.1581
  229MPD1    H1 3533   1.215   1.711  14.424  3.5893 -0.6942  1.2561
  229MPD1    H2 3534   1.264   1.659  14.016  0.9405  0.4146  0.2741
  229MPD1    H3 3535   1.188   1.790  14.204 -1.4252 -0.3554 -0.7763
  229MPD1     N 3536   1.262   1.471  14.500  0.2780  0.3469 -0.2421
  229MPD1    H5 3537   1.239   1.548  14.562 -0.5727  0.4289 -0.6558
  229MPD1    N1 3538   1.348   1.411  14.020  0.6765 -0.0327 -0.0244
  229MPD1    H6 3539   1.353   1.466  13.935 -0.7115 -1.8152 -1.2710
  229MPD1    H7 3540   1.429   1.350  14.026  1.7011  1.1212 -2.5349
  230MPD1     C 3541   1.424   1.723  15.444  0.2423 -0.3502 -0.9442
  230MPD1    C1 3542   1.370   1.594  15.462  0.1577  0.1458 -0.6912
  230MPD1    C2 3543   1.305   1.526  15.362  0.0569  0.7377  0.3247
  230MPD1    C3 3544   1.314   1.576  15.234  0.0428  0.2103 -0.4444
  230MPD1    C4 3545   1.389   1.692  15.212 -0.4541 -0.2217 -0.2722
  230MPD1    C5 3546   1.449   1.760  15.312  0.3164  0.2985 -0.4682
  230MPD1     H 3547   1.253   1.431  15.376 -1.2062  1.3446 -0.2217
  230MPD1    H1 3548   1.420   1.729  15.115 -2.4342 -0.6852 -1.0896
  230MPD1    H2 3549   1.457   1.791  15.522  2.9327 -1.7535 -0.8865
  230MPD1    H3 3550   1.494   1.858  15.298 -0.2620  0.4110 -1.5955
  230MPD1     N 3551   1.252   1.507  15.133  0.2240 -0.4571 -0.3723
  230MPD1    H5 3552   1.217   1.414  15.152 -1.5950  0.0454 -1.2335
  230MPD1    N1 3553   1.336   1.552  15.590  0.1052  0.6275  0.1193
  230MPD1    H6 3554   1.408   1.586  15.655 -1.2969 -0.8837  2.4536
  230MPD1    H7 3555   1.320   1.453  15.605 -2.8629  1.2969  1.2632
  231MPD1     C 3556   4.100   3.819  15.685 -0.4215 -0.2304  0.0923
  231MPD1    C1 3557   4.001   3.875  15.608  0.9047 -0.9645 -0.5034
  231MPD1    C2 3558   4.041   3.944  15.497  0.1503 -0.8792 -0.2496
  231MPD1    C3 3559   4.175   3.956  15.467 -0.4539  0.2504 -0.6805
  231MPD1    C4 3560   4.273   3.896  15.540  0.4874 -0.3016 -0.0813
  231MPD1    C5 3561   4.233   3.830  15.656 -0.9934  0.3737  0.1638
  231MPD1     H 3562   3.969   3.996  15.434  0.5836 -0.2167 -0.2020
  231MPD1    H1 3563   4.380   3.902  15.522  0.9350 -1.6588  2.1258
  231MPD1    H2 3564   4.087   3.768  15.780  0.3876 -1.2669 -0.3564
  231MPD1    H3 3565   4.311   3.800  15.725 -1.0381  0.2409  0.1557
  231MPD1     N 3566   4.199   4.044  15.361 -0.4688  0.1039  0.0626
  231MPD1    H5 3567   4.119   4.093  15.323 -0.2373  0.7870  0.4450
  231MPD1    N1 3568   3.864   3.871  15.637  0.3802  0.5584 -0.2243
  231MPD1    H6 3569   3.860   3.887  15.737  0.9557 -3.3483  0.4159
  231MPD1    H7 3570   3.808   3.942  15.590  1.1883  0.2743 -1.6027
  232MPD1     C 3571   1.322   0.482   0.520  0.1520 -0.0967 -0.2657
  232MPD1    C1 3572   1.214   0.560   0.481 -0.3155  0.6998 -0.2891
  232MPD1    C2 3573   1.133   0.503   0.387 -0.0500  0.0256 -0.1962
  232MPD1    C3 3574   1.161   0.390   0.316  0.2061  0.0661 -0.0497
  232MPD1    C4 3575   1.272   0.318   0.353  0.0335  0.7908 -0.5067
  232MPD1    C5 3576   1.349   0.371   0.450  0.5207  0.5688  0.4419
  232MPD1     H 3577   1.034   0.544   0.372 -0.3397 -0.5170  0.2507
  232MPD1    H1 3578   1.297   0.225   0.302 -0.9614  0.3544 -0.1995
  232MPD1    H2 3579   1.383   0.507   0.605 -0.4400  1.9944 -0.4474
  232MPD1    H3 3580   1.428   0.307   0.488  1.0187  1.1715  0.4211
  232MPD1     N 3581   1.070   0.358   0.207  0.5315  0.5824  0.2032
  232MPD1    H5 3582   0.982   0.406   0.189  0.4571  1.2835  2.5380
  232MPD1    N1 3583   1.170   0.677   0.554 -0.3041  0.2203 -0.0838
  232MPD1    H6 3584   1.244   0.736   0.591  0.9632 -0.8612 -0.8905
  232MPD1    H7 3585   1.101   0.732   0.503 -1.2847 -1.2869 -0.4029
  233MPD1     C 3586   1.072   3.676   1.570 -0.2739 -0.7669 -0.5490
  233MPD1    C1 3587   1.075   3.571   1.478 -0.7951  0.2089 -0.2003
  233MPD1    C2 3588   1.195   3.509   1.456 -0.5632 -0.0519 -0.5386
  233MPD1    C3 3589   1.312   3.535   1.523  0.6887  0.5165 -0.5926
  233MPD1    C4 3590   1.304   3.635   1.613 -0.3993  0.2113 -0.4131
  233MPD1    C5 3591   1.188   3.701   1.638 -0.3075  0.2196  0.2448
  233MPD1     H 3592   1.196   3.436   1.376  1.3862 -0.6932  0.0903
  233MPD1    H1 3593   1.389   3.664   1.672 -0.0514  1.0180 -1.3074
  233MPD1    H2 3594   0.984   3.727   1.606  0.9278  0.7186  0.2850
  233MPD1    H3 3595   1.183   3.773   1.719  0.4316  0.6352 -0.0761
  233MPD1     N 3596   1.434   3.468   1.488  0.1491  0.2532 -0.0058
  233MPD1    H5 3597   1.524   3.506   1.518 -0.2098 -0.8280  2.3943
  233MPD1    N1 3598   0.974   3.545   1.385  0.7182 -0.0204 -0.0083
  233MPD1    H6 3599   0.986   3.451   1.348 -1.7776 -0.7036  0.9380
  233MPD1    H7 3600   0.882   3.543   1.429  0.4316  2.1205 -0.4981
  234MPD1     C 3601   2.929   3.099   8.588  0.5716  0.6741 -0.5559
  234MPD1    C1 3602   2.796   3.113   8.558 -0.5413 -0.7360 -0.2586
  234MPD1    C2 3603   2.734   3.203   8.644  0.1172 -0.4443  0.0566
  234MPD1    C3 3604   2.790   3.271   8.750  0.1869  0.1252  0.6190
  234MPD1    C4 3605   2.924   3.244   8.785  0.9066  0.6746 -1.0029
  234MPD1    C5 3606   2.991   3.154   8.700  0.4944 -0.0904 -0.4126
  234MPD1     H 3607   2.628   3.217   8.626  0.0656  0.0991  0.7720
  234MPD1    H1 3608   2.973   3.287   8.872  1.0673  0.6263 -1.0705
  234MPD1    H2 3609   2.989   3.042   8.518 -2.6644  0.0386 -2.8263
  234MPD1    H3 3610   3.096   3.133   8.719  0.5339 -0.4479 -1.0115
  234MPD1     N 3611   2.702   3.343   8.837 -0.4881 -0.2040 -0.6041
  234MPD1    H5 3612   2.605   3.343   8.807  0.3444 -1.3401 -3.2814
  234MPD1    N1 3613   2.745   3.071   8.432 -0.4419  0.0035 -0.0336
  234MPD1    H6 3614   2.779   2.978   8.409 -1.1793  0.3982 -2.6231
  234MPD1    H7 3615   2.643   3.075   8.435 -0.5525 -1.4858 -2.1883
  235MPD1     C 3616   4.122   0.871  10.259  0.2977  0.3291  0.1013
  235MPD1    C1 3617   4.178   0.884  10.136 -0.0088  1.0179 -0.3830
  235MPD1    C2 3618   4.314   0.923  10.136  0.6523  0.5652  0.7518
  235MPD1    C3 3619   4.390   0.926  10.257 -0.5053 -0.5622  0.3277
  235MPD1    C4 3620   4.336   0.882  10.374 -1.1912  0.2365  0.2989
  235MPD1    C5 3621   4.202   0.863  10.371  0.0677 -0.6619 -0.5084
  235MPD1     H 3622   4.355   0.962  10.043 -0.8224 -0.7733 -0.4545
  235MPD1    H1 3623   4.386   0.873  10.470 -1.8021 -1.3722  0.4570
  235MPD1    H2 3624   4.015   0.865  10.274  0.7280 -2.8103  1.8309
  235MPD1    H3 3625   4.151   0.824  10.459  1.5985  0.7941  1.0330
  235MPD1     N 3626   4.524   0.965  10.248  0.1753 -0.3555 -0.2350
  235MPD1    H5 3627   4.556   0.996  10.156  3.7232  0.6126  1.3492
  235MPD1    N1 3628   4.104   0.891  10.014  0.1677 -0.0189 -0.7640
  235MPD1    H6 3629   4.170   0.848   9.949  0.9067  0.5863 -0.4127
  235MPD1    H7 3630   4.020   0.833  10.016 -0.1078  0.3405 -1.8954
  236MPD1     C 3631   3.342   2.109  10.086 -0.0494  0.5263 -0.6314
  236MPD1    C1 3632   3.433   2.206  10.085 -0.4759 -0.0208  0.4956
  236MPD1    C2 3633   3.561   2.173  10.131 -0.4374  0.1929  0.2372
  236MPD1    C3 3634   3.588   2.048  10.190  0.0042  0.7118 -0.0733
  236MPD1    C4 3635   3.488   1.950  10.193 -0.0058  0.4643  0.8038
  236MPD1    C5 3636   3.372   1.978  10.126  0.2721 -0.1895 -0.9573
  236MPD1     H 3637   3.635   2.246  10.101  1.1532 -2.4567 -2.3401
  236MPD1    H1 3638   3.517   1.852  10.229 -1.8584  0.3181  1.9202
  236MPD1    H2 3639   3.238   2.122  10.059 -0.3145  0.9408  0.5761
  236MPD1    H3 3640   3.286   1.916  10.105 -1.6026  1.3353  2.2192
  236MPD1     N 3641   3.713   2.009  10.254 -0.6436 -0.1688  0.1987
  236MPD1    H5 3642   3.721   1.913  10.286  0.0652  0.1826  1.0831
  236MPD1    N1 3643   3.413   2.326  10.012 -0.2329 -0.3537  0.2321
  236MPD1    H6 3644   3.315   2.346   9.993 -0.1180  0.5073  0.5274
  236MPD1    H7 3645   3.465   2.405  10.050  0.1907 -0.2950 -0.4858
  237MPD1     C 3646   4.454   4.610  15.392  0.3602 -0.4744 -0.5418
  237MPD1    C1 3647   4.449   4.528  15.504 -0.6078 -0.2543 -0.0746
  237MPD1    C2 3648   4.356   4.565  15.598 -0.4823  0.4235  0.2886
  237MPD1    C3 3649   4.274   4.676  15.585 -0.4635  0.1624  0.8696
  237MPD1    C4 3650   4.301   0.028  15.479  0.3412 -0.9532 -1.3640
  237MPD1    C5 3651   4.385   4.728  15.380 -0.3480  0.0826 -0.7238
  237MPD1     H 3652   4.347   4.494  15.680  0.5105 -0.7844 -0.6468
  237MPD1    H1 3653   4.239   0.116  15.461  0.2026 -0.3379  2.2445
  237MPD1    H2 3654   4.511   4.582  15.304 -2.0961 -0.3170 -2.1753
  237MPD1    H3 3655   4.398   0.056  15.293  0.0253  2.8909  1.3891
  237MPD1     N 3656   4.174   4.721  15.680  0.4355 -0.1805 -0.4723
  237MPD1    H5 3657   4.119   0.066  15.651  1.2823  0.3613 -0.5596
  237MPD1    N1 3658   4.491   4.395  15.504 -0.3050  0.3045 -0.2325
  237MPD1    H6 3659   4.580   4.392  15.455 -0.2280  0.9860 -0.1401
  237MPD1    H7 3660   4.522   4.362  15.595 -1.9367  1.1151  0.6261
  238MPD1     C 3661   0.759   3.912  15.680 -0.4997  0.0999  0.5893
  238MPD1    C1 3662   0.810   3.969  15.569  0.1643 -0.3855 -0.1951
  238MPD1    C2 3663   0.752   3.934  15.440 -0.8292 -0.4445 -0.4258
  238MPD1    C3 3664   0.659   3.832  15.432 -0.2151 -0.5844  0.2568
  238MPD1    C4 3665   0.627   3.767  15.544 -0.4234 -0.2325 -0.4589
  238MPD1    C5 3666   0.667   3.810  15.664 -0.5524 -0.3379  0.3865
  238MPD1     H 3667   0.759   4.000  15.354 -1.5040 -1.0031 -0.9068
  238MPD1    H1 3668   0.555   3.686  15.533 -0.1947 -0.6979  1.4303
  238MPD1    H2 3669   0.784   3.939  15.782  0.0265  0.6344  0.3192
  238MPD1    H3 3670   0.618   3.763  15.748  0.3001 -1.2374  0.3732
  238MPD1     N 3671   0.600   3.783  15.312  0.2968 -0.0682  0.1060
  238MPD1    H5 3672   0.526   3.714  15.320 -0.1481  0.2761 -1.0731
  238MPD1    N1 3673   0.892   4.083  15.592 -0.4309  0.4079 -0.0537
  238MPD1    H6 3674   0.945   4.086  15.680 -0.9311 -2.1676  0.3346
  238MPD1    H7 3675   0.958   4.112  15.520 -0.3303 -1.0089 -0.5256
  239MPD1     C 3676   1.425   0.085  15.012  0.6861  0.4890  0.1678
  239MPD1    C1 3677   1.478   4.725  14.933  0.0057  0.0942 -0.3963
  239MPD1    C2 3678   1.452   4.718  14.795 -0.4113  0.0772  0.3820
  239MPD1    C3 3679   1.379   0.086  14.731 -0.0243 -0.7719 -0.4198
  239MPD1    C4 3680   1.342   0.193  14.810  0.0444 -0.0936  0.0862
  239MPD1    C5 3681   1.357   0.184  14.952 -0.1719 -0.0187 -0.1424
  239MPD1     H 3682   1.496   4.637  14.738  0.5544  1.1598 -0.4167
  239MPD1    H1 3683   1.293   0.280  14.769 -0.2142  0.3217  1.2685
  239MPD1    H2 3684   1.430   0.069  15.120  0.2216 -0.7442  0.0094
  239MPD1    H3 3685   1.330   0.270  15.012  0.5011  1.2997 -1.7464
  239MPD1     N 3686   1.351   0.090  14.591 -0.5307  0.6047  0.0426
  239MPD1    H5 3687   1.293   0.168  14.562  1.8717  1.1455 -3.3001
  239MPD1    N1 3688   1.543   4.615  15.000  0.4460  0.2683 -0.0775
  239MPD1    H6 3689   1.598   4.658  15.074  0.5351  0.2347 -0.1242
  239MPD1    H7 3690   1.601   4.561  14.937 -0.1562  0.6113 -0.9151
  240MPD1     C 3691   0.460   0.289  14.236 -0.6541  0.3984 -1.0904
  240MPD1    C1 3692   0.348   0.239  14.295 -0.3158 -0.2448  0.1356
  240MPD1    C2 3693   0.335   0.100  14.291  0.7501  0.0525  0.4772
  240MPD1    C3 3694   0.433   0.013  14.257 -0.5599 -1.0894  0.3355
  240MPD1    C4 3695   0.545   0.067  14.197  0.5480 -0.0243 -0.4999
  240MPD1    C5 3696   0.553   0.202  14.180  0.2883 -0.3074 -0.0903
  240MPD1     H 3697   0.237   0.066  14.323  0.1831  1.3663  0.1200
  240MPD1    H1 3698   0.626   0.006  14.158 -1.2662 -1.6177 -1.7484
  240MPD1    H2 3699   0.472   0.397  14.237 -0.9239  0.4195  0.1022
  240MPD1    H3 3700   0.643   0.248  14.141  0.2914  1.6698  2.2222
  240MPD1     N 3701   0.415   4.607  14.281 -0.0124  0.4608 -0.2117
  240MPD1    H5 3702   0.324   4.586  14.321  0.3515  0.3216  0.5506
  240MPD1    N1 3703   0.233   0.317  14.330 -0.0110 -0.2471  0.7738
  240MPD1    H6 3704   0.170   0.271  14.395  0.0205  0.0079  0.9832
  240MPD1    H7 3705   0.241   0.414  14.359  0.4504  0.3531 -1.3579
  241MPD1     C 3706   0.677   4.695  15.005 -0.0496  0.6330 -0.5827
  241MPD1    C1 3707   0.585   4.595  15.023 -0.1956  0.7005 -0.4201
  241MPD1    C2 3708   0.561   4.503  14.918  0.1647 -0.3222  0.0976
  241MPD1    C3 3709   0.631   4.505  14.798  0.0727 -0.3905  0.8523
  241MPD1    C4 3710   0.728   4.600  14.790  0.5228  0.2308  0.0559
  241MPD1    C5 3711   0.739   4.702  14.883 -0.1396 -0.7700  0.1560
  241MPD1     H 3712   0.487   4.429  14.949 -1.9231  1.3083 -1.0146
  241MPD1    H1 3713   0.784   4.595  14.697  1.3343 -1.3663  0.6343
  241MPD1    H2 3714   0.706   0.030  15.082  0.0780 -0.4656  0.3660
  241MPD1    H3 3715   0.816   0.040  14.865 -2.1194  1.0305 -0.9325
  241MPD1     N 3716   0.614   4.412  14.690  0.2115  0.3422  0.1793
  241MPD1    H5 3717   0.679   4.422  14.613 -0.3886 -2.0768 -0.6476
  241MPD1    N1 3718   0.527   4.579  15.148  0.2414 -0.2662  0.7338
  241MPD1    H6 3719   0.525   4.667  15.199 -0.5628  1.1899 -1.7717
  241MPD1    H7 3720   0.435   4.535  15.150  0.3232 -0.4395  0.6896
  242MPD1     C 3721   4.593   2.776  16.143  0.3719  0.3036 -0.2365
  242MPD1    C1 3722   4.727   2.798  16.168  0.6486  0.5567  0.3153
  242MPD1    C2 3723   0.082   2.733  16.086  0.3137  0.0640  0.0620
  242MPD1    C3 3724   0.045   2.645  15.991  0.4622  0.6006  0.6842
  242MPD1    C4 3725   4.645   2.626  15.967 -0.0767  0.0398 -0.0778
  242MPD1    C5 3726   4.556   2.692  16.046  0.2236  0.9796 -0.6333
  242MPD1     H 3727   0.188   2.738  16.109 -0.2427 -0.0740  2.5914
  242MPD1    H1 3728   4.600   2.572  15.885 -0.2756  0.1194 -0.0213
  242MPD1    H2 3729   4.518   2.822  16.206  1.1067  0.5201  0.4815
  242MPD1    H3 3730   4.451   2.672  16.030  0.3422  1.3349 -1.8538
  242MPD1     N 3731   0.138   2.568  15.907 -0.3679  0.0134 -0.1793
  242MPD1    H5 3732   0.092   2.513  15.835  0.4479  1.1902 -1.5938
  242MPD1    N1 3733   0.036   2.866  16.288  0.2168 -0.0999  0.7597
  242MPD1    H6 3734   4.706   2.930  16.333  0.0566  0.3119 -0.0589
  242MPD1    H7 3735   0.126   2.910  16.268  1.7752 -3.2568  0.7525
  243MPD1     C 3736   2.073   0.734   0.526  0.5824 -0.0504  0.4980
  243MPD1    C1 3737   1.984   0.724   0.417 -0.7115 -0.2587  0.1351
  243MPD1    C2 3738   1.965   0.608   0.358 -0.9503  0.8884 -0.0887
  243MPD1    C3 3739   2.027   0.493   0.395 -0.3348  1.1628  0.2068
  243MPD1    C4 3740   2.116   0.496   0.502  0.3603  0.3050 -0.0007
  243MPD1    C5 3741   2.141   0.621   0.560  1.0416  0.4292 -0.1168
  243MPD1     H 3742   1.895   0.599   0.276 -1.4783  5.3261 -0.0959
  243MPD1    H1 3743   2.178   0.412   0.532 -1.5377 -0.8803  0.6540
  243MPD1    H2 3744   2.087   0.820   0.590  3.9265 -0.5179  0.3645
  243MPD1    H3 3745   2.218   0.621   0.637 -0.7560  2.2113  1.6752
  243MPD1     N 3746   2.008   0.376   0.318 -0.6788  0.0228 -0.1063
  243MPD1    H5 3747   1.967   0.390   0.227  1.8420  2.7908 -0.7843
  243MPD1    N1 3748   1.890   0.821   0.411 -0.0421 -0.0272 -0.1229
  243MPD1    H6 3749   1.934   0.910   0.431  1.6087 -0.7706 -0.5056
  243MPD1    H7 3750   1.859   0.834   0.315  0.1778 -0.5661 -0.2646
  244MPD1     C 3751   1.652   4.185   0.527  0.4027  0.0122 -0.2628
  244MPD1    C1 3752   1.698   4.289   0.608  0.2015  0.5345 -1.1585
  244MPD1    C2 3753   1.776   4.382   0.546  0.0898  0.0279 -0.5895
  244MPD1    C3 3754   1.797   4.388   0.413 -0.2337 -0.3786  0.5514
  244MPD1    C4 3755   1.747   4.290   0.332 -0.1778 -0.3086 -0.7556
  244MPD1    C5 3756   1.681   4.185   0.395  0.2846  0.6237  0.0691
  244MPD1     H 3757   1.829   4.449   0.612 -0.0109  0.4225 -0.9084
  244MPD1    H1 3758   1.774   4.289   0.227 -1.4161  1.8562 -1.0841
  244MPD1    H2 3759   1.603   4.101   0.574 -0.4376  1.3487  1.2555
  244MPD1    H3 3760   1.652   4.100   0.335 -0.9642 -0.9586  2.8915
  244MPD1     N 3761   1.867   4.502   0.366 -0.5702  0.4104  0.0879
  244MPD1    H5 3762   1.919   4.555   0.436  2.1434 -2.5172  0.2730
  244MPD1    N1 3763   1.711   4.272   0.745  0.3296 -0.2527  0.4413
  244MPD1    H6 3764   1.744   4.354   0.796  1.6511 -1.3969  1.4349
  244MPD1    H7 3765   1.621   4.256   0.789  0.2364 -2.1377 -0.4230
  245MPD1     C 3766   2.882   1.631  13.488  0.1845 -0.6440  0.2118
  245MPD1    C1 3767   3.014   1.581  13.517  0.6953 -0.2559  0.2740
  245MPD1    C2 3768   3.115   1.667  13.529 -0.1484 -0.2242 -0.4339
  245MPD1    C3 3769   3.098   1.800  13.512 -0.1435  0.5101  0.9317
  245MPD1    C4 3770   2.974   1.848  13.485 -0.2674  0.1244  0.3548
  245MPD1    C5 3771   2.866   1.763  13.475 -0.4785 -0.0125  0.0729
  245MPD1     H 3772   3.219   1.638  13.537 -0.7006 -2.8865 -2.7222
  245MPD1    H1 3773   2.954   1.955  13.489  2.2218  0.5170  1.8108
  245MPD1    H2 3774   2.792   1.570  13.478 -0.4842  0.4001 -0.2001
  245MPD1    H3 3775   2.766   1.796  13.448  0.7666  3.9337  0.3027
  245MPD1     N 3776   3.211   1.877  13.542 -0.2610  1.1695  0.0560
  245MPD1    H5 3777   3.298   1.834  13.572 -0.0981  1.2601 -0.2847
  245MPD1    N1 3778   3.037   1.449  13.498  0.4577 -0.2253 -0.3304
  245MPD1    H6 3779   3.110   1.411  13.558  0.1415 -0.1749  0.0948
  245MPD1    H7 3780   2.949   1.397  13.507  0.0418  0.3247 -1.2142
  246MPD1     C 3781   0.541   3.717  10.581 -0.9094  0.1459  0.1238
  246MPD1    C1 3782   0.462   3.604  10.595 -0.0804 -0.7833  0.4048
  246MPD1    C2 3783   0.415   3.530  10.488  0.5298 -0.2627  0.7738
  246MPD1    C3 3784   0.446   3.565  10.362  0.6163  0.0533 -0.0106
  246MPD1    C4 3785   0.519   3.687  10.342 -0.3432  0.5574  0.2433
  246MPD1    C5 3786   0.557   3.760  10.456 -0.2693 -0.1120 -0.1390
  246MPD1     H 3787   0.353   3.444  10.506  0.0227 -0.0209  0.1870
  246MPD1    H1 3788   0.560   3.723  10.248 -0.9291 -0.9485 -0.5965
  246MPD1    H2 3789   0.592   3.774  10.657 -1.1728  0.1387  0.3078
  246MPD1    H3 3790   0.627   3.843  10.449  0.3719 -0.6440 -0.1031
  246MPD1     N 3791   0.398   3.489  10.255  0.1819 -0.0689 -0.4356
  246MPD1    H5 3792   0.343   3.409  10.285 -1.6404  1.5781  0.6179
  246MPD1    N1 3793   0.448   3.551  10.723 -0.0854  0.1929 -0.0681
  246MPD1    H6 3794   0.467   3.620  10.796  0.3508 -1.9435  1.8035
  246MPD1    H7 3795   0.363   3.497  10.736 -0.3715  0.2697 -1.6299
  247MPD1     C 3796   3.057   1.267  16.734  0.4260 -0.5924 -0.2351
  247MPD1    C1 3797   2.999   1.162  16.666 -0.4325 -0.8764  0.2953
  247MPD1    C2 3798   3.011   1.152  16.531 -0.3110 -0.0745  0.5154
  247MPD1    C3 3799   3.093   1.243  16.463  0.3157  0.1301  0.1447
  247MPD1    C4 3800   3.170   1.334  16.540  0.0380 -0.1611  0.4900
  247MPD1    C5 3801   3.143   1.356  16.672 -0.9028 -0.0358 -0.4342
  247MPD1     H 3802   2.966   1.072  16.474 -0.9653 -0.5505  1.6878
  247MPD1    H1 3803   3.240   1.403  16.495 -1.1005  1.7338  1.6018
  247MPD1    H2 3804   3.064   1.280  16.842 -0.3004 -0.4175 -0.2101
  247MPD1    H3 3805   3.203   1.413  16.742 -2.7367  0.6052  0.5991
  247MPD1     N 3806   3.125   1.236  16.332 -0.2984 -0.4998  0.1776
  247MPD1    H5 3807   3.174   1.312  16.286  0.1793 -1.6778 -1.2758
  247MPD1    N1 3808   2.897   1.077  16.720 -0.0645 -0.5147  0.0669
  247MPD1    H6 3809   2.922   1.068  16.818  2.7057  0.5014 -0.5331
  247MPD1    H7 3810   2.904   0.982  16.684  1.0270 -1.0318  1.6233
  248MPD1     C 3811   3.302   4.074  17.613  0.8050 -0.2939 -0.2353
  248MPD1    C1 3812   3.224   4.181  17.630 -0.1511  0.0083  0.0909
  248MPD1    C2 3813   3.280   4.301  17.670 -0.1871  0.0028  0.2118
  248MPD1    C3 3814   3.402   4.294  17.732  0.7326  0.2106  0.4275
  248MPD1    C4 3815   3.471   4.173  17.731 -1.5171  0.1229  0.0092
  248MPD1    C5 3816   3.430   4.065  17.664 -0.0252 -0.4546 -0.1122
  248MPD1     H 3817   3.221   4.392  17.675  0.3588  0.3401  0.4953
  248MPD1    H1 3818   3.570   4.167   0.034 -1.5356  0.9997  0.1685
  248MPD1    H2 3819   3.258   3.981  17.577 -0.0186 -0.8746  2.2719
  248MPD1    H3 3820   3.495   3.979  17.655  0.6929  0.1800 -0.9646
  248MPD1     N 3821   3.448   4.413   0.051  0.5702 -0.0508  0.6056
  248MPD1    H5 3822   3.379   4.487   0.042  1.9464  1.2319  0.4732
  248MPD1    N1 3823   3.096   4.179  17.574 -0.2897 -0.3139 -0.0485
  248MPD1    H6 3824   3.039   4.095  17.580 -0.9485  0.1820  0.6100
  248MPD1    H7 3825   3.038   4.254  17.613 -1.5401 -1.4330  0.2696
  249MPD1     C 3826   0.028   4.052  11.233 -0.1501  0.0398  0.9970
  249MPD1    C1 3827   0.034   4.187  11.228  0.2364  1.0019 -0.6659
  249MPD1    C2 3828   0.139   4.237  11.152  0.1206  0.1996  0.0350
  249MPD1    C3 3829   0.243   4.164  11.105 -0.0269  0.4537 -0.3953
  249MPD1    C4 3830   0.250   4.027  11.138 -0.3368 -0.1345 -0.1879
  249MPD1    C5 3831   0.136   3.975  11.193 -0.5517  0.6841 -0.2547
  249MPD1     H 3832   0.143   4.342  11.126 -1.9986  0.2446 -0.1528
  249MPD1    H1 3833   0.319   3.950  11.107  0.6342 -0.1857  2.1497
  249MPD1    H2 3834   4.688   4.007  11.296 -0.1243 -1.2178  0.1216
  249MPD1    H3 3835   0.122   3.869  11.211 -0.8836  0.5234 -1.4085
  249MPD1     N 3836   0.347   4.234  11.046  0.7795  0.4602  0.2636
  249MPD1    H5 3837   0.322   4.328  11.018  0.9665  0.4513  0.0634
  249MPD1    N1 3838   4.667   4.269  11.271 -0.0383  0.3892 -0.3785
  249MPD1    H6 3839   4.697   4.358  11.311 -1.3099  0.1378  1.1070
  249MPD1    H7 3840   4.601   4.227  11.335 -0.4862  3.2413  1.0249
  250MPD2     C 3841   2.198   0.401  12.804  0.4741  0.1750 -0.6576
  250MPD2    C1 3842   2.121   0.476  12.716 -0.2642  0.2832 -0.3650
  250MPD2    C2 3843   2.013   0.429  12.648  0.0864 -0.2382  0.0907
  250MPD2    C3 3844   1.966   0.302  12.677  0.0443  0.7155 -0.3999
  250MPD2    C4 3845   2.032   0.228  12.772 -0.1147  0.0626 -0.0855
  250MPD2    C5 3846   2.145   0.279  12.834 -0.1780  0.2411 -0.7770
  250MPD2     H 3847   1.963   0.484  12.569  0.5641  0.4903  0.2933
  250MPD2    H1 3848   2.004   0.132  12.814 -1.7841  0.4566 -0.2991
  250MPD2    H2 3849   2.281   0.439  12.864  0.3126 -2.3019  1.1240
  250MPD2    H3 3850   2.197   0.211  12.901  0.0772  1.0089 -0.2034
  250MPD2     N 3851   1.851   0.238  12.634 -0.5905  0.3256  0.0197
  250MPD2    H5 3852   1.820   0.149  12.670  2.5469 -0.9949 -0.5519
  250MPD2    N1 3853   2.175   0.612  12.695  0.4974  0.1594 -0.2530
  250MPD2    H7 3854   2.262   0.630  12.743 -0.0907  0.0234  0.8628
  251TMC3    C1 3855   2.156   0.840  12.668  0.1297  0.0575  0.1428
  251TMC3    C2 3856   2.060   0.930  12.706 -0.3367  0.5006 -0.9023
  251TMC3    C3 3857   2.100   1.033  12.788 -0.2860 -0.4776 -1.0157
  251TMC3    C4 3858   2.285   0.837  12.710  0.1057  0.3041  0.1286
  251TMC3    C5 3859   2.318   0.941  12.792 -0.0396 -0.0453  0.6877
  251TMC3    C6 3860   2.230   1.036  12.836  0.4621  0.1818  0.0997
  251TMC3     C 3861   2.099   0.712  12.636  0.5173 -0.0531 -0.1365
  251TMC3     O 3862   1.986   0.713  12.582 -0.4007  0.3532 -0.0129
  251TMC3     H 3863   1.969   0.933  12.647 -1.2417 -1.4320  0.3990
  251TMC3    H1 3864   2.358   0.781  12.654 -2.0773 -1.6687 -0.7457
  251TMC3    H2 3865   2.259   1.101  12.918  1.8370  0.2528 -0.4516
  251TMC3    C7 3866   2.461   0.962  12.802 -0.6063  0.0948  0.3745
  251TMC3    C8 3867   2.001   1.125  12.834 -0.8680  0.6846  0.3866
  251TMC3    O1 3868   2.530   0.862  12.781  0.0135  0.0354 -0.0640
  251TMC3    O2 3869   1.888   1.111  12.790  0.0713  0.4950 -0.8074
  252TMC3    C1 3870   2.421   1.848   9.383  0.8085  1.2646 -0.5868
  252TMC3    C2 3871   2.487   1.967   9.383 -0.0656  0.4253  0.0146
  252TMC3    C3 3872   2.457   2.050   9.485  0.0222 -0.0992 -0.4333
  252TMC3    C4 3873   2.328   1.805   9.476  0.7109 -0.2365 -0.0212
  252TMC3    C5 3874   2.299   1.900   9.565  0.4079  0.0493  0.8286
  252TMC3    C6 3875   2.362   2.021   9.578  0.2957 -0.1804  0.1702
  252TMC3     C 3876   2.477   1.746   9.295 -0.8344 -0.8296  0.1940
  252TMC3     O 3877   2.590   1.771   9.251  0.5472 -0.4838  0.8676
  252TMC3     H 3878   2.554   1.997   9.304  0.1734 -2.9218 -1.0714
  252TMC3    H1 3879   2.275   1.711   9.466 -0.9874  0.5881  1.2954
  252TMC3    H2 3880   2.329   2.084   9.661 -0.9746  0.4984 -0.8512
  252TMC3    C7 3881   2.161   1.894   9.626  0.1594  0.0318 -0.0380
  252TMC3    C8 3882   2.568   2.146   9.505 -0.4715 -0.6959 -0.3639
  252TMC3    O1 3883   2.107   1.999   9.655 -0.4480  0.1525  0.0702
  252TMC3    O2 3884   2.628   2.178   9.403 -0.6387  0.6317  0.0909
  253MPD2     C 3885   3.609   0.711  15.687 -0.6308 -0.3038 -0.0275
  253MPD2    C1 3886   3.474   0.748  15.675 -0.5501  0.3461 -0.6025
  253MPD2    C2 3887   3.381   0.690  15.756  0.2605 -0.2429  0.0814
  253MPD2    C3 3888   3.416   0.586  15.844 -0.0186  0.1858  0.2681
  253MPD2    C4 3889   3.546   0.551  15.846 -0.6705 -0.4333 -0.5300
  253MPD2    C5 3890   3.646   0.612  15.771  0.4211 -0.2417 -0.7408
  253MPD2     H 3891   3.280   0.727  15.742  0.1922 -1.3007 -2.1626
  253MPD2    H1 3892   3.592   0.477  15.910 -1.9568 -1.4718 -0.8138
  253MPD2    H2 3893   3.688   0.769  15.641 -0.3595  0.0604  0.8930
  253MPD2    H3 3894   3.753   0.597  15.774  0.6704  1.5712 -0.2225
  253MPD2     N 3895   3.325   0.515  15.931  0.9561 -0.0546  0.4659
  253MPD2    H5 3896   3.361   0.426  15.965  1.4281 -0.8774 -2.1585
  253MPD2    N1 3897   3.434   0.853  15.583  0.9937  0.0894 -0.1182
  253MPD2    H7 3898   3.340   0.892  15.577 -0.1815 -2.6209  0.8188
  254TMC3    C1 3899   3.106   0.448  16.016  0.5431 -0.3738  0.2637
  254TMC3    C2 3900   2.983   0.497  16.052 -0.1106 -0.2153  0.5046
  254TMC3    C3 3901   2.903   0.404  16.109 -0.1950 -1.0348  1.0433
  254TMC3    C4 3902   3.152   0.320  16.034  1.0742  1.4521  0.2654
  254TMC3    C5 3903   3.077   0.234  16.108 -0.2134  0.5928  0.5637
  254TMC3    C6 3904   2.946   0.275  16.141 -0.5376  0.1802  0.3083
  254TMC3     C 3905   3.191   0.544  15.947 -0.1225 -0.5252 -0.2157
  254TMC3     O 3906   3.146   0.657  15.928 -0.0370 -0.2241  0.4514
  254TMC3     H 3907   2.957   0.599  16.029  0.1057 -0.4123 -0.6322
  254TMC3    H1 3908   3.249   0.293  15.992 -0.0970 -0.2415 -1.3441
  254TMC3    H2 3909   2.870   0.212  16.187 -0.8969  0.9349  0.7473
  254TMC3    C7 3910   3.138   0.120  16.178 -0.1667 -0.0929  0.4155
  254TMC3    C8 3911   2.782   0.455  16.173  0.3799  0.0231  0.9450
  254TMC3    O1 3912   3.061   0.049  16.243 -0.4771 -0.1691 -0.5532
  254TMC3    O2 3913   2.730   0.381  16.255  0.2176  0.3338 -0.1490
  255MPD2     C 3914   0.960   2.226  10.922  0.1190 -0.3591  0.5679
  255MPD2    C1 3915   1.039   2.340  10.898  0.0035  0.8950 -0.2055
  255MPD2    C2 3916   1.175   2.328  10.862  0.6776  0.0589  0.5300
  255MPD2    C3 3917   1.223   2.197  10.849  0.4864 -0.4007 -0.0117
  255MPD2    C4 3918   1.147   2.090  10.881  0.6675 -0.3875  0.6660
  255MPD2    C5 3919   1.014   2.101  10.903  0.1530  0.2015 -0.1687
  255MPD2     H 3920   1.238   2.415  10.848 -1.7478  2.1197  2.2482
  255MPD2    H1 3921   1.181   1.987  10.876  1.9602  0.0372  0.8767
  255MPD2    H2 3922   0.858   2.232  10.961 -0.2287  0.0504 -0.4165
  255MPD2    H3 3923   0.952   2.013  10.918  3.7292 -2.0471  1.2536
  255MPD2     N 3924   1.347   2.177  10.796 -0.1112  0.0409 -0.5339
  255MPD2    H5 3925   1.411   2.254  10.782 -0.5319  0.5382  0.3147
  255MPD2    N1 3926   0.978   2.466  10.905  0.2481 -0.3850 -0.1801
  255MPD2    H7 3927   0.878   2.464  10.922  0.4052  1.3460  0.9545
  256TMC3    C1 3928   0.949   2.692  10.903 -0.3250 -0.1726 -0.4019
  256TMC3    C2 3929   0.974   2.809  10.974 -0.0309 -0.2909  0.0246
  256TMC3    C3 3930   0.889   2.915  10.949 -0.1006  0.4955  0.1549
  256TMC3    C4 3931   0.848   2.682  10.807  0.0800 -0.3572 -0.3146
  256TMC3    C5 3932   0.783   2.794  10.768 -0.4229  0.1263 -0.3716
  256TMC3    C6 3933   0.797   2.911  10.849  0.4017  0.0236 -0.2220
  256TMC3     C 3934   1.048   2.587  10.906 -0.0382 -0.6518  0.0255
  256TMC3     O 3935   1.164   2.623  10.873  0.2059 -0.4940  0.2609
  256TMC3     H 3936   1.048   2.808  11.053 -1.7308  1.0482  1.6321
  256TMC3    H1 3937   0.842   2.593  10.745  0.5925 -0.5324 -0.1114
  256TMC3    H2 3938   0.736   2.996  10.823  0.0896 -0.0811  0.1715
  256TMC3    C7 3939   0.797   2.831  10.624 -1.0555  0.0068 -0.0911
  256TMC3    C8 3940   0.929   3.050  10.983 -0.2468  0.4125  0.3720
  256TMC3    O1 3941   0.791   2.746  10.536 -0.4150  0.9372 -0.0476
  256TMC3    O2 3942   0.849   3.128  11.033  0.4127 -0.1868 -0.5012
  257MPD2     C 3943   1.077   0.772  13.273  0.0983 -0.5177  0.0887
  257MPD2    C1 3944   1.104   0.679  13.174  0.4431 -0.0808  0.1835
  257MPD2    C2 3945   1.115   0.546  13.215  0.0047 -0.2919 -0.4262
  257MPD2    C3 3946   1.085   0.509  13.341 -0.1183 -0.7266 -0.4380
  257MPD2    C4 3947   1.055   0.612  13.434 -0.4755  1.1902 -0.0268
  257MPD2    C5 3948   1.058   0.744  13.406  0.1546  0.1975 -0.6154
  257MPD2     H 3949   1.135   0.466  13.144  1.4311 -0.8898  0.6286
  257MPD2    H1 3950   1.017   0.594  13.534 -1.2264 -3.2320 -1.0986
  257MPD2    H2 3951   1.064   0.875  13.243 -1.6011 -0.3168  1.4922
  257MPD2    H3 3952   1.019   0.811  13.482 -0.5645  1.9157 -2.4758
  257MPD2     N 3953   1.067   0.371  13.372  0.1390  0.1717  0.0971
  257MPD2    H5 3954   1.085   0.301  13.301  2.5297  2.2770 -1.3811
  257MPD2    N1 3955   1.110   0.719  13.039 -0.4607 -0.2999  0.4450
  257MPD2    H7 3956   1.082   0.815  13.023 -0.2054 -0.8806 -3.4915
  258TMC3    C1 3957   1.070   0.177  13.511 -0.3369 -0.9780 -0.0448
  258TMC3    C2 3958   1.029   0.102  13.401  0.0908 -0.6238 -0.2366
  258TMC3    C3 3959   1.015   4.702  13.423 -0.3115  0.9475  0.1221
  258TMC3    C4 3960   1.063   0.129  13.637  0.4232  0.3427  0.9534
  258TMC3    C5 3961   1.050   4.734  13.654 -0.2066 -0.0165 -0.3550
  258TMC3    C6 3962   1.017   4.648  13.548 -1.0223  0.3160 -0.3729
  258TMC3     C 3963   1.047   0.320  13.499 -0.2664 -0.7280 -0.1838
  258TMC3     O 3964   1.028   0.386  13.602  0.6326 -0.1376 -0.7115
  258TMC3     H 3965   1.042   0.136  13.299 -0.8860  1.4629  0.3434
  258TMC3    H1 3966   1.073   0.190  13.726  1.3140 -0.0939  1.1483
  258TMC3    H2 3967   1.008   4.542  13.570  1.5799  0.5935  2.0767
  258TMC3    C7 3968   1.071   4.682  13.784  0.0877  0.0644 -0.0230
  258TMC3    C8 3969   0.970   4.618  13.317  0.2648 -0.4669 -0.5713
  258TMC3    O1 3970   1.115   0.017  13.872  0.0998 -0.1250 -0.5369
  258TMC3    O2 3971   0.874   4.546  13.336  0.1229  0.2492  0.1135
  259MPD2     C 3972   4.544   1.381   0.584 -0.9718 -0.9666  0.2523
  259MPD2    C1 3973   4.613   1.280   0.657  0.2869 -0.0789 -0.4012
  259MPD2    C2 3974   4.684   1.184   0.584 -0.0144  0.7163  0.1827
  259MPD2    C3 3975   4.701   1.197   0.442 -0.2851  0.2411 -1.0861
  259MPD2    C4 3976   4.634   1.297   0.375  0.1296 -0.1690 -0.3055
  259MPD2    C5 3977   4.563   1.391   0.446  0.3048  0.0043  0.7579
  259MPD2     H 3978   4.729   1.102   0.639  0.6888  0.1588 -1.2348
  259MPD2    H1 3979   4.622   1.308   0.268  2.0954 -2.0989 -0.7236
  259MPD2    H2 3980   4.481   1.449   0.641  1.2546  0.6475  0.8148
  259MPD2    H3 3981   4.497   1.463   0.398 -0.3979  0.1353  1.9196
  259MPD2     N 3982   0.017   1.087   0.373  0.2487 -1.0557  0.0318
  259MPD2    H5 3983   0.073   1.021   0.426 -0.3325 -0.4725  1.3459
  259MPD2    N1 3984   4.603   1.285   0.800 -0.2792  0.0295  0.0140
  259MPD2    H7 3985   4.548   1.357   0.846  2.0208  0.5544  1.9679
  260TMC3    C1 3986   0.081   0.939   0.206  0.6281  0.0585 -0.3962
  260TMC3    C2 3987   0.113   0.925   0.072  0.5233  0.1791  0.5859
  260TMC3    C3 3988   0.107   0.800   0.022 -0.3792  0.6744 -0.5774
  260TMC3    C4 3989   0.046   0.833   0.287 -0.0021 -0.0477  0.2468
  260TMC3    C5 3990   0.038   0.709   0.227  0.5554 -0.1136 -0.6515
  260TMC3    C6 3991   0.073   0.690   0.100  0.5195  0.2062  0.4995
  260TMC3     C 3992   0.022   1.067   0.235 -0.1507  0.1435  0.2249
  260TMC3     O 3993   4.725   1.133   0.140 -0.0342 -0.4008 -0.4184
  260TMC3     H 3994   0.140   1.005   0.005 -0.1496 -0.1333 -0.0576
  260TMC3    H1 3995   0.018   0.853   0.389 -1.7485  0.9343 -0.4296
  260TMC3    H2 3996   0.074   0.594   0.049 -0.8337  0.8445 -0.7047
  260TMC3    C7 3997   0.042   0.585   0.304  0.4900 -0.5003  0.2483
  260TMC3    C8 3998   0.170   0.767  17.639  0.2649  0.1619  0.5262
  260TMC3    O1 3999   0.078   0.488   0.244  0.1586 -0.0125 -0.2552
  260TMC3    O2 4000   0.117   0.797  17.530  0.4935 -0.0052  0.0118
  261MPD2     C 4001   1.188   0.162  12.088 -0.4037  0.1388 -0.0376
  261MPD2    C1 4002   1.270   0.272  12.112  0.4457 -0.2861 -0.4514
  261MPD2    C2 4003   1.273   0.372  12.018 -0.4001  0.5791 -0.3010
  261MPD2    C3 4004   1.210   0.358  11.896  0.0177 -0.1402  0.8740
  261MPD2    C4 4005   1.131   0.242  11.876  0.4103 -0.5919 -0.0414
  261MPD2    C5 4006   1.116   0.151  11.972  0.0642  0.3829  0.3350
  261MPD2     H 4007   1.350   0.446  12.038 -0.3617  0.7894 -1.2212
  261MPD2    H1 4008   1.064   0.222  11.793 -0.8740 -2.3382  1.4481
  261MPD2    H2 4009   1.151   0.089  12.160  2.1648 -0.1989  0.9131
  261MPD2    H3 4010   1.039   0.075  11.968  1.5017 -1.0045 -0.8248
  261MPD2     N 4011   1.217   0.468  11.801  0.4372 -0.4974  0.4285
  261MPD2    H5 4012   1.258   0.556  11.829  0.4772 -1.5008  3.5042
  261MPD2    N1 4013   1.354   0.277  12.232 -0.2970  0.1042 -0.1810
  261MPD2    H7 4014   1.412   0.360  12.239 -0.5846  0.2854  0.0571
  262TMC3    C1 4015   1.143   0.578  11.613  0.6443  0.0021  0.4072
  262TMC3    C2 4016   1.119   0.701  11.683 -0.5640  0.0229  1.0309
  262TMC3    C3 4017   1.122   0.813  11.600  0.0838 -0.0206 -0.8897
  262TMC3    C4 4018   1.155   0.573  11.472 -0.1166 -0.1177 -0.4451
  262TMC3    C5 4019   1.160   0.696  11.410 -0.7180 -0.5397 -0.0953
  262TMC3    C6 4020   1.145   0.818  11.468 -1.0193  0.1290 -0.1347
  262TMC3     C 4021   1.163   0.454  11.679 -0.3724  0.1681  0.3955
  262TMC3     O 4022   1.153   0.354  11.615  0.0655 -0.1085  0.6244
  262TMC3     H 4023   1.115   0.708  11.791 -1.6398 -1.0982  1.0635
  262TMC3    H1 4024   1.187   0.485  11.417  0.9237 -0.5173  0.8001
  262TMC3    H2 4025   1.136   0.906  11.406 -1.1891 -0.7356 -1.3396
  262TMC3    C7 4026   1.173   0.693  11.268 -0.1501  1.4162  0.7906
  262TMC3    C8 4027   1.108   0.935  11.674  0.2975  0.1670 -0.2488
  262TMC3    O1 4028   1.110   0.609  11.206  0.1379 -0.2360  0.1291
  262TMC3    O2 4029   1.155   1.034  11.623  0.2879  0.8177 -0.3993
  263MPD2     C 4030   2.406   4.163  11.750  0.1304  0.2521  0.1471
  263MPD2    C1 4031   2.527   4.215  11.717 -0.6139 -0.7552 -0.4180
  263MPD2    C2 4032   2.548   4.270  11.593  0.5460  0.6277 -0.1001
  263MPD2    C3 4033   2.450   4.259  11.495 -0.5035  0.2567  0.1185
  263MPD2    C4 4034   2.327   4.201  11.528  0.0775 -0.5903 -0.2454
  263MPD2    C5 4035   2.303   4.154  11.654  0.5162 -0.1195 -0.0085
  263MPD2     H 4036   2.637   4.324  11.564  1.4460 -1.0287 -0.4452
  263MPD2    H1 4037   2.241   4.220  11.464 -1.2736  0.3845  1.8391
  263MPD2    H2 4038   2.372   4.128  11.846  0.2759 -1.4915 -0.4338
  263MPD2    H3 4039   2.201   4.130  11.680 -0.0150 -1.3124 -3.1244
  263MPD2     N 4040   2.462   4.313  11.369 -0.0055  0.2261  0.2025
  263MPD2    H5 4041   2.547   4.368  11.358  0.6947 -0.6217  1.3719
  263MPD2    N1 4042   2.631   4.189  11.810 -0.0747  0.5142  0.3611
  263MPD2    H7 4043   2.601   4.155  11.900 -2.0870  3.0592  0.6523
  264TMC3    C1 4044   2.417   4.393  11.151  0.0759 -0.2617 -0.6022
  264TMC3    C2 4045   2.442   4.519  11.180 -0.7864  0.4349  0.8357
  264TMC3    C3 4046   2.434   4.609  11.078  0.1029  0.7924  0.4282
  264TMC3    C4 4047   2.383   4.352  11.019  0.1255  0.5348  0.3045
  264TMC3    C5 4048   2.379   4.447  10.919  0.2075 -0.5868 -0.5631
  264TMC3    C6 4049   2.407   4.575  10.949  0.0769  0.1747  0.7584
  264TMC3     C 4050   2.374   4.305  11.262 -0.1868 -0.2983 -1.3581
  264TMC3     O 4051   2.276   4.234  11.250 -0.1236  0.2403  0.1489
  264TMC3     H 4052   2.453   4.559  11.280 -1.4542  0.1943  1.0089
  264TMC3    H1 4053   2.357   4.247  11.008  0.7425  0.4696 -0.5290
  264TMC3    H2 4054   2.418   4.653  10.874  0.3677  0.4652  1.1011
  264TMC3    C7 4055   2.426   4.405  10.788  0.6271  0.2179  0.4670
  264TMC3    C8 4056   2.488   0.007  11.092  0.0335 -0.7341  0.1716
  264TMC3    O1 4057   2.498   4.479  10.724  0.0970 -0.3118  0.2906
  264TMC3    O2 4058   2.529   0.056  10.990 -0.4440  0.3103 -0.2918
  265MPD2     C 4059   0.089   4.545  15.471  0.0535 -0.4206 -0.3233
  265MPD2    C1 4060   0.058   4.673  15.443 -0.4997 -0.4285 -0.1555
  265MPD2    C2 4061   0.094   4.719  15.316 -0.7365 -0.0904  0.0776
  265MPD2    C3 4062   0.165   4.642  15.230  0.2175  0.0077 -0.0829
  265MPD2    C4 4063   0.183   4.511  15.258 -0.4098 -0.5955 -0.1009
  265MPD2    C5 4064   0.151   4.463  15.380  0.8492 -0.2042 -0.2284
  265MPD2     H 4065   0.056   0.077  15.278  3.1495  1.5328  0.2610
  265MPD2    H1 4066   0.232   4.449  15.183 -0.3644  0.7197 -1.1591
  265MPD2    H2 4067   0.062   4.508  15.569 -0.5687  2.1367  0.4859
  265MPD2    H3 4068   0.174   4.362  15.410  0.8786 -0.3789 -0.8372
  265MPD2     N 4069   0.201   4.682  15.095  0.0846 -0.0356 -0.0410
  265MPD2    H5 4070   0.222   4.599  15.041 -0.5183  1.1356 -2.0878
  265MPD2    N1 4071   4.720   0.016  15.535 -0.2345 -0.3824  0.8750
  265MPD2    H7 4072   4.710   0.116  15.516 -0.7141 -0.6191 -0.0729
  266TMC3    C1 4073   4.594   0.082  15.722 -0.0132 -0.1969  0.3469
  266TMC3    C2 4074   4.574   0.063  15.857 -0.2579  0.0913  0.2897
  266TMC3    C3 4075   4.483   0.141  15.920 -0.4685 -0.4332 -0.4797
  266TMC3    C4 4076   4.523   0.174  15.649  0.1939  0.5822  0.1395
  266TMC3    C5 4077   4.439   0.258  15.721 -0.5366  1.0054 -0.2636
  266TMC3    C6 4078   4.418   0.242  15.854  0.6019 -0.4202  0.2877
  266TMC3     C 4079   4.679   4.718  15.662 -0.1370 -0.3409 -0.3571
  266TMC3     O 4080   4.685   4.612  15.725 -0.5006  0.2667 -0.2166
  266TMC3     H 4081   4.626   4.719  15.909 -1.7402 -0.7648  0.4869
  266TMC3    H1 4082   4.532   0.201  15.544  2.6523 -1.7211 -0.2541
  266TMC3    H2 4083   4.345   0.300  15.909 -1.7911 -3.2997  0.1234
  266TMC3    C7 4084   4.370   0.364  15.647  0.2310  0.3036  0.0971
  266TMC3    C8 4085   4.440   0.096  16.053  0.1082 -0.2483  0.1644
  266TMC3    O1 4086   4.256   0.376  15.683  0.0112 -0.3573 -0.2933
  266TMC3    O2 4087   4.487   4.724  16.084 -0.5844  0.1905 -0.5310
  267MPD2     C 4088   2.203   1.747   0.755 -0.5195  0.2308 -0.8282
  267MPD2    C1 4089   2.178   1.609   0.760  0.2050 -0.1514 -0.2049
  267MPD2    C2 4090   2.115   1.545   0.655 -0.3332 -0.1104  0.0293
  267MPD2    C3 4091   2.081   1.620   0.543 -0.0610 -0.4593 -0.6390
  267MPD2    C4 4092   2.104   1.751   0.539  0.1871 -0.3409 -0.1378
  267MPD2    C5 4093   2.162   1.813   0.646  0.3220 -0.0353  0.6022
  267MPD2     H 4094   2.112   1.437   0.647 -0.8657 -0.0608 -0.4465
  267MPD2    H1 4095   2.077   1.812   0.453  0.0496  2.5260  1.9335
  267MPD2    H2 4096   2.242   1.794   0.845 -3.2567  2.2609 -0.6951
  267MPD2    H3 4097   2.177   1.920   0.646  0.0740 -0.0018  0.2848
  267MPD2     N 4098   2.035   1.567   0.422 -0.0012 -0.5640  0.2216
  267MPD2    H5 4099   2.030   1.628   0.341  0.3470 -0.0821  0.5638
  267MPD2    N1 4100   2.224   1.540   0.877  0.0618  0.4965 -0.2079
  267MPD2    H7 4101   2.291   1.588   0.935  0.7511 -0.2885 -0.3581
  268TMC3    C1 4102   2.281   1.366   1.024  0.5256  0.5195 -0.5728
  268TMC3    C2 4103   2.410   1.408   1.026 -0.9335 -0.1671 -0.2091
  268TMC3    C3 4104   2.506   1.330   1.090  0.7034  0.7911  0.8673
  268TMC3    C4 4105   2.247   1.248   1.089 -0.0432 -0.2490 -0.2516
  268TMC3    C5 4106   2.343   1.173   1.141 -0.0577  0.4175 -0.2441
  268TMC3    C6 4107   2.470   1.219   1.151 -0.1004 -0.5355 -0.0773
  268TMC3     C 4108   2.199   1.412   0.917 -0.1113  0.0995 -0.0731
  268TMC3     O 4109   2.109   1.332   0.889  0.5346 -0.7012  0.5062
  268TMC3     H 4110   2.435   1.488   0.958  2.5450  0.1971  1.5179
  268TMC3    H1 4111   2.143   1.217   1.086 -0.8069  2.0955  2.1060
  268TMC3    H2 4112   2.544   1.149   1.187  2.4160  2.2425  0.0702
  268TMC3    C7 4113   2.321   1.028   1.148  1.1275 -0.2302  0.3456
  268TMC3    C8 4114   2.652   1.357   1.084  0.2269 -0.5271 -0.1230
  268TMC3    O1 4115   2.420   0.956   1.131  0.9371  0.4469 -0.7554
  268TMC3    O2 4116   2.723   1.296   1.161 -0.0527 -0.0393  0.5793
  269MPD2     C 4117   3.022   0.459  15.639 -0.3330 -0.0274 -0.0098
  269MPD2    C1 4118   2.896   0.464  15.689  0.1402  0.6236  0.7027
  269MPD2    C2 4119   2.825   0.581  15.661  0.5466  0.4603  0.3861
  269MPD2    C3 4120   2.886   0.688  15.597 -0.0454 -0.7638  0.3712
  269MPD2    C4 4121   3.016   0.681  15.557  0.9027 -0.0713 -0.0290
  269MPD2    C5 4122   3.075   0.558  15.566  0.0328 -0.0361  0.2441
  269MPD2     H 4123   2.724   0.577  15.699  1.0415 -0.9840  1.5455
  269MPD2    H1 4124   3.063   0.760  15.500  0.7462  0.2003  0.2162
  269MPD2    H2 4125   3.067   0.360  15.646  1.2200  0.6584 -0.4316
  269MPD2    H3 4126   3.169   0.537  15.516 -0.1560 -0.5536  0.1160
  269MPD2     N 4127   2.808   0.802  15.565  0.1211 -0.5105 -0.0522
  269MPD2    H5 4128   2.714   0.808  15.603  0.6427 -0.5382  1.2204
  269MPD2    N1 4129   2.828   0.347  15.741 -0.7964 -0.2267 -0.2089
  269MPD2    H7 4130   2.881   0.261  15.736  0.3670  0.4525  0.5123
  270TMC3    C1 4131   2.657   0.195  15.801  0.0996 -0.2807 -0.6881
  270TMC3    C2 4132   2.522   0.169  15.803 -0.5946 -0.1215  0.3448
  270TMC3    C3 4133   2.473   0.046  15.824  0.8448 -0.1139 -0.1055
  270TMC3    C4 4134   2.747   0.087  15.819 -0.3880 -0.0381 -0.3609
  270TMC3    C5 4135   2.692   4.700  15.840  0.4941 -0.1189  0.2306
  270TMC3    C6 4136   2.556   4.675  15.840 -0.5726  0.1536 -0.3171
  270TMC3     C 4137   2.699   0.334  15.790  0.0360  0.7168 -0.1973
  270TMC3     O 4138   2.614   0.420  15.815 -0.2523 -0.4319 -0.3365
  270TMC3     H 4139   2.459   0.256  15.790 -0.8621 -0.3729 -0.0624
  270TMC3    H1 4140   2.853   0.110  15.828 -1.0409  3.0330 -0.5342
  270TMC3    H2 4141   2.523   4.574  15.862  2.2687 -0.9474 -1.0985
  270TMC3    C7 4142   2.782   4.586  15.860  0.0377  0.6373  0.3691
  270TMC3    C8 4143   2.397   0.010  15.709 -0.6830 -0.4214 -0.1924
  270TMC3    O1 4144   2.745   4.506  15.946 -0.0227  0.0520  0.5547
  270TMC3    O2 4145   2.444   4.661  15.632 -0.0900 -0.0650  0.1000
  271MPD2     C 4146   1.685   0.365  14.015 -0.2018 -0.1717 -0.5404
  271MPD2    C1 4147   1.603   0.354  14.121 -0.8659  0.9352 -0.2408
  271MPD2    C2 4148   1.505   0.449  14.121  0.7558  1.4182  0.2879
  271MPD2    C3 4149   1.475   0.536  14.017 -0.2434 -0.4457  0.1809
  271MPD2    C4 4150   1.556   0.545  13.910 -0.4816 -1.1577  0.3446
  271MPD2    C5 4151   1.660   0.451  13.913  0.3343 -0.0500 -0.5727
  271MPD2     H 4152   1.435   0.434  14.203  0.3511  1.1812 -0.0961
  271MPD2    H1 4153   1.526   0.614  13.832 -2.5150 -2.6504 -0.1837
  271MPD2    H2 4154   1.772   0.300  14.008  0.5121  0.3733  3.3286
  271MPD2    H3 4155   1.723   0.455  13.825  1.4864 -0.7545  0.2190
  271MPD2     N 4156   1.369   0.624  14.023 -0.1467  0.3852 -0.1534
  271MPD2    H5 4157   1.375   0.700  13.956  0.1391  0.2767 -0.2511
  271MPD2    N1 4158   1.625   0.275  14.238 -0.2351  0.2405  0.6118
  271MPD2    H7 4159   1.555   0.288  14.311  0.5808 -1.1487  1.6286
  272TMC3    C1 4160   1.733   0.128  14.377  1.0007  0.2417  0.8901
  272TMC3    C2 4161   1.812   0.021  14.389  0.4683 -0.6748 -0.1202
  272TMC3    C3 4162   1.871   4.721  14.506  0.4092  0.7553  0.6466
  272TMC3    C4 4163   1.708   0.199  14.492 -0.0947 -0.1110 -0.0551
  272TMC3    C5 4164   1.773   0.167  14.607  0.6700 -0.7477 -0.7854
  272TMC3    C6 4165   1.857   0.060  14.617 -0.3826  0.0832  0.0084
  272TMC3     C 4166   1.730   0.181  14.248  0.5942 -0.5490  0.4877
  272TMC3     O 4167   1.811   0.151  14.164 -0.1247  0.9961  0.1405
  272TMC3     H 4168   1.834   4.698  14.300  1.1975 -0.5004 -0.0532
  272TMC3    H1 4169   1.666   0.298  14.478  0.4306 -0.1035 -1.5522
  272TMC3    H2 4170   1.917   0.048  14.707 -2.2892 -1.7439  1.0433
  272TMC3    C7 4171   1.742   0.255  14.714  0.2087 -0.2496  0.3372
  272TMC3    C8 4172   1.999   4.665  14.489  0.0176  0.2636  0.1653
  272TMC3    O1 4173   1.636   0.312  14.710 -0.4146  0.2823 -0.3229
  272TMC3    O2 4174   2.051   4.687  14.377  0.3316  0.2963 -0.3419
  273MPD2     C 4175   2.725   2.917  11.821  0.7098  0.2440  0.4120
  273MPD2    C1 4176   2.845   2.966  11.861 -0.7897 -0.4551  0.1020
  273MPD2    C2 4177   2.928   3.021  11.766 -0.4057  0.2333 -0.6487
  273MPD2    C3 4178   2.893   3.038  11.633 -0.0840 -0.2000 -0.4605
  273MPD2    C4 4179   2.770   2.993  11.588  0.1777  0.0505 -0.2731
  273MPD2    C5 4180   2.688   2.932  11.689 -0.0949  0.0185 -0.6863
  273MPD2     H 4181   3.025   3.055  11.799 -0.4875  0.0378 -0.2076
  273MPD2    H1 4182   2.742   3.013  11.486 -2.5667 -1.8543  0.0853
  273MPD2    H2 4183   2.651   2.872  11.887 -0.3009  1.2776 -0.0208
  273MPD2    H3 4184   2.591   2.900  11.650  0.1946  0.3940 -1.6991
  273MPD2     N 4185   2.977   3.099  11.541  0.4934  0.6403  0.1781
  273MPD2    H5 4186   2.964   3.087  11.441  4.0479 -0.2953 -0.1589
  273MPD2    N1 4187   2.886   2.947  12.001  0.3105 -0.4924 -0.1489
  273MPD2    H7 4188   2.824   2.893  12.060 -1.3427  1.9052  0.3247
  274TMC3    C1 4189   3.174   3.223  11.480  0.1661  0.1401 -0.1804
  274TMC3    C2 4190   3.139   3.198  11.350  0.0417 -0.0867 -0.0187
  274TMC3    C3 4191   3.159   3.284  11.248 -0.3675 -0.2993  0.5924
  274TMC3    C4 4192   3.242   3.335  11.506 -0.8666  1.1023  0.1199
  274TMC3    C5 4193   3.255   3.426  11.401 -0.6996  0.1966 -0.5211
  274TMC3    C6 4194   3.225   3.397  11.274  0.9971 -0.0538 -0.6486
  274TMC3     C 4195   3.080   3.180  11.585  0.3350 -0.0442 -0.1206
  274TMC3     O 4196   3.091   3.246  11.689  0.4436 -0.0994  0.3765
  274TMC3     H 4197   3.093   3.103  11.326  1.6521 -0.8116 -0.2686
  274TMC3    H1 4198   3.268   3.352  11.609 -0.7338  0.3834  0.1997
  274TMC3    H2 4199   3.233   3.468  11.192  1.2103  0.4118 -0.2268
  274TMC3    C7 4200   3.323   3.548  11.426 -0.0622  0.0141 -0.5805
  274TMC3    C8 4201   3.059   3.300  11.151 -0.1845 -0.3906  0.2809
  274TMC3    O1 4202   3.396   3.588  11.333  0.4921 -0.6391 -0.1478
  274TMC3    O2 4203   3.018   3.413  11.148 -0.3306 -0.0668 -0.2503
  275MPD2     C 4204   2.998   1.541  14.417 -0.7063  0.0405 -0.6205
  275MPD2    C1 4205   3.007   1.501  14.552  0.7052 -1.5216  0.3519
  275MPD2    C2 4206   2.919   1.404  14.600 -0.3246  0.2547 -0.0788
  275MPD2    C3 4207   2.823   1.344  14.516 -0.0393 -0.5563 -0.2538
  275MPD2    C4 4208   2.824   1.388  14.388  0.3737  0.0324 -0.6367
  275MPD2    C5 4209   2.899   1.487  14.333 -0.2750  0.3552  0.3098
  275MPD2     H 4210   2.923   1.386  14.707 -0.4832 -1.5044 -0.3781
  275MPD2    H1 4211   2.736   1.352  14.336  0.1720 -1.1791  0.5300
  275MPD2    H2 4212   3.052   1.622  14.370  1.6044 -1.7597 -1.0352
  275MPD2    H3 4213   2.891   1.517  14.229 -1.3989 -0.4130  0.1816
  275MPD2     N 4214   2.732   1.246  14.556  0.2254 -0.2387  0.2127
  275MPD2    H5 4215   2.682   1.192  14.486 -3.0695 -0.8764  3.0664
  275MPD2    N1 4216   3.082   1.565  14.655 -0.4405 -0.5186  0.4145
  275MPD2    H7 4217   3.079   1.530  14.750 -0.1640 -1.5359  0.0540
  276TMC3    C1 4218   3.233   1.703  14.761  0.2818  1.0362 -0.4257
  276TMC3    C2 4219   3.150   1.742  14.861  0.0407 -0.8024 -0.1004
  276TMC3    C3 4220   3.206   1.798  14.975  0.3249 -0.7227  0.2122
  276TMC3    C4 4221   3.367   1.740  14.766  0.3822 -0.3392  0.6297
  276TMC3    C5 4222   3.419   1.795  14.878 -0.5571  0.0613 -0.3534
  276TMC3    C6 4223   3.341   1.827  14.986 -0.6007 -0.4863  0.0333
  276TMC3     C 4224   3.181   1.650  14.633 -0.5707 -0.3770 -0.2902
  276TMC3     O 4225   3.246   1.672  14.527  0.1659  0.0004 -0.0038
  276TMC3     H 4226   3.043   1.724  14.870  0.1366 -1.5018 -0.3548
  276TMC3    H1 4227   3.433   1.712  14.685 -1.3145 -3.6959  0.4043
  276TMC3    H2 4228   3.377   1.840  15.088 -2.0236 -0.0066  0.4875
  276TMC3    C7 4229   3.555   1.767  14.905  0.0717 -0.1585  0.0177
  276TMC3    C8 4230   3.148   1.754  15.100 -0.5722 -0.8774  0.2568
  276TMC3    O1 4231   3.588   1.796  15.019  0.0837  0.3628  0.1836
  276TMC3    O2 4232   3.166   1.831  15.191 -0.5350  0.2233  0.4838
  277MPD2     C 4233   3.859   0.226  13.884  0.2784 -0.2306 -0.5931
  277MPD2    C1 4234   3.895   0.270  13.754  0.6521 -0.3316 -0.3425
  277MPD2    C2 4235   3.835   0.215  13.642  0.4426 -0.0371 -0.2905
  277MPD2    C3 4236   3.746   0.109  13.661 -0.6099 -0.7654  0.8631
  277MPD2    C4 4237   3.700   0.068  13.787 -0.1527  0.4286 -0.2726
  277MPD2    C5 4238   3.764   0.128  13.896 -1.0596  0.0425  0.1949
  277MPD2     H 4239   3.864   0.235  13.540 -1.3681  2.0465 -0.4089
  277MPD2    H1 4240   3.638   4.716  13.805  0.1025  0.7422  2.1188
  277MPD2    H2 4241   3.920   0.256  13.969 -1.5743  2.0501 -0.0724
  277MPD2    H3 4242   3.744   0.095  13.997  0.9498 -0.3386  0.4609
  277MPD2     N 4243   3.697   0.050  13.536  0.2427  0.4867 -0.4718
  277MPD2    H5 4244   3.755   0.075  13.457 -0.0152  2.0513 -0.1671
  277MPD2    N1 4245   3.995   0.373  13.737  0.1673  0.5518  0.2400
  277MPD2    H7 4246   4.042   0.416  13.816 -0.3221  0.5585  0.5281
  278TMC3    C1 4247   3.610   4.618  13.398  0.0123  0.1253 -0.5514
  278TMC3    C2 4248   3.719   4.632  13.317 -0.2230 -0.2854 -0.6381
  278TMC3    C3 4249   3.744   4.535  13.218  0.2861  0.4262  0.1956
  278TMC3    C4 4250   3.526   4.514  13.379  0.0397  0.5815 -0.3655
  278TMC3    C5 4251   3.556   4.420  13.286  0.0242  0.2208 -0.0418
  278TMC3    C6 4252   3.657   4.432  13.192  0.2468  0.0572  0.1798
  278TMC3     C 4253   3.594   4.698  13.522 -0.1539  0.0747 -0.1388
  278TMC3     O 4254   3.511   4.668  13.605 -0.3117  0.6019 -0.2744
  278TMC3     H 4255   3.787   4.714  13.339  0.8891 -0.8416 -2.0080
  278TMC3    H1 4256   3.434   4.513  13.437  0.1244  1.4147 -0.2054
  278TMC3    H2 4257   3.676   4.362  13.111 -1.0583 -1.3900  1.1339
  278TMC3    C7 4258   3.472   4.307  13.281  0.6237  0.5902 -0.2429
  278TMC3    C8 4259   3.872   4.534  13.149  0.5731 -0.3719  0.4943
  278TMC3    O1 4260   3.370   4.297  13.348  0.1589 -0.6539  0.0454
  278TMC3    O2 4261   3.970   4.594  13.190  0.1599 -0.4298 -0.5814
  279MPD2     C 4262   3.701   3.687  17.632 -0.0766  0.0580 -0.4534
  279MPD2    C1 4263   3.753   3.782  17.718  0.4169  0.0217  0.2448
  279MPD2    C2 4264   3.866   3.851  17.679 -0.0723  0.0534  0.1440
  279MPD2    C3 4265   3.922   3.837  17.555 -0.6243 -0.3722  0.0491
  279MPD2    C4 4266   3.870   3.733  17.471 -0.5173  0.6417  0.0319
  279MPD2    C5 4267   3.762   3.662  17.510 -0.2129  0.2136  0.3886
  279MPD2     H 4268   3.906   3.928   0.002  1.7462 -1.6077  1.0304
  279MPD2    H1 4269   3.905   3.729  17.368 -1.9360 -1.0355 -0.3803
  279MPD2    H2 4270   3.609   3.635  17.654 -0.8725  0.5082 -2.7443
  279MPD2    H3 4271   3.707   3.593  17.447  1.3946 -0.1201 -0.6717
  279MPD2     N 4272   4.017   3.924  17.499 -0.0147 -0.5359 -0.2214
  279MPD2    H5 4273   4.046   3.909  17.402 -0.4070 -1.7286 -0.1554
  279MPD2    N1 4274   3.673   3.811   0.088  0.1982  0.3790 -0.4214
  279MPD2    H7 4275   3.578   3.781   0.068  0.4983 -1.8370  1.4957
  280TMC3    C1 4276   3.592   3.930   0.276 -0.5792  0.0422 -0.7547
  280TMC3    C2 4277   3.486   3.846   0.284  0.3024 -0.1628  0.2984
  280TMC3    C3 4278   3.373   3.906   0.334  0.4143 -0.6061  0.4971
  280TMC3    C4 4279   3.593   4.059   0.320  0.0077 -0.1653 -0.1250
  280TMC3    C5 4280   3.485   4.110   0.366  0.7365 -0.5016  0.1677
  280TMC3    C6 4281   3.368   4.039   0.372 -0.1971 -0.1022  0.4297
  280TMC3     C 4282   3.708   3.906   0.187  0.1737 -0.8391  0.1166
  280TMC3     O 4283   3.810   3.970   0.201  0.0537 -0.3850  0.2896
  280TMC3     H 4284   3.491   3.742   0.254  0.5826  0.1673 -0.7835
  280TMC3    H1 4285   3.679   4.124   0.304 -0.2475 -0.5246 -2.8891
  280TMC3    H2 4286   3.273   4.072   0.413 -1.3155 -3.6084  0.6582
  280TMC3    C7 4287   3.494   4.242   0.423  0.3253 -1.1912  0.1280
  280TMC3    C8 4288   3.250   3.829   0.345  0.2831 -0.3420 -0.3002
  280TMC3    O1 4289   3.608   4.271   0.456  0.0679  0.3089  0.0779
  280TMC3    O2 4290   3.146   3.895   0.342  0.1554  0.2935 -0.0630
  281TMC3    C1 4291   3.107   0.814  13.250 -0.0581  0.1959  0.1623
  281TMC3    C2 4292   3.102   0.916  13.151 -0.3441 -0.4420 -0.0327
  281TMC3    C3 4293   3.110   0.872  13.017 -0.0831 -0.1875  0.5696
  281TMC3    C4 4294   3.091   0.682  13.216  0.1875 -0.5440 -0.0885
  281TMC3    C5 4295   3.115   0.649  13.084 -0.2647  0.1782 -0.3109
  281TMC3    C6 4296   3.134   0.737  12.985  0.6301  0.1475  0.3539
  281TMC3     C 4297   3.069   0.858  13.378 -0.5445  0.1102 -0.6936
  281TMC3     O 4298   3.107   0.795  13.472 -0.0442 -0.1866 -0.4038
  281TMC3     H 4299   3.122   1.022  13.166 -0.3829 -0.4035 -0.2541
  281TMC3    H1 4300   3.093   0.617  13.303 -1.7966 -0.0078  0.3494
  281TMC3    H2 4301   3.127   0.700  12.884  1.5840  0.0527  0.3209
  281TMC3    C7 4302   3.121   0.510  13.059 -0.6805  0.0678 -0.5219
  281TMC3    C8 4303   2.983   0.914  12.958  0.5609 -0.6855 -0.2451
  281TMC3    O1 4304   3.198   0.474  12.969 -0.1546 -0.1942  0.7563
  281TMC3    O2 4305   2.910   0.833  12.900  0.1505  0.5142  0.4424
  282MPD2     C 4306   4.673   1.798  15.104 -0.3542  0.6353 -0.0980
  282MPD2    C1 4307   4.587   1.906  15.116 -0.0907 -0.3744 -0.7519
  282MPD2    C2 4308   4.492   1.929  15.010  0.6037 -0.3428  0.7132
  282MPD2    C3 4309   4.487   1.842  14.900  0.2373 -0.2507 -0.3499
  282MPD2    C4 4310   4.578   1.742  14.894 -0.0757  0.5630  0.1205
  282MPD2    C5 4311   4.673   1.718  14.991 -0.5250 -0.5283 -0.0640
  282MPD2     H 4312   4.422   2.011  15.017  2.4141  1.0704  2.0061
  282MPD2    H1 4313   4.579   1.677  14.807  1.5879  0.7743 -0.0120
  282MPD2    H2 4314   0.020   1.785  15.173 -0.9698  0.5628  0.6241
  282MPD2    H3 4315   0.007   1.637  14.973 -0.5134 -0.3154 -0.9607
  282MPD2     N 4316   4.386   1.854  14.808  0.8375 -0.7877  0.2862
  282MPD2    H5 4317   4.328   1.935  14.828 -0.5074 -1.9665  1.1862
  282MPD2    N1 4318   4.577   1.997  15.218  0.5688 -0.3318  0.2583
  282MPD2    H7 4319   4.505   2.068  15.206  0.0077 -0.9792 -0.1994
  283TMC3    C1 4320   4.585   2.075  15.446  0.1795  0.2178  0.0428
  283TMC3    C2 4321   4.613   2.208  15.453 -0.4825  0.5923 -0.3106
  283TMC3    C3 4322   4.632   2.258  15.580 -0.7787  0.2458 -0.0423
  283TMC3    C4 4323   4.584   1.994  15.555 -0.2210  0.3674 -0.6973
  283TMC3    C5 4324   4.612   2.043  15.682 -0.2395 -0.6244  0.3632
  283TMC3    C6 4325   4.636   2.178  15.693 -0.2369  0.4844  0.0322
  283TMC3     C 4326   4.650   2.001  15.334 -0.0615  0.1889 -1.1002
  283TMC3     O 4327   4.732   1.921  15.375  0.7276  0.0403  0.3330
  283TMC3     H 4328   4.631   2.275  15.370 -4.3765  0.7380 -1.0164
  283TMC3    H1 4329   4.565   1.888  15.546 -0.5176  0.1089  2.7340
  283TMC3    H2 4330   4.657   2.220  15.791  1.1290  0.1030 -0.0993
  283TMC3    C7 4331   4.603   1.945  15.791 -0.2377 -1.0669  0.1323
  283TMC3    C8 4332   4.672   2.392  15.593  1.1958  0.2086 -0.0115
  283TMC3    O1 4333   4.546   1.839  15.767  0.5909 -0.0901 -0.0035
  283TMC3    O2 4334   4.732   2.418  15.695  0.1891 -0.0200 -0.2833
  284MPD2     C 4335   2.291   1.672  11.693 -0.0617 -0.3625  0.2907
  284MPD2    C1 4336   2.377   1.586  11.637 -0.2766  0.1596  0.6245
  284MPD2    C2 4337   2.399   1.457  11.683 -0.7344 -0.2942 -0.1893
  284MPD2    C3 4338   2.337   1.424  11.805 -0.5802 -0.6570 -0.1163
  284MPD2    C4 4339   2.244   1.512  11.856 -0.1433 -0.3772 -0.0121
  284MPD2    C5 4340   2.215   1.632  11.798 -0.9180 -0.5560 -0.4913
  284MPD2     H 4341   2.468   1.389  11.634 -1.3942  0.9684 -2.9152
  284MPD2    H1 4342   2.198   1.484  11.950  0.6503  0.2626  0.5705
  284MPD2    H2 4343   2.268   1.767  11.645  1.8383 -0.4524 -0.7925
  284MPD2    H3 4344   2.147   1.703  11.844 -1.5892 -0.7340 -1.2092
  284MPD2     N 4345   2.375   1.314  11.886 -0.1888  0.0641  0.2549
  284MPD2    H5 4346   2.343   1.309  11.983 -1.1177 -0.3467 -0.0748
  284MPD2    N1 4347   2.464   1.623  11.534 -0.5617 -0.4500  0.7846
  284MPD2    H7 4348   2.530   1.549  11.516  0.5935  0.8614 -0.3890
  285TMC3    C1 4349   2.567   1.718  11.362  1.0054  0.5478 -0.8373
  285TMC3    C2 4350   2.581   1.587  11.333 -0.1116  0.0750 -0.0881
  285TMC3    C3 4351   2.709   1.541  11.321 -0.1513  0.0236 -0.5337
  285TMC3    C4 4352   2.674   1.803  11.385 -0.0234 -0.2500  0.3106
  285TMC3    C5 4353   2.795   1.755  11.380 -0.4842 -0.8822  0.4699
  285TMC3    C6 4354   2.817   1.624  11.349 -0.2329 -0.5357  0.3105
  285TMC3     C 4355   2.462   1.738  11.457 -0.3859 -0.0541  0.1723
  285TMC3     O 4356   2.395   1.841  11.467  0.0889  0.4631 -0.7862
  285TMC3     H 4357   2.498   1.517  11.324 -0.4879  0.7309 -1.8532
  285TMC3    H1 4358   2.660   1.904  11.422 -0.5641 -0.5489  0.9251
  285TMC3    H2 4359   2.920   1.591  11.344  0.2722  0.8909  1.4972
  285TMC3    C7 4360   2.888   1.861  11.349 -0.2959  0.4227 -0.5229
  285TMC3    C8 4361   2.737   1.396  11.306  0.4244 -0.6677  0.1911
  285TMC3    O1 4362   2.981   1.886  11.422 -0.4734  0.0118  0.6860
  285TMC3    O2 4363   2.650   1.336  11.246  0.7786  0.7240 -0.1660
  286MPD2     C 4364   2.352   3.616   1.107  0.6673  0.4738  0.3231
  286MPD2    C1 4365   2.485   3.646   1.137 -0.1485 -0.4245  0.0263
  286MPD2    C2 4366   2.596   3.588   1.080 -0.0704  0.0630 -0.8924
  286MPD2    C3 4367   2.572   3.474   0.995  0.6512 -0.2642  0.2612
  286MPD2    C4 4368   2.441   3.447   0.960 -0.8454 -0.4120  0.8425
  286MPD2    C5 4369   2.334   3.515   1.018 -0.1354 -0.1683  0.2973
  286MPD2     H 4370   2.695   3.618   1.109  0.5185 -3.7828  1.0165
  286MPD2    H1 4371   2.422   3.359   0.900 -1.3494 -0.6525  1.3517
  286MPD2    H2 4372   2.264   3.662   1.151  2.0008  0.2383  3.2079
  286MPD2    H3 4373   2.231   3.491   0.992 -0.1148  1.3073 -1.1626
  286MPD2     N 4374   2.686   3.397   0.948  0.3871 -0.3598 -0.0064
  286MPD2    H5 4375   2.663   3.305   0.911  1.8208 -0.5317 -0.4592
  286MPD2    N1 4376   2.513   3.754   1.224  0.1019 -0.0259  0.2447
  286MPD2    H7 4377   2.607   3.780   1.250  1.0343 -3.1898  0.0407
  287TMC3    C1 4378   2.907   3.312   0.945 -0.6319 -0.2396  0.2689
  287TMC3    C2 4379   2.886   3.226   0.845 -0.6951 -0.4313 -0.0311
  287TMC3    C3 4380   2.986   3.136   0.820  0.3449  0.9239 -0.7824
  287TMC3    C4 4381   3.020   3.312   1.018 -0.1065  0.3021 -0.1730
  287TMC3    C5 4382   3.114   3.215   0.991  0.0059 -0.3890 -0.0425
  287TMC3    C6 4383   3.098   3.120   0.894  0.5928 -0.4994 -0.6204
  287TMC3     C 4384   2.819   3.419   0.976 -0.3365  0.4771 -0.3021
  287TMC3     O 4385   2.870   3.515   1.038 -0.3678 -0.1983  0.7352
  287TMC3     H 4386   2.806   3.256   0.779 -0.0526 -2.4905 -1.7276
  287TMC3    H1 4387   3.037   3.392   1.090  0.7169  0.1937 -0.2410
  287TMC3    H2 4388   3.177   3.051   0.866  0.9699 -0.3819  0.1590
  287TMC3    C7 4389   3.230   3.215   1.079  0.2812 -0.3625 -0.2437
  287TMC3    C8 4390   2.957   3.050   0.710 -0.3093 -0.5078 -0.7680
  287TMC3    O1 4391   3.236   3.300   1.166 -0.7004 -0.1276 -0.5346
  287TMC3    O2 4392   2.887   3.096   0.622  0.0715 -0.0298 -0.1827
  288TMC3    C1 4393   4.632   0.154  14.024 -0.6395  0.0364  0.2115
  288TMC3    C2 4394   4.678   0.126  14.152  0.0251  0.3283 -0.6048
  288TMC3    C3 4395   4.607   0.040  14.236 -0.5174 -0.2639  0.3295
  288TMC3    C4 4396   4.523   0.086  13.982 -0.1738 -0.4109  0.4800
  288TMC3    C5 4397   4.461   4.734  14.063 -0.0472 -1.0290  0.5736
  288TMC3    C6 4398   4.494   4.711  14.191 -0.1599 -0.4052 -0.0570
  288TMC3     C 4399   4.711   0.232  13.929  0.6687 -0.1833  0.4454
  288TMC3     O 4400   4.684   0.228  13.812 -0.3349 -0.5526 -0.3519
  288TMC3     H 4401   0.018   0.192  14.192  1.2449 -1.3052 -0.1925
  288TMC3    H1 4402   4.493   0.087  13.878 -3.7739 -1.9602  1.4910
  288TMC3    H2 4403   4.434   4.646  14.253 -0.3885  1.0387  1.2433
  288TMC3    C7 4404   4.364   4.652  14.008  0.2766  0.3584 -0.1110
  288TMC3    C8 4405   4.633   0.055  14.382  0.3467 -0.4873 -0.3726
  288TMC3    O1 4406   4.282   4.701  13.928  0.3080 -0.7154  0.3840
  288TMC3    O2 4407   4.718   0.140  14.414 -0.0394  0.1830  0.7858
  289MPD2     C 4408   0.108   3.838  14.448 -0.1075  0.5521  0.3871
  289MPD2    C1 4409   0.086   3.962  14.379 -0.2733 -0.0665  0.3771
  289MPD2    C2 4410   4.702   3.975  14.304  0.4765  0.0788 -0.0745
  289MPD2    C3 4411   4.627   3.864  14.287 -0.1640 -0.7380  0.3231
  289MPD2    C4 4412   4.661   3.744  14.339  0.4523 -0.4530 -0.1286
  289MPD2    C5 4413   0.023   3.738  14.431 -0.3974  0.4617 -0.2445
  289MPD2     H 4414   4.677   4.067  14.251  1.3668  0.5857  0.3898
  289MPD2    H1 4415   4.598   3.656  14.331 -0.6900  0.3170  0.3839
  289MPD2    H2 4416   0.199   3.822  14.504 -0.5370  1.8031  1.4599
  289MPD2    H3 4417   0.044   3.641  14.475 -1.5910 -1.1061 -3.1765
  289MPD2     N 4418   4.511   3.861  14.213  0.4288  0.2308 -0.0478
  289MPD2    H5 4419   4.480   3.766  14.193 -0.3493  1.0022 -2.5601
  289MPD2    N1 4420   0.185   4.064  14.402 -0.3705 -0.1389 -0.3937
  289MPD2    H7 4421   0.266   4.047  14.460  0.8187 -0.9313 -2.2775
  290TMC3    C1 4422   4.315   3.959  14.111  0.4539  0.2050 -0.0797
  290TMC3    C2 4423   4.253   4.067  14.052  0.2914  0.3265  0.3585
  290TMC3    C3 4424   4.121   4.071  14.038  0.1587  0.3696 -0.3547
  290TMC3    C4 4425   4.234   3.851  14.147  0.9156 -0.1734  0.4900
  290TMC3    C5 4426   4.103   3.863  14.135  0.0144  0.7358 -0.2449
  290TMC3    C6 4427   4.042   3.964  14.074 -0.4659 -0.0783  1.1092
  290TMC3     C 4428   4.447   3.976  14.168 -0.3521 -0.0704 -0.1889
  290TMC3     O 4429   4.477   4.094  14.176 -0.3205  0.2376  0.1666
  290TMC3     H 4430   4.305   4.152  14.009 -0.6884 -0.0307 -1.5612
  290TMC3    H1 4431   4.277   3.774  14.210 -0.0076 -1.3938 -0.3604
  290TMC3    H2 4432   3.935   3.964  14.055 -0.2199  1.2304 -0.2761
  290TMC3    C7 4433   4.014   3.753  14.187  0.0166  0.5475  1.3809
  290TMC3    C8 4434   4.071   4.202  13.998  0.3251 -0.1945 -0.4563
  290TMC3    O1 4435   3.903   3.777  14.229  0.0607 -0.1984 -0.4996
  290TMC3    O2 4436   3.974   4.202  13.923  0.1824 -0.1008 -0.3578
  291MPD2     C 4437   3.745   3.015   0.473  0.7161  1.1725  0.0099
  291MPD2    C1 4438   3.877   2.977   0.471  0.8811  0.5250  0.1139
  291MPD2    C2 4439   3.974   3.077   0.467 -0.3961 -0.5057 -0.3245
  291MPD2    C3 4440   3.940   3.209   0.487 -0.4113 -0.2648  0.8899
  291MPD2    C4 4441   3.805   3.248   0.480  0.1409 -0.0834 -0.4455
  291MPD2    C5 4442   3.715   3.150   0.484  0.5096 -0.9812  0.5487
  291MPD2     H 4443   4.077   3.044   0.458  0.9807  3.4724  0.8069
  291MPD2    H1 4444   3.776   3.350   0.501  0.2042 -0.6659  2.4872
  291MPD2    H2 4445   3.666   2.944   0.490  0.2887  2.0957  1.8782
  291MPD2    H3 4446   3.608   3.168   0.491  0.7149  1.1820 -1.9671
  291MPD2     N 4447   4.031   3.319   0.502  0.1319  0.0887 -0.1227
  291MPD2    H5 4448   4.005   3.417   0.504 -1.9162 -0.5014  1.6684
  291MPD2    N1 4449   3.925   2.847   0.476  0.2094  1.2893 -0.1427
  291MPD2    H7 4450   4.025   2.831   0.482 -0.0737 -0.7588 -0.9277
  292TMC3    C1 4451   3.939   2.618   0.456 -0.5973 -0.3790  0.3109
  292TMC3    C2 4452   4.041   2.600   0.543 -0.3532  0.0141  0.0116
  292TMC3    C3 4453   4.102   2.479   0.551  0.1774  0.3303  0.5831
  292TMC3    C4 4454   3.903   2.517   0.370  0.1791  0.5141 -0.0346
  292TMC3    C5 4455   3.976   2.403   0.362  0.0026 -0.3195  1.1230
  292TMC3    C6 4456   4.089   2.392   0.446 -0.2238 -0.3727 -0.1210
  292TMC3     C 4457   3.848   2.730   0.468 -0.4297 -0.7075 -0.3846
  292TMC3     O 4458   3.728   2.712   0.442  0.0032 -0.2458  0.1625
  292TMC3     H 4459   4.069   2.677   0.614 -3.6874  3.7318 -2.7524
  292TMC3    H1 4460   3.815   2.532   0.310 -2.0649 -0.7121  2.9432
  292TMC3    H2 4461   4.149   2.302   0.448 -1.1463 -0.9302  2.6251
  292TMC3    C7 4462   3.906   2.270   0.367  1.0548 -0.4559  0.0867
  292TMC3    C8 4463   4.094   2.412   0.682  0.2471  0.3342 -0.7198
  292TMC3    O1 4464   3.961   2.182   0.435 -0.0853 -0.0046 -0.3848
  292TMC3    O2 4465   4.142   2.476   0.776 -0.0101 -0.4980  0.2005
  293MPD2     C 4466   1.462   0.701  12.503 -0.1243 -0.8975 -0.0758
  293MPD2    C1 4467   1.392   0.601  12.559 -0.5020  0.4196 -0.1703
  293MPD2    C2 4468   1.394   0.576  12.689  0.1366  0.3962  1.0044
  293MPD2    C3 4469   1.480   0.645  12.769  0.4411  0.5760  1.2449
  293MPD2    C4 4470   1.567   0.737  12.714 -0.8008  0.5735  0.7252
  293MPD2    C5 4471   1.547   0.773  12.583 -0.1610  0.1079 -0.0024
  293MPD2     H 4472   1.330   0.508  12.743 -0.0091 -0.8536 -0.7646
  293MPD2    H1 4473   1.631   0.805  12.769  0.7940  0.3268 -0.8082
  293MPD2    H2 4474   1.454   0.740  12.402 -0.6682 -0.9952 -0.0693
  293MPD2    H3 4475   1.605   0.856  12.545  1.8059  0.2169  3.2590
  293MPD2     N 4476   1.466   0.631  12.905  0.3359  0.0420  0.2019
  293MPD2    H5 4477   1.402   0.557  12.931 -0.1152  0.2458 -0.3347
  293MPD2    N1 4478   1.295   0.539  12.468  0.0089 -0.4558  0.2481
  293MPD2    H7 4479   1.280   0.577  12.375  1.6174  0.0548  0.1920
  294TMC3    C1 4480   1.103   0.403  12.404 -0.0512 -0.6027  0.3089
  294TMC3    C2 4481   1.029   0.291  12.432  0.5281 -0.8379 -0.4108
  294TMC3    C3 4482   0.920   0.264  12.359  0.3740 -0.8557  0.3412
  294TMC3    C4 4483   1.085   0.481  12.290 -0.5488 -0.4020  0.7005
  294TMC3    C5 4484   0.991   0.432  12.203 -0.8952  0.2890 -0.2810
  294TMC3    C6 4485   0.903   0.333  12.238 -0.2076 -0.0200  0.3538
  294TMC3     C 4486   1.210   0.437  12.505  0.0071 -0.0406  0.0245
  294TMC3     O 4487   1.218   0.372  12.607  0.2083  0.1352  0.0198
  294TMC3     H 4488   1.040   0.240  12.528  4.1146 -0.2645 -0.5275
  294TMC3    H1 4489   1.152   0.556  12.250 -1.1727  0.1314  0.6515
  294TMC3    H2 4490   0.828   0.294  12.170  2.2696 -2.3843 -0.9977
  294TMC3    C7 4491   0.967   0.518  12.093 -0.5050 -0.3358 -0.4982
  294TMC3    C8 4492   0.831   0.158  12.411  0.5696 -0.0148 -0.3175
  294TMC3    O1 4493   1.001   0.632  12.103 -0.2834 -0.1964 -0.2960
  294TMC3    O2 4494   0.865   0.117  12.522 -0.0751 -0.2879 -0.0694
  295MPD2     C 4495   1.850   3.117   0.580  0.8562  0.1296  1.0104
  295MPD2    C1 4496   1.730   3.063   0.531  0.0771  0.5340  0.0877
  295MPD2    C2 4497   1.670   2.950   0.592 -0.7798 -0.3437 -0.3595
  295MPD2    C3 4498   1.731   2.899   0.712  0.4332 -0.4563 -0.1460
  295MPD2    C4 4499   1.841   2.960   0.760 -0.0418 -0.3037  0.3145
  295MPD2    C5 4500   1.902   3.067   0.698  0.3585  0.2757 -0.0588
  295MPD2     H 4501   1.573   2.916   0.559 -1.4105  0.6366  0.4722
  295MPD2    H1 4502   1.904   2.925   0.842 -1.1244 -0.1844  1.1914
  295MPD2    H2 4503   1.902   3.191   0.520  2.4245  0.4302  2.7487
  295MPD2    H3 4504   1.993   3.112   0.736  1.2864 -0.6570 -1.1872
  295MPD2     N 4505   1.675   2.798   0.788 -0.4522  0.0500  0.0286
  295MPD2    H5 4506   1.730   2.766   0.867  0.3708 -0.4376 -0.7452
  295MPD2    N1 4507   1.657   3.124   0.417  0.1053 -0.4866  0.0538
  295MPD2    H7 4508   1.571   3.076   0.392  1.7351 -1.1212 -4.3231
  296TMC3    C1 4509   1.510   2.655   0.887  0.0746  0.4909 -0.4717
  296TMC3    C2 4510   1.380   2.643   0.922  0.0433  0.5009 -0.0339
  296TMC3    C3 4511   1.347   2.542   1.009  0.1462 -0.0936  0.9718
  296TMC3    C4 4512   1.610   2.569   0.929  0.5123  0.6471  0.3440
  296TMC3    C5 4513   1.570   2.470   1.010 -0.4259 -0.2236  0.0559
  296TMC3    C6 4514   1.434   2.449   1.049 -0.2117  0.2225 -0.0023
  296TMC3     C 4515   1.545   2.763   0.797 -1.3349  0.2747 -0.2779
  296TMC3     O 4516   1.450   2.809   0.733  0.0368 -0.2812 -0.4423
  296TMC3     H 4517   1.316   2.725   0.889 -0.7530  0.0814  0.4696
  296TMC3    H1 4518   1.709   2.570   0.885  0.3287 -2.1772 -0.0973
  296TMC3    H2 4519   1.392   2.376   1.118 -1.2515 -0.2296 -1.1230
  296TMC3    C7 4520   1.663   2.365   1.038 -0.4830  0.1238  0.2667
  296TMC3    C8 4521   1.218   2.531   1.074 -0.2861  0.1573  0.3712
  296TMC3    O1 4522   1.742   2.329   0.952  0.7553 -0.2847  0.2288
  296TMC3    O2 4523   1.167   2.421   1.053 -0.3951  0.6172 -0.4811
  297MPD2     C 4524   3.130   0.501  16.368 -0.3363  0.6884  0.0344
  297MPD2    C1 4525   3.144   0.641  16.351 -0.4059  1.3465  0.2435
  297MPD2    C2 4526   3.269   0.693  16.324 -0.1020 -0.3207  0.5233
  297MPD2    C3 4527   3.378   0.612  16.307 -0.1033  0.1505 -0.4114
  297MPD2    C4 4528   3.361   0.477  16.322  0.6905  0.4897 -0.4555
  297MPD2    C5 4529   3.239   0.421  16.353  0.4584  0.3400 -0.3742
  297MPD2     H 4530   3.284   0.800  16.332 -0.2896 -0.3663  1.4812
  297MPD2    H1 4531   3.436   0.402  16.303 -0.2498 -0.0493 -2.0618
  297MPD2    H2 4532   3.040   0.450  16.399  0.6890 -0.9838  0.2831
  297MPD2    H3 4533   3.224   0.314  16.365 -0.3652  0.3237 -1.5152
  297MPD2     N 4534   3.504   0.673  16.283  0.6355 -0.4460 -0.2787
  297MPD2    H5 4535   3.507   0.775  16.291 -0.3405 -0.1737 -3.2497
  297MPD2    N1 4536   3.035   0.729  16.377  0.3675 -0.1054 -0.2234
  297MPD2    H7 4537   3.054   0.825  16.352 -1.2852  1.1914  3.6369
  298TMC3    C1 4538   2.830   0.807  16.462 -0.3418 -1.1369  0.1083
  298TMC3    C2 4539   2.826   0.911  16.369 -0.4081  0.2301  0.0631
  298TMC3    C3 4540   2.728   1.008  16.389  0.0711 -0.6000 -0.2765
  298TMC3    C4 4541   2.742   0.798  16.570  0.2812 -0.5261  1.0944
  298TMC3    C5 4542   2.648   0.898  16.586  0.3276  0.3558  0.3571
  298TMC3    C6 4543   2.643   1.000  16.495  0.6196  0.0075  0.3398
  298TMC3     C 4544   2.914   0.694  16.432 -0.3427 -0.2415  0.6229
  298TMC3     O 4545   2.862   0.587  16.458 -0.4002  0.5340  0.0911
  298TMC3     H 4546   2.887   0.907  16.280  1.9817 -1.6590  1.7723
  298TMC3    H1 4547   2.752   0.714  16.637 -0.4672 -1.0282  0.5868
  298TMC3    H2 4548   2.574   1.082  16.513 -1.0679 -1.1854 -0.7820
  298TMC3    C7 4549   2.603   0.922  16.719 -0.5263 -0.8586  0.4259
  298TMC3    C8 4550   2.708   1.101  16.279  0.0830 -0.5841  0.9002
  298TMC3    O1 4551   2.652   0.843  16.796  0.5790  0.6060 -0.3439
  298TMC3    O2 4552   2.772   1.080  16.178  0.6055  0.0344  0.0439
  299MPD2     C 4553   3.431   0.446  10.463 -0.5319  0.2873 -0.2378
  299MPD2    C1 4554   3.529   0.535  10.421  0.7260 -0.0402 -0.3091
  299MPD2    C2 4555   3.519   0.614  10.310 -0.7107 -0.0803  0.3037
  299MPD2    C3 4556   3.415   0.591  10.230  0.2140  0.1692  0.1165
  299MPD2    C4 4557   3.310   0.502  10.266 -0.4341  0.7752  0.3894
  299MPD2    C5 4558   3.322   0.430  10.381  0.3508  0.3454  0.5400
  299MPD2     H 4559   3.589   0.694  10.287 -0.8888  0.0319  0.1440
  299MPD2    H1 4560   3.226   0.473  10.205  1.3431 -4.7487  0.5143
  299MPD2    H2 4561   3.443   0.388  10.553  3.6367  2.1556  0.3948
  299MPD2    H3 4562   3.250   0.354  10.411 -0.7069  1.3066  0.4237
  299MPD2     N 4563   3.396   0.665  10.105 -0.1162  0.3779  0.6811
  299MPD2    H5 4564   3.303   0.655  10.064  0.1924  0.8965 -0.1472
  299MPD2    N1 4565   3.634   0.554  10.515 -0.1005 -0.7763 -0.1802
  299MPD2    H7 4566   3.640   0.494  10.597 -0.4572 -2.2994 -1.2814
  300TMC3    C1 4567   3.391   0.857   9.988  0.7607  0.7217 -0.7481
  300TMC3    C2 4568   3.389   0.959  10.080  0.3225 -0.6730  0.0740
  300TMC3    C3 4569   3.260   1.005  10.126  0.0406  0.1475  0.4206
  300TMC3    C4 4570   3.281   0.794   9.936  0.3450 -0.4415 -0.5967
  300TMC3    C5 4571   3.164   0.846   9.980 -0.3542 -0.8492  0.7026
  300TMC3    C6 4572   3.149   0.959  10.065  0.0122 -0.4619  0.8012
  300TMC3     C 4573   3.481   0.764  10.053  0.1910 -0.3061  0.1610
  300TMC3     O 4574   3.595   0.792  10.094 -0.3581  0.1848 -0.3013
  300TMC3     H 4575   3.483   0.976  10.130  0.4221 -1.3501  0.1258
  300TMC3    H1 4576   3.285   0.711   9.867 -1.5231 -0.4210 -0.7282
  300TMC3    H2 4577   3.050   0.989  10.098 -0.5759 -1.5948  0.0450
  300TMC3    C7 4578   3.077   0.736  10.015 -0.3305  0.0764 -0.4627
  300TMC3    C8 4579   3.248   0.986  10.274 -0.4624 -0.6559  0.3809
  300TMC3    O1 4580   3.072   0.648   9.936 -0.5828 -0.5290  0.2216
  300TMC3    O2 4581   3.143   0.932  10.309 -0.1129  0.2687 -0.6452
  301MPD2     C 4582   1.125   0.934   1.280 -0.6602  0.0409  0.5636
  301MPD2    C1 4583   1.124   0.912   1.145  0.2665  0.7042 -0.1937
  301MPD2    C2 4584   1.192   0.817   1.091  0.1393  0.5317  0.6534
  301MPD2    C3 4585   1.250   0.720   1.177 -0.5759 -0.1942 -0.2842
  301MPD2    C4 4586   1.256   0.745   1.316  0.1863 -0.1946  0.2705
  301MPD2    C5 4587   1.183   0.853   1.363 -0.5892 -0.1199  0.0084
  301MPD2     H 4588   1.193   0.809   0.983 -2.9644  0.1451  0.6609
  301MPD2    H1 4589   1.308   0.689   1.392 -0.0261 -0.6463  0.0850
  301MPD2    H2 4590   1.060   1.015   1.312 -0.1840  0.4916  0.3926
  301MPD2    H3 4591   1.172   0.876   1.469  0.7803  1.3654 -0.1608
  301MPD2     N 4592   1.323   0.606   1.135 -0.1492 -0.2493  0.2152
  301MPD2    H5 4593   1.340   0.534   1.204  0.0004  0.2079  0.6567
  301MPD2    N1 4594   1.061   1.002   1.061 -1.0027 -0.0060  0.1341
  301MPD2    H7 4595   1.078   0.987   0.962  1.0701  0.8191  0.3634
  302TMC3    C1 4596   1.394   0.451   0.985  0.1486  0.1511 -0.1054
  302TMC3    C2 4597   1.463   0.386   1.093  0.1945 -0.2647 -0.2890
  302TMC3    C3 4598   1.498   0.256   1.065 -0.0455 -0.3025 -0.3342
  302TMC3    C4 4599   1.355   0.390   0.868 -0.7880  0.3160  0.7117
  302TMC3    C5 4600   1.388   0.263   0.857  0.2702 -0.4645 -0.4244
  302TMC3    C6 4601   1.456   0.189   0.949 -0.3732 -0.1840  0.5139
  302TMC3     C 4602   1.344   0.577   1.006 -0.4037 -0.4112  0.0408
  302TMC3     O 4603   1.324   0.649   0.903 -0.5071  0.2610 -0.0748
  302TMC3     H 4604   1.491   0.442   1.182 -1.7658 -1.5827  1.1684
  302TMC3    H1 4605   1.310   0.450   0.789 -0.3381 -0.8892 -0.4721
  302TMC3    H2 4606   1.468   0.082   0.936 -1.2805  0.1222 -2.8787
  302TMC3    C7 4607   1.331   0.184   0.752  0.5486  0.0178  0.5871
  302TMC3    C8 4608   1.527   0.162   1.172  0.4132 -0.6537  0.3378
  302TMC3    O1 4609   1.375   0.073   0.728 -0.0645 -0.2796  0.2531
  302TMC3    O2 4610   1.576   0.057   1.139  0.3187  0.1941 -0.3672
  303MPD2     C 4611   1.745   4.698  10.353  0.7753 -0.6025 -0.1113
  303MPD2    C1 4612   1.650   4.634  10.270 -0.2675  0.1126  0.1443
  303MPD2    C2 4613   1.548   4.709  10.219  0.8841  0.4263 -0.1434
  303MPD2    C3 4614   1.524   0.101  10.262  0.0968  0.1388  0.0786
  303MPD2    C4 4615   1.612   0.155  10.360 -0.5792  0.8862 -0.1516
  303MPD2    C5 4616   1.726   0.089  10.393  0.5647 -0.4396 -0.2235
  303MPD2     H 4617   1.485   4.652  10.151  1.0516 -1.4578  1.2971
  303MPD2    H1 4618   1.602   0.257  10.396 -2.7942 -0.2661  2.5110
  303MPD2    H2 4619   1.840   4.649  10.373  0.4768 -1.0423  0.2401
  303MPD2    H3 4620   1.801   0.122  10.463  0.5517 -0.8745 -0.0098
  303MPD2     N 4621   1.413   0.183  10.226  0.2810 -0.2182 -0.1134
  303MPD2    H5 4622   1.405   0.276  10.265  2.5939 -0.2926  0.5315
  303MPD2    N1 4623   1.656   4.496  10.228 -0.2367 -0.0233 -0.1911
  303MPD2    H7 4624   1.588   4.465  10.160  0.4807  1.1150 -1.4292
  304TMC3    C1 4625   1.689   4.266  10.282 -0.8880 -0.1258  0.7822
  304TMC3    C2 4626   1.688   4.190  10.395 -0.3420  0.1941  0.7275
  304TMC3    C3 4627   1.675   4.050  10.393  0.0494 -0.5017  0.0874
  304TMC3    C4 4628   1.697   4.195  10.160 -0.2056 -0.0575 -0.1104
  304TMC3    C5 4629   1.692   4.063  10.157 -0.6445  0.1035  0.5005
  304TMC3    C6 4630   1.686   3.988  10.269 -0.5027  0.3392  0.3774
  304TMC3     C 4631   1.734   4.406  10.297  0.0758  0.3819  0.3188
  304TMC3     O 4632   1.821   4.422  10.379  0.2442 -0.0399  0.4568
  304TMC3     H 4633   1.701   4.237  10.493  2.4445  0.2807  0.3226
  304TMC3    H1 4634   1.713   4.245  10.066  1.2083 -1.3241 -0.5591
  304TMC3    H2 4635   1.669   3.881  10.264 -1.4597  0.5243 -0.3300
  304TMC3    C7 4636   1.615   4.017  10.037 -0.0939  0.1075  0.2113
  304TMC3    C8 4637   1.550   4.016  10.460 -0.2813  0.8948  0.8717
  304TMC3    O1 4638   1.632   4.077   9.931  0.3435  0.1440  0.1367
  304TMC3    O2 4639   1.498   3.916  10.423  0.0340  0.0765  0.2977
  305MPD2     C 4640   4.398   2.210  14.390 -0.4118 -0.6161 -0.5197
  305MPD2    C1 4641   4.451   2.087  14.405 -0.2024 -0.5558 -0.8296
  305MPD2    C2 4642   4.423   1.985  14.315  0.6931 -0.6851 -0.2442
  305MPD2    C3 4643   4.354   2.008  14.203 -0.4519 -0.4510  0.4417
  305MPD2    C4 4644   4.297   2.124  14.189  0.2455 -0.5078 -0.0045
  305MPD2    C5 4645   4.322   2.231  14.277 -0.5446  0.4736 -0.3475
  305MPD2     H 4646   4.462   1.885  14.330  1.5174  0.1092  2.9354
  305MPD2    H1 4647   4.215   2.132  14.119 -0.3781  1.2577  0.9177
  305MPD2    H2 4648   4.440   2.288  14.452  0.2890  0.8986 -2.9108
  305MPD2    H3 4649   4.273   2.327  14.272  0.2128  0.8200 -1.0515
  305MPD2     N 4650   4.331   1.912  14.100 -0.1725 -0.1481 -0.2012
  305MPD2    H5 4651   4.288   1.946  14.014 -0.3136 -0.2928 -0.1882
  305MPD2    N1 4652   4.537   2.070  14.514  0.2468  0.0512  0.2297
  305MPD2    H7 4653   4.537   2.144  14.583 -1.1644 -0.1993  0.4930
  306TMC3    C1 4654   4.714   1.976  14.649  0.4668  0.8413 -0.5741
  306TMC3    C2 4655   0.081   1.891  14.660 -0.4085 -0.5573 -0.7046
  306TMC3    C3 4656   0.163   1.902  14.768 -0.3750  0.0626  0.1435
  306TMC3    C4 4657   4.684   2.071  14.745 -0.0278  0.2087  0.4106
  306TMC3    C5 4658   0.033   2.076  14.849  0.6701 -0.4359 -1.0400
  306TMC3    C6 4659   0.151   2.005  14.855  0.5552  0.2099  0.1358
  306TMC3     C 4660   4.633   1.971  14.527 -0.1694  0.7367  0.7653
  306TMC3     O 4661   4.658   1.878  14.456  0.4232 -0.6916 -0.0923
  306TMC3     H 4662   0.094   1.813  14.585 -2.7199 -2.3001  0.7010
  306TMC3    H1 4663   4.603   2.142  14.730  0.4339  0.5317 -0.5334
  306TMC3    H2 4664   0.222   2.017  14.936 -0.4841  2.2522  0.7485
  306TMC3    C7 4665   0.023   2.195  14.935  0.1912 -0.3909  0.0169
  306TMC3    C8 4666   0.296   1.834  14.754  0.4702 -0.2361 -0.5589
  306TMC3    O1 4667   4.669   2.275  14.906 -0.2624 -0.5912 -0.2957
  306TMC3    O2 4668   0.318   1.784  14.643 -0.5554 -0.6608  0.5103
  307MPD2     C 4669   2.745   4.247   0.906  0.8252  0.6343 -0.0245
  307MPD2    C1 4670   2.632   4.320   0.936 -0.0661  1.0055  0.0021
  307MPD2    C2 4671   2.513   4.252   0.945  0.7076 -0.0374 -0.2195
  307MPD2    C3 4672   2.496   4.115   0.926  0.0202  0.1094  0.0715
  307MPD2    C4 4673   2.604   4.043   0.896  0.2767  0.0965 -0.2115
  307MPD2    C5 4674   2.720   4.116   0.873 -0.1006 -0.1445  0.5897
  307MPD2     H 4675   2.426   4.315   0.957 -0.4056 -1.6950  0.4436
  307MPD2    H1 4676   2.603   3.937   0.871  1.8285  0.3761 -1.4869
  307MPD2    H2 4677   2.841   4.293   0.881  1.6080 -1.2548 -0.4579
  307MPD2    H3 4678   2.807   4.058   0.845  1.4887  2.0047  1.0529
  307MPD2     N 4679   2.365   4.058   0.949  0.2694  0.6062 -0.4009
  307MPD2    H5 4680   2.289   4.125   0.957 -0.5232 -0.3097 -0.3558
  307MPD2    N1 4681   2.630   4.463   0.961  0.0081 -0.4861 -0.2115
  307MPD2    H7 4682   2.541   4.511   0.967  0.4016  0.4553 -1.6465
  308TMC3    C1 4683   1.994   3.791   0.928  0.2019 -0.6064 -0.8353
  308TMC3    C2 4684   1.921   3.882   1.002  0.3747 -0.7717  0.1249
  308TMC3    C3 4685   1.993   3.978   1.060 -0.7608 -0.3108  0.1957
  308TMC3    C4 4686   2.130   3.793   0.906  0.0809  0.0483 -0.6480
  308TMC3    C5 4687   2.198   3.900   0.961 -0.3469 -0.2135 -0.5957
  308TMC3    C6 4688   2.130   3.988   1.040  0.0531 -0.1227  0.1248
  308TMC3     C 4689   1.936   3.670   0.871  0.1918 -0.2669  0.1387
  308TMC3     O 4690   2.002   3.578   0.828  0.1402 -0.1620  0.6105
  308TMC3     H 4691   1.815   3.875   1.024  0.5902 -1.0532  1.0522
  308TMC3    H1 4692   2.188   3.713   0.862 -1.2430  0.3859 -2.9762
  308TMC3    H2 4693   2.181   4.067   1.094  0.9130  0.2455 -1.2205
  308TMC3    C7 4694   2.336   3.924   0.927 -0.0268 -0.3592  0.9468
  308TMC3    C8 4695   1.935   4.113   1.052 -0.8464 -0.0490 -0.6418
  308TMC3    O1 4696   2.401   3.833   0.874  0.0130 -0.1235  0.1280
  308TMC3    O2 4697   2.011   4.205   1.011  0.1894  0.3689 -0.0931
  309MPD2     C 4698   1.882   4.714  17.346  0.2241  0.0123 -0.9494
  309MPD2    C1 4699   1.777   0.034  17.288 -0.3408 -0.2486 -0.1096
  309MPD2    C2 4700   1.656   0.005  17.341  0.1011 -0.0213 -0.3119
  309MPD2    C3 4701   1.631   4.651  17.442 -0.0925  0.1300  0.4716
  309MPD2    C4 4702   1.735   4.594  17.504 -0.1602  0.2008 -0.2811
  309MPD2    C5 4703   1.863   4.628  17.458 -0.6360  0.7403  0.6152
  309MPD2     H 4704   1.569   0.051  17.295  1.6754  1.5766 -1.6945
  309MPD2    H1 4705   1.726   4.528  17.589 -0.8972  1.7536  0.8628
  309MPD2    H2 4706   1.981   0.018  17.327  0.7970 -1.0568 -0.2671
  309MPD2    H3 4707   1.951   4.581  17.499 -1.2694 -0.8754  0.1374
  309MPD2     N 4708   1.504   4.616  17.487  0.1383 -0.0387 -0.3707
  309MPD2    H5 4709   1.498   4.546  17.561 -2.5928  1.6604  0.9702
  309MPD2    N1 4710   1.781   0.135  17.189  0.1870 -0.6357  1.2405
  309MPD2    H7 4711   1.696   0.191  17.183  1.4512  1.3270  1.6394
  310TMC3    C1 4712   1.857   0.245  16.998  0.1231 -0.4070 -0.5985
  310TMC3    C2 4713   1.738   0.307  16.980  0.3234 -0.2386  0.4394
  310TMC3    C3 4714   1.713   0.385  16.870 -0.2607 -0.3692  0.0794
  310TMC3    C4 4715   1.950   0.271  16.901  0.3777 -0.5090 -0.2783
  310TMC3    C5 4716   1.923   0.340  16.786 -0.0277 -0.5635 -0.7552
  310TMC3    C6 4717   1.806   0.411  16.769 -0.0427 -0.1486  0.1156
  310TMC3     C 4718   1.882   0.139  17.097  0.3076  0.4385  0.3768
  310TMC3     O 4719   1.988   0.081  17.086  0.4875  0.0682  0.0906
  310TMC3     H 4720   1.671   0.305  17.065  1.6333  0.1229  1.4753
  310TMC3    H1 4721   2.054   0.245  16.919  0.6782  0.3983 -0.6957
  310TMC3    H2 4722   1.770   0.449  16.674  0.4812  0.7838  0.2893
  310TMC3    C7 4723   2.027   0.340  16.684 -0.1977  0.2002  0.4014
  310TMC3    C8 4724   1.590   0.467  16.870  0.7190 -0.9035 -0.5361
  310TMC3    O1 4725   2.108   0.247  16.695 -0.0706 -0.2158  0.1850
  310TMC3    O2 4726   1.501   0.441  16.955  0.2942 -0.0927 -0.1257
  311MPD2     C 4727   3.565   1.828  13.248 -0.4810 -0.5810 -0.3793
  311MPD2    C1 4728   3.560   1.953  13.193 -0.2151  0.5570 -0.9414
  311MPD2    C2 4729   3.439   2.009  13.152 -0.5358 -0.2299  0.9734
  311MPD2    C3 4730   3.327   1.933  13.163  0.2605  0.4262  0.3129
  311MPD2    C4 4731   3.335   1.804  13.224 -0.2706 -0.6995 -0.3364
  311MPD2    C5 4732   3.452   1.750  13.262 -0.4434  0.7953  0.1203
  311MPD2     H 4733   3.430   2.108  13.109  1.9387  0.1804  1.3958
  311MPD2    H1 4734   3.248   1.740  13.225 -0.7243 -0.0817 -0.6638
  311MPD2    H2 4735   3.654   1.779  13.285 -0.8010 -1.1780 -0.4101
  311MPD2    H3 4736   3.465   1.651  13.305 -2.0014  0.8269  0.6890
  311MPD2     N 4737   3.207   1.991  13.134  0.4857  0.3382  0.0521
  311MPD2    H5 4738   3.194   2.089  13.110  0.1234  0.1889 -0.3611
  311MPD2    N1 4739   3.679   2.031  13.170  0.3356 -0.0784 -0.0550
  311MPD2    H7 4740   3.663   2.122  13.127 -0.5805  0.2219  0.9264
  312TMC3    C1 4741   2.977   2.025  13.123  1.3343  0.1848  0.3598
  312TMC3    C2 4742   2.875   1.988  13.040 -0.0640  0.6885  0.5948
  312TMC3    C3 4743   2.767   2.064  13.044  0.0810 -0.1258 -0.0165
  312TMC3    C4 4744   2.974   2.135  13.198 -0.8096 -0.3636 -0.1904
  312TMC3    C5 4745   2.859   2.208  13.211 -0.3182  0.5140  0.4749
  312TMC3    C6 4746   2.752   2.169  13.135  0.1729  0.8031  0.6596
  312TMC3     C 4747   3.086   1.929  13.131 -0.2279  0.5352  0.6926
  312TMC3     O 4748   3.062   1.810  13.106 -0.6843 -0.8206  0.3940
  312TMC3     H 4749   2.888   1.910  12.965  3.2899  2.1044 -0.2914
  312TMC3    H1 4750   3.065   2.157  13.253 -0.7262  0.3463 -0.6134
  312TMC3    H2 4751   2.658   2.223  13.138  0.3618  1.0374  2.5521
  312TMC3    C7 4752   2.843   2.286  13.332  0.8783  0.4450 -0.6680
  312TMC3    C8 4753   2.653   2.013  12.983  0.3334  0.2005  0.6877
  312TMC3    O1 4754   2.753   2.370  13.329  0.1671  0.4843 -0.0472
  312TMC3    O2 4755   2.644   1.893  12.970  0.1920 -0.5337 -0.0922
  313MPD2     C 4756   2.541   0.786  10.691 -0.7572  0.3487  0.0714
  313MPD2    C1 4757   2.590   0.895  10.624 -0.0775  0.0977  0.4413
  313MPD2    C2 4758   2.636   0.879  10.498 -0.1380  0.5054 -0.3116
  313MPD2    C3 4759   2.639   0.760  10.430  0.1761 -0.6418 -0.2458
  313MPD2    C4 4760   2.594   0.649  10.497  0.1266 -0.0705  0.2863
  313MPD2    C5 4761   2.560   0.662  10.632 -0.3003  0.0263 -0.1749
  313MPD2     H 4762   2.671   0.965  10.442  3.1759 -0.0803  0.8126
  313MPD2    H1 4763   2.601   0.552  10.450 -1.2341 -0.6764  1.3293
  313MPD2    H2 4764   2.509   0.794  10.795 -0.0289 -0.1366  0.3301
  313MPD2    H3 4765   2.516   0.577  10.682  1.6712 -1.0740 -0.3245
  313MPD2     N 4766   2.654   0.764  10.289  0.3116  0.2441 -0.0575
  313MPD2    H5 4767   2.684   0.855  10.257  1.0133 -0.2976 -0.9534
  313MPD2    N1 4768   2.597   1.029  10.672  0.2193  0.0763 -0.7191
  313MPD2    H7 4769   2.643   1.103  10.620  3.1116 -2.2535 -1.4899
  314TMC3    C1 4770   2.561   1.210  10.819 -0.3173 -0.1279  0.6553
  314TMC3    C2 4771   2.641   1.260  10.918  0.8988  0.2027 -0.3663
  314TMC3    C3 4772   2.676   1.390  10.905 -0.2966  0.2331 -0.2444
  314TMC3    C4 4773   2.518   1.284  10.712 -0.1602  0.3022 -0.4779
  314TMC3    C5 4774   2.544   1.418  10.711  0.4248 -0.5590  0.3789
  314TMC3    C6 4775   2.624   1.468  10.806 -0.7886  0.5798  0.7299
  314TMC3     C 4776   2.555   1.067  10.801 -0.5700 -0.4048 -1.0907
  314TMC3     O 4777   2.528   1.000  10.901  0.3997 -0.0227  0.8035
  314TMC3     H 4778   2.685   1.193  10.991 -0.9293  1.0975  1.5519
  314TMC3    H1 4779   2.450   1.247  10.636 -0.9259  2.8581 -1.0389
  314TMC3    H2 4780   2.644   1.574  10.818  0.5174  0.5145 -0.8540
  314TMC3    C7 4781   2.486   1.509  10.606  0.3887 -0.6159  0.0217
  314TMC3    C8 4782   2.788   1.442  10.979 -0.8408 -0.0371  0.3357
  314TMC3    O1 4783   2.368   1.498  10.571 -0.0836  0.3668  0.0504
  314TMC3    O2 4784   2.798   1.562  11.006  0.2947  0.4916  0.2490
  315MPD2     C 4785   2.536   4.328  17.719 -0.0973 -0.2799 -0.2627
  315MPD2    C1 4786   2.577   4.315   0.109 -0.3464  0.1244  0.4799
  315MPD2    C2 4787   2.648   4.414   0.169  0.6014 -0.4682 -0.5124
  315MPD2    C3 4788   2.667   4.539   0.104  0.2535  0.4808 -0.1900
  315MPD2    C4 4789   2.626   4.554  17.716  1.4336 -0.4737  0.5160
  315MPD2    C5 4790   2.571   4.445  17.655  0.2257 -0.0457  0.3670
  315MPD2     H 4791   2.671   4.413   0.275 -0.7625  0.0845 -0.2080
  315MPD2    H1 4792   2.646   4.639  17.653 -0.0082  1.9690  3.3425
  315MPD2    H2 4793   2.475   4.255  17.668  1.1272 -0.6031 -1.2850
  315MPD2    H3 4794   2.550   4.455  17.549  0.5053 -0.2900  0.2893
  315MPD2     N 4795   2.723   4.650   0.178 -0.3950  0.0672 -0.6102
  315MPD2    H5 4796   2.764   4.635   0.270  0.6139 -1.2902 -1.2854
  315MPD2    N1 4797   2.549   4.207   0.194  0.3722  0.7969  0.2357
  315MPD2    H7 4798   2.609   4.211   0.276 -0.2815 -0.6687  0.7839
  316TMC3    C1 4799   2.800   0.125   0.230 -0.3862  1.0354  0.6632
  316TMC3    C2 4800   2.895   0.067   0.309 -0.0437 -0.5053 -0.6578
  316TMC3    C3 4801   2.962   0.149   0.397 -0.5292 -0.6880 -0.2763
  316TMC3    C4 4802   2.771   0.258   0.230 -0.3154 -0.1131  0.2478
  316TMC3    C5 4803   2.841   0.329   0.317 -0.3189 -0.1565  0.1453
  316TMC3    C6 4804   2.933   0.278   0.401 -0.2697  0.2218 -0.5273
  316TMC3     C 4805   2.747   0.040   0.128 -0.3836 -0.0803  0.0279
  316TMC3     O 4806   2.704   0.095   0.028 -0.4287  0.2079 -0.3334
  316TMC3     H 4807   2.905   4.695   0.316 -0.8177 -0.4851  0.8354
  316TMC3    H1 4808   2.686   0.296   0.175  0.1149  1.2214  0.5008
  316TMC3    H2 4809   2.989   0.344   0.467  0.7867  2.2906 -3.4694
  316TMC3    C7 4810   2.792   0.458   0.361  0.2721 -0.0094  0.0602
  316TMC3    C8 4811   3.078   0.104   0.473 -0.1684 -0.5790  0.3382
  316TMC3    O1 4812   2.818   0.485   0.479  1.1271  0.1607  0.7793
  316TMC3    O2 4813   3.138   0.188   0.544  0.9199 -0.2176  0.5700
  317MPD2     C 4814   4.605   4.135  13.193 -0.6443 -0.8211  0.1081
  317MPD2    C1 4815   4.663   4.026  13.138 -0.0335 -0.0994 -0.7887
  317MPD2    C2 4816   0.018   3.953  13.217 -0.1124 -0.1593  0.9089
  317MPD2    C3 4817   0.040   3.982  13.360 -0.9805  0.2680 -0.4554
  317MPD2    C4 4818   4.707   4.098  13.406 -0.2151  0.4508 -0.2139
  317MPD2    C5 4819   4.639   4.184  13.321 -0.6347  0.4029  0.1575
  317MPD2     H 4820   0.062   3.860  13.184  2.6385  0.6860  2.1683
  317MPD2    H1 4821   4.715   4.134  13.508  0.2751 -0.7932  0.1950
  317MPD2    H2 4822   4.539   4.196  13.132  1.9525  0.9939 -0.9023
  317MPD2    H3 4823   4.599   4.278  13.358 -2.1982 -0.9652  1.9202
  317MPD2     N 4824   0.117   3.883  13.433 -0.3197 -0.1567 -0.3034
  317MPD2    H5 4825   0.140   3.796  13.386  1.3789  1.5351 -2.6434
  317MPD2    N1 4826   4.650   3.977  13.005  0.4382  0.1943 -0.2304
  317MPD2    H7 4827   4.697   3.891  12.979  1.8241  1.2969 -1.3633
  318TMC3    C1 4828   0.166   3.751  13.616 -0.1943 -0.8019 -0.5911
  318TMC3    C2 4829   0.101   3.643  13.572 -0.1518 -0.5177 -0.4455
  318TMC3    C3 4830   0.149   3.517  13.614 -0.6627 -0.0903  0.2419
  318TMC3    C4 4831   0.278   3.741  13.696  0.5006 -0.0739  0.9064
  318TMC3    C5 4832   0.324   3.616  13.733 -0.8128 -0.2916 -0.5503
  318TMC3    C6 4833   0.257   3.506  13.696 -0.3711  0.0588 -0.1817
  318TMC3     C 4834   0.139   3.881  13.564 -0.4807 -0.7939 -0.1768
  318TMC3     O 4835   0.105   3.967  13.644  0.9305  0.1420 -0.0419
  318TMC3     H 4836   0.010   3.652  13.513  1.1781  1.3084 -2.2251
  318TMC3    H1 4837   0.335   3.829  13.723  1.7211 -0.5807 -0.0428
  318TMC3    H2 4838   0.286   3.406  13.725 -0.3136  0.1327  0.0208
  318TMC3    C7 4839   0.437   3.620  13.820 -0.2855 -0.8739  1.0243
  318TMC3    C8 4840   0.119   3.404  13.525 -0.1392  0.8847  0.3237
  318TMC3    O1 4841   0.463   3.725  13.877  0.3838  0.3671  0.2162
  318TMC3    O2 4842   0.207   3.315  13.538  0.1462 -0.4094  0.4605
  319MPD2     C 4843   1.358   4.710  16.077  0.0402  0.3941  0.3001
  319MPD2    C1 4844   1.346   4.658  16.202 -0.6187  0.4145  0.0235
  319MPD2    C2 4845   1.232   4.582  16.238 -0.2142 -0.1603  0.0088
  319MPD2    C3 4846   1.136   4.564  16.142  0.3027  1.0467  0.1217
  319MPD2    C4 4847   1.155   4.601  16.013 -0.5562 -0.2753  0.9833
  319MPD2    C5 4848   1.266   4.673  15.983 -0.0624 -0.8268 -0.1318
  319MPD2     H 4849   1.223   4.547  16.340 -3.0699  0.1330 -0.1602
  319MPD2    H1 4850   1.079   4.578  15.938 -0.5069 -1.2392  1.2387
  319MPD2    H2 4851   1.438   0.041  16.051 -0.5491  1.2543  0.7040
  319MPD2    H3 4852   1.280   4.709  15.881 -1.3577 -0.4565 -0.1895
  319MPD2     N 4853   1.016   4.509  16.164  0.0329 -0.0900 -0.7218
  319MPD2    H5 4854   0.952   4.505  16.085 -1.5591  0.7807  0.5171
  319MPD2    N1 4855   1.452   4.672  16.302 -0.0884  0.2537  0.8901
  319MPD2    H7 4856   1.437   4.628  16.392 -0.4105  2.3740  1.8788
  320TMC3    C1 4857   0.815   4.463  16.275  0.0681  0.5646  0.2854
  320TMC3    C2 4858   0.752   4.546  16.183 -0.1285  0.1480  0.2790
  320TMC3    C3 4859   0.622   4.570  16.217  0.0320  0.5237 -0.5111
  320TMC3    C4 4860   0.753   4.407  16.375  0.3135  0.4192  0.1659
  320TMC3    C5 4861   0.619   4.432  16.408  0.3653 -0.5798 -0.2651
  320TMC3    C6 4862   0.551   4.515  16.321 -0.0915 -0.8027  0.1949
  320TMC3     C 4863   0.960   4.487  16.286 -0.1098  0.6108 -0.4076
  320TMC3     O 4864   1.002   4.513  16.399  0.4018 -0.1313  1.0108
  320TMC3     H 4865   0.791   4.607  16.103  0.9190 -1.8640 -0.7454
  320TMC3    H1 4866   0.808   4.341  16.441 -1.8321 -1.2874  0.2354
  320TMC3    H2 4867   0.446   4.534  16.337 -0.4507 -0.3128 -2.6218
  320TMC3    C7 4868   0.551   4.311  16.465 -0.4151  0.9797 -0.0943
  320TMC3    C8 4869   0.526   4.635  16.126 -0.4370  0.3372 -0.4527
  320TMC3    O1 4870   0.623   4.215  16.500 -0.3275 -0.7296 -0.0766
  320TMC3    O2 4871   0.415   4.656  16.167 -0.4824 -0.0149  0.0991
  321TMC3    C1 4872   1.655   0.008  16.404 -0.6477 -0.0882  1.0209
  321TMC3    C2 4873   1.783   4.731  16.379 -0.9882 -0.3977  0.7121
  321TMC3    C3 4874   1.874   0.026  16.481 -0.1842 -1.0471  0.0752
  321TMC3    C4 4875   1.599   0.037  16.529  0.0030 -0.3009  0.0870
  321TMC3    C5 4876   1.684   0.071  16.628  0.2965 -0.4079 -0.0672
  321TMC3    C6 4877   1.827   0.071  16.602  0.3029 -0.7847 -0.5457
  321TMC3     C 4878   1.571   0.004  16.282 -0.5447 -0.6430  0.1509
  321TMC3     O 4879   1.616   0.044  16.174  0.1850  0.0905  0.0876
  321TMC3     H 4880   1.823   4.698  16.284 -1.6189  1.8336 -0.3349
  321TMC3    H1 4881   1.491   0.046  16.539  0.1093 -0.0104  0.9814
  321TMC3    H2 4882   1.890   0.095  16.686 -0.8688  1.4401 -0.3030
  321TMC3    C7 4883   1.664   0.009  16.753  0.0770 -0.9972 -0.6608
  321TMC3    C8 4884   1.963   4.647  16.499  0.2101 -0.4634 -0.3140
  321TMC3    O1 4885   1.759   4.685  16.802 -0.3253  0.2650 -0.5457
  321TMC3    O2 4886   2.012   4.597  16.399 -0.0798  0.1589 -0.4078
  322MPD2     C 4887   4.307   1.391  14.075 -0.1754  0.6615  0.8260
  322MPD2    C1 4888   4.407   1.344  14.154  0.3862 -0.0961 -0.2304
  322MPD2    C2 4889   4.457   1.216  14.133 -0.0969  0.1065  0.2216
  322MPD2    C3 4890   4.427   1.151  14.012 -0.5207 -0.6150  0.5454
  322MPD2    C4 4891   4.323   1.202  13.933  0.5349 -0.1902  0.2739
  322MPD2    C5 4892   4.259   1.316  13.969  0.1654 -0.0373 -1.3306
  322MPD2     H 4893   4.545   1.181  14.185  0.7318  1.6180 -0.1550
  322MPD2    H1 4894   4.297   1.155  13.839 -0.2840 -0.7686  0.7832
  322MPD2    H2 4895   4.256   1.484  14.096 -2.5958 -0.0546 -1.9971
  322MPD2    H3 4896   4.178   1.346  13.904 -1.3527  0.6304  0.8743
  322MPD2     N 4897   4.505   1.044  13.969 -0.5465  0.4777 -0.0700
  322MPD2    H5 4898   4.563   0.997  14.039  0.0768  0.0552 -0.8604
  322MPD2    N1 4899   4.452   1.438  14.251  0.1572  0.2609  0.6010
  322MPD2    H7 4900   4.445   1.537  14.231 -0.2430  0.2673  0.7598
  323TMC3    C1 4901   4.603   1.511  14.413  0.6226 -0.6844 -0.9690
  323TMC3    C2 4902   4.668   1.579  14.316  0.1030 -0.5529 -0.1007
  323TMC3    C3 4903   0.063   1.608  14.341  0.8752  0.2199  0.2840
  323TMC3    C4 4904   4.660   1.488  14.535 -0.9635 -0.2148 -0.1551
  323TMC3    C5 4905   0.053   1.522  14.553 -0.3262  0.0774 -0.5048
  323TMC3    C6 4906   0.128   1.578  14.460 -0.0123  0.2427  0.7614
  323TMC3     C 4907   4.529   1.397  14.358  0.5555  0.2341  0.0687
  323TMC3     O 4908   4.543   1.288  14.413 -0.2085 -0.2330  0.0540
  323TMC3     H 4909   4.641   1.584  14.211  2.4538 -1.0419 -0.7323
  323TMC3    H1 4910   4.601   1.432  14.607  1.2711 -1.1261  0.9793
  323TMC3    H2 4911   0.222   1.627  14.479 -0.6940  1.4722  0.9539
  323TMC3    C7 4912   0.119   1.457  14.666 -0.6414 -1.0521 -0.5390
  323TMC3    C8 4913   0.132   1.688  14.247  0.8441  0.0495  0.1546
  323TMC3    O1 4914   0.053   1.447  14.769 -0.3885 -0.0513 -0.4950
  323TMC3    O2 4915   0.248   1.664  14.216  0.3685 -0.1226 -0.2484
  324MPD2     C 4916   1.522   2.010  14.446  0.2521  0.3690 -0.1668
  324MPD2    C1 4917   1.555   2.143  14.421 -0.1739 -0.0071 -0.2591
  324MPD2    C2 4918   1.468   2.242  14.453 -0.0260  0.1111 -1.0467
  324MPD2    C3 4919   1.349   2.202  14.512  0.0446  0.7288 -0.3015
  324MPD2    C4 4920   1.311   2.074  14.540 -0.7271  0.3572  0.2055
  324MPD2    C5 4921   1.403   1.976  14.507 -0.2177  0.2469  0.1670
  324MPD2     H 4922   1.480   2.345  14.422 -3.7726  0.2658 -1.9926
  324MPD2    H1 4923   1.215   2.043  14.581 -0.9776  1.8367  0.7424
  324MPD2    H2 4924   1.578   1.921  14.418 -0.3646  0.2833 -1.1116
  324MPD2    H3 4925   1.372   1.875  14.532  2.8277 -0.7162 -0.0378
  324MPD2     N 4926   1.250   2.297  14.555 -0.2687  0.3564 -0.0066
  324MPD2    H5 4927   1.181   2.251  14.613 -0.1266 -1.5050 -1.3084
  324MPD2    N1 4928   1.676   2.186  14.364 -0.6458 -0.7807 -0.5760
  324MPD2    H7 4929   1.689   2.285  14.346 -1.2381 -0.9841 -2.0660
  325TMC3    C1 4930   1.145   2.507  14.612 -0.1327  0.1719  0.4649
  325TMC3    C2 4931   1.033   2.438  14.646 -0.1780 -0.6100  0.7191
  325TMC3    C3 4932   0.913   2.506  14.658 -0.1845  0.0154  0.7648
  325TMC3    C4 4933   1.138   2.640  14.577  0.1377  0.0469  0.0231
  325TMC3    C5 4934   1.017   2.704  14.580  0.2384  0.4901 -0.0065
  325TMC3    C6 4935   0.900   2.636  14.619  0.1363  0.0506  0.6040
  325TMC3     C 4936   1.255   2.436  14.541 -0.3331 -0.5520 -0.1749
  325TMC3     O 4937   1.330   2.507  14.475  0.1150  0.0787 -0.0635
  325TMC3     H 4938   1.034   2.334  14.674  0.8249 -1.0177 -0.8140
  325TMC3    H1 4939   1.221   2.691  14.531 -1.1957 -0.2884 -2.7720
  325TMC3    H2 4940   0.806   2.688  14.612  0.0555 -0.4098 -1.7864
  325TMC3    C7 4941   1.012   2.848  14.540  0.5124  0.3645  0.4753
  325TMC3    C8 4942   0.801   2.432  14.687  0.8337  0.3032 -0.8918
  325TMC3    O1 4943   1.121   2.888  14.497 -0.2643 -0.0260 -0.2166
  325TMC3    O2 4944   0.809   2.310  14.666 -0.3328 -0.2455 -0.5306
  326MPD2     C 4945   2.517   3.779  11.610  0.8741  0.6535 -0.9074
  326MPD2    C1 4946   2.569   3.708  11.503  0.4087 -0.7447 -1.0543
  326MPD2    C2 4947   2.713   3.702  11.484  0.4867  0.3092  0.6408
  326MPD2    C3 4948   2.800   3.776  11.564 -0.6708  0.0349  0.2006
  326MPD2    C4 4949   2.740   3.834  11.674  0.3875  0.3017 -0.8476
  326MPD2    C5 4950   2.602   3.838  11.698  0.0023  0.0079  0.3019
  326MPD2     H 4951   2.730   3.644  11.394 -1.8988  2.6219 -1.3342
  326MPD2    H1 4952   2.796   3.897  11.744  0.8952 -1.2705  0.1610
  326MPD2    H2 4953   2.412   3.791  11.633  1.0238  0.6140 -0.2276
  326MPD2    H3 4954   2.559   3.902  11.774 -0.6962  0.7193 -0.7078
  326MPD2     N 4955   2.940   3.796  11.536 -0.3354  0.2624  0.7662
  326MPD2    H5 4956   3.004   3.846  11.597 -0.1151  0.7704  0.1248
  326MPD2    N1 4957   2.493   3.655  11.401  0.0737  0.6250 -0.1403
  326MPD2    H7 4958   2.536   3.623  11.316 -1.2929 -0.5684 -0.3926
  327TMC3    C1 4959   2.309   3.583  11.283 -0.2565 -0.0762  0.2791
  327TMC3    C2 4960   2.190   3.630  11.232 -0.0783 -0.1878 -0.0301
  327TMC3    C3 4961   2.128   3.551  11.141 -0.9182  0.1242  0.0669
  327TMC3    C4 4962   2.372   3.468  11.251  0.0529  0.0978 -0.4310
  327TMC3    C5 4963   2.314   3.402  11.147  0.7666  0.1528 -0.0464
  327TMC3    C6 4964   2.193   3.435  11.093  0.4231  0.6053  0.3152
  327TMC3     C 4965   2.355   3.653  11.404 -0.7198 -0.7759 -0.3040
  327TMC3     O 4966   2.270   3.688  11.486  0.0063  0.6514 -0.3460
  327TMC3     H 4967   2.148   3.725  11.264  0.3859 -0.4510  1.3518
  327TMC3    H1 4968   2.452   3.426  11.310 -2.1404 -1.8674  1.1500
  327TMC3    H2 4969   2.153   3.379  11.009  1.4754 -0.3219  0.4296
  327TMC3    C7 4970   2.393   3.292  11.088 -0.1591 -0.0692 -0.0134
  327TMC3    C8 4971   2.058   3.620  11.041 -0.1453  0.1447 -0.2642
  327TMC3    O1 4972   2.324   3.196  11.062 -0.6075  0.0234 -0.4041
  327TMC3    O2 4973   2.082   3.737  11.032 -0.8066 -0.2971 -0.1085
  328MPD2     C 4974   0.059   2.401  17.188  0.4251  1.0280 -0.0939
  328MPD2    C1 4975   0.034   2.536  17.220  0.6612  0.5151  0.0067
  328MPD2    C2 4976   4.684   2.611  17.140  0.2865 -0.0198  0.2595
  328MPD2    C3 4977   4.605   2.553  17.044  0.2381 -0.7442  0.2573
  328MPD2    C4 4978   4.633   2.424  17.007  0.0997  0.3430  0.5106
  328MPD2    C5 4979   4.721   2.350  17.084 -0.1861  0.5936  0.3528
  328MPD2     H 4980   4.673   2.715  17.165 -0.6181 -0.1746  0.5095
  328MPD2    H1 4981   4.584   2.377  16.923  0.1883 -0.5211  0.9482
  328MPD2    H2 4982   0.133   2.344  17.244  0.8751  0.7828 -0.9419
  328MPD2    H3 4983   0.008   2.248  17.055  1.1784  0.5589  1.5747
  328MPD2     N 4984   4.522   2.633  16.965 -0.1369  0.3810 -0.1258
  328MPD2    H5 4985   4.460   2.580  16.905 -0.5285  1.7877 -0.9419
  328MPD2    N1 4986   0.107   2.594  17.327 -0.1742  0.2983 -0.4749
  328MPD2    H7 4987   0.178   2.538  17.372 -0.9465 -0.3111 -0.0275
  329TMC3    C1 4988   0.174   2.734  17.503  0.0972 -0.5685 -0.4936
  329TMC3    C2 4989   0.190   2.867  17.524  0.2908  0.2358  0.9918
  329TMC3    C3 4990   0.172   2.916  17.648  0.2698  0.1836  0.2680
  329TMC3    C4 4991   0.137   2.646  17.601 -0.1755 -0.1505  0.5086
  329TMC3    C5 4992   0.111   2.701  17.725 -0.6076  0.1481 -0.4971
  329TMC3    C6 4993   0.122   2.835   0.010 -0.1107  0.3775  0.2581
  329TMC3     C 4994   0.087   2.716  17.387  0.4945  0.3253 -0.7199
  329TMC3     O 4995   4.717   2.778  17.389  0.0971  0.3834  0.2622
  329TMC3     H 4996   0.209   2.937  17.444  1.2318  1.7417  2.5236
  329TMC3    H1 4997   0.113   2.542  17.585  2.0382 -0.7993  1.3529
  329TMC3    H2 4998   0.118   2.873   0.112  0.7815  0.2374  0.3520
  329TMC3    C7 4999   0.053   2.614   0.083 -0.5439  0.6493  0.5789
  329TMC3    C8 5000   0.159   3.056  17.654  0.0313 -0.2379 -0.5577
  329TMC3    O1 5001   0.055   2.493   0.063 -0.2918  0.6326 -0.1434
  329TMC3    O2 5002   0.232   3.123  17.585  0.6736 -0.2569  0.3606
  330TMC3    C1 5003   2.880   3.386   9.633 -0.9073 -0.4618  0.1898
  330TMC3    C2 5004   2.914   3.290   9.544  0.1348 -0.0189  0.8024
  330TMC3    C3 5005   2.968   3.174   9.589  0.2808 -0.2407  0.3929
  330TMC3    C4 5006   2.908   3.371   9.768 -0.0329 -0.1421  0.2259
  330TMC3    C5 5007   2.989   3.266   9.803 -0.4519  0.4927  0.3130
  330TMC3    C6 5008   3.006   3.159   9.722  0.0384 -0.4410 -0.5371
  330TMC3     C 5009   2.761   3.459   9.607  0.2416  0.3216 -0.3617
  330TMC3     O 5010   2.732   3.559   9.672  0.4354  0.0773 -0.1714
  330TMC3     H 5011   2.896   3.298   9.437 -0.1118  0.8934  0.9134
  330TMC3    H1 5012   2.881   3.447   9.841  0.1849 -0.0458  0.2082
  330TMC3    H2 5013   3.063   3.071   9.747  1.0650 -0.3540 -2.5472
  330TMC3    C7 5014   3.067   3.283   9.921  0.2247 -0.0687 -0.6454
  330TMC3    C8 5015   2.918   3.059   9.516  0.1749 -0.3116 -0.3234
  330TMC3    O1 5016   3.079   3.397   9.959 -0.4328 -0.3248 -0.9681
  330TMC3    O2 5017   2.887   3.080   9.401  0.2969 -0.4741  0.0182
  331MPD2     C 5018   0.391   1.827  13.123 -0.6146  0.6190 -0.1864
  331MPD2    C1 5019   0.483   1.897  13.050  0.1228  0.1675  0.1802
  331MPD2    C2 5020   0.563   1.839  12.955 -0.1789  0.4044  0.1723
  331MPD2    C3 5021   0.557   1.704  12.936  0.3957  0.8153 -1.4580
  331MPD2    C4 5022   0.464   1.626  13.004 -0.3633  0.1960  0.0050
  331MPD2    C5 5023   0.383   1.689  13.097 -0.0077 -0.2967  1.5671
  331MPD2     H 5024   0.636   1.898  12.901  1.2231 -1.6360 -0.1665
  331MPD2    H1 5025   0.457   1.518  12.993 -0.7667  0.1020  1.2322
  331MPD2    H2 5026   0.336   1.877  13.201 -0.0728 -1.8217  1.7440
  331MPD2    H3 5027   0.325   1.626  13.164 -1.0467 -1.9349 -0.8924
  331MPD2     N 5028   0.656   1.649  12.848 -0.3314 -0.1322 -0.8829
  331MPD2    H5 5029   0.726   1.708  12.806  1.1236 -1.1455  0.1306
  331MPD2    N1 5030   0.491   2.030  13.091  0.1788  0.1167  0.2436
  331MPD2    H7 5031   0.425   2.061  13.162  0.4990  0.2061  0.4989
  332TMC3    C1 5032   0.793   1.504  12.739  0.2528 -0.5677 -0.2613
  332TMC3    C2 5033   0.824   1.605  12.655 -0.5112 -0.4532  0.6024
  332TMC3    C3 5034   0.953   1.626  12.629 -0.0782  0.8853  0.2244
  332TMC3    C4 5035   0.884   1.410  12.790 -0.3364 -0.1116  0.4651
  332TMC3    C5 5036   1.020   1.443  12.765 -0.5001 -0.0092 -0.0231
  332TMC3    C6 5037   1.056   1.541  12.681 -0.4873 -0.2049  0.0672
  332TMC3     C 5038   0.681   1.516  12.824 -0.2050  0.9598  0.4913
  332TMC3     O 5039   0.636   1.415  12.879  0.8506 -0.0068  0.5343
  332TMC3     H 5040   0.744   1.671  12.625 -0.4677  0.1071  1.7395
  332TMC3    H1 5041   0.857   1.340  12.869 -0.3861 -1.2873 -0.5842
  332TMC3    H2 5042   1.151   1.569  12.637 -0.6916  0.1055 -0.1794
  332TMC3    C7 5043   1.115   1.351  12.803  0.1324 -0.3318  0.1561
  332TMC3    C8 5044   1.011   1.745  12.561  0.2856 -0.2671 -0.0361
  332TMC3    O1 5045   1.070   1.250  12.856 -0.1243  0.6684  0.2563
  332TMC3    O2 5046   1.116   1.787  12.604  0.2240  0.1063 -0.1187
  333MPD2     C 5047   0.928   1.985  11.608  0.0103 -0.7849  0.0174
  333MPD2    C1 5048   0.991   1.888  11.534  0.3979  0.0129  0.1387
  333MPD2    C2 5049   0.951   1.758  11.549 -0.1989 -0.2401 -0.3475
  333MPD2    C3 5050   0.856   1.724  11.641  0.0563 -0.1683 -0.4760
  333MPD2    C4 5051   0.796   1.822  11.717 -0.2307  0.2339 -0.1339
  333MPD2    C5 5052   0.834   1.952  11.704 -0.2817  0.9235  0.1519
  333MPD2     H 5053   0.994   1.680  11.486  2.1746  0.8571 -0.1197
  333MPD2    H1 5054   0.712   1.808  11.784 -1.7191  1.5763 -1.7332
  333MPD2    H2 5055   0.947   2.091  11.594  0.9899 -0.9962 -0.2126
  333MPD2    H3 5056   0.787   2.028  11.766  1.3363  1.5523  0.6004
  333MPD2     N 5057   0.809   1.586  11.646 -0.2168  0.4870  0.0986
  333MPD2    H5 5058   0.852   1.527  11.575  0.4680  2.4448 -1.0994
  333MPD2    N1 5059   1.094   1.929  11.444  0.0198 -0.1739  0.2419
  333MPD2    H7 5060   1.136   2.019  11.464  1.6325 -1.0145  0.6410
  334TMC3    C1 5061   1.242   1.945  11.266  0.1272  0.8590  0.8193
  334TMC3    C2 5062   1.349   1.884  11.213 -0.2348 -1.1475 -0.1118
  334TMC3    C3 5063   1.437   1.964  11.136  0.5642  0.3914 -0.0205
  334TMC3    C4 5064   1.213   2.080  11.251  0.5689  0.5526  0.0529
  334TMC3    C5 5065   1.299   2.152  11.170 -0.3600  0.2785 -0.6733
  334TMC3    C6 5066   1.415   2.097  11.115  0.4205 -0.4098 -0.1041
  334TMC3     C 5067   1.154   1.860  11.344 -0.1670  0.5337  0.1016
  334TMC3     O 5068   1.142   1.742  11.302 -0.4478 -0.4696 -0.5542
  334TMC3     H 5069   1.376   1.782  11.236  0.5124 -1.2520 -1.4199
  334TMC3    H1 5070   1.109   2.107  11.263  0.7938  1.6653 -0.5246
  334TMC3    H2 5071   1.472   2.156  11.045 -0.9156 -1.8762 -2.4085
  334TMC3    C7 5072   1.288   2.298  11.180  0.5942 -0.9744 -0.3581
  334TMC3    C8 5073   1.564   1.905  11.084 -0.1038 -0.0499 -0.6234
  334TMC3    O1 5074   1.368   2.366  11.118 -0.1717  0.0991 -0.2297
  334TMC3    O2 5075   1.547   1.784  11.083  0.0955 -0.1192 -0.0472
  335TMC3    C1 5076   1.082   2.507  17.695 -0.5932 -0.3477 -0.4089
  335TMC3    C2 5077   0.978   2.518  17.603  0.1147 -0.2554  0.3850
  335TMC3    C3 5078   1.019   2.501  17.470  0.3590 -0.0232  0.8412
  335TMC3    C4 5079   1.211   2.488  17.662 -0.4538  0.1626  0.1545
  335TMC3    C5 5080   1.246   2.483  17.529  0.0067 -0.3404  0.0329
  335TMC3    C6 5081   1.146   2.500  17.434 -0.7895  0.0996  0.1442
  335TMC3     C 5082   1.047   2.505   0.091  0.0872 -0.4176 -0.2069
  335TMC3     O 5083   0.950   2.575   0.115 -0.3425 -0.3155 -0.1861
  335TMC3     H 5084   0.875   2.539  17.627 -0.0851  1.3353 -1.9056
  335TMC3    H1 5085   1.289   2.476  17.736  0.4418  1.6008 -0.5625
  335TMC3    H2 5086   1.170   2.485  17.329  1.2509 -0.2348  0.6441
  335TMC3    C7 5087   1.381   2.469  17.483  0.1663  0.5910  0.1545
  335TMC3    C8 5088   0.918   2.492  17.366 -0.8110  0.2991  0.5236
  335TMC3    O1 5089   1.419   2.520  17.380 -0.0523  0.4495  0.3239
  335TMC3    O2 5090   0.924   2.568  17.273 -0.5084 -0.4593  0.2507
  336MPD2     C 5091   0.595   0.927  16.913 -0.7132  0.0738 -0.2332
  336MPD2    C1 5092   0.526   0.913  16.802 -0.0361 -0.1783 -0.4864
  336MPD2    C2 5093   0.507   0.786  16.740 -0.4266  0.0945  0.4190
  336MPD2    C3 5094   0.545   0.672  16.802 -0.0287  0.3915  0.4867
  336MPD2    C4 5095   0.595   0.690  16.931  0.0054  0.5598 -0.3574
  336MPD2    C5 5096   0.619   0.811  16.988  0.6429  0.4248  0.7801
  336MPD2     H 5097   0.459   0.781  16.643  0.8104  1.1208 -0.2420
  336MPD2    H1 5098   0.632   0.603  16.984 -2.5870 -0.8057 -0.8014
  336MPD2    H2 5099   0.621   1.025  16.951 -1.1033 -0.2718  0.9261
  336MPD2    H3 5100   0.686   0.812  17.073 -0.3267 -0.4325  1.5675
  336MPD2     N 5101   0.521   0.544  16.759 -0.2770  0.2546 -0.3849
  336MPD2    H5 5102   0.555   0.463  16.810  2.5411  2.0637  0.5917
  336MPD2    N1 5103   0.474   1.020  16.736  0.3535 -0.1762 -0.3171
  336MPD2    H7 5104   0.419   1.000  16.653 -2.1494  1.2088  0.9887
  337TMC3    C1 5105   0.374   1.231  16.700  0.8125  0.2354 -0.8173
  337TMC3    C2 5106   0.316   1.184  16.588  0.2917  0.4053 -0.3664
  337TMC3    C3 5107   0.229   1.265  16.524 -0.3951 -0.8546 -0.3167
  337TMC3    C4 5108   0.332   1.344  16.764  0.2783 -0.4992  0.3300
  337TMC3    C5 5109   0.237   1.416  16.699 -0.0623  0.8395  0.1321
  337TMC3    C6 5110   0.189   1.391  16.572 -0.1411  0.7566  0.1718
  337TMC3     C 5111   0.466   1.148  16.779  0.0664 -0.0416 -0.1759
  337TMC3     O 5112   0.511   1.208  16.871  0.5875 -0.6300 -0.5672
  337TMC3     H 5113   0.350   1.103  16.525  1.1263  0.3542  0.1529
  337TMC3    H1 5114   0.338   1.353  16.872  0.0271  0.3034  0.2750
  337TMC3    H2 5115   0.099   1.437  16.532 -0.8967  0.5096  1.6088
  337TMC3    C7 5116   0.178   1.526  16.773 -0.0190  0.3081 -0.2669
  337TMC3    C8 5117   0.121   1.189  16.452  0.3597  0.1924 -0.1510
  337TMC3    O1 5118   0.115   1.607  16.707  0.3833  0.1735  0.6871
  337TMC3    O2 5119   0.130   1.069  16.473 -0.1435 -0.4952 -0.3054
  338MPD2     C 5120   1.044   4.120   1.091 -0.2526  0.8856 -0.3426
  338MPD2    C1 5121   0.975   4.133   0.975  0.5856  1.0468  0.3365
  338MPD2    C2 5122   0.897   4.245   0.946 -0.5015  0.6385  0.5907
  338MPD2    C3 5123   0.880   4.340   1.049 -0.0243  0.5639 -0.5400
  338MPD2    C4 5124   0.937   4.319   1.176  0.3037 -0.1353 -0.4311
  338MPD2    C5 5125   1.021   4.210   1.192 -0.5642 -0.3891 -0.2083
  338MPD2     H 5126   0.857   4.271   0.848  1.9830  1.2546 -0.2512
  338MPD2    H1 5127   0.920   4.392   1.254 -0.1268  1.0755 -1.6560
  338MPD2    H2 5128   1.108   4.039   1.125  1.6201  2.4707 -0.0961
  338MPD2    H3 5129   1.069   4.197   1.288 -1.1908 -1.6662 -0.0727
  338MPD2     N 5130   0.808   4.452   1.017  0.1590 -0.2250  0.1106
  338MPD2    H5 5131   0.756   4.444   0.930 -1.7465 -0.5668  1.2785
  338MPD2    N1 5132   0.997   4.035   0.870 -0.0243 -0.1618  0.2757
  338MPD2    H7 5133   0.951   4.054   0.782  1.3751  0.1857 -0.3796
  339TMC3    C1 5134   0.693   4.655   1.021  0.3366 -0.1685  0.6796
  339TMC3    C2 5135   0.591   4.702   1.089 -0.1184  0.2365 -0.0496
  339TMC3    C3 5136   0.490   0.031   1.025 -0.1581  0.3397 -0.0626
  339TMC3    C4 5137   0.699   4.656   0.886  0.4697  0.0538  0.6531
  339TMC3    C5 5138   0.600   4.720   0.821 -0.0635 -0.4389  0.5740
  339TMC3    C6 5139   0.492   0.040   0.884 -0.1791 -0.0137 -0.0905
  339TMC3     C 5140   0.781   4.560   1.099  0.0402  0.0407  0.1265
  339TMC3     O 5141   0.823   4.596   1.211 -0.2869  0.2242 -0.3646
  339TMC3     H 5142   0.597   4.697   1.197  1.0204  0.5462 -0.0902
  339TMC3    H1 5143   0.786   4.622   0.832  0.9307  0.1433  1.3363
  339TMC3    H2 5144   0.405   0.063   0.824 -0.4129 -2.0195 -0.4918
  339TMC3    C7 5145   0.575   4.698   0.680 -0.0023  1.0288  0.1873
  339TMC3    C8 5146   0.354   0.028   1.077  0.6953  0.2324  0.2219
  339TMC3    O1 5147   0.530   0.057   0.614  0.3632  0.0505 -0.1692
  339TMC3    O2 5148   0.287   0.125   1.078 -0.7904 -0.0603 -0.1280
  340MPD2     C 5149   1.037   3.132  10.285  0.3011 -0.3115 -0.4821
  340MPD2    C1 5150   1.004   3.000  10.273  0.8728 -0.2096  0.0727
  340MPD2    C2 5151   0.946   2.932  10.383 -0.6337  0.1672  0.0563
  340MPD2    C3 5152   0.926   3.003  10.500 -0.3814  0.0597 -0.1118
  340MPD2    C4 5153   0.963   3.131  10.511  0.6393  0.1012  0.1708
  340MPD2    C5 5154   1.023   3.197  10.406 -0.3280  0.6440 -0.5793
  340MPD2     H 5155   0.924   2.826  10.378  0.0212 -0.0678  1.8887
  340MPD2    H1 5156   0.958   3.183  10.606 -2.7338 -2.7467  1.5351
  340MPD2    H2 5157   1.091   3.188  10.210  0.6365  1.2184  0.8844
  340MPD2    H3 5158   1.064   3.295  10.431 -0.1222  0.2861  0.4856
  340MPD2     N 5159   0.857   2.954  10.611 -0.7239  0.4981 -0.0397
  340MPD2    H5 5160   0.866   3.008  10.696 -1.2162  0.4319  0.0529
  340MPD2    N1 5161   1.027   2.921  10.162  0.7689  0.6530 -0.8740
  340MPD2    H7 5162   1.020   2.820  10.176  0.8691  0.9508  1.2637
  341TMC3    C1 5163   1.094   2.850   9.947  0.3739  0.6444  0.6043
  341TMC3    C2 5164   1.025   2.736   9.972 -0.2648 -0.1221 -0.4933
  341TMC3    C3 5165   1.043   2.635   9.884 -0.1903 -0.1776 -0.9252
  341TMC3    C4 5166   1.179   2.877   9.841  0.9007  0.3295  0.5902
  341TMC3    C5 5167   1.194   2.766   9.756  0.2213  0.3762  0.0918
  341TMC3    C6 5168   1.129   2.648   9.773 -0.6347  0.8523 -0.2025
  341TMC3     C 5169   1.063   2.960  10.035 -0.3196 -0.3434 -0.1747
  341TMC3     O 5170   1.089   3.073  10.002 -0.0252  0.1893  0.1269
  341TMC3     H 5171   0.964   2.714  10.060  1.6473  0.0004  0.8492
  341TMC3    H1 5172   1.240   2.966   9.844  2.3506 -0.5546 -2.4163
  341TMC3    H2 5173   1.137   2.564   9.705 -1.4276 -0.1007  0.8723
  341TMC3    C7 5174   1.329   2.748   9.699 -0.6967 -0.1881 -0.3327
  341TMC3    C8 5175   0.994   2.497   9.893 -0.0889  0.2511  0.6386
  341TMC3    O1 5176   1.389   2.642   9.711 -0.0744  0.1181 -0.2294
  341TMC3    O2 5177   1.016   2.418   9.799 -0.0495 -0.2208 -0.0724
  342MPD2     C 5178   3.247   0.951  17.589 -0.8505 -0.9065  0.4480
  342MPD2    C1 5179   3.311   0.898  17.698  1.1015 -0.1710 -0.2765
  342MPD2    C2 5180   3.370   0.983   0.042 -0.8412  0.3589 -0.2833
  342MPD2    C3 5181   3.365   1.122   0.022  0.4809 -0.6613 -0.2731
  342MPD2    C4 5182   3.288   1.171  17.661 -0.8850  0.7492 -0.0576
  342MPD2    C5 5183   3.241   1.087  17.566  0.4648 -0.2348 -0.5535
  342MPD2     H 5184   3.426   0.952   0.130 -0.2487  0.4168 -0.6422
  342MPD2    H1 5185   3.246   1.271  17.663 -1.8425  0.4227 -3.7430
  342MPD2    H2 5186   3.210   0.885  17.510 -2.1719  0.0767  0.2341
  342MPD2    H3 5187   3.177   1.113  17.482 -1.1060  0.8396  0.9745
  342MPD2     N 5188   3.410   1.227   0.111 -0.3160  0.5092 -0.3584
  342MPD2    H5 5189   3.378   1.320   0.090 -0.2266  0.7276  0.4815
  342MPD2    N1 5190   3.331   0.755  17.720 -0.9906  0.4053  0.2157
  342MPD2    H7 5191   3.372   0.725   0.067 -0.8992  2.4086  0.8501
  343TMC3    C1 5192   3.358   0.530  17.665  0.1606 -0.2213 -0.1399
  343TMC3    C2 5193   3.462   0.522   0.015 -0.4293  0.0531  0.3598
  343TMC3    C3 5194   3.529   0.407   0.036 -0.0403 -0.2104 -0.1866
  343TMC3    C4 5195   3.330   0.425  17.582  0.5834  0.4538  0.0915
  343TMC3    C5 5196   3.413   0.312  17.585  0.4039  0.1442 -0.6953
  343TMC3    C6 5197   3.510   0.297  17.692 -1.0055 -0.5250 -0.9371
  343TMC3     C 5198   3.298   0.651  17.636 -1.1179  0.2822 -0.5647
  343TMC3     O 5199   3.224   0.649  17.538 -0.2750 -0.4961 -0.0455
  343TMC3     H 5200   3.491   0.611   0.069 -1.7676 -0.5605  2.0811
  343TMC3    H1 5201   3.254   0.421  17.505  1.6408  3.9073 -1.1457
  343TMC3    H2 5202   3.578   0.214  17.708 -3.7076 -2.8566 -1.6059
  343TMC3    C7 5203   3.366   0.193  17.516 -0.7066 -0.1205 -1.0141
  343TMC3    C8 5204   3.666   0.443   0.068  0.3777  0.4760 -0.3079
  343TMC3    O1 5205   3.285   0.216  17.429  0.0960 -0.3264 -0.7511
  343TMC3    O2 5206   3.697   0.521   0.159  0.4402 -0.0486  0.4501
  344MPD2     C 5207   4.268   0.873  11.058  0.1968 -0.1653 -0.5226
  344MPD2    C1 5208   4.242   0.909  10.927 -0.2928 -0.5186  0.8111
  344MPD2    C2 5209   4.303   1.026  10.876 -0.1847 -0.3790  0.1787
  344MPD2    C3 5210   4.386   1.101  10.960  0.0783 -0.2291 -0.3575
  344MPD2    C4 5211   4.397   1.072  11.097 -0.2321 -0.4941 -0.3881
  344MPD2    C5 5212   4.341   0.954  11.143 -0.1411  0.1928  0.3902
  344MPD2     H 5213   4.278   1.052  10.774 -0.4017  1.6922  0.7551
  344MPD2    H1 5214   4.461   1.124  11.168  2.6297 -3.3304 -0.9281
  344MPD2    H2 5215   4.219   0.782  11.091  1.1573  0.0050  1.3400
  344MPD2    H3 5216   4.342   0.920  11.246  0.4913 -0.3155  0.2162
  344MPD2     N 5217   4.460   1.208  10.905  0.2023 -0.2238 -0.1182
  344MPD2    H5 5218   4.494   1.268  10.979 -0.9616 -0.2776  0.4665
  344MPD2    N1 5219   4.148   0.832  10.863 -0.6487 -0.0220  0.3474
  344MPD2    H7 5220   4.116   0.753  10.918 -1.3256 -1.3467 -1.9592
  345TMC3    C1 5221   4.580   1.345  10.751  0.3396  0.2475 -0.2831
  345TMC3    C2 5222   4.676   1.368  10.842 -0.2726  0.1683 -0.2331
  345TMC3    C3 5223   0.031   1.465  10.812  0.0830 -0.0028  0.4395
  345TMC3    C4 5224   4.575   1.404  10.626 -0.2757  0.1325 -0.2665
  345TMC3    C5 5225   4.669   1.502  10.600  0.5845  0.4763 -0.1978
  345TMC3    C6 5226   0.026   1.529  10.692 -0.1821  0.1474 -0.4269
  345TMC3     C 5227   4.477   1.239  10.773  0.2588 -0.3508  0.4365
  345TMC3     O 5228   4.430   1.187  10.677 -0.3113  0.3060 -0.2014
  345TMC3     H 5229   4.672   1.323  10.941 -0.0383  0.8051  0.0665
  345TMC3    H1 5230   4.481   1.392  10.574 -0.6469 -1.2209  0.7261
  345TMC3    H2 5231   0.102   1.598  10.655  0.8059 -0.0006  1.3209
  345TMC3    C7 5232   4.651   1.593  10.480  0.3152 -0.2220  0.5357
  345TMC3    C8 5233   0.117   1.538  10.906  0.1926  0.1329  0.6417
  345TMC3    O1 5234   4.728   1.687  10.463  0.9107 -0.5912 -0.7380
  345TMC3    O2 5235   0.194   1.622  10.862  0.0456 -0.3435 -0.3592
  346MPD2     C 5236   4.413   3.201  14.451  0.9324 -0.0263  0.0415
  346MPD2    C1 5237   4.527   3.212  14.385  0.4971 -0.5374 -0.0487
  346MPD2    C2 5238   4.645   3.244  14.466  0.4746  0.0563  0.1348
  346MPD2    C3 5239   4.635   3.266  14.605 -0.3264 -0.4111 -0.2648
  346MPD2    C4 5240   4.510   3.259  14.657  0.2413 -0.0990 -0.2325
  346MPD2    C5 5241   4.400   3.219  14.588  0.4524 -0.5229  0.3284
  346MPD2     H 5242   0.005   3.245  14.414 -0.3585 -0.7566 -1.4216
  346MPD2    H1 5243   4.500   3.284  14.762  0.3251  0.6440 -0.4004
  346MPD2    H2 5244   4.318   3.182  14.401 -0.1788 -1.5333  2.7324
  346MPD2    H3 5245   4.302   3.218  14.634  0.1898  1.1768 -0.1801
  346MPD2     N 5246   0.001   3.302  14.693 -0.0420  0.0236 -0.1569
  346MPD2    H5 5247   4.717   3.314  14.792 -2.1115  0.9607 -0.6858
  346MPD2    N1 5248   4.544   3.196  14.243 -0.0173 -0.3859 -0.0569
  346MPD2    H7 5249   4.640   3.206  14.211  0.3485  0.1989  1.1971
  347TMC3    C1 5250   0.227   3.327  14.777  0.2025  0.1473  0.6856
  347TMC3    C2 5251   0.357   3.332  14.742 -0.2724 -0.3770 -0.3212
  347TMC3    C3 5252   0.447   3.300  14.844 -1.0923  0.5676  0.2861
  347TMC3    C4 5253   0.178   3.296  14.901 -0.3865 -0.1916  1.0304
  347TMC3    C5 5254   0.270   3.276  14.998  0.0021 -0.2587 -0.2865
  347TMC3    C6 5255   0.403   3.275  14.974 -0.3745 -0.5708 -0.2725
  347TMC3     C 5256   0.135   3.296  14.668 -0.1096  0.0923 -0.4082
  347TMC3     O 5257   0.184   3.272  14.560  0.7236  0.6553 -0.0519
  347TMC3     H 5258   0.392   3.352  14.641 -2.0808  1.4812 -0.5714
  347TMC3    H1 5259   0.075   3.292  14.934 -0.9482 -0.9714 -0.7987
  347TMC3    H2 5260   0.480   3.267  15.050 -1.7519 -1.6660  0.9929
  347TMC3    C7 5261   0.226   3.232  15.126  0.2532  1.2224  0.0051
  347TMC3    C8 5262   0.587   3.257  14.820  0.9043  0.3429  0.2184
  347TMC3    O1 5263   0.107   3.250  15.154  0.5233  0.1284 -0.0375
  347TMC3    O2 5264   0.649   3.190  14.906 -0.5558  0.3198 -0.7490
  348MPD2     C 5265   2.977   2.527  12.395  0.0192  0.6728 -0.1192
  348MPD2    C1 5266   3.096   2.512  12.330  0.6141  0.3303  0.4338
  348MPD2    C2 5267   3.088   2.521  12.195  0.3545 -0.6127 -0.1197
  348MPD2    C3 5268   2.976   2.552  12.121 -0.5452 -0.8679 -0.2825
  348MPD2    C4 5269   2.853   2.552  12.186 -0.1958  0.2426 -0.2179
  348MPD2    C5 5270   2.865   2.546  12.326 -0.0032 -0.2226 -0.1967
  348MPD2     H 5271   3.184   2.522  12.145  0.8144 -3.7172  0.6864
  348MPD2    H1 5272   2.755   2.567  12.144  0.3657  1.0372 -1.2451
  348MPD2    H2 5273   2.967   2.510  12.502 -0.4201 -4.0417 -0.9136
  348MPD2    H3 5274   2.774   2.561  12.384  0.7112  0.0822  0.8301
  348MPD2     N 5275   2.999   2.590  11.990  0.1232 -0.1176 -0.0508
  348MPD2    H5 5276   3.096   2.596  11.960 -0.0734 -3.6559 -1.3818
  348MPD2    N1 5277   3.223   2.488  12.381  0.0709 -0.5391 -0.0431
  348MPD2    H7 5278   3.298   2.476  12.314 -0.3969 -1.0401 -0.4787
  349TMC3    C1 5279   3.401   2.472  12.513  0.8117  0.2485  0.4023
  349TMC3    C2 5280   3.464   2.368  12.576 -0.1968 -0.8974  0.2770
  349TMC3    C3 5281   3.586   2.321  12.539  0.5958  0.6838 -0.6359
  349TMC3    C4 5282   3.475   2.522  12.407  0.6374 -0.2761  0.1773
  349TMC3    C5 5283   3.582   2.452  12.354 -0.2444 -0.4460 -0.2104
  349TMC3    C6 5284   3.644   2.352  12.423 -0.4897 -0.6410 -0.1180
  349TMC3     C 5285   3.255   2.474  12.513  0.5432  1.0663 -0.7731
  349TMC3     O 5286   3.190   2.464  12.612  0.1898 -0.0029  0.4131
  349TMC3     H 5287   3.404   2.310  12.644  1.7910 -1.0465  1.9106
  349TMC3    H1 5288   3.438   2.609  12.354  2.9216  0.1356 -0.7185
  349TMC3    H2 5289   3.719   2.289  12.375  0.9145  0.5549  0.5190
  349TMC3    C7 5290   3.577   2.442  12.209  0.4702  0.1695 -0.1157
  349TMC3    C8 5291   3.653   2.238  12.638 -0.2070 -0.9037 -0.4420
  349TMC3    O1 5292   3.478   2.490  12.159 -0.8594  1.2388  0.0102
  349TMC3    O2 5293   3.588   2.202  12.737 -0.0969 -0.9126  0.0965
  350MPD2     C 5294   1.876   0.795  10.016 -0.4776 -0.0764 -0.2603
  350MPD2    C1 5295   1.923   0.689   9.940  0.3964  0.6573  0.3924
  350MPD2    C2 5296   2.054   0.681   9.906  0.5510  0.0617 -0.4562
  350MPD2    C3 5297   2.145   0.784   9.935  0.7939  0.3333  0.0869
  350MPD2    C4 5298   2.098   0.892   9.999  0.1821 -0.9455  0.1678
  350MPD2    C5 5299   1.963   0.900  10.036 -0.4820 -0.8243 -0.1373
  350MPD2     H 5300   2.087   0.593   9.853  0.6052  0.9219 -1.8482
  350MPD2    H1 5301   2.158   0.973  10.038  1.9963 -1.4619 -1.5520
  350MPD2    H2 5302   1.770   0.807  10.035 -0.4558 -0.3678  0.0333
  350MPD2    H3 5303   1.935   0.994  10.083 -0.7842 -0.2634 -1.4367
  350MPD2     N 5304   2.278   0.773   9.887 -0.1129  0.2558  0.3267
  350MPD2    H5 5305   2.305   0.682   9.850  4.0678  2.4705 -2.0464
  350MPD2    N1 5306   1.839   0.579   9.913  0.1715 -0.1889  0.6569
  350MPD2    H7 5307   1.882   0.494   9.879  1.3964  0.8005 -0.2841
  351TMC3    C1 5308   1.620   0.471   9.876  0.0671  0.0832  0.0542
  351TMC3    C2 5309   1.675   0.348   9.893  0.3512 -0.2377 -0.3111
  351TMC3    C3 5310   1.595   0.235   9.888 -0.5902  0.5487  0.5307
  351TMC3    C4 5311   1.492   0.487   9.838  0.1226  0.6049 -0.0893
  351TMC3    C5 5312   1.409   0.373   9.823 -0.4133 -0.1883 -0.1105
  351TMC3    C6 5313   1.461   0.245   9.843 -0.0430 -0.5523 -0.7259
  351TMC3     C 5314   1.699   0.588   9.908  0.5174 -0.1328 -0.3119
  351TMC3     O 5315   1.632   0.688   9.899 -0.1337  0.2113  0.0528
  351TMC3     H 5316   1.779   0.331   9.917  0.9838  3.3012 -0.5704
  351TMC3    H1 5317   1.456   0.587   9.820 -0.0763  0.4082 -0.7772
  351TMC3    H2 5318   1.410   0.153   9.815  2.1011 -1.9270 -0.1673
  351TMC3    C7 5319   1.268   0.399   9.841  1.0977  0.3622  0.1635
  351TMC3    C8 5320   1.647   0.104   9.903 -0.4091 -0.0585  0.0478
  351TMC3    O1 5321   1.247   0.512   9.890 -0.3070 -0.6520 -0.0004
  351TMC3    O2 5322   1.581   0.011   9.860 -0.8946 -0.1010  0.1870
  352MPD2     C 5323   0.773   1.946   1.089  0.6930 -0.0472 -0.7073
  352MPD2    C1 5324   0.662   1.876   1.041 -0.0842  0.0528 -0.2603
  352MPD2    C2 5325   0.677   1.734   1.019 -0.3911  0.7798  0.3678
  352MPD2    C3 5326   0.803   1.676   1.033  0.0290  0.2933 -0.3141
  352MPD2    C4 5327   0.909   1.746   1.098  0.3218  0.8202 -0.0226
  352MPD2    C5 5328   0.889   1.880   1.126  0.1075  0.0650 -0.4468
  352MPD2     H 5329   0.596   1.671   0.984  0.6691 -0.1743 -0.3344
  352MPD2    H1 5330   1.007   1.703   1.111 -0.1499 -0.8947 -2.0650
  352MPD2    H2 5331   0.771   2.053   1.099 -3.0338 -0.1083 -0.6942
  352MPD2    H3 5332   0.974   1.935   1.163  0.0665  0.1110 -0.4204
  352MPD2     N 5333   0.829   1.548   0.983  0.3515 -0.2382 -0.1862
  352MPD2    H5 5334   0.924   1.518   1.003  0.7359  2.1393  1.5853
  352MPD2    N1 5335   0.538   1.941   1.021  0.2180 -0.1125  0.1938
  352MPD2    H7 5336   0.533   2.041   1.039 -1.1929 -0.4184  1.4931
  353TMC3    C1 5337   0.795   1.341   0.887 -0.6603 -0.5290 -0.9356
  353TMC3    C2 5338   0.872   1.287   0.986  0.6242  0.2100 -0.0232
  353TMC3    C3 5339   0.928   1.164   0.966  0.2421  0.8143 -0.0246
  353TMC3    C4 5340   0.765   1.264   0.780  0.2644  1.0524 -0.7325
  353TMC3    C5 5341   0.828   1.146   0.758  0.4156  0.3376  0.4856
  353TMC3    C6 5342   0.906   1.089   0.855 -1.1758  0.0684 -0.3645
  353TMC3     C 5343   0.740   1.474   0.905  0.2437 -0.2414  0.2499
  353TMC3     O 5344   0.649   1.511   0.832  0.1464  0.1863  0.6332
  353TMC3     H 5345   0.891   1.337   1.080 -0.5785  1.1761 -0.3057
  353TMC3    H1 5346   0.697   1.299   0.704  0.8645  0.6417 -1.4717
  353TMC3    H2 5347   0.922   0.982   0.850  1.0860  0.4995 -2.1959
  353TMC3    C7 5348   0.771   1.047   0.664  0.1594  0.4892 -0.4678
  353TMC3    C8 5349   0.969   1.100   1.088  0.6463  0.5540  0.0468
  353TMC3    O1 5350   0.802   0.933   0.677 -0.8721 -0.5972  0.6048
  353TMC3    O2 5351   0.910   1.122   1.188 -0.3039 -0.0456  0.2114
  354TMC3    C1 5352   2.380   3.769  13.623  0.3783 -1.1871 -0.4125
  354TMC3    C2 5353   2.314   3.886  13.602 -0.6903  0.3758  0.2101
  354TMC3    C3 5354   2.319   3.922  13.469  0.9875 -0.3821  0.8320
  354TMC3    C4 5355   2.433   3.696  13.525 -0.6402  0.0251  0.6068
  354TMC3    C5 5356   2.455   3.752  13.407 -0.0975 -0.1941  0.0020
  354TMC3    C6 5357   2.390   3.864  13.372 -0.0356  0.4685  0.3538
  354TMC3     C 5358   2.337   3.701  13.739 -1.2486 -0.3124  0.2793
  354TMC3     O 5359   2.291   3.584  13.726 -0.2340  0.3691  0.2040
  354TMC3     H 5360   2.253   3.939  13.675 -0.3915 -0.0731  0.7901
  354TMC3    H1 5361   2.505   3.624  13.562  1.4040  2.1856  0.8522
  354TMC3    H2 5362   2.405   3.909  13.274  1.0159 -0.4618  0.0947
  354TMC3    C7 5363   2.555   3.683  13.323  0.3160 -0.1217 -0.3842
  354TMC3    C8 5364   2.241   4.030  13.415  0.4935 -0.2955 -0.0186
  354TMC3    O1 5365   2.590   3.569  13.350  0.5465 -0.2862 -0.2226
  354TMC3    O2 5366   2.197   4.027  13.300 -0.8937 -0.1260 -0.0754
  355MPD2     C 5367   2.504   4.507  11.939  0.1380  0.1516  0.9942
  355MPD2    C1 5368   2.572   4.555  11.830  0.4074  0.3632  0.1123
  355MPD2    C2 5369   2.710   4.562  11.834  0.1110 -0.0730 -0.0055
  355MPD2    C3 5370   2.784   4.545  11.947  1.0519  0.4822 -0.4676
  355MPD2    C4 5371   2.711   4.496  12.054  0.7278  0.0180 -0.7923
  355MPD2    C5 5372   2.577   4.470  12.051 -0.2169  0.2987  0.6301
  355MPD2     H 5373   2.757   4.604  11.746  0.8120 -0.2275  0.2881
  355MPD2    H1 5374   2.769   4.483  12.145 -1.5046 -2.2260  0.3098
  355MPD2    H2 5375   2.398   4.489  11.954  0.0543  1.3426  1.8639
  355MPD2    H3 5376   2.521   4.429  12.134 -0.8471 -0.6964 -0.2859
  355MPD2     N 5377   2.921   4.561  11.958 -1.1608  0.3352  0.1620
  355MPD2    H5 5378   2.963   4.533  12.047 -0.1035  4.3649  0.9389
  355MPD2    N1 5379   2.493   4.595  11.718  0.3910 -0.6172 -1.2404
  355MPD2    H7 5380   2.394   4.578  11.733  0.9960 -0.4110  3.0056
  356TMC3    C1 5381   3.133   4.636  11.894 -0.4742  0.4160  0.0931
  356TMC3    C2 5382   3.206   4.695  11.793  0.1407 -0.8124 -0.0906
  356TMC3    C3 5383   3.325   0.011  11.815 -0.7673 -0.6517  0.1812
  356TMC3    C4 5384   3.171   4.648  12.026 -0.9211 -0.6665 -0.6862
  356TMC3    C5 5385   3.291   4.710  12.045  0.1607 -0.7650 -0.5676
  356TMC3    C6 5386   3.371   0.016  11.946 -0.0805 -0.2980 -0.7385
  356TMC3     C 5387   2.996   4.617  11.857  0.2787  0.4054  0.0269
  356TMC3     O 5388   2.976   4.635  11.737  0.4459  0.1403 -0.3143
  356TMC3     H 5389   3.179   4.687  11.689  0.6008  2.3434 -0.4431
  356TMC3    H1 5390   3.108   4.622  12.111  0.6610 -1.3639  0.2747
  356TMC3    H2 5391   3.464   0.066  11.969 -0.7058  0.4344  0.2124
  356TMC3    C7 5392   3.347   4.682  12.178  0.1637  0.1143  0.8395
  356TMC3    C8 5393   3.393   0.082  11.710 -0.5625 -0.7658  0.2109
  356TMC3    O1 5394   3.284   4.591  12.235  0.1387 -0.2354  0.2577
  356TMC3    O2 5395   3.376   0.038  11.598  0.3980  0.1427  0.0197
  357MPD2     C 5396   2.424   3.312   1.292 -0.5530  0.7683 -0.2111
  357MPD2    C1 5397   2.359   3.198   1.258  0.2005  0.0675  0.1523
  357MPD2    C2 5398   2.222   3.175   1.284 -0.6243  0.2396 -0.5997
  357MPD2    C3 5399   2.144   3.279   1.344  0.3311  0.0746 -0.7226
  357MPD2    C4 5400   2.210   3.396   1.368 -0.1961 -0.6937  1.1419
  357MPD2    C5 5401   2.347   3.413   1.346 -0.1131 -0.3215  0.2185
  357MPD2     H 5402   2.173   3.080   1.267 -2.0893  0.6601  1.2077
  357MPD2    H1 5403   2.152   3.480   1.405 -2.0074 -0.2110 -2.8667
  357MPD2    H2 5404   2.530   3.330   1.282 -0.1118 -0.9972  1.3089
  357MPD2    H3 5405   2.398   3.504   1.377  0.9288 -0.6244 -0.5926
  357MPD2     N 5406   2.009   3.244   1.385 -0.3662 -0.9876  0.0855
  357MPD2    H5 5407   1.964   3.154   1.369  0.6491 -1.6411  0.9671
  357MPD2    N1 5408   2.436   3.109   1.183 -1.0469 -0.2238 -0.2141
  357MPD2    H7 5409   2.528   3.137   1.152 -1.8966  1.7401 -0.9481
  358TMC3    C1 5410   2.499   2.921   1.080 -0.5612  0.8756 -0.7850
  358TMC3    C2 5411   2.461   2.845   0.971  0.5279  0.6205  0.0449
  358TMC3    C3 5412   2.557   2.809   0.884  0.0745  0.0424  0.2099
  358TMC3    C4 5413   2.624   2.959   1.106 -0.7907  0.5633  0.4324
  358TMC3    C5 5414   2.722   2.899   1.033  0.3409 -0.4870 -0.1862
  358TMC3    C6 5415   2.691   2.821   0.921  0.2689  0.0611  0.3551
  358TMC3     C 5416   2.393   2.982   1.151 -0.9700 -0.1377 -0.3547
  358TMC3     O 5417   2.281   2.934   1.149 -0.8999 -0.3372 -0.4611
  358TMC3     H 5418   2.355   2.838   0.947  0.9246 -0.7348 -1.3468
  358TMC3    H1 5419   2.658   3.016   1.192 -0.7141 -0.8528  1.3350
  358TMC3    H2 5420   2.771   2.811   0.849 -0.1910 -0.7576 -0.0433
  358TMC3    C7 5421   2.852   2.919   1.064  0.5223  0.1636 -0.0210
  358TMC3    C8 5422   2.525   2.810   0.746  0.0129  0.5956 -0.1636
  358TMC3    O1 5423   2.871   3.008   1.144  0.6562 -0.4789 -0.1039
  358TMC3    O2 5424   2.581   2.890   0.678  0.2104  0.4073 -0.2473
  359MPD2     C 5425   2.579   3.184  12.412 -0.3014  0.2888  0.9201
  359MPD2    C1 5426   2.669   3.120  12.491 -0.1299  0.6935  0.2365
  359MPD2    C2 5427   2.621   3.088  12.620  0.1392 -0.5780  1.0767
  359MPD2    C3 5428   2.493   3.115  12.661  0.1280  0.9417 -0.7228
  359MPD2    C4 5429   2.415   3.195  12.587  0.1729 -0.0210  0.3903
  359MPD2    C5 5430   2.455   3.222  12.460  0.5596  0.4690 -0.2224
  359MPD2     H 5431   2.682   3.029  12.688 -1.5351 -2.4602  0.9635
  359MPD2    H1 5432   2.315   3.222  12.620 -0.0868  0.0030 -0.3953
  359MPD2    H2 5433   2.603   3.214  12.311 -0.6300  0.8676  1.0138
  359MPD2    H3 5434   2.385   3.273  12.394 -1.3971  0.0503  1.5249
  359MPD2     N 5435   2.448   3.072  12.794 -0.0219  0.1278  0.1388
  359MPD2    H5 5436   2.355   3.108  12.814  0.1340  0.7830 -0.3207
  359MPD2    N1 5437   2.795   3.087  12.439  0.2169  0.4103  0.3130
  359MPD2    H7 5438   2.826   3.120  12.348  0.8396 -0.5828  0.1726
  360TMC3    C1 5439   2.974   2.947  12.403  0.1390 -0.1854 -0.5998
  360TMC3    C2 5440   3.093   2.907  12.455 -0.2132 -0.8371  0.2724
  360TMC3    C3 5441   3.194   2.901  12.356  0.1798 -0.2727 -0.0457
  360TMC3    C4 5442   2.942   2.944  12.273 -0.0732 -0.2995  0.5005
  360TMC3    C5 5443   3.041   2.935  12.182 -0.4328 -0.1451 -1.0702
  360TMC3    C6 5444   3.164   2.905  12.222 -0.8771 -0.4029  0.1305
  360TMC3     C 5445   2.882   3.002  12.499 -0.3532  0.8899  0.2954
  360TMC3     O 5446   2.871   2.950  12.609  0.4996  0.3462  0.2989
  360TMC3     H 5447   3.113   2.911  12.561 -0.9166  2.4429  0.2727
  360TMC3    H1 5448   2.837   2.940  12.245  0.0299 -1.6054  0.2774
  360TMC3    H2 5449   3.230   2.890  12.138  0.1740  0.7137  0.7442
  360TMC3    C7 5450   3.021   2.950  12.043  0.0109 -0.1242  0.0614
  360TMC3    C8 5451   3.327   2.891  12.403  0.2785 -0.0076  0.4834
  360TMC3    O1 5452   3.123   2.973  11.976 -0.2332 -0.0512  0.1148
  360TMC3    O2 5453   3.348   2.844  12.516 -0.0663  0.1799  0.0323
  361MPD2     C 5454   0.064   1.066  16.822 -0.0576 -0.1767 -0.3943
  361MPD2    C1 5455   0.076   1.124  16.947  0.2855  0.2006 -0.0553
  361MPD2    C2 5456   0.142   1.051  17.035  0.1953  0.1259 -0.0294
  361MPD2    C3 5457   0.195   0.925  17.008 -0.0428 -0.5169 -0.0284
  361MPD2    C4 5458   0.188   0.871  16.880 -0.2199  0.7251  0.1862
  361MPD2    C5 5459   0.124   0.947  16.780 -0.2549 -0.0677 -0.0154
  361MPD2     H 5460   0.155   1.095  17.134 -2.0455 -1.1900  0.8548
  361MPD2    H1 5461   0.241   0.782  16.847 -2.5610  0.0563 -1.7924
  361MPD2    H2 5462   0.009   1.108  16.737  2.4681 -0.3283 -2.0972
  361MPD2    H3 5463   0.131   0.913  16.677 -0.8802 -0.6251  0.1271
  361MPD2     N 5464   0.266   0.844  17.102  0.8355 -0.0392  0.1660
  361MPD2    H5 5465   0.301   0.755  17.068  2.0199  0.5447 -0.1309
  361MPD2    N1 5466   0.006   1.240  16.986 -0.1393  0.0440 -0.0324
  361MPD2    H7 5467   0.010   1.268  17.084  0.6255 -1.1243  0.2798
  362TMC3    C1 5468   4.611   1.436  16.962  0.4454 -0.1414  0.8395
  362TMC3    C2 5469   4.597   1.445  17.097  0.1233 -0.0347 -0.0567
  362TMC3    C3 5470   4.530   1.556  17.146 -0.7288 -0.1817  0.2877
  362TMC3    C4 5471   4.569   1.531  16.872 -0.3955 -0.4469  0.7300
  362TMC3    C5 5472   4.519   1.642  16.924 -0.0255  0.0339 -0.1217
  362TMC3    C6 5473   4.503   1.657  17.061  0.2269 -0.2700 -0.0342
  362TMC3     C 5474   4.671   1.321  16.899  0.1849  0.0869  0.3003
  362TMC3     O 5475   4.669   1.318  16.779  0.5232 -0.3600 -0.1315
  362TMC3     H 5476   4.601   1.362  17.167  2.7127  0.3642  0.2668
  362TMC3    H1 5477   4.573   1.520  16.765  0.7207 -1.5566  0.8695
  362TMC3    H2 5478   4.470   1.755  17.092  1.1933  0.5315 -1.5424
  362TMC3    C7 5479   4.500   1.755  16.838 -0.0160 -0.1372 -0.0388
  362TMC3    C8 5480   4.480   1.564  17.284 -0.4569 -0.8462  0.3184
  362TMC3    O1 5481   4.421   1.837  16.881  0.0168 -0.9014 -0.6896
  362TMC3    O2 5482   4.523   1.480  17.366 -0.5048 -0.2676 -0.0844
  363TMC3    C1 5483   2.654   4.192   9.240  0.2525  0.6332  0.4076
  363TMC3    C2 5484   2.719   4.221   9.362  0.1415 -0.1044  0.6443
  363TMC3    C3 5485   2.644   4.281   9.460 -0.2646 -0.9829 -1.1813
  363TMC3    C4 5486   2.519   4.219   9.208  0.0683 -0.4540  0.4430
  363TMC3    C5 5487   2.453   4.289   9.306  0.4545 -0.4338  0.4469
  363TMC3    C6 5488   2.518   4.328   9.429 -0.1832  1.0473 -0.3317
  363TMC3     C 5489   2.731   4.100   9.157 -0.2335 -0.6005 -0.3129
  363TMC3     O 5490   2.839   4.069   9.204  0.4018 -0.2507  0.4443
  363TMC3     H 5491   2.822   4.193   9.378 -0.0532 -1.6328 -0.7350
  363TMC3    H1 5492   2.466   4.185   9.120 -1.5593 -0.7603  1.5462
  363TMC3    H2 5493   2.465   4.379   9.508  2.6343  1.9218  1.0131
  363TMC3    C7 5494   2.306   4.283   9.314  0.4436  0.5277  0.0735
  363TMC3    C8 5495   2.687   4.294   9.601  0.3514 -0.2789  0.2866
  363TMC3    O1 5496   2.253   4.216   9.232 -0.2737 -0.0207  0.2983
  363TMC3    O2 5497   2.622   4.365   9.678  0.3025 -0.2798  0.0532
  364MPD2     C 5498   1.769   3.648  10.625  0.2194  0.0542 -0.0468
  364MPD2    C1 5499   1.881   3.725  10.664  0.2645 -0.0830 -0.0399
  364MPD2    C2 5500   1.946   3.690  10.782 -0.0751 -0.1564 -0.1936
  364MPD2    C3 5501   1.904   3.578  10.855 -0.3330 -0.1785 -0.6984
  364MPD2    C4 5502   1.794   3.506  10.814 -0.1085 -0.7861 -0.1217
  364MPD2    C5 5503   1.732   3.541  10.701  0.1338 -0.3344  0.6636
  364MPD2     H 5504   2.036   3.743  10.809 -1.5713  2.3992 -0.1974
  364MPD2    H1 5505   1.748   3.432  10.880 -0.1337 -1.1634 -0.5654
  364MPD2    H2 5506   1.710   3.670  10.537 -1.2683 -3.8420 -0.0280
  364MPD2    H3 5507   1.643   3.484  10.675 -0.7092  1.0741  0.4917
  364MPD2     N 5508   1.964   3.538  10.977  0.3044  0.2407  0.3137
  364MPD2    H5 5509   1.946   3.453  11.031  3.0906 -0.2930  0.4155
  364MPD2    N1 5510   1.921   3.834  10.583 -0.1753 -0.7620  0.1694
  364MPD2    H7 5511   1.887   3.841  10.488 -1.4142 -2.5379  0.4822
  365TMC3    C1 5512   2.042   4.019  10.506 -0.2115  0.1348  0.4628
  365TMC3    C2 5513   2.048   3.962  10.381 -0.0999  0.4912 -0.7899
  365TMC3    C3 5514   2.075   4.047  10.278 -0.2185 -0.0557 -0.6511
  365TMC3    C4 5515   2.063   4.153  10.537  0.0186 -0.5788  0.5995
  365TMC3    C5 5516   2.076   4.231  10.428  0.4982 -0.4361  0.1096
  365TMC3    C6 5517   2.081   4.183  10.299 -0.2879  0.3738  0.1431
  365TMC3     C 5518   2.011   3.933  10.621  0.1129  0.4129  0.0359
  365TMC3     O 5519   2.050   3.978  10.729  0.3835  0.4078 -0.3812
  365TMC3     H 5520   2.029   3.855  10.372  2.1522  0.1827 -1.6834
  365TMC3    H1 5521   2.074   4.189  10.639 -0.1697 -0.2325  0.4985
  365TMC3    H2 5522   2.096   4.259  10.223  0.1435 -1.3677 -1.5189
  365TMC3    C7 5523   2.113   4.369  10.450 -0.1171  0.0014  0.2305
  365TMC3    C8 5524   2.070   3.997  10.142 -0.0521 -0.6816 -0.3025
  365TMC3    O1 5525   2.188   4.416  10.365 -0.5569  0.0087  0.0676
  365TMC3    O2 5526   2.094   4.073  10.050  0.0966 -0.3212 -0.0006
  366MPD2     C 5527   0.248   0.508  15.388  0.3720  0.2694  0.7189
  366MPD2    C1 5528   0.345   0.537  15.485 -0.6088  1.1297 -0.6413
  366MPD2    C2 5529   0.441   0.436  15.509 -0.1342  0.4561 -0.3484
  366MPD2    C3 5530   0.445   0.317  15.447  0.5672  0.1869 -0.0415
  366MPD2    C4 5531   0.355   0.290  15.344 -0.7076 -0.0450  0.1885
  366MPD2    C5 5532   0.260   0.391  15.319  0.1528 -0.8631 -1.3871
  366MPD2     H 5533   0.508   0.450  15.593 -1.2487  0.5138  0.5228
  366MPD2    H1 5534   0.347   0.200  15.285 -2.6407 -0.1667  0.6329
  366MPD2    H2 5535   0.171   0.575  15.351 -1.0377 -2.0441 -0.5705
  366MPD2    H3 5536   0.185   0.375  15.243 -1.6908  1.0730  0.0068
  366MPD2     N 5537   0.551   0.233  15.491 -0.3924 -0.3978 -0.0919
  366MPD2    H5 5538   0.596   0.256  15.579  0.0384  0.2059 -0.4770
  366MPD2    N1 5539   0.337   0.653  15.560 -0.2378 -0.6053 -0.2108
  366MPD2    H7 5540   0.409   0.664  15.631 -0.2356 -2.1000  0.0056
  367TMC3    C1 5541   0.316   0.884  15.607 -0.6302  0.3001 -0.2780
  367TMC3    C2 5542   0.330   0.865  15.741 -0.7136  0.0009  0.5668
  367TMC3    C3 5543   0.350   0.980  15.817  0.0324 -0.1121 -0.1335
  367TMC3    C4 5544   0.322   1.008  15.547 -0.0716  0.0874 -0.3886
  367TMC3    C5 5545   0.333   1.123  15.625 -0.7413 -0.4066  0.0073
  367TMC3    C6 5546   0.345   1.106  15.762  0.3572  0.3805  0.1572
  367TMC3     C 5547   0.274   0.769  15.525  0.3561 -0.1922 -0.2445
  367TMC3     O 5548   0.180   0.787  15.450  0.0532 -0.0011  0.0756
  367TMC3     H 5549   0.318   0.770  15.790  2.2870 -0.3879  0.5697
  367TMC3    H1 5550   0.303   1.022  15.441  1.3114 -0.8870 -0.7622
  367TMC3    H2 5551   0.325   1.186  15.832  0.9155  0.3872  0.3140
  367TMC3    C7 5552   0.267   1.245  15.578 -0.1189 -0.3535  0.3575
  367TMC3    C8 5553   0.384   0.974  15.957  0.1341  0.8623  0.4589
  367TMC3    O1 5554   0.170   1.232  15.508 -0.0528  0.0039 -0.0241
  367TMC3    O2 5555   0.420   0.864  15.994  0.1634 -0.3211  0.3121
  368MPD2     C 5556   1.129   2.238  13.780  0.2479  0.3968  0.6829
  368MPD2    C1 5557   1.179   2.362  13.743 -0.4912 -0.5651  0.2758
  368MPD2    C2 5558   1.299   2.359  13.671  0.7284 -0.3611 -0.3058
  368MPD2    C3 5559   1.367   2.242  13.643  0.0518  0.6996  0.1288
  368MPD2    C4 5560   1.322   2.123  13.691 -0.0526 -0.0794  0.0602
  368MPD2    C5 5561   1.206   2.124  13.761  0.1853  0.1629  0.2633
  368MPD2     H 5562   1.345   2.449  13.633  1.0411  0.3847  1.8330
  368MPD2    H1 5563   1.374   2.029  13.689  0.0739 -0.0192  0.5573
  368MPD2    H2 5564   1.034   2.223  13.829 -0.2987  0.2181 -0.4291
  368MPD2    H3 5565   1.176   2.033  13.812 -0.8597 -0.8369 -2.1107
  368MPD2     N 5566   1.498   2.249  13.577 -0.1017 -0.6074 -0.1788
  368MPD2    H5 5567   1.527   2.341  13.544 -1.0864  1.2452  4.1140
  368MPD2    N1 5568   1.093   2.473  13.752 -0.1998  0.2195 -0.6022
  368MPD2    H7 5569   0.997   2.445  13.773 -0.2454  0.5499 -0.3727
  369TMC3    C1 5570   1.015   2.692  13.747 -0.0932  0.2951  0.5310
  369TMC3    C2 5571   1.002   2.791  13.650 -0.5064 -0.0836 -0.1988
  369TMC3    C3 5572   0.880   2.852  13.634  0.0834 -0.4089  0.7017
  369TMC3    C4 5573   0.906   2.645  13.810 -0.6346 -0.4167 -0.1029
  369TMC3    C5 5574   0.788   2.700  13.785 -0.2602 -0.2804 -0.3482
  369TMC3    C6 5575   0.769   2.793  13.688 -0.2287 -0.6666 -0.1378
  369TMC3     C 5576   1.128   2.603  13.723  0.6149  0.8263 -0.2999
  369TMC3     O 5577   1.230   2.650  13.674  0.4942 -0.3746  0.1783
  369TMC3     H 5578   1.096   2.821  13.604 -1.3679  1.9063 -0.6444
  369TMC3    H1 5579   0.905   2.574  13.891 -0.6233  0.8292  0.9870
  369TMC3    H2 5580   0.672   2.833  13.658  0.1910 -0.1434 -0.8180
  369TMC3    C7 5581   0.677   2.649  13.860 -0.6100  0.0992 -0.2909
  369TMC3    C8 5582   0.872   2.945  13.521 -0.0954  0.1130 -0.5180
  369TMC3    O1 5583   0.705   2.570  13.950  0.7034 -0.1586  0.4914
  369TMC3    O2 5584   0.773   2.955  13.449 -0.7262 -0.1079 -0.0273
  370TMC3    C1 5585   1.077   2.419  16.480 -0.2266 -0.2904  0.2325
  370TMC3    C2 5586   1.033   2.327  16.570 -0.0980  0.6530 -0.1540
  370TMC3    C3 5587   1.048   2.188  16.546  0.5896  0.0320  0.0438
  370TMC3    C4 5588   1.141   2.385  16.369  0.0258  0.4016 -0.0268
  370TMC3    C5 5589   1.173   2.251  16.357  0.4355  0.0736 -0.0022
  370TMC3    C6 5590   1.124   2.149  16.438 -0.5991 -0.2933 -0.7052
  370TMC3     C 5591   1.143   2.530  16.542  0.6423  0.2553  0.1959
  370TMC3     O 5592   1.193   2.492  16.645  0.2584  0.0421 -0.1487
  370TMC3     H 5593   0.963   2.362  16.645  0.4853  1.5208 -0.0141
  370TMC3    H1 5594   1.180   2.457  16.298  0.8383  0.1561  0.1675
  370TMC3    H2 5595   1.150   2.044  16.426  0.0637 -0.3885  1.4337
  370TMC3    C7 5596   1.263   2.222  16.247 -0.0001  0.3030 -0.8236
  370TMC3    C8 5597   1.001   2.082  16.643  0.0984 -0.2391 -0.3471
  370TMC3    O1 5598   1.240   2.286  16.142 -0.1376 -0.2392 -0.5958
  370TMC3    O2 5599   1.017   1.963  16.621  0.3518  0.4165  0.2156
  371TMC3    C1 5600   2.739   1.014  15.528  0.7895 -0.0473 -0.1992
  371TMC3    C2 5601   2.622   0.987  15.596 -0.1651  0.2698  0.2352
  371TMC3    C3 5602   2.530   1.089  15.624 -0.0549  1.0869 -0.5451
  371TMC3    C4 5603   2.770   1.140  15.486 -0.0172  0.3549  0.5107
  371TMC3    C5 5604   2.682   1.235  15.516  0.1707 -0.6225  0.3234
  371TMC3    C6 5605   2.566   1.216  15.590  0.0406 -0.2759  0.4349
  371TMC3     C 5606   2.840   0.915  15.500  0.1592  1.0978  0.9598
  371TMC3     O 5607   2.943   0.957  15.452 -0.0426  0.3208 -0.4029
  371TMC3     H 5608   2.579   0.887  15.601  0.4440  0.0610  1.3367
  371TMC3    H1 5609   2.849   1.157  15.413 -0.2059 -1.4181 -0.1313
  371TMC3    H2 5610   2.492   1.295  15.595 -1.1315 -1.3350 -0.1047
  371TMC3    C7 5611   2.700   1.370  15.458 -0.5060 -0.5416  0.1337
  371TMC3    C8 5612   2.429   1.060  15.727 -0.0082  0.4103  1.0979
  371TMC3    O1 5613   2.639   1.469  15.501  0.4747  0.0488  0.2289
  371TMC3    O2 5614   2.384   0.946  15.722 -0.6189  0.9537  0.5749
  372MPD2     C 5615   1.701   2.541  13.815  0.1453 -0.4606 -0.6511
  372MPD2    C1 5616   1.829   2.479  13.833 -0.1768  0.5294  0.5767
  372MPD2    C2 5617   1.835   2.348  13.875  0.0694  0.3550 -0.0721
  372MPD2    C3 5618   1.717   2.274  13.905  0.1642  0.5114  0.2840
  372MPD2    C4 5619   1.599   2.335  13.881 -0.1619  0.1252  0.1227
  372MPD2    C5 5620   1.591   2.465  13.841  0.0014 -0.3695  0.3671
  372MPD2     H 5621   1.931   2.298  13.881  0.1365  0.6734  1.4928
  372MPD2    H1 5622   1.507   2.277  13.887 -0.1262 -0.0607 -0.9845
  372MPD2    H2 5623   1.682   2.644  13.787 -0.0275 -0.2317  0.3005
  372MPD2    H3 5624   1.490   2.502  13.825 -0.6896 -1.8405  1.3314
  372MPD2     N 5625   1.723   2.139  13.938  0.5432 -0.3701 -0.5007
  372MPD2    H5 5626   1.811   2.096  13.911  0.3707 -0.3990 -1.0210
  372MPD2    N1 5627   1.952   2.556  13.809 -0.1789  0.7404  0.8340
  372MPD2    H7 5628   2.036   2.516  13.848 -1.5553 -1.8048  1.1943
  373TMC3    C1 5629   1.668   1.924  14.002 -0.5712  0.8173  0.0649
  373TMC3    C2 5630   1.633   1.844  14.107  0.2566 -0.0942 -0.0836
  373TMC3    C3 5631   1.616   1.712  14.090 -0.1298 -0.2827  0.0580
  373TMC3    C4 5632   1.694   1.871  13.881  0.1526 -0.3308 -0.4367
  373TMC3    C5 5633   1.669   1.735  13.863 -0.6014 -0.9113  0.4165
  373TMC3    C6 5634   1.622   1.658  13.966  0.0599  0.2755  0.3449
  373TMC3     C 5635   1.631   2.065  14.006  0.6196 -0.1009  0.1780
  373TMC3     O 5636   1.522   2.094  14.056 -0.2181 -0.0312 -0.4131
  373TMC3     H 5637   1.617   1.893  14.202 -0.0559 -1.1922  0.4282
  373TMC3    H1 5638   1.716   1.932  13.794  1.3150 -0.6026 -0.3308
  373TMC3    H2 5639   1.605   1.552  13.953 -0.2526  0.5802 -1.6424
  373TMC3    C7 5640   1.765   1.674  13.779  0.3979  0.0618  0.0574
  373TMC3    C8 5641   1.681   1.623  14.182  0.6329  0.1503 -0.1666
  373TMC3    O1 5642   1.804   1.734  13.684 -0.0766 -0.2510 -0.3223
  373TMC3    O2 5643   1.647   1.504  14.196 -0.1038 -0.4135  0.2891
  374TMC3    C1 5644   2.379   2.828   9.748 -0.0830  0.2382 -0.0786
  374TMC3    C2 5645   2.473   2.905   9.803  0.7845 -0.4100 -0.2196
  374TMC3    C3 5646   2.529   3.003   9.728  0.4800 -0.3979  0.5540
  374TMC3    C4 5647   2.347   2.833   9.621 -0.6907  0.9121  0.6646
  374TMC3    C5 5648   2.415   2.922   9.546 -0.7489 -0.3405 -0.4012
  374TMC3    C6 5649   2.500   3.015   9.597 -0.2417  0.2592  0.3051
  374TMC3     C 5650   2.302   2.751   9.840 -0.5851  0.4175  0.2748
  374TMC3     O 5651   2.253   2.647   9.797  0.1021  0.1244 -0.5560
  374TMC3     H 5652   2.510   2.885   9.903 -0.8891  1.0827  0.6984
  374TMC3    H1 5653   2.282   2.752   9.590 -0.0604  0.2318  1.1193
  374TMC3    H2 5654   2.552   3.086   9.534 -1.4153  1.0239  0.2012
  374TMC3    C7 5655   2.401   2.917   9.399 -0.2056 -0.1248  0.4230
  374TMC3    C8 5656   2.637   3.089   9.781  0.0483 -0.6091  0.4139
  374TMC3    O1 5657   2.489   2.965   9.329  0.3812 -0.2194 -0.3069
  374TMC3    O2 5658   2.670   3.182   9.711  0.5924  0.2472  0.7238
  375MPD2     C 5659   2.731   2.404  17.096  0.2576  0.0928 -0.0485
  375MPD2    C1 5660   2.641   2.462  17.013 -0.9217  0.4395  0.2472
  375MPD2    C2 5661   2.689   2.519  16.898  0.0339 -0.1502  0.5505
  375MPD2    C3 5662   2.821   2.508  16.853  0.1685 -0.1728  0.1508
  375MPD2    C4 5663   2.906   2.440  16.938 -0.4466  0.1768 -0.0790
  375MPD2    C5 5664   2.853   2.381  17.052  0.2784 -0.1095 -0.5235
  375MPD2     H 5665   2.610   2.565  16.839  1.7949 -0.9243 -2.4391
  375MPD2    H1 5666   3.008   2.430  16.904  0.9322  0.7874  3.9015
  375MPD2    H2 5667   2.712   2.371  17.197  0.7770 -1.0818 -0.3308
  375MPD2    H3 5668   2.915   2.321  17.117 -2.1946 -0.3592  1.6000
  375MPD2     N 5669   2.860   2.567  16.725  0.4172  0.1020 -0.0059
  375MPD2    H5 5670   2.957   2.551  16.701  0.8680  1.6964  0.7438
  375MPD2    N1 5671   2.504   2.470  17.041  0.0765 -0.0700  0.5787
  375MPD2    H7 5672   2.454   2.508  16.962  0.3233 -2.3505 -0.6637
  376TMC3    C1 5673   2.831   2.682  16.512  0.3339 -0.2826  0.7555
  376TMC3    C2 5674   2.967   2.696  16.494 -0.6890  0.2317 -0.0637
  376TMC3    C3 5675   3.015   2.732  16.371  0.2885  0.7796  0.6100
  376TMC3    C4 5676   2.740   2.705  16.408  0.4178  0.3618 -0.4834
  376TMC3    C5 5677   2.790   2.744  16.292 -0.0377  0.2475  0.0585
  376TMC3    C6 5678   2.926   2.748  16.268  1.1155 -0.4967  0.3263
  376TMC3     C 5679   2.775   2.628  16.637  0.7175 -0.0640 -0.2982
  376TMC3     O 5680   2.654   2.634  16.643  0.6373  0.1838  0.2269
  376TMC3     H 5681   3.042   2.689  16.571  0.7531  1.5164 -1.3300
  376TMC3    H1 5682   2.635   2.721  16.431  0.5665 -2.0598  1.7853
  376TMC3    H2 5683   2.961   2.765  16.167 -0.7643  0.9351 -0.0891
  376TMC3    C7 5684   2.703   2.807  16.199  0.1893 -0.3178 -0.2990
  376TMC3    C8 5685   3.157   2.753  16.344  0.0881  0.9807  0.0545
  376TMC3    O1 5686   2.758   2.898  16.134  0.0957 -0.4583  0.1629
  376TMC3    O2 5687   3.180   2.815  16.243  0.0457 -0.4410 -0.4547
  377MPD2     C 5688   0.099   2.922  13.444 -0.6323  0.4455  0.0293
  377MPD2    C1 5689   0.176   2.811  13.445  1.5265  1.0031  0.7952
  377MPD2    C2 5690   0.118   2.691  13.490  0.2737  0.3526  0.1284
  377MPD2    C3 5691   4.717   2.685  13.517 -0.6884  0.8324  0.3573
  377MPD2    C4 5692   4.638   2.797  13.494 -0.4288  0.5388  0.3124
  377MPD2    C5 5693   4.698   2.923  13.468  0.2347 -0.5928 -0.0338
  377MPD2     H 5694   0.185   2.606  13.500 -0.7476 -0.4478  0.1157
  377MPD2    H1 5695   4.531   2.796  13.508 -0.1765  0.9746  2.2748
  377MPD2    H2 5696   0.133   3.020  13.412  2.3220 -0.2093  1.1940
  377MPD2    H3 5697   4.647   3.018  13.459 -1.5951 -1.3615  2.2462
  377MPD2     N 5698   4.648   2.568  13.556 -0.2758 -0.0280 -1.1891
  377MPD2    H5 5699   4.548   2.575  13.573 -0.2729 -1.8684 -0.4761
  377MPD2    N1 5700   0.302   2.816  13.387 -0.4533  0.1042 -0.1384
  377MPD2    H7 5701   0.317   2.895  13.325 -0.1107 -0.4997 -0.8332
  378TMC3    C1 5702   0.603   2.817  13.118  0.4959  0.4557 -0.0533
  378TMC3    C2 5703   0.504   2.821  13.209  0.3786 -0.6351  0.2606
  378TMC3    C3 5704   0.523   2.760  13.330  0.1773 -0.2170  1.1172
  378TMC3    C4 5705   0.724   2.759  13.142 -0.3290  0.6095  0.1301
  378TMC3    C5 5706   0.728   2.693  13.266  0.2989 -0.7004  0.4537
  378TMC3    C6 5707   0.632   2.684  13.360 -0.0028  0.6713 -0.3062
  378TMC3     C 5708   0.562   2.850  12.985 -0.4111  0.2182  0.6304
  378TMC3     O 5709   0.454   2.905  12.972  0.7989 -0.1873 -0.3304
  378TMC3     H 5710   0.423   2.893  13.205 -1.5882 -2.6884  2.8541
  378TMC3    H1 5711   0.803   2.757  13.068 -0.8353  3.1076 -0.4697
  378TMC3    H2 5712   0.646   2.640  13.458 -0.0272  1.2287 -0.0524
  378TMC3    C7 5713   0.865   2.661  13.314 -0.2232 -0.5877  0.4283
  378TMC3    C8 5714   0.403   2.731  13.409  0.3996  0.2605 -0.3626
  378TMC3    O1 5715   0.884   2.592  13.412  0.1332 -0.2704  0.3118
  378TMC3    O2 5716   0.423   2.655  13.502 -0.2640  0.2162  0.0697
  379MPD2     C 5717   1.324   0.874  16.727  0.1262 -0.1760  1.0995
  379MPD2    C1 5718   1.277   0.748  16.761  0.4818 -0.4955  0.4476
  379MPD2    C2 5719   1.373   0.648  16.788  0.6051  0.0808  0.1099
  379MPD2    C3 5720   1.510   0.671  16.766  0.2565  0.0774  0.3813
  379MPD2    C4 5721   1.548   0.795  16.725  0.8277  0.7180 -0.8529
  379MPD2    C5 5722   1.458   0.895  16.707  0.3944 -0.6738  0.4665
  379MPD2     H 5723   1.344   0.555  16.835  0.6267 -0.7042 -1.4247
  379MPD2    H1 5724   1.653   0.820  16.716  1.7632 -1.9132  2.4838
  379MPD2    H2 5725   1.257   0.955  16.701 -1.1343 -1.9713 -1.2130
  379MPD2    H3 5726   1.492   0.993  16.676 -0.8234 -0.1719  0.7403
  379MPD2     N 5727   1.614   0.580  16.794 -0.2167  0.5098  0.0818
  379MPD2    H5 5728   1.712   0.589  16.769 -0.5093 -1.5040 -1.8078
  379MPD2    N1 5729   1.142   0.709  16.771 -0.0187 -0.1215 -0.6717
  379MPD2    H7 5730   1.117   0.611  16.782 -0.0113  0.0473  0.8627
  380TMC3    C1 5731   0.925   0.719  16.705 -0.0155 -0.7209 -1.0575
  380TMC3    C2 5732   0.953   0.615  16.622 -0.2447  0.6684  0.1442
  380TMC3    C3 5733   0.889   0.617  16.499  0.0977  0.1542  0.4302
  380TMC3    C4 5734   0.822   0.807  16.688 -0.5828 -0.1532  0.3512
  380TMC3    C5 5735   0.763   0.803  16.565  0.0275 -0.3985 -0.2707
  380TMC3    C6 5736   0.796   0.707  16.468  0.5924 -0.1617  0.1113
  380TMC3     C 5737   1.037   0.790  16.756  0.6213 -0.5104  0.8113
  380TMC3     O 5738   1.033   0.910  16.776  0.2079  0.5659 -0.2699
  380TMC3     H 5739   1.048   0.564  16.631 -0.3969  0.2461 -0.7191
  380TMC3    H1 5740   0.806   0.884  16.763  4.4970  1.0169  0.2448
  380TMC3    H2 5741   0.762   0.697  16.366 -0.5603  0.6254  0.4161
  380TMC3    C7 5742   0.735   0.935  16.517  0.5554  0.4495 -0.2495
  380TMC3    C8 5743   0.963   0.575  16.383 -0.1932  0.1844 -0.0388
  380TMC3    O1 5744   0.788   1.029  16.573  0.0462 -0.4979  0.0506
  380TMC3    O2 5745   0.965   0.649  16.287 -0.0664 -0.0208 -0.6313
  381TMC3    C1 5746   1.298   1.406  16.562 -0.2305 -0.0846 -0.9497
  381TMC3    C2 5747   1.306   1.541  16.534  0.8609  0.2543  0.0019
  381TMC3    C3 5748   1.264   1.625  16.632 -0.9297  0.3665 -1.3716
  381TMC3    C4 5749   1.229   1.361  16.669 -0.0321  0.4388 -0.5431
  381TMC3    C5 5750   1.168   1.456  16.747 -0.4350 -0.5637 -0.6000
  381TMC3    C6 5751   1.192   1.589  16.743 -0.7299 -0.4060  0.1643
  381TMC3     C 5752   1.367   1.307  16.482 -0.5764  0.3860 -0.1508
  381TMC3     O 5753   1.474   1.343  16.438 -0.6713 -0.0224  0.3226
  381TMC3     H 5754   1.371   1.567  16.451 -0.4973  1.4482 -0.7021
  381TMC3    H1 5755   1.224   1.258  16.702 -1.6395  0.0366 -2.0035
  381TMC3    H2 5756   1.146   1.664  16.807 -1.2602  1.7535 -2.7089
  381TMC3    C7 5757   1.131   1.403  16.881  0.0670  0.3021  0.2781
  381TMC3    C8 5758   1.311   1.760  16.611 -0.1321  0.0852  0.0711
  381TMC3    O1 5759   1.171   1.292  16.915 -0.6153 -0.3207 -0.6765
  381TMC3    O2 5760   1.393   1.777  16.521 -0.3420 -0.0388 -0.3122
  382MPD2     C 5761   0.621   3.668  17.037  0.9901 -0.4554  0.2672
  382MPD2    C1 5762   0.550   3.680  17.154 -0.1347 -0.6450 -0.6006
  382MPD2    C2 5763   0.470   3.576  17.197 -0.4295  0.3979 -0.8751
  382MPD2    C3 5764   0.458   3.461  17.120 -0.0606  0.5074 -0.4936
  382MPD2    C4 5765   0.540   3.443  17.010  0.9319  1.0391 -0.1309
  382MPD2    C5 5766   0.627   3.545  16.976  0.3579  0.0413  0.4142
  382MPD2     H 5767   0.416   3.585  17.290  2.0455 -1.5761  0.7548
  382MPD2    H1 5768   0.535   3.358  16.943 -2.2347  0.3952  0.9296
  382MPD2    H2 5769   0.685   3.742  16.992 -0.1350 -0.0276 -0.6063
  382MPD2    H3 5770   0.688   3.524  16.890  0.1143  0.9435  0.0240
  382MPD2     N 5771   0.369   3.353  17.157  0.3652 -0.1393  0.5787
  382MPD2    H5 5772   0.372   3.261  17.115 -1.0314  0.4197 -0.7416
  382MPD2    N1 5773   0.556   3.804  17.229  0.6919  0.0857  0.0150
  382MPD2    H7 5774   0.515   3.809  17.322  0.9622 -0.0163  0.1393
  383TMC3    C1 5775   0.194   3.240  17.257 -0.1599  0.4944 -0.0885
  383TMC3    C2 5776   0.058   3.237  17.250  0.3187 -0.0874  0.2141
  383TMC3    C3 5777   4.723   3.123  17.223  0.1484  0.6285 -0.0730
  383TMC3    C4 5778   0.264   3.128  17.222 -0.2226  0.1068 -0.3476
  383TMC3    C5 5779   0.194   3.020  17.167 -0.0590 -1.0168  0.5801
  383TMC3    C6 5780   0.056   3.005  17.193  0.3764 -0.8863 -0.0065
  383TMC3     C 5781   0.257   3.368  17.242 -0.3088 -0.2077  0.8522
  383TMC3     O 5782   0.200   3.470  17.270  0.5854 -0.3846 -0.1115
  383TMC3     H 5783   0.003   3.329  17.267 -1.0251 -0.8986  0.1928
  383TMC3    H1 5784   0.371   3.125  17.209 -0.2131  1.1155 -0.5064
  383TMC3    H2 5785   0.004   2.912  17.171 -1.0058  0.0526 -0.6883
  383TMC3    C7 5786   0.270   2.904  17.145  0.1296 -0.1388 -0.2189
  383TMC3    C8 5787   4.584   3.118  17.234 -0.2316 -0.2797 -0.3602
  383TMC3    O1 5788   0.386   2.907  17.184  0.0084  0.2716  0.2530
  383TMC3    O2 5789   4.517   3.211  17.190 -0.3870 -1.2568 -0.1117
  384MPD2     C 5790   1.385   1.148  11.938 -0.3002 -0.0536 -0.4891
  384MPD2    C1 5791   1.463   1.260  11.904  0.1373 -0.2218 -0.0938
  384MPD2    C2 5792   1.574   1.241  11.825  0.0667  0.7223  0.0836
  384MPD2    C3 5793   1.614   1.119  11.788 -0.6969  0.6176  0.0496
  384MPD2    C4 5794   1.537   1.011  11.822 -0.2593  0.0607  0.3884
  384MPD2    C5 5795   1.416   1.028  11.883  0.1737  0.0803  0.9212
  384MPD2     H 5796   1.629   1.331  11.800  3.3135 -1.6431 -1.1448
  384MPD2    H1 5797   1.548   0.912  11.780  0.6351 -0.0124  0.7946
  384MPD2    H2 5798   1.288   1.152  11.984  1.1174  0.3604  2.4544
  384MPD2    H3 5799   1.349   0.944  11.890  0.9733 -0.7309 -1.3950
  384MPD2     N 5800   1.730   1.091  11.702 -0.0857  0.2111  0.0877
  384MPD2    H5 5801   1.748   0.994  11.679  1.4866  0.7815 -1.0422
  384MPD2    N1 5802   1.434   1.380  11.965 -0.1171  0.2693  0.0069
  384MPD2    H7 5803   1.377   1.362  12.048  0.9755 -0.2202  0.6401
  385TMC3    C1 5804   1.940   1.156  11.622  0.2508 -0.1654 -0.0704
  385TMC3    C2 5805   1.957   1.018  11.625  0.0306  0.1025 -1.0714
  385TMC3    C3 5806   2.047   0.964  11.715 -0.2117 -0.3065 -0.5787
  385TMC3    C4 5807   2.004   1.229  11.716  0.1279 -0.3549  0.5080
  385TMC3    C5 5808   2.063   1.169  11.825  0.3381 -0.5198  0.9600
  385TMC3    C6 5809   2.086   1.034  11.825  0.4974 -0.1607 -0.0732
  385TMC3     C 5810   1.800   1.189  11.629 -0.4823 -0.1075  0.0378
  385TMC3     O 5811   1.774   1.307  11.627  0.1902  0.3719  0.1046
  385TMC3     H 5812   1.920   0.973  11.534 -0.8010 -0.4698 -0.4508
  385TMC3    H1 5813   1.976   1.333  11.728 -0.6563 -0.8427  3.0019
  385TMC3    H2 5814   2.179   1.004  11.871  1.6882  0.7418 -1.8829
  385TMC3    C7 5815   2.021   1.228  11.954 -0.0002  0.7783 -0.2793
  385TMC3    C8 5816   2.146   0.877  11.650  0.4053  0.0693 -0.9749
  385TMC3    O1 5817   1.974   1.338  11.946  0.0083  0.2323 -0.7861
  385TMC3    O2 5818   2.268   0.900  11.667 -0.0421  0.5879  0.1509
  386TMC3    C1 5819   1.809   3.249  12.242 -0.3303  0.0608 -0.9177
  386TMC3    C2 5820   1.822   3.299  12.116  0.2874 -0.0354  0.0893
  386TMC3    C3 5821   1.706   3.328  12.045  0.1675 -0.6950  0.4464
  386TMC3    C4 5822   1.683   3.236  12.303 -1.1583 -1.1567  0.3125
  386TMC3    C5 5823   1.570   3.262  12.226 -0.0381 -0.6609  0.5364
  386TMC3    C6 5824   1.580   3.308  12.098  0.6801 -0.7019  0.1771
  386TMC3     C 5825   1.927   3.189  12.299 -0.3956 -0.1341  0.2415
  386TMC3     O 5826   2.039   3.240  12.270  0.9020  0.1083  0.7001
  386TMC3     H 5827   1.922   3.312  12.075  0.5426  1.1585  1.0838
  386TMC3    H1 5828   1.670   3.192  12.400  2.1080 -2.6283  0.0893
  386TMC3    H2 5829   1.494   3.347  12.046  1.5848  1.1153  0.0543
  386TMC3    C7 5830   1.442   3.221  12.273  0.0914 -0.2451 -0.2663
  386TMC3    C8 5831   1.711   3.314  11.900  0.3048 -0.1019  0.1203
  386TMC3    O1 5832   1.426   3.212  12.397  0.2812 -0.6090  0.6049
  386TMC3    O2 5833   1.613   3.335  11.839 -0.4613  0.1399  0.6950
  387MPD2     C 5834   4.200   2.966  10.465 -0.1329 -0.1852 -0.1368
  387MPD2    C1 5835   4.334   2.949  10.479  0.3592  0.3510  0.2971
  387MPD2    C2 5836   4.390   2.826  10.444  0.2429 -0.2999  0.3601
  387MPD2    C3 5837   4.319   2.723  10.385 -0.3513 -0.3637 -0.3531
  387MPD2    C4 5838   4.190   2.748  10.353  0.3926 -0.3883  0.1410
  387MPD2    C5 5839   4.130   2.863  10.399  0.7232  0.2364 -0.0426
  387MPD2     H 5840   4.497   2.819  10.458  0.8235  2.2722 -2.9723
  387MPD2    H1 5841   4.115   2.675  10.327 -0.9642  1.2460 -0.5291
  387MPD2    H2 5842   4.139   3.054  10.482  0.9252  0.6437 -0.6371
  387MPD2    H3 5843   4.024   2.884  10.388  0.5491 -0.2896  0.6305
  387MPD2     N 5844   4.390   2.610  10.353  0.4105  0.2393 -0.5916
  387MPD2    H5 5845   4.482   2.601  10.394 -1.6687  2.3778  4.5489
  387MPD2    N1 5846   4.421   3.051  10.519  0.0690  0.0909 -0.7119
  387MPD2    H7 5847   4.518   3.027  10.533  0.0616  0.0333 -0.7619
  388TMC3    C1 5848   4.520   3.262  10.501 -0.7254 -0.3393  0.1323
  388TMC3    C2 5849   4.535   3.369  10.576 -0.0203  0.2466  0.1122
  388TMC3    C3 5850   4.662   3.421  10.595  0.0246 -0.7872  0.0544
  388TMC3    C4 5851   4.629   3.196  10.437  0.1891  0.7370  0.3377
  388TMC3    C5 5852   0.019   3.256  10.459 -0.2323  0.0124  0.5272
  388TMC3    C6 5853   0.037   3.363  10.539 -0.0083  0.0823 -0.3839
  388TMC3     C 5854   4.399   3.186  10.516 -0.6640 -0.4419 -0.4813
  388TMC3     O 5855   4.291   3.246  10.518 -0.5190 -0.3509 -0.0579
  388TMC3     H 5856   4.452   3.406  10.636 -0.8784  0.9735 -1.5081
  388TMC3    H1 5857   4.620   3.113  10.367 -1.0345  0.3378  0.9670
  388TMC3    H2 5858   0.139   3.398  10.551  0.3334 -1.3696  1.0148
  388TMC3    C7 5859   0.137   3.188  10.412  0.1112  0.0547 -0.3720
  388TMC3    C8 5860   4.674   3.539  10.686 -0.8350 -0.0239 -0.1260
  388TMC3    O1 5861   0.228   3.250  10.363  0.1183 -0.3472  0.6303
  388TMC3    O2 5862   4.585   3.555  10.766 -0.3147 -0.0649 -0.7216
  389MPD2     C 5863   4.094   1.214  11.529 -0.4705 -0.8060 -0.6360
  389MPD2    C1 5864   4.012   1.119  11.471 -0.1948  0.2308 -0.1585
  389MPD2    C2 5865   3.925   1.048  11.551 -0.0289  0.7164 -0.2460
  389MPD2    C3 5866   3.931   1.056  11.688 -0.8005  0.2629 -0.0011
  389MPD2    C4 5867   3.997   1.159  11.742 -0.4705  0.7138 -0.1243
  389MPD2    C5 5868   4.074   1.241  11.664  0.8401 -0.0637 -0.2955
  389MPD2     H 5869   3.852   0.982  11.506  0.3288  0.2184 -0.1081
  389MPD2    H1 5870   4.002   1.182  11.848  0.4758  0.1780 -0.0520
  389MPD2    H2 5871   4.167   1.266  11.468 -0.5413 -0.1534 -0.1675
  389MPD2    H3 5872   4.132   1.320  11.711  0.5916 -0.2998  0.4123
  389MPD2     N 5873   3.836   0.988  11.773  0.0368  0.4045  0.1035
  389MPD2    H5 5874   3.848   1.019  11.868 -0.2332  3.6918 -0.9579
  389MPD2    N1 5875   4.005   1.101  11.329 -0.3996 -0.4486 -0.4700
  389MPD2    H7 5876   4.043   1.174  11.271  1.0822  1.5040  2.9564
  390TMC3    C1 5877   3.685   0.821  11.833  0.4398  0.6127 -0.3259
  390TMC3    C2 5878   3.613   0.706  11.802  0.4246 -0.0067  0.2982
  390TMC3    C3 5879   3.508   0.664  11.889  0.6438  0.3440  0.0431
  390TMC3    C4 5880   3.644   0.902  11.941 -0.5645 -0.2205 -0.0195
  390TMC3    C5 5881   3.528   0.864  12.007  0.6774 -0.1732 -0.2118
  390TMC3    C6 5882   3.458   0.742  11.984  0.0734  0.1382 -0.1902
  390TMC3     C 5883   3.758   0.881  11.731  0.8424  0.4220  0.4005
  390TMC3     O 5884   3.772   0.814  11.631  0.5031 -0.6114 -0.2049
  390TMC3     H 5885   3.643   0.645  11.718 -0.3939 -1.0031  0.7305
  390TMC3    H1 5886   3.669   1.007  11.956 -1.7134 -0.3043  2.4447
  390TMC3    H2 5887   3.367   0.721  12.039 -1.4384  3.7482 -1.3067
  390TMC3    C7 5888   3.459   0.966  12.092  0.2809 -0.3852 -0.9130
  390TMC3    C8 5889   3.424   0.553  11.836  0.7759  0.5488 -0.2642
  390TMC3    O1 5890   3.532   1.053  12.144  0.0402  0.2243  0.5922
  390TMC3    O2 5891   3.418   0.545  11.713  0.4850 -0.4260  0.2787
  391MPD2     C 5892   2.655   2.625  11.255  0.6015  0.0840 -0.1770
  391MPD2    C1 5893   2.791   2.635  11.256  0.0736  0.3682  0.3859
  391MPD2    C2 5894   2.859   2.647  11.139 -0.4288 -0.4574  0.4243
  391MPD2    C3 5895   2.797   2.651  11.017 -0.1660 -0.1313 -0.0464
  391MPD2    C4 5896   2.662   2.645  11.011  0.1617  0.0808  0.1328
  391MPD2    C5 5897   2.589   2.632  11.128  0.0017 -0.5162  0.5432
  391MPD2     H 5898   2.967   2.658  11.135 -0.4372  0.2747  2.0898
  391MPD2    H1 5899   2.605   2.650  10.920  1.7468  1.2495 -0.7923
  391MPD2    H2 5900   2.596   2.615  11.345 -0.3674 -0.9710 -0.9368
  391MPD2    H3 5901   2.482   2.625  11.118  0.1916 -0.3168 -1.8585
  391MPD2     N 5902   2.871   2.672  10.897  0.1000 -0.9016  0.0454
  391MPD2    H5 5903   2.973   2.677  10.902  0.0128 -1.2317  2.0887
  391MPD2    N1 5904   2.848   2.627  11.385  0.4569  0.6319 -0.1644
  391MPD2    H7 5905   2.784   2.619  11.463 -0.0014 -0.0669 -0.6166
  392TMC3    C1 5906   2.912   2.774  10.690 -0.7844 -0.1890  0.7857
  392TMC3    C2 5907   2.874   2.790  10.558 -0.2386  0.9523 -0.4358
  392TMC3    C3 5908   2.939   2.891  10.485  0.2508  0.1529  0.0526
  392TMC3    C4 5909   3.018   2.844  10.742 -0.7045  0.0226  0.8384
  392TMC3    C5 5910   3.080   2.937  10.665 -0.6051 -0.2186  0.2194
  392TMC3    C6 5911   3.046   2.964  10.535  0.5500 -0.1966  0.1147
  392TMC3     C 5912   2.823   2.701  10.769  0.2682 -0.2007 -0.4324
  392TMC3     O 5913   2.713   2.687  10.723  0.0138 -0.6390 -0.0413
  392TMC3     H 5914   2.784   2.744  10.520  0.1053  0.8186 -1.0816
  392TMC3    H1 5915   3.029   2.848  10.849  1.8885  0.1083  0.5497
  392TMC3    H2 5916   3.104   3.026  10.467  0.4905 -2.0493 -1.6424
  392TMC3    C7 5917   3.176   3.017  10.743  0.0344 -0.0940 -0.2345
  392TMC3    C8 5918   2.902   2.924  10.346 -0.1073  0.1850  0.1381
  392TMC3    O1 5919   3.225   2.971  10.844 -0.1427  0.0344 -0.3827
  392TMC3    O2 5920   2.852   2.834  10.279 -0.4506  0.8407 -0.0568
  393TMC3    C1 5921   1.863   0.688  10.391  0.2117 -0.1252 -0.7432
  393TMC3    C2 5922   1.732   0.696  10.388 -0.0203 -0.1232 -0.0797
  393TMC3    C3 5923   1.662   0.597  10.321 -0.5031 -0.2604  0.3682
  393TMC3    C4 5924   1.933   0.583  10.328 -0.0409  0.0291 -0.6542
  393TMC3    C5 5925   1.860   0.477  10.272 -0.0023 -0.1773 -0.0552
  393TMC3    C6 5926   1.720   0.486  10.277  0.1999  0.2395 -0.4756
  393TMC3     C 5927   1.940   0.806  10.436  0.7746 -0.8662 -0.4996
  393TMC3     O 5928   1.865   0.879  10.500 -0.5718  0.4904  0.6407
  393TMC3     H 5929   1.673   0.776  10.432  1.4034  2.5832 -3.0857
  393TMC3    H1 5930   2.040   0.575  10.338 -0.0312  1.5712  0.3803
  393TMC3    H2 5931   1.674   0.420  10.204 -1.7292  0.9741  0.0752
  393TMC3    C7 5932   1.925   0.375  10.180 -1.1037  0.1985  0.5124
  393TMC3    C8 5933   1.521   0.586  10.343  0.0137  1.1068 -0.0627
  393TMC3    O1 5934   1.850   0.293  10.134  0.0869 -0.3636  0.0757
  393TMC3    O2 5935   1.467   0.475  10.335  0.0336  0.5685 -0.4260
  394TMC3    C1 5936   3.931   1.032  11.111  0.4178 -0.7216  0.1529
  394TMC3    C2 5937   3.836   0.959  11.042 -0.3526  0.6618 -1.0453
  394TMC3    C3 5938   3.819   0.989  10.910 -0.6039 -0.3798  0.2183
  394TMC3    C4 5939   3.996   1.137  11.057  0.1568  0.1396  0.3910
  394TMC3    C5 5940   3.975   1.163  10.924  0.1991 -0.0974  0.2994
  394TMC3    C6 5941   3.898   1.086  10.846  0.4821  0.5892 -0.4104
  394TMC3     C 5942   3.957   0.997  11.250 -0.3871 -0.3023  0.6016
  394TMC3     O 5943   3.893   0.904  11.285 -0.1249 -0.0471  0.5619
  394TMC3     H 5944   3.771   0.887  11.091 -0.0621  1.4151  0.4367
  394TMC3    H1 5945   4.088   1.172  11.104  0.0733  1.0362 -0.1164
  394TMC3    H2 5946   3.872   1.109  10.743  0.7771 -0.9487 -0.8252
  394TMC3    C7 5947   4.050   1.268  10.855 -0.1709 -0.4264  0.1673
  394TMC3    C8 5948   3.727   0.909  10.834 -0.4059  0.1663 -0.3099
  394TMC3    O1 5949   4.045   1.378  10.912 -0.2744  0.2129  0.3551
  394TMC3    O2 5950   3.715   0.794  10.865  0.2307  0.2334 -0.2531
  395TMC3    C1 5951   3.553   3.345  14.771 -0.2533 -0.6190 -0.6084
  395TMC3    C2 5952   3.419   3.357  14.762  0.6229 -0.3958  0.0396
  395TMC3    C3 5953   3.358   3.477  14.779  0.4479  0.5190  0.2810
  395TMC3    C4 5954   3.629   3.458  14.787 -0.0495  0.1902 -0.0004
  395TMC3    C5 5955   3.569   3.578  14.788  1.1128 -0.9162  0.0799
  395TMC3    C6 5956   3.435   3.588  14.790 -0.8428  0.1856  0.6266
  395TMC3     C 5957   3.583   3.247  14.878  0.0598  0.2842 -0.1408
  395TMC3     O 5958   3.483   3.205  14.936  0.1076 -0.2295  0.3817
  395TMC3     H 5959   3.359   3.275  14.724  1.4812 -0.9134 -0.2052
  395TMC3    H1 5960   3.736   3.460  14.802  0.4328 -0.3008 -3.2296
  395TMC3    H2 5961   3.387   3.678  14.826 -1.3902 -0.0586  0.5109
  395TMC3    C7 5962   3.658   3.688  14.827 -0.1976 -0.7914 -0.0654
  395TMC3    C8 5963   3.236   3.470  14.861 -0.2755  0.1991  0.0776
  395TMC3    O1 5964   3.748   3.665  14.906 -0.0865 -0.9271 -0.2433
  395TMC3    O2 5965   3.193   3.578  14.904  0.0601 -0.1340 -0.3534
  396MPD2     C 5966   2.693   3.897  17.093  0.6568 -0.5053 -0.0453
  396MPD2    C1 5967   2.822   3.847  17.110  0.0652 -0.3299 -0.7348
  396MPD2    C2 5968   2.922   3.943  17.086 -1.0115 -0.2190  0.7547
  396MPD2    C3 5969   2.905   4.075  17.047 -0.2486 -0.0061 -0.2722
  396MPD2    C4 5970   2.773   4.114  17.034 -0.3225 -0.0506 -0.6095
  396MPD2    C5 5971   2.668   4.025  17.060 -0.6150 -0.4510 -0.0868
  396MPD2     H 5972   3.025   3.908  17.085 -0.8483  0.2558  1.3514
  396MPD2    H1 5973   2.743   4.214  17.005 -1.5949 -0.1677  0.2755
  396MPD2    H2 5974   2.611   3.831  17.120  0.6021  0.4529  2.1917
  396MPD2    H3 5975   2.567   4.062  17.054 -0.7705 -1.3063 -2.7561
  396MPD2     N 5976   3.018   4.150  17.005 -0.2768  0.0398  0.7413
  396MPD2    H5 5977   3.110   4.119  17.032 -0.7361 -1.6717  0.3468
  396MPD2    N1 5978   2.854   3.719  17.164  0.3588  0.0639  0.0078
  396MPD2    H7 5979   2.954   3.705  17.180  0.7246  1.3277 -1.2352
  397TMC3    C1 5980   2.819   3.496  17.245  0.2607  0.0261 -0.5792
  397TMC3    C2 5981   2.897   3.442  17.145 -0.0894  0.3209 -0.0245
  397TMC3    C3 5982   2.896   3.303  17.144  0.3585 -0.0701 -0.7209
  397TMC3    C4 5983   2.731   3.424  17.320  0.3091 -1.4037  0.3247
  397TMC3    C5 5984   2.732   3.287  17.309 -0.6570 -0.2431  0.0339
  397TMC3    C6 5985   2.823   3.219  17.226  0.8256 -0.2241 -0.5775
  397TMC3     C 5986   2.761   3.618  17.194 -0.2639  0.7220 -0.8762
  397TMC3     O 5987   2.634   3.622  17.195  0.5585 -0.0308 -0.2262
  397TMC3     H 5988   2.938   3.502  17.065 -1.5566  0.0077 -0.9962
  397TMC3    H1 5989   2.664   3.483  17.382  0.1927  1.0868 -2.1448
  397TMC3    H2 5990   2.825   3.111  17.218 -1.2096 -0.1201 -2.5465
  397TMC3    C7 5991   2.680   3.209  17.420 -0.0402  0.1451 -0.4826
  397TMC3    C8 5992   2.935   3.250  17.013 -0.0061  0.2527 -1.1290
  397TMC3    O1 5993   2.728   3.096  17.441  0.0554 -0.0628  0.2129
  397TMC3    O2 5994   3.033   3.299  16.956  0.2623 -0.3447 -0.2637
  398MPD2     C 5995   1.535   4.607   0.088  0.3372  0.0885  0.5291
  398MPD2    C1 5996   1.515   4.533   0.198  0.0559 -0.5370 -0.6921
  398MPD2    C2 5997   1.515   4.588   0.322  0.4702 -0.1148 -0.1529
  398MPD2    C3 5998   1.567   4.712   0.338 -0.0129 -0.8923  0.0447
  398MPD2    C4 5999   1.592   0.063   0.226  0.0692  0.2751  0.6731
  398MPD2    C5 6000   1.573   0.000   0.108  0.2124  0.5599 -0.3711
  398MPD2     H 6001   1.497   4.529   0.411  0.6651 -0.1030 -0.1046
  398MPD2    H1 6002   1.622   0.167   0.231  0.1115  0.2918  0.0962
  398MPD2    H2 6003   1.523   4.567  17.729 -0.2926 -1.4876  1.2416
  398MPD2    H3 6004   1.599   0.061   0.021 -0.7782  0.5721 -0.6667
  398MPD2     N 6005   1.593   0.008   0.469  0.0054  0.1325  0.1588
  398MPD2    H5 6006   1.578   4.670   0.536  0.1000 -2.8653 -3.1271
  398MPD2    N1 6007   1.483   4.396   0.195  0.1211  0.1695 -0.3669
  398MPD2    H7 6008   1.482   4.354   0.287  1.5168 -0.8519 -0.8219
  399TMC3    C1 6009   1.426   4.180   0.133 -0.4862  0.6344  0.4576
  399TMC3    C2 6010   1.369   4.172   0.259  0.1511 -0.0238 -0.0199
  399TMC3    C3 6011   1.346   4.051   0.315  0.2741 -0.3982  0.9813
  399TMC3    C4 6012   1.445   4.072   0.055 -0.5071 -0.1682  0.0373
  399TMC3    C5 6013   1.409   3.954   0.112 -0.2862 -0.4278 -0.3610
  399TMC3    C6 6014   1.363   3.939   0.242 -0.6036 -0.3246  0.3430
  399TMC3     C 6015   1.476   4.312   0.090 -0.7465  0.1416 -0.0857
  399TMC3     O 6016   1.501   4.334  17.716 -0.1870  0.3250 -0.0471
  399TMC3     H 6017   1.345   4.255   0.324  2.4522  0.8905 -0.3352
  399TMC3    H1 6018   1.468   4.087  17.692  0.9492 -2.4194  0.0203
  399TMC3    H2 6019   1.368   3.840   0.286  0.7664 -0.5691 -0.3620
  399TMC3    C7 6020   1.378   3.834   0.030 -0.1329  0.0993 -0.4534
  399TMC3    C8 6021   1.357   4.026   0.457 -0.0217 -0.1701  0.1314
  399TMC3    O1 6022   1.368   3.729   0.090 -0.0587 -0.1128 -0.4196
  399TMC3    O2 6023   1.393   3.914   0.498 -0.3966 -0.1232 -0.1697
  400TMC3    C1 6024   4.399   2.827  16.895  0.2330 -0.1081 -0.1854
  400TMC3    C2 6025   4.286   2.749  16.880 -0.1695  0.0091 -0.5812
  400TMC3    C3 6026   4.173   2.817  16.865  0.4227 -0.5419 -0.2076
  400TMC3    C4 6027   4.402   2.965  16.890 -0.6404 -0.2837  0.4534
  400TMC3    C5 6028   4.282   3.024  16.869  0.2458 -0.1236 -0.5204
  400TMC3    C6 6029   4.165   2.954  16.863 -0.3805  0.9847  0.4127
  400TMC3     C 6030   4.520   2.772  16.955 -0.8891  0.5701 -0.7379
  400TMC3     O 6031   4.610   2.845  16.991  0.2017  0.1347 -0.2384
  400TMC3     H 6032   4.288   2.641  16.895  0.1860 -0.0051 -0.7454
  400TMC3    H1 6033   4.494   3.022  16.901  1.0299 -2.4323 -2.0832
  400TMC3    H2 6034   4.070   3.003  16.841 -0.0049  1.3407 -0.4191
  400TMC3    C7 6035   4.274   3.157  16.823  0.3379 -0.0422 -0.8153
  400TMC3    C8 6036   4.059   2.748  16.813 -0.2464 -0.2885  0.0864
  400TMC3    O1 6037   4.182   3.175  16.742  0.3154  0.4904  0.0827
  400TMC3    O2 6038   3.948   2.787  16.851 -0.2548  0.2394  0.4840
  401MPD2     C 6039   3.184   1.600   0.263  0.1228 -0.1644  0.7611
  401MPD2    C1 6040   3.219   1.517   0.364  0.1938 -0.2192  0.1365
  401MPD2    C2 6041   3.176   1.381   0.350 -0.0949 -0.8608  0.4556
  401MPD2    C3 6042   3.122   1.336   0.231 -0.0607 -0.8213 -1.1784
  401MPD2    C4 6043   3.098   1.426   0.132  0.7254  0.0592 -0.2087
  401MPD2    C5 6044   3.136   1.554   0.145 -0.2194  1.1168 -0.1182
  401MPD2     H 6045   3.214   1.314   0.426  0.6720 -1.2150 -0.2360
  401MPD2    H1 6046   3.050   1.406   0.036 -0.1996  1.4904 -0.0496
  401MPD2    H2 6047   3.206   1.706   0.267  1.0514 -0.3616  0.7129
  401MPD2    H3 6048   3.098   1.621   0.068 -0.8673  2.2671  1.2019
  401MPD2     N 6049   3.088   1.197   0.234 -0.5552  0.2358 -0.6139
  401MPD2    H5 6050   3.131   1.147   0.312  0.3080 -0.6237 -1.6411
  401MPD2    N1 6051   3.284   1.559   0.483  0.5348  0.7502 -0.0145
  401MPD2    H7 6052   3.316   1.491   0.551 -0.1072  1.0859  0.6238
  402TMC3    C1 6053   2.973   0.999   0.202 -0.1463 -1.0114  0.6990
  402TMC3    C2 6054   2.966   0.991   0.341  0.2931 -0.5456 -0.4518
  402TMC3    C3 6055   2.992   0.863   0.390 -0.2173 -0.1257 -0.1599
  402TMC3    C4 6056   3.002   0.896   0.118  0.3081  1.6660  0.2727
  402TMC3    C5 6057   3.020   0.776   0.179  1.0647  0.1066  0.3061
  402TMC3    C6 6058   3.014   0.750   0.310 -0.1490 -0.7503 -0.5523
  402TMC3     C 6059   3.004   1.131   0.150 -0.0350 -0.1430  0.4085
  402TMC3     O 6060   2.952   1.175   0.048 -0.4172  0.3024 -0.2196
  402TMC3     H 6061   2.946   1.081   0.398  2.6078  0.0454 -0.5698
  402TMC3    H1 6062   3.011   0.910   0.010  1.1303 -0.4923  0.0629
  402TMC3    H2 6063   3.009   0.648   0.347 -1.4430 -0.6325 -0.3677
  402TMC3    C7 6064   3.029   0.657   0.094 -0.6711  0.0669  0.7277
  402TMC3    C8 6065   3.006   0.849   0.529 -0.2233 -0.1259  0.2911
  402TMC3    O1 6066   2.969   0.664  17.731  0.0285 -0.2322  0.5489
  402TMC3    O2 6067   3.082   0.760   0.565  0.5523  0.2698  0.6404
  403MPD2     C 6068   1.473   1.180  13.493  0.1187 -0.4728  0.0175
  403MPD2    C1 6069   1.529   1.054  13.527  0.3949 -1.0652  0.0683
  403MPD2    C2 6070   1.588   1.039  13.652  0.4526  0.1665  0.3468
  403MPD2    C3 6071   1.595   1.147  13.739  0.1367  0.0802 -0.0940
  403MPD2    C4 6072   1.535   1.266  13.710 -0.6143 -0.7734 -0.0713
  403MPD2    C5 6073   1.477   1.286  13.585  0.3155 -0.3929  0.3879
  403MPD2     H 6074   1.629   0.944  13.686  0.2104 -0.2887 -0.6541
  403MPD2    H1 6075   1.545   1.354  13.773  0.5485 -0.3300 -0.8843
  403MPD2    H2 6076   1.422   1.192  13.398 -0.8966  1.6902  0.8464
  403MPD2    H3 6077   1.414   1.370  13.560  0.4044  0.1446  1.9897
  403MPD2     N 6078   1.662   1.112  13.862 -0.4651 -0.4317  0.9900
  403MPD2    H5 6079   1.712   1.024  13.858 -1.3691 -0.8885 -0.4581
  403MPD2    N1 6080   1.496   0.949  13.439  0.0052 -0.2175  0.2089
  403MPD2    H7 6081   1.458   0.974  13.349 -0.4903 -0.2665  0.4036
  404TMC3    C1 6082   1.446   0.738  13.363 -0.0403  0.3465  0.0781
  404TMC3    C2 6083   1.409   0.617  13.401  0.6619  0.1223 -0.2813
  404TMC3    C3 6084   1.408   0.515  13.305 -0.3615 -0.0122 -0.2729
  404TMC3    C4 6085   1.474   0.776  13.234 -0.0524 -0.3030  0.9920
  404TMC3    C5 6086   1.466   0.677  13.140  0.0415 -0.1939 -0.5657
  404TMC3    C6 6087   1.436   0.544  13.172 -0.7054  0.5586 -0.5066
  404TMC3     C 6088   1.509   0.815  13.466  0.3728  0.9006 -0.0585
  404TMC3     O 6089   1.518   0.766  13.579  0.0139  0.1155  0.2102
  404TMC3     H 6090   1.383   0.603  13.506 -1.9583 -0.8261 -1.0571
  404TMC3    H1 6091   1.518   0.872  13.209  0.7635 -0.8079  0.4534
  404TMC3    H2 6092   1.455   0.464  13.101 -0.1852 -0.8400  1.2133
  404TMC3    C7 6093   1.518   0.712  13.011  0.5516  0.6083 -0.1660
  404TMC3    C8 6094   1.418   0.379  13.351 -0.4299 -0.1412  0.6709
  404TMC3    O1 6095   1.586   0.814  13.000  0.1071  0.5404  0.5494
  404TMC3    O2 6096   1.421   0.283  13.277  0.4928  0.3690 -0.0550
  405MPD2     C 6097   1.496   0.929  15.044 -0.6194  0.5764  0.1975
  405MPD2    C1 6098   1.476   0.808  15.106 -0.0327 -0.0475 -0.4172
  405MPD2    C2 6099   1.445   0.699  15.039 -0.2228 -0.2457 -0.1412
  405MPD2    C3 6100   1.437   0.696  14.909  0.3171  0.5046 -0.0509
  405MPD2    C4 6101   1.459   0.816  14.838  0.2337 -0.4002  0.1560
  405MPD2    C5 6102   1.479   0.933  14.906  0.1914 -0.5185 -0.3367
  405MPD2     H 6103   1.429   0.608  15.095  1.2457 -1.5777 -1.9011
  405MPD2    H1 6104   1.459   0.837  14.731 -0.7698 -0.0881  0.2158
  405MPD2    H2 6105   1.535   1.018  15.091 -1.9715  0.2632  1.8679
  405MPD2    H3 6106   1.501   1.028  14.859  0.8467 -0.6362 -0.2659
  405MPD2     N 6107   1.381   0.581  14.852  1.1714 -0.1549 -0.6024
  405MPD2    H5 6108   1.331   0.515  14.911 -1.0305  1.4914 -0.6157
  405MPD2    N1 6109   1.495   0.821  15.245  0.4518 -0.2837  0.0797
  405MPD2    H7 6110   1.520   0.913  15.278 -1.3530  0.5007 -0.7770
  406TMC3    C1 6111   1.578   0.685  14.435  0.1104 -0.1609  0.1171
  406TMC3    C2 6112   1.711   0.674  14.481  0.2745 -0.6887  0.1718
  406TMC3    C3 6113   1.727   0.620  14.604  0.3884 -0.7999  0.0293
  406TMC3    C4 6114   1.473   0.648  14.510  0.4564 -0.0223 -0.5004
  406TMC3    C5 6115   1.488   0.607  14.639 -0.1640 -0.0944  0.6068
  406TMC3    C6 6116   1.616   0.588  14.688  0.5204 -0.3445 -0.1669
  406TMC3     C 6117   1.550   0.767  14.320  0.3719 -0.1744 -0.3649
  406TMC3     O 6118   1.634   0.775  14.232  0.6348  0.5642 -0.5631
  406TMC3     H 6119   1.791   0.704  14.413  0.2393 -0.5976  0.1710
  406TMC3    H1 6120   1.371   0.658  14.474 -0.2314 -0.6944  1.2576
  406TMC3    H2 6121   1.636   0.543  14.784 -0.4449 -0.3819  0.0143
  406TMC3    C7 6122   1.377   0.557  14.716  0.7358  0.3034 -0.0334
  406TMC3    C8 6123   1.851   0.657  14.676 -0.7217 -0.1861  0.4396
  406TMC3    O1 6124   1.307   0.482  14.651  0.1597 -0.1884 -0.3139
  406TMC3    O2 6125   1.949   0.694  14.609 -0.1565  0.5528  0.1628
  407MPD2     C 6126   3.741   2.642   9.980 -0.1393  0.1318 -0.0879
  407MPD2    C1 6127   3.853   2.675  10.056 -0.2011  0.3197 -0.0629
  407MPD2    C2 6128   3.847   2.708  10.190  0.5753  0.3323  0.4100
  407MPD2    C3 6129   3.725   2.711  10.252  0.3482  0.4292 -0.3041
  407MPD2    C4 6130   3.613   2.679  10.177  0.2562 -0.2037 -0.4473
  407MPD2    C5 6131   3.618   2.645  10.044 -0.2264  0.2087  0.7012
  407MPD2     H 6132   3.922   2.759  10.249  2.6030  0.4447 -2.2636
  407MPD2    H1 6133   3.513   2.680  10.219  0.8106 -1.7227  0.9137
  407MPD2    H2 6134   3.745   2.628   9.873 -1.6794  1.7222 -0.3621
  407MPD2    H3 6135   3.527   2.636   9.986 -0.4698  0.1749  1.0914
  407MPD2     N 6136   3.691   2.746  10.385 -0.5118 -0.3507  0.2776
  407MPD2    H5 6137   3.598   2.781  10.408 -0.0849  0.6631  0.4731
  407MPD2    N1 6138   3.985   2.685   9.998 -0.5507  0.1324  0.2382
  407MPD2    H7 6139   4.057   2.722  10.059 -0.6299 -0.8636  0.9377
  408TMC3    C1 6140   4.156   2.637   9.857  0.3541 -0.2976  0.0189
  408TMC3    C2 6141   4.209   2.518   9.811  0.0867 -0.2179 -0.6883
  408TMC3    C3 6142   4.346   2.501   9.837 -0.0548  1.2089 -0.0688
  408TMC3    C4 6143   4.223   2.717   9.944 -0.1289 -0.0578  0.4293
  408TMC3    C5 6144   4.363   2.697   9.958 -0.2762 -0.4451  0.6898
  408TMC3    C6 6145   4.426   2.586   9.904 -0.4775  0.1535 -0.2007
  408TMC3     C 6146   4.016   2.626   9.879  0.1153  0.3173  0.6510
  408TMC3     O 6147   3.942   2.549   9.816  0.3530 -0.1207 -0.4414
  408TMC3     H 6148   4.148   2.439   9.771  0.6951  0.7334 -3.4859
  408TMC3    H1 6149   4.177   2.811   9.973 -2.0800 -0.5597 -1.0498
  408TMC3    H2 6150   4.533   2.578   9.921 -1.1590 -0.5312  3.8889
  408TMC3    C7 6151   4.443   2.805  10.021 -0.3487  0.4845  0.1485
  408TMC3    C8 6152   4.394   2.355   9.846 -0.3744 -0.3171 -0.5379
  408TMC3    O1 6153   4.562   2.786  10.008 -0.1124  0.2753  0.3701
  408TMC3    O2 6154   4.310   2.269   9.864 -0.0768 -0.7001 -0.0515
  409MPD2     C 6155   3.527   2.443  17.034  0.1186  0.4714 -0.0704
  409MPD2    C1 6156   3.613   2.485  17.130 -0.2927 -0.6570  0.3727
  409MPD2    C2 6157   3.662   2.612  17.119  0.3641  0.5721 -0.2927
  409MPD2    C3 6158   3.612   2.706  17.042 -0.3681 -0.1546 -0.0924
  409MPD2    C4 6159   3.520   2.664  16.945  0.0635  0.1998 -0.0367
  409MPD2    C5 6160   3.488   2.529  16.941 -0.3260  1.1701  0.3442
  409MPD2     H 6161   3.740   2.647  17.186 -0.3291 -0.6995  1.1912
  409MPD2    H1 6162   3.473   2.732  16.876 -0.5544  1.7865  1.9399
  409MPD2    H2 6163   3.489   2.343  17.018 -0.9036  1.2782 -2.5584
  409MPD2    H3 6164   3.415   2.502  16.865  0.7378  0.2884 -0.3618
  409MPD2     N 6165   3.653   2.836  17.035 -0.5779  0.2072  0.7418
  409MPD2    H5 6166   3.604   2.896  16.969  0.2838 -0.7196 -0.7498
  409MPD2    N1 6167   3.672   2.394  17.222 -0.5091  0.1431 -0.2820
  409MPD2    H7 6168   3.734   2.438  17.289  0.4958 -2.3772  0.4614
  410TMC3    C1 6169   3.760   3.036  17.090 -0.6424 -0.6887  0.0601
  410TMC3    C2 6170   3.827   3.110  17.186  0.5804 -0.3959  0.3314
  410TMC3    C3 6171   3.913   3.210  17.143 -0.1878 -0.6745  0.8390
  410TMC3    C4 6172   3.768   3.070  16.957  0.1878  0.4242  0.0214
  410TMC3    C5 6173   3.841   3.183  16.923 -0.5624 -0.5203 -0.3660
  410TMC3    C6 6174   3.907   3.253  17.014  0.0878 -0.5479  0.1915
  410TMC3     C 6175   3.734   2.898  17.128  0.3262  0.1381 -0.6728
  410TMC3     O 6176   3.798   2.858  17.225  0.5809  0.4379  0.9643
  410TMC3     H 6177   3.822   3.090  17.292  0.3107 -2.4988 -0.0780
  410TMC3    H1 6178   3.726   3.004  16.882  2.5302  0.6547 -1.4664
  410TMC3    H2 6179   3.970   3.339  16.994  0.6621 -0.4169  2.5371
  410TMC3    C7 6180   3.821   3.239  16.785 -0.4308 -0.1675  0.0798
  410TMC3    C8 6181   4.049   3.176  17.169  0.3153  0.1024 -0.2968
  410TMC3    O1 6182   3.796   3.163  16.695  0.3799  0.1413 -0.2185
  410TMC3    O2 6183   4.128   3.269  17.176 -0.1423  0.2995  0.1756
  411MPD2     C 6184   3.939   4.385  14.567  0.2408 -0.3968  0.5079
  411MPD2    C1 6185   3.830   4.457  14.533 -0.0604 -0.2329 -0.0070
  411MPD2    C2 6186   3.767   4.432  14.412  0.0762  0.0084  0.0365
  411MPD2    C3 6187   3.822   4.329  14.327 -0.6297  0.0182 -0.4947
  411MPD2    C4 6188   3.938   4.256  14.361 -0.0762  0.4496  0.2891
  411MPD2    C5 6189   3.995   4.288  14.483  0.1056  0.1920 -0.3710
  411MPD2     H 6190   3.689   4.500  14.380 -0.8595 -1.5444 -1.0223
  411MPD2    H1 6191   3.967   4.165  14.311 -1.8088 -0.1015  0.2891
  411MPD2    H2 6192   3.998   4.394  14.657 -1.0428 -1.0049  1.4165
  411MPD2    H3 6193   4.078   4.224  14.514  1.8690  1.8573 -1.6784
  411MPD2     N 6194   3.772   4.298  14.200  0.6556  0.1404 -0.4818
  411MPD2    H5 6195   3.809   4.217  14.151 -0.3621 -0.9605  0.5776
  411MPD2    N1 6196   3.767   4.551  14.617  0.3808  0.2844 -0.4605
  411MPD2    H7 6197   3.677   4.586  14.585  1.6780  2.8383 -1.3243
  412TMC3    C1 6198   3.648   4.303  14.000 -0.3172  0.2787  0.0324
  412TMC3    C2 6199   3.656   4.382  13.889  0.2173 -0.2624 -0.2914
  412TMC3    C3 6200   3.638   4.314  13.769 -0.3789 -0.6640 -0.2810
  412TMC3    C4 6201   3.637   4.170  13.993  0.2469  1.0855  0.3483
  412TMC3    C5 6202   3.618   4.106  13.874  0.4674 -0.2601  0.1012
  412TMC3    C6 6203   3.601   4.184  13.765 -1.5111  0.1510 -0.7653
  412TMC3     C 6204   3.672   4.367  14.130 -0.7540  0.1344  0.5587
  412TMC3     O 6205   3.615   4.474  14.138  0.2841 -0.1039  0.0824
  412TMC3     H 6206   3.685   4.487  13.895 -2.4358  0.4148  0.7356
  412TMC3    H1 6207   3.634   4.109  14.082 -1.3848 -1.5716 -1.5080
  412TMC3    H2 6208   3.581   4.138  13.669  0.5417 -0.0277 -1.1120
  412TMC3    C7 6209   3.688   3.986  13.853  0.5186 -0.2669  0.6317
  412TMC3    C8 6210   3.731   4.344  13.658 -0.1824 -0.3444  0.1541
  412TMC3    O1 6211   3.664   3.891  13.928  0.7194 -0.2667 -0.0994
  412TMC3    O2 6212   3.744   4.252  13.582 -1.2361  0.4146 -0.0652
  413MPD2     C 6213   0.648   2.106  16.244 -0.5312  0.3121 -0.0208
  413MPD2    C1 6214   0.685   2.120  16.110 -0.2159  0.1981  0.0091
  413MPD2    C2 6215   0.813   2.073  16.079 -0.0169 -0.7590 -0.0142
  413MPD2    C3 6216   0.884   1.990  16.165  0.4105 -0.1350 -0.0182
  413MPD2    C4 6217   0.844   1.978  16.289  0.6057  0.9611 -0.0964
  413MPD2    C5 6218   0.731   2.041  16.334 -0.2192  0.4637  0.0787
  413MPD2     H 6219   0.849   2.113  15.985  0.5111  1.3865  1.0815
  413MPD2    H1 6220   0.904   1.929  16.364  0.4161  0.0982 -0.5002
  413MPD2    H2 6221   0.552   2.146  16.275 -0.3806  0.3240  0.4395
  413MPD2    H3 6222   0.711   2.048  16.440  0.4188  1.5928  0.1303
  413MPD2     N 6223   1.007   1.933  16.120 -0.0079  0.2611 -0.2889
  413MPD2    H5 6224   1.036   1.957  16.026 -1.3372 -0.6841 -0.9481
  413MPD2    N1 6225   0.596   2.186  16.028  0.1353  0.3223 -0.8354
  413MPD2    H7 6226   0.503   2.195  16.068  0.9924 -2.5455  1.7649
  414TMC3    C1 6227   1.210   1.817  16.140  0.5497 -0.5660 -0.2135
  414TMC3    C2 6228   1.265   1.698  16.186  0.3043  0.3010  0.2160
  414TMC3    C3 6229   1.374   1.651  16.118  0.5514  0.0977  0.2058
  414TMC3    C4 6230   1.247   1.880  16.019  1.1083  0.2295 -0.3409
  414TMC3    C5 6231   1.348   1.820  15.951  0.4171  0.2243 -0.4327
  414TMC3    C6 6232   1.416   1.713  16.000  0.1300  0.2860  0.5273
  414TMC3     C 6233   1.078   1.843  16.194 -0.2941 -0.0347  0.0822
  414TMC3     O 6234   1.043   1.768  16.286  0.5301 -0.3474  0.2656
  414TMC3     H 6235   1.236   1.652  16.280  1.2787 -0.2289  0.2681
  414TMC3    H1 6236   1.211   1.980  16.000 -1.3160 -0.7116 -0.6051
  414TMC3    H2 6237   1.501   1.670  15.948 -0.2100  1.4287 -0.9842
  414TMC3    C7 6238   1.390   1.872  15.824 -0.7453  0.8321 -0.0353
  414TMC3    C8 6239   1.402   1.509  16.133  0.4115 -0.4474  0.5142
  414TMC3    O1 6240   1.503   1.836  15.781 -0.2810  0.1751 -0.0457
  414TMC3    O2 6241   1.311   1.431  16.166  0.8016  0.5522  0.7215
  415TMC3    C1 6242   1.195   0.215  10.170  0.5866  0.3949  0.7443
  415TMC3    C2 6243   1.199   0.350  10.182 -0.3554 -0.8458 -0.3455
  415TMC3    C3 6244   1.079   0.411  10.213  0.4651 -0.1544 -0.1467
  415TMC3    C4 6245   1.071   0.153  10.167 -0.3765  0.2491 -0.7752
  415TMC3    C5 6246   0.964   0.216  10.207  0.0466  0.3783  0.1495
  415TMC3    C6 6247   0.962   0.346  10.235  0.0622  0.8509  0.2669
  415TMC3     C 6248   1.311   0.142  10.140 -0.0730  0.0129 -0.6024
  415TMC3     O 6249   1.300   0.031  10.087 -0.4062 -0.2433 -0.1452
  415TMC3     H 6250   1.284   0.414  10.159 -0.4024 -0.5619  0.2788
  415TMC3    H1 6251   1.074   0.045  10.156 -0.7519  0.1594 -0.0453
  415TMC3    H2 6252   0.872   0.396  10.271  0.2438  0.2201  1.6202
  415TMC3    C7 6253   0.831   0.151  10.208 -0.5013 -0.7838 -0.5774
  415TMC3    C8 6254   1.067   0.558  10.205 -0.2257 -0.3328  0.2049
  415TMC3    O1 6255   0.725   0.213  10.203 -0.0299 -0.6683  0.3065
  415TMC3    O2 6256   0.962   0.605  10.244 -0.3220 -0.4140 -0.1635
  416MPD2     C 6257   3.403   3.966  11.709  0.6321 -0.1650  0.2747
  416MPD2    C1 6258   3.297   3.895  11.757 -0.2221 -0.4482  0.5601
  416MPD2    C2 6259   3.273   3.771  11.703  0.4524 -0.9282 -0.1930
  416MPD2    C3 6260   3.343   3.722  11.599 -0.0901 -0.3268  0.4073
  416MPD2    C4 6261   3.437   3.802  11.543  0.0104  0.3156  0.0490
  416MPD2    C5 6262   3.465   3.921  11.594  0.1565  1.1647  0.3761
  416MPD2     H 6263   3.197   3.709  11.749  0.3895 -0.9565 -0.3359
  416MPD2    H1 6264   3.477   3.766  11.448  3.1284  1.4132  0.9685
  416MPD2    H2 6265   3.429   4.066  11.742 -0.4726 -0.5512  2.3592
  416MPD2    H3 6266   3.540   3.989  11.554  1.4370 -0.6729 -0.3236
  416MPD2     N 6267   3.289   3.607  11.544 -0.4955  0.4238  0.0030
  416MPD2    H5 6268   3.208   3.570  11.593  0.5242 -2.1333 -0.2542
  416MPD2    N1 6269   3.212   3.960  11.852 -0.4472  0.1808 -0.3396
  416MPD2    H7 6270   3.236   4.055  11.880  1.3579 -0.2241 -0.4759
  417TMC3    C1 6271   3.008   4.004  11.948  0.2951  0.1010 -0.0771
  417TMC3    C2 6272   2.957   3.985  12.071  0.2984  0.7108 -0.1198
  417TMC3    C3 6273   2.839   4.052  12.098  0.1252 -0.4582  0.0217
  417TMC3    C4 6274   2.953   4.097  11.858 -0.1774  0.2548 -0.4295
  417TMC3    C5 6275   2.845   4.170  11.900 -0.1475 -0.0808  0.2238
  417TMC3    C6 6276   2.782   4.142  12.016  0.1675  0.6545  0.4486
  417TMC3     C 6277   3.093   3.905  11.885  0.2426 -0.6954 -0.5879
  417TMC3     O 6278   3.027   3.825  11.823  0.0325  0.4171  0.2859
  417TMC3     H 6279   3.003   3.914  12.137  0.1348 -0.5268 -1.3389
  417TMC3    H1 6280   2.987   4.103  11.755  0.2747  0.8893 -0.2429
  417TMC3    H2 6281   2.692   4.192  12.049  0.2758 -0.5862  2.6311
  417TMC3    C7 6282   2.765   4.212  11.789  0.2952 -0.0879 -0.6765
  417TMC3    C8 6283   2.792   4.069  12.233  0.0223 -0.4311 -0.2635
  417TMC3    O1 6284   2.828   4.247  11.685 -0.0519 -0.2244 -0.2531
  417TMC3    O2 6285   2.740   4.180  12.257 -0.8003  0.1304  0.1545
  418TMC3    C1 6286   1.765   0.225   0.840  0.5391  0.5046 -0.7733
  418TMC3    C2 6287   1.729   0.219   0.709 -0.0709  0.3883 -0.2818
  418TMC3    C3 6288   1.681   0.107   0.654 -0.2841 -0.6360 -0.0700
  418TMC3    C4 6289   1.775   0.110   0.911  0.4777  0.1565  0.3920
  418TMC3    C5 6290   1.740   4.733   0.845  0.3822 -0.0352  0.1484
  418TMC3    C6 6291   1.698   4.723   0.715 -0.4987 -0.0844 -0.0896
  418TMC3     C 6292   1.839   0.353   0.880 -0.7409  0.8241 -0.4389
  418TMC3     O 6293   1.804   0.451   0.823 -1.0879 -0.2950  0.2353
  418TMC3     H 6294   1.731   0.315   0.658 -1.6987  0.0289 -1.0070
  418TMC3    H1 6295   1.786   0.124   1.018 -0.0228  1.2944  0.2916
  418TMC3    H2 6296   1.681   4.626   0.671 -0.2423 -0.0690 -0.2228
  418TMC3    C7 6297   1.769   4.608   0.910 -1.3424 -0.3221  0.4370
  418TMC3    C8 6298   1.649   0.125   0.515  0.1929 -0.0923 -0.4897
  418TMC3    O1 6299   1.819   4.523   0.837 -0.4830  0.1580 -0.2365
  418TMC3    O2 6300   1.668   0.235   0.463 -0.2625 -0.1975  0.2589
  419MPD2     C 6301   0.319   4.092  12.314  0.4698 -0.5034 -0.1300
  419MPD2    C1 6302   0.238   4.201  12.328  0.2549 -0.1565 -0.0462
  419MPD2    C2 6303   0.190   4.241  12.457 -0.2469  0.2852 -0.3135
  419MPD2    C3 6304   0.224   4.159  12.564  0.8993 -0.3215 -0.5781
  419MPD2    C4 6305   0.296   4.044  12.551  0.0114 -0.1747  0.6861
  419MPD2    C5 6306   0.348   4.017  12.426 -0.1695 -0.1520 -0.1043
  419MPD2     H 6307   0.117   4.319  12.476  0.0165  0.6293 -0.7379
  419MPD2    H1 6308   0.311   3.966  12.624  0.8316 -1.1389 -0.5242
  419MPD2    H2 6309   0.359   4.053  12.221 -0.2933  2.1733 -1.5859
  419MPD2    H3 6310   0.404   3.924  12.421 -1.1803 -0.8815  2.1630
  419MPD2     N 6311   0.174   4.212  12.686  0.2851  0.6801  0.0347
  419MPD2    H5 6312   0.125   4.301  12.683 -0.7274  0.1903  2.4974
  419MPD2    N1 6313   0.184   4.278  12.218  0.2305 -0.6899  0.5382
  419MPD2    H7 6314   0.123   4.356  12.241  0.8786 -0.0290  0.0282
  420TMC3    C1 6315   0.129   4.230  12.915  0.4619  0.0274  0.3364
  420TMC3    C2 6316   0.062   4.348  12.893  0.3740  0.4582  0.4321
  420TMC3    C3 6317   0.049   4.437  12.993 -0.2584  0.0219  0.4170
  420TMC3    C4 6318   0.181   4.205  13.039  0.3265  0.2518 -0.4465
  420TMC3    C5 6319   0.163   4.298  13.141  0.0249 -0.7736  0.6075
  420TMC3    C6 6320   0.104   4.419  13.120  0.2310  0.1026  0.2763
  420TMC3     C 6321   0.175   4.149  12.808 -0.2698  0.3866 -0.2134
  420TMC3     O 6322   0.226   4.040  12.835 -0.0204  0.2227  0.7849
  420TMC3     H 6323   0.009   4.366  12.800 -1.4897 -2.5476  0.8975
  420TMC3    H1 6324   0.208   4.103  13.062 -0.2649  0.4238  1.0037
  420TMC3    H2 6325   0.079   4.489  13.198 -0.4573  1.7322 -1.4154
  420TMC3    C7 6326   0.239   4.287  13.268 -0.5389  0.1256  0.0210
  420TMC3    C8 6327   4.701   4.556  12.960  0.7685  0.6370  0.2576
  420TMC3    O1 6328   0.226   4.376  13.348 -0.3123  0.0963 -0.5661
  420TMC3    O2 6329   4.609   4.532  12.878 -0.8696 -0.4912 -0.0428
  421TMC3    C1 6330   1.715   1.146  14.092  0.3219  0.9327  0.0877
  421TMC3    C2 6331   1.670   1.203  14.205  0.1809  0.0487 -0.2561
  421TMC3    C3 6332   1.726   1.167  14.324  0.1833 -0.1359 -0.2625
  421TMC3    C4 6333   1.809   1.046  14.092  0.4019 -0.1160 -0.4187
  421TMC3    C5 6334   1.853   1.004  14.213  0.0889  0.7387 -0.0043
  421TMC3    C6 6335   1.829   1.077  14.325  0.3010  0.2351  0.0001
  421TMC3     C 6336   1.652   1.188  13.970  0.0798 -0.2823  0.0389
  421TMC3     O 6337   1.588   1.287  13.990  0.4124 -0.2774 -0.2453
  421TMC3     H 6338   1.594   1.281  14.206  0.8347  0.6581  0.7805
  421TMC3    H1 6339   1.857   1.005  14.004  0.2416 -1.2989  0.0534
  421TMC3    H2 6340   1.872   1.039  14.417  1.2507  1.1724 -0.0657
  421TMC3    C7 6341   1.951   0.898  14.218 -0.4260 -0.6478 -0.1028
  421TMC3    C8 6342   1.695   1.230  14.452  0.3172  0.5351 -0.6683
  421TMC3    O1 6343   2.021   0.881  14.318 -0.2423 -0.3913 -0.6427
  421TMC3    O2 6344   1.730   1.173  14.554 -0.7046  0.3718 -0.3227
  422TMC3    C1 6345   4.139   2.102  13.099  0.3541  0.0060 -0.1969
  422TMC3    C2 6346   4.125   2.237  13.088  0.7700  0.2404 -0.1334
  422TMC3    C3 6347   4.006   2.297  13.110 -0.2689  0.3260 -0.1131
  422TMC3    C4 6348   4.037   2.018  13.137  0.2979 -0.4570  0.6240
  422TMC3    C5 6349   3.914   2.084  13.148  0.6166 -0.0330 -0.0063
  422TMC3    C6 6350   3.899   2.224  13.141  0.3199  0.5213 -0.2532
  422TMC3     C 6351   4.260   2.037  13.046  0.0738 -0.3200 -0.1742
  422TMC3     O 6352   4.353   2.116  13.047  0.4162 -0.9557  0.1419
  422TMC3     H 6353   4.215   2.295  13.075  1.1306 -0.3764 -0.3926
  422TMC3    H1 6354   4.038   1.910  13.137 -1.3722 -0.4683  0.5881
  422TMC3    H2 6355   3.799   2.261  13.161  0.7903  1.1686  0.8889
  422TMC3    C7 6356   3.807   1.996  13.209  0.2215  0.1927  0.4789
  422TMC3    C8 6357   3.995   2.427  13.047 -0.9692 -0.4097 -1.1372
  422TMC3    O1 6358   3.850   1.893  13.261 -0.6580 -0.3390  0.1942
  422TMC3    O2 6359   4.104   2.487  13.044 -0.3731  0.5067 -0.2515
  423MPD2     C 6360   0.117   2.146   0.383 -0.6524  0.1148  0.2169
  423MPD2    C1 6361   0.195   2.051   0.446  0.9699 -0.3299 -0.5349
  423MPD2    C2 6362   0.275   1.972   0.372 -0.8025  0.2742  0.2282
  423MPD2    C3 6363   0.286   1.994   0.238 -0.0737  0.0333 -0.3095
  423MPD2    C4 6364   0.205   2.083   0.179  0.3432  0.1413  0.0713
  423MPD2    C5 6365   0.114   2.149   0.249  0.1144  0.2496  0.4791
  423MPD2     H 6366   0.344   1.909   0.425  0.4185  0.2448 -1.3856
  423MPD2    H1 6367   0.213   2.106   0.073  1.5270 -0.1120  0.0995
  423MPD2    H2 6368   0.042   2.209   0.429  0.9477  3.1265 -1.2903
  423MPD2    H3 6369   0.047   2.218   0.199  2.8984  1.3442 -1.7218
  423MPD2     N 6370   0.385   1.933   0.153  0.5012  0.1027 -0.0195
  423MPD2    H5 6371   0.383   1.961   0.055 -0.4356 -0.2445 -0.0999
  423MPD2    N1 6372   0.202   2.041   0.587  0.1877  0.1308 -0.2411
  423MPD2    H7 6373   0.286   1.992   0.617 -0.6729 -0.4865  1.1505
  424TMC3    C1 6374   0.181   2.089   0.815  1.0591 -0.2406  1.0089
  424TMC3    C2 6375   0.268   1.987   0.847 -1.3885  0.2834 -0.2484
  424TMC3    C3 6376   0.332   1.995   0.960  0.2987 -0.1133  0.5194
  424TMC3    C4 6377   0.173   2.199   0.896 -0.3404  0.7031 -0.3285
  424TMC3    C5 6378   0.261   2.212   0.998  0.7982 -0.3944  0.3387
  424TMC3    C6 6379   0.349   2.112   1.034 -0.7781 -0.2469  0.4587
  424TMC3     C 6380   0.125   2.109   0.679 -0.0132  0.3154  0.6075
  424TMC3     O 6381   0.035   2.189   0.664  0.3663  0.4429  0.1272
  424TMC3     H 6382   0.272   1.894   0.792  0.3782 -0.4550  1.1451
  424TMC3    H1 6383   0.100   2.278   0.880 -1.1440  0.6364  2.9787
  424TMC3    H2 6384   0.424   2.120   1.112 -0.8755 -1.9138  0.7292
  424TMC3    C7 6385   0.237   2.315   1.090 -0.3981  0.2444 -0.1491
  424TMC3    C8 6386   0.424   1.891   0.975 -0.0065  0.9297 -0.0885
  424TMC3    O1 6387   0.141   2.388   1.076  0.4098 -0.0426 -0.2184
  424TMC3    O2 6388   0.399   1.774   0.951 -0.2726  0.6315  0.0749
  425MPD2     C 6389   4.263   1.154   0.371  0.4967 -0.6131  0.3363
  425MPD2    C1 6390   4.171   1.092   0.291 -0.1185 -0.4537  1.0067
  425MPD2    C2 6391   4.038   1.124   0.305  0.0416 -0.0857  0.2661
  425MPD2    C3 6392   3.998   1.218   0.401 -0.5104  0.2463 -1.0355
  425MPD2    C4 6393   4.090   1.262   0.488  0.6323 -0.3439  1.3623
  425MPD2    C5 6394   4.223   1.225   0.478 -0.0578 -0.1868 -0.1439
  425MPD2     H 6395   3.966   1.085   0.234 -3.0267  1.1020  2.7309
  425MPD2    H1 6396   4.055   1.320   0.572 -0.3211  2.3773 -0.9233
  425MPD2    H2 6397   4.368   1.135   0.349  1.3286  3.3380  0.8969
  425MPD2    H3 6398   4.294   1.260   0.552  0.9053 -0.7114 -0.8257
  425MPD2     N 6399   3.866   1.275   0.405 -0.5118  0.1841  0.0943
  425MPD2    H5 6400   3.801   1.242   0.334 -0.4841 -0.6954  0.4686
  425MPD2    N1 6401   4.218   1.007   0.192 -0.5683  0.3153 -0.5429
  425MPD2    H7 6402   4.319   0.991   0.189 -0.4223  0.9893  0.8571
  426TMC3    C1 6403   4.221   0.858   0.006  0.6463  0.4621  0.1679
  426TMC3    C2 6404   4.196   0.862  17.615  0.3714  0.2253  0.0850
  426TMC3    C3 6405   4.278   0.800  17.529  0.7029 -0.9287  0.4266
  426TMC3    C4 6406   4.324   0.781   0.061  0.3659  0.0630 -0.5491
  426TMC3    C5 6407   4.412   0.729  17.711  0.4449 -0.2181  0.0807
  426TMC3    C6 6408   4.389   0.734  17.572 -0.2129  0.6622 -0.4917
  426TMC3     C 6409   4.140   0.940   0.092  0.1211 -0.2269 -0.9490
  426TMC3     O 6410   4.023   0.954   0.064 -0.4991  0.1264  0.3571
  426TMC3     H 6411   4.122   0.934  17.581 -0.0649 -0.7598 -1.0351
  426TMC3    H1 6412   4.345   0.787   0.167  1.4330  1.8019 -0.8615
  426TMC3    H2 6413   4.454   0.683  17.503  1.3947 -0.1645  1.6194
  426TMC3    C7 6414   4.478   0.603   0.009  0.4499 -0.2308  0.7887
  426TMC3    C8 6415   4.229   0.763  17.395 -0.5880 -0.2760  0.0667
  426TMC3    O1 6416   4.552   0.549  17.666 -0.3451  0.0973  0.1141
  426TMC3    O2 6417   4.320   0.717  17.322  0.1387  0.4401  0.9123
  427MPD2     C 6418   3.099   4.450  15.130  0.0172 -0.4802 -0.4670
  427MPD2    C1 6419   3.069   4.332  15.205 -0.1479 -0.7605  0.3830
  427MPD2    C2 6420   2.952   4.263  15.176  0.4731  0.6604  0.1505
  427MPD2    C3 6421   2.857   4.318  15.097  0.1923 -0.3298 -0.1934
  427MPD2    C4 6422   2.879   4.441  15.037 -0.1942 -0.1312 -0.1442
  427MPD2    C5 6423   3.000   4.496  15.050  0.4081  0.1902 -0.1299
  427MPD2     H 6424   2.926   4.177  15.237 -0.3575  1.3407  0.7615
  427MPD2    H1 6425   2.813   4.475  14.958 -1.1848 -2.0179 -0.1556
  427MPD2    H2 6426   3.197   4.496  15.126 -0.6620  1.0360  0.3024
  427MPD2    H3 6427   3.021   4.595  15.011 -2.0564  2.0907  3.3706
  427MPD2     N 6428   2.734   4.257  15.077 -0.4128 -0.6572  0.3660
  427MPD2    H5 6429   2.669   4.314  15.024  0.1144 -1.4045 -1.0877
  427MPD2    N1 6430   3.163   4.271  15.288 -0.3507  0.0473  0.3221
  427MPD2    H7 6431   3.145   4.175  15.314  1.3751  0.5196  3.2638
  428TMC3    C1 6432   3.368   4.216  15.388 -0.3186 -0.4484  0.4035
  428TMC3    C2 6433   3.304   4.118  15.453 -0.4434  0.2974  0.6211
  428TMC3    C3 6434   3.375   4.033  15.531 -0.1330 -0.0718 -0.1836
  428TMC3    C4 6435   3.502   4.226  15.388 -0.2276  0.3859  0.0218
  428TMC3    C5 6436   3.572   4.143  15.476 -0.4221 -0.3897  0.7903
  428TMC3    C6 6437   3.511   4.041  15.549  0.6271 -0.4090  0.1657
  428TMC3     C 6438   3.286   4.323  15.328  1.0792 -0.6088  0.0082
  428TMC3     O 6439   3.338   4.424  15.285 -0.1940 -0.8325  0.8892
  428TMC3     H 6440   3.197   4.123  15.471 -0.6042  0.9260 -0.5022
  428TMC3    H1 6441   3.546   4.303  15.326 -3.5704  1.2048 -1.3090
  428TMC3    H2 6442   3.566   3.979  15.618 -0.6940  0.5529  2.0806
  428TMC3    C7 6443   3.719   4.159  15.490 -0.4429  0.4294 -0.0267
  428TMC3    C8 6444   3.291   3.932  15.592  0.7943  0.5168  0.3459
  428TMC3    O1 6445   3.774   4.112  15.592 -0.2701 -0.0075  0.1797
  428TMC3    O2 6446   3.173   3.958  15.615 -0.4030 -0.7385 -0.0014
  429MPD2     C 6447   4.148   3.538   0.119  0.4904  0.0117  0.4745
  429MPD2    C1 6448   4.238   3.457   0.055 -0.6925  0.1950  0.0861
  429MPD2    C2 6449   4.325   3.505  17.698  0.4653 -0.0019  1.1003
  429MPD2    C3 6450   4.321   3.635  17.656 -0.0241 -0.0410  0.6656
  429MPD2    C4 6451   4.232   3.714  17.724 -0.4223 -0.1330 -0.1268
  429MPD2    C5 6452   4.137   3.666   0.077  0.9616  0.2530  0.2868
  429MPD2     H 6453   4.385   3.429  17.648  0.6047  1.5476 -1.0705
  429MPD2    H1 6454   4.226   3.820  17.701 -2.5661 -0.3472 -0.5272
  429MPD2    H2 6455   4.080   3.502   0.195  0.6494 -0.1782  0.5254
  429MPD2    H3 6456   4.072   3.743   0.116  0.4293  0.8279 -1.7308
  429MPD2     N 6457   4.419   3.688  17.567  0.4044 -0.1080 -0.2964
  429MPD2    H5 6458   4.450   3.618  17.500 -0.8144 -1.3648  0.4293
  429MPD2    N1 6459   4.243   3.321   0.073 -0.3975 -0.2320 -0.2478
  429MPD2    H7 6460   4.316   3.268   0.026  1.2863  0.0142  2.0598
  430TMC3    C1 6461   4.518   3.831  17.420 -0.0839 -0.4362 -0.4923
  430TMC3    C2 6462   4.493   3.943  17.351  0.2804 -0.0424  0.1067
  430TMC3    C3 6463   4.545   3.958  17.224  0.3321  0.2536  0.5950
  430TMC3    C4 6464   4.589   3.724  17.364  0.5099 -0.0336  0.2458
  430TMC3    C5 6465   4.615   3.734  17.233 -0.2006  0.0442 -0.3538
  430TMC3    C6 6466   4.601   3.852  17.164 -0.4036 -0.3841  0.2327
  430TMC3     C 6467   4.440   3.821  17.538  0.4046 -0.1409 -0.3448
  430TMC3     O 6468   4.410   3.919  17.606 -0.3998 -0.3280  0.3608
  430TMC3     H 6469   4.437   4.023  17.395  0.1231  0.5555 -1.1795
  430TMC3    H1 6470   4.626   3.640  17.421  0.0446  0.4142  1.2182
  430TMC3    H2 6471   4.623   3.859  17.059 -1.0153  2.0340  0.2627
  430TMC3    C7 6472   4.579   3.617  17.157 -0.2751  0.0812 -0.7163
  430TMC3    C8 6473   4.440   4.020  17.144 -0.5037 -1.1759  0.8070
  430TMC3    O1 6474   4.610   3.507  17.201 -0.0827  0.0335  0.1301
  430TMC3    O2 6475   4.396   3.958  17.048 -0.3782 -0.1484  0.3582
  431MPD2     C 6476   0.629   4.681  12.470 -0.1480  0.7888  0.0783
  431MPD2    C1 6477   0.623   0.025  12.360  0.3455  0.0097 -0.4370
  431MPD2    C2 6478   0.518   0.016  12.277 -0.2387 -0.4847  0.3274
  431MPD2    C3 6479   0.412   4.668  12.296 -0.1557  0.7174  0.3322
  431MPD2    C4 6480   0.422   4.587  12.405 -0.2864  0.5398 -0.3261
  431MPD2    C5 6481   0.526   4.594  12.487  0.0778 -0.3183 -0.0120
  431MPD2     H 6482   0.517   0.076  12.186 -3.0116 -1.4484 -0.2761
  431MPD2    H1 6483   0.346   4.513  12.432  1.4907 -0.8859  0.7516
  431MPD2    H2 6484   0.711   4.692  12.540  1.4734 -3.0966 -1.2025
  431MPD2    H3 6485   0.528   4.534  12.578 -0.0772  0.2845  0.3887
  431MPD2     N 6486   0.309   4.645  12.205  0.8873 -0.4218 -0.1332
  431MPD2    H5 6487   0.225   4.598  12.238  1.4125 -1.2869 -0.0413
  431MPD2    N1 6488   0.726   0.122  12.332  0.7674  0.4166  0.2406
  431MPD2    H7 6489   0.714   0.169  12.243  0.2391  1.7591  1.0271
  432TMC3    C1 6490   0.223   4.589  11.987 -0.5890  0.0524 -0.2251
  432TMC3    C2 6491   0.270   4.580  11.861  0.6759 -0.0053  0.3187
  432TMC3    C3 6492   0.288   4.455  11.814  0.4870  0.2071 -0.4313
  432TMC3    C4 6493   0.174   4.482  12.054  0.2903  0.4694  0.2275
  432TMC3    C5 6494   0.185   4.361  11.998  0.4245 -0.6624  0.2315
  432TMC3    C6 6495   0.248   4.338  11.880 -0.0628 -0.7041  0.0889
  432TMC3     C 6496   0.318   4.661  12.068 -0.1781 -0.4805  0.6274
  432TMC3     O 6497   0.421   4.681  12.003  0.4615 -0.0572  0.6269
  432TMC3     H 6498   0.299   4.665  11.801 -2.9573  1.6006  0.8179
  432TMC3    H1 6499   0.128   4.504  12.149 -0.3013 -3.4317  0.8579
  432TMC3    H2 6500   0.260   4.242  11.831 -2.1352 -1.0226  0.2003
  432TMC3    C7 6501   0.211   4.252  12.081  0.2771  0.4518  1.1462
  432TMC3    C8 6502   0.411   4.436  11.745 -0.3774 -0.2236  0.4561
  432TMC3    O1 6503   0.262   4.153  12.030 -0.2157 -0.3227  0.4692
  432TMC3    O2 6504   0.411   4.343  11.667  0.1174  0.2338  0.3824
  433MPD2     C 6505   3.787   2.698  10.962 -0.1335  0.4675 -0.0374
  433MPD2    C1 6506   3.858   2.618  11.039  0.0668  0.3907  0.2104
  433MPD2    C2 6507   3.879   2.651  11.173 -0.7585  0.1035 -0.9275
  433MPD2    C3 6508   3.815   2.755  11.232 -0.5993 -0.7224  0.2967
  433MPD2    C4 6509   3.737   2.835  11.154  0.1471 -0.6376  0.2366
  433MPD2    C5 6510   3.721   2.800  11.024  0.1964 -0.2547  0.4794
  433MPD2     H 6511   3.951   2.604  11.240  0.2094  0.5417 -1.6557
  433MPD2    H1 6512   3.677   2.919  11.188  1.1006 -1.1706  3.2106
  433MPD2    H2 6513   3.766   2.672  10.859  2.2335 -0.7504 -0.2046
  433MPD2    H3 6514   3.647   2.858  10.970 -0.2295 -0.9436  0.3103
  433MPD2     N 6515   3.839   2.782  11.370 -0.8199  0.3938 -0.0034
  433MPD2    H5 6516   3.912   2.730  11.417  0.3921  1.3556 -0.8152
  433MPD2    N1 6517   3.930   2.510  10.976  0.1111 -0.5045  0.6627
  433MPD2    H7 6518   3.919   2.496  10.876  0.1957 -2.5080  0.9213
  434TMC3    C1 6519   4.078   2.321  10.966  0.5856 -0.5722  0.4332
  434TMC3    C2 6520   4.189   2.279  11.027 -0.1875 -0.9011 -0.1424
  434TMC3    C3 6521   4.236   2.154  11.006  0.1250 -0.5214  0.0900
  434TMC3    C4 6522   4.013   2.237  10.878  0.2998 -0.2087  0.6390
  434TMC3    C5 6523   4.060   2.109  10.849 -0.0048  0.1252 -0.0501
  434TMC3    C6 6524   4.173   2.071  10.918 -0.2042 -0.2145 -0.3460
  434TMC3     C 6525   4.003   2.418  11.052  0.4658 -0.7334 -0.4360
  434TMC3     O 6526   4.025   2.409  11.172  0.5626 -0.1646 -0.4746
  434TMC3     H 6527   4.240   2.336  11.104 -1.7040  0.5457 -0.2043
  434TMC3    H1 6528   3.919   2.276  10.840 -0.6853 -0.6640  2.6269
  434TMC3    H2 6529   4.226   1.979  10.894 -2.8637 -1.6047 -0.8469
  434TMC3    C7 6530   3.974   2.027  10.765 -0.7297  0.7970  0.0494
  434TMC3    C8 6531   4.341   2.117  11.102 -0.2853  0.9465 -0.0025
  434TMC3    O1 6532   3.897   2.080  10.684  0.0643  0.2189 -0.1817
  434TMC3    O2 6533   4.386   2.195  11.181 -0.4708  0.4424 -0.1675
  435MPD2     C 6534   1.430   2.475  15.701  0.4639  0.6081  0.2674
  435MPD2    C1 6535   1.368   2.498  15.824 -0.5853 -0.8555 -0.4884
  435MPD2    C2 6536   1.430   2.480  15.945  0.4451 -0.5576  0.4068
  435MPD2    C3 6537   1.570   2.444  15.940 -0.2746 -0.2552  0.1509
  435MPD2    C4 6538   1.628   2.418  15.823 -0.0614  0.0601  0.0149
  435MPD2    C5 6539   1.559   2.435  15.700 -0.1128  0.6448 -0.6089
  435MPD2     H 6540   1.375   2.494  16.037 -0.3442 -1.1505  0.0180
  435MPD2    H1 6541   1.734   2.403  15.810 -0.2580 -0.9676 -0.3738
  435MPD2    H2 6542   1.385   2.501  15.605  0.1806  0.9330  0.4906
  435MPD2    H3 6543   1.597   2.425  15.599  1.9750  1.2721  0.1227
  435MPD2     N 6544   1.637   2.436  16.062  0.3304  0.0649  0.1752
  435MPD2    H5 6545   1.585   2.438  16.150 -2.4148  0.2444 -1.4545
  435MPD2    N1 6546   1.231   2.534  15.833 -0.2037  0.3765  0.7011
  435MPD2    H7 6547   1.195   2.550  15.927 -0.2855  0.1721  0.7039
  436TMC3    C1 6548   0.847   2.566  15.933  0.2204 -0.5345 -1.0531
  436TMC3    C2 6549   0.981   2.572  15.912  0.2091  0.0361  0.1458
  436TMC3    C3 6550   1.013   2.590  15.780  0.1019  0.9741 -0.2013
  436TMC3    C4 6551   0.746   2.597  15.848 -0.7902  0.1311 -0.4745
  436TMC3    C5 6552   0.788   2.621  15.720  0.5391 -0.1171  0.0902
  436TMC3    C6 6553   0.917   2.610  15.681  0.5999  0.0247 -0.3507
  436TMC3     C 6554   0.815   2.483  16.052 -1.2505  1.0872  0.2794
  436TMC3     O 6555   0.910   2.417  16.097 -0.2872  0.1563  0.2663
  436TMC3     H 6556   1.048   2.550  15.995  0.0998  0.5230  0.3643
  436TMC3    H1 6557   0.642   2.588  15.878 -0.4981  1.2222  0.8160
  436TMC3    H2 6558   0.940   2.623  15.576 -1.1619 -2.5963 -1.0644
  436TMC3    C7 6559   0.685   2.595  15.626  0.3739 -0.0164  0.1394
  436TMC3    C8 6560   1.147   2.562  15.731 -0.2354 -0.1459 -0.5583
  436TMC3    O1 6561   0.571   2.630  15.660 -0.4120  0.1874  0.0000
  436TMC3    O2 6562   1.162   2.559  15.608 -0.0553 -0.3848  0.2803
  437TMC3    C1 6563   0.283   0.138  12.759  0.2751 -0.3524  0.3129
  437TMC3    C2 6564   0.255   0.246  12.845  0.0851 -0.1651  0.1590
  437TMC3    C3 6565   0.220   0.367  12.783 -0.1131  0.2356 -0.0563
  437TMC3    C4 6566   0.275   0.153  12.621 -0.1513 -0.3069  0.2883
  437TMC3    C5 6567   0.222   0.270  12.570 -0.2983  0.6149 -0.6698
  437TMC3    C6 6568   0.201   0.378  12.648 -0.3972 -0.3397 -0.2920
  437TMC3     C 6569   0.297   0.010  12.808 -0.4047 -0.3714 -0.0021
  437TMC3     O 6570   0.242   4.661  12.740  0.0779 -0.4023 -0.1127
  437TMC3     H 6571   0.237   0.227  12.950  2.2757 -0.3265  0.5002
  437TMC3    H1 6572   0.303   0.068  12.560 -0.0505  0.2860 -0.4948
  437TMC3    H2 6573   0.168   0.476  12.615 -1.6906 -0.7887 -0.3256
  437TMC3    C7 6574   0.290   0.312  12.446  0.2780  0.1550  0.4222
  437TMC3    C8 6575   0.180   0.472  12.868  0.5576 -0.4502 -0.2115
  437TMC3    O1 6576   0.215   0.384  12.382  0.3957 -0.6020 -0.5951
  437TMC3    O2 6577   0.126   0.566  12.812 -0.1937  0.2254 -0.2682
  438MPD2     C 6578   2.090   0.967  17.135  0.2766 -0.4817 -0.0578
  438MPD2    C1 6579   2.189   0.874  17.154 -0.0266 -0.0176 -0.0513
  438MPD2    C2 6580   2.233   0.848  17.281  0.1634 -0.1568  0.1877
  438MPD2    C3 6581   2.171   0.911  17.392  0.0422  1.1097  0.1601
  438MPD2    C4 6582   2.081   1.007  17.375  0.4169  0.2447  0.0422
  438MPD2    C5 6583   2.040   1.032  17.245  0.1796 -0.8309  0.3935
  438MPD2     H 6584   2.307   0.769  17.289  1.5180  0.9397 -1.5493
  438MPD2    H1 6585   2.041   1.061  17.461  0.9190  2.0752 -0.8755
  438MPD2    H2 6586   2.067   1.003  17.035 -2.5110 -3.0266 -0.3432
  438MPD2    H3 6587   1.955   1.097  17.233 -0.7886 -2.0911  0.5050
  438MPD2     N 6588   2.206   0.876  17.520  0.1112 -0.0008 -0.8553
  438MPD2    H5 6589   2.170   0.940  17.590  2.4904 -0.0138  0.3686
  438MPD2    N1 6590   2.235   0.783  17.055 -0.3050  0.1602  0.3284
  438MPD2    H7 6591   2.296   0.708  17.085 -0.6807 -0.6564 -0.9404
  439TMC3    C1 6592   2.259   0.673  16.858  0.1716  0.0148  0.3127
  439TMC3    C2 6593   2.289   0.686  16.725 -0.4379  0.1269 -0.7281
  439TMC3    C3 6594   2.343   0.574  16.656 -0.7536 -0.0879 -0.1820
  439TMC3    C4 6595   2.295   0.557  16.924 -0.6771  0.0091 -0.3875
  439TMC3    C5 6596   2.347   0.451  16.858  0.2710  0.2103 -0.1768
  439TMC3    C6 6597   2.379   0.459  16.723  0.0941 -0.3191  0.2499
  439TMC3     C 6598   2.219   0.792  16.923 -0.6783  0.6013  0.7125
  439TMC3     O 6599   2.166   0.873  16.847  0.6468 -0.2565  0.1922
  439TMC3     H 6600   2.281   0.786  16.684  0.9635 -0.0717 -1.4783
  439TMC3    H1 6601   2.257   0.548  17.025 -0.9732  0.8606 -0.4252
  439TMC3    H2 6602   2.418   0.370  16.675 -0.9535 -0.3794 -0.4878
  439TMC3    C7 6603   2.377   0.324  16.932  0.0934  0.1251  0.3680
  439TMC3    C8 6604   2.431   0.591  16.542 -0.1796  0.4956 -0.2550
  439TMC3    O1 6605   2.406   0.323  17.049 -0.0800 -0.0811  0.2856
  439TMC3    O2 6606   2.532   0.520  16.546  0.1442 -0.2405 -0.3711
  440MPD2     C 6607   0.958   0.891  15.098  0.0205 -0.9008 -0.9348
  440MPD2    C1 6608   1.079   0.947  15.138  0.6092 -0.1293  0.7192
  440MPD2    C2 6609   1.139   0.908  15.255  0.3605  0.0165  0.6670
  440MPD2    C3 6610   1.069   0.837  15.352 -0.0783  0.3317 -0.3973
  440MPD2    C4 6611   0.945   0.783  15.314  0.5755  0.4715 -0.2742
  440MPD2    C5 6612   0.886   0.817  15.194 -0.0911  0.1021  0.1020
  440MPD2     H 6613   1.239   0.944  15.275  0.3532  0.1280  0.5048
  440MPD2    H1 6614   0.899   0.708  15.377  0.0785  1.3395  0.4097
  440MPD2    H2 6615   0.916   0.910  15.000 -0.2366  0.5111 -0.5576
  440MPD2    H3 6616   0.789   0.774  15.172  0.1366 -1.7780  2.7822
  440MPD2     N 6617   1.115   0.822  15.488 -0.8848  0.0797 -0.9354
  440MPD2    H5 6618   1.057   0.768  15.552 -0.3429  2.4114  1.5201
  440MPD2    N1 6619   1.147   1.051  15.062 -0.0939 -0.2263  0.2134
  440MPD2    H7 6620   1.224   1.097  15.109 -1.0182  0.3254  1.1859
  441TMC3    C1 6621   1.271   0.820  15.667 -0.3989  1.0158 -0.7710
  441TMC3    C2 6622   1.371   0.895  15.725  1.0897 -0.0088  0.2739
  441TMC3    C3 6623   1.434   0.827  15.826  0.5721 -0.3475 -0.7381
  441TMC3    C4 6624   1.239   0.695  15.713  1.0251 -0.2432  0.7111
  441TMC3    C5 6625   1.305   0.635  15.815 -0.5717 -0.3669  0.1282
  441TMC3    C6 6626   1.405   0.705  15.880 -0.0262  0.0167 -0.1340
  441TMC3     C 6627   1.225   0.875  15.540 -0.6905  0.2048  0.1944
  441TMC3     O 6628   1.301   0.959  15.488  0.5188  0.8418  0.6350
  441TMC3     H 6629   1.398   0.993  15.687 -1.8208 -0.0168 -1.7575
  441TMC3    H1 6630   1.148   0.646  15.678  1.2129 -0.2668  0.2510
  441TMC3    H2 6631   1.445   0.672  15.975  0.6939 -1.9381 -1.1137
  441TMC3    C7 6632   1.228   0.565  15.919 -0.3847  0.4126  0.0332
  441TMC3    C8 6633   1.529   0.895  15.910  0.3264 -0.5853  0.4153
  441TMC3    O1 6634   1.109   0.598  15.933  0.4067 -0.5731  0.2777
  441TMC3    O2 6635   1.629   0.835  15.954  0.5335  0.1745  0.2085
  442MPD2     C 6636   4.263   1.206  16.672  0.7937 -0.1007 -0.1915
  442MPD2    C1 6637   4.184   1.109  16.736  0.2187  0.0094 -0.0597
  442MPD2    C2 6638   4.088   1.045  16.658 -0.4497  0.6022  0.0505
  442MPD2    C3 6639   4.076   1.077  16.523 -0.2838  0.2580 -0.0873
  442MPD2    C4 6640   4.151   1.178  16.473 -0.8579 -0.4168  0.2484
  442MPD2    C5 6641   4.241   1.247  16.546  0.1271  0.6230 -0.1021
  442MPD2     H 6642   4.028   0.962  16.696  0.3220 -0.7740 -1.7249
  442MPD2    H1 6643   4.139   1.212  16.371 -3.3409 -1.4704  0.1894
  442MPD2    H2 6644   4.347   1.252  16.724  2.0912  0.5838 -2.8453
  442MPD2    H3 6645   4.297   1.326  16.497  1.9747 -0.3204  0.5119
  442MPD2     N 6646   3.991   1.013  16.433 -0.5906 -0.5128 -0.1530
  442MPD2    H5 6647   4.003   1.046  16.338 -1.6860 -3.7151 -1.3791
  442MPD2    N1 6648   4.207   1.060  16.865 -0.3416  0.6242 -0.0944
  442MPD2    H7 6649   4.139   0.990  16.893 -1.1054  1.6821  0.7343
  443TMC3    C1 6650   4.269   1.081  17.097 -0.5363 -0.0742  0.4327
  443TMC3    C2 6651   4.291   1.186  17.188 -0.4778  0.8034 -0.0499
  443TMC3    C3 6652   4.187   1.222  17.273 -0.2435  0.2862 -0.7899
  443TMC3    C4 6653   4.160   1.001  17.116 -0.2141 -0.1404 -0.5923
  443TMC3    C5 6654   4.073   1.025  17.214 -0.1551  0.0377  0.6623
  443TMC3    C6 6655   4.088   1.128  17.297 -0.1411  0.4071 -0.1874
  443TMC3     C 6656   4.291   1.115  16.959 -0.3184  0.0318 -0.6463
  443TMC3     O 6657   4.354   1.218  16.953 -0.4037  0.2800  1.1324
  443TMC3     H 6658   4.384   1.241  17.195 -1.1032  1.8376  0.0884
  443TMC3    H1 6659   4.136   0.924  17.043  1.5332 -0.6438 -0.6308
  443TMC3    H2 6660   4.021   1.157  17.377 -0.3623  4.4961 -1.8542
  443TMC3    C7 6661   3.940   1.011  17.153  0.4328  0.4523  0.0342
  443TMC3    C8 6662   4.133   1.354  17.244  0.2242 -0.0563  1.1097
  443TMC3    O1 6663   3.949   1.037  17.034  0.5088  0.5546 -0.2224
  443TMC3    O2 6664   4.046   1.398  17.320  0.3664 -0.1955  0.2136
  444MPD2     C 6665   3.965   0.479   0.037 -0.6902 -0.6356 -0.0891
  444MPD2    C1 6666   3.877   0.441  17.681  0.9703 -0.1576  0.6676
  444MPD2    C2 6667   3.924   0.413  17.554  0.1166  0.2260 -0.6345
  444MPD2    C3 6668   4.056   0.417  17.524 -0.2874  0.2863 -0.1122
  444MPD2    C4 6669   4.137   0.468  17.622 -0.3037 -0.1361 -0.3254
  444MPD2    C5 6670   4.097   0.500   0.002  0.5557  0.7691 -0.3071
  444MPD2     H 6671   3.865   0.363  17.478  1.4194 -1.0717 -0.7959
  444MPD2    H1 6672   4.245   0.467  17.614 -0.4310  0.8339 -2.1503
  444MPD2    H2 6673   3.937   0.495   0.140  0.0430 -1.0277  0.1662
  444MPD2    H3 6674   4.171   0.533   0.073  0.9501 -4.9064  1.8712
  444MPD2     N 6675   4.106   0.379  17.398 -0.0033  0.1983  0.2760
  444MPD2    H5 6676   4.031   0.349  17.337 -0.4747  0.9441  0.4972
  444MPD2    N1 6677   3.740   0.417  17.698 -0.1747  0.0361  0.6071
  444MPD2    H7 6678   3.685   0.381  17.620  1.0491  0.2086 -0.3296
  445TMC3    C1 6679   4.261   0.335  17.229  0.2061 -0.6456  0.2067
  445TMC3    C2 6680   4.161   0.353  17.137  0.0388 -0.4370  0.4730
  445TMC3    C3 6681   4.187   0.303  17.011  0.1492 -0.1133  0.2368
  445TMC3    C4 6682   4.380   0.274  17.201 -0.4928 -0.4178  0.6493
  445TMC3    C5 6683   4.400   0.231  17.073  0.0553  0.3205 -0.1705
  445TMC3    C6 6684   4.302   0.253  16.982 -0.6007  0.0967  0.2029
  445TMC3     C 6685   4.241   0.372  17.369  0.6508 -0.2715  0.1785
  445TMC3     O 6686   4.333   0.357  17.448 -0.6270 -0.1869 -0.3088
  445TMC3     H 6687   4.079   0.421  17.158 -1.1597 -1.8390  0.3797
  445TMC3    H1 6688   4.462   0.261  17.271  1.0506  1.1706 -0.8487
  445TMC3    H2 6689   4.328   0.224  16.880 -1.4791  1.0918 -0.3120
  445TMC3    C7 6690   4.530   0.198  17.025  0.0343 -0.6354 -0.6850
  445TMC3    C8 6691   4.087   0.317  16.898  0.4292 -0.3317 -0.6084
  445TMC3    O1 6692   4.552   0.226  16.907  0.3328  0.1412 -0.0485
  445TMC3    O2 6693   4.133   0.317  16.784 -0.2722 -0.1563  0.1961
  446MPD2     C 6694   3.732   2.022  11.528 -0.4809 -0.0479 -0.5392
  446MPD2    C1 6695   3.718   2.116  11.432 -0.1257 -0.8349  0.9036
  446MPD2    C2 6696   3.826   2.201  11.416  0.6741 -0.4092  0.3673
  446MPD2    C3 6697   3.952   2.177  11.481  0.0629 -0.1151  0.3587
  446MPD2    C4 6698   3.961   2.068  11.561 -0.6649 -0.2157 -0.0331
  446MPD2    C5 6699   3.848   1.991  11.590 -0.4107  0.4026 -0.9613
  446MPD2     H 6700   3.810   2.283  11.347  0.0989 -2.6334 -2.1277
  446MPD2    H1 6701   4.051   2.047  11.618 -0.6009  0.6863  0.1978
  446MPD2    H2 6702   3.653   1.956  11.563  0.1529  0.2443  1.4448
  446MPD2    H3 6703   3.856   1.907  11.658 -0.3412  0.3046 -1.0927
  446MPD2     N 6704   4.061   2.264  11.448 -0.0567 -0.1068 -0.6924
  446MPD2    H5 6705   4.039   2.332  11.376  0.4638  0.5413 -0.2299
  446MPD2    N1 6706   3.604   2.119  11.344 -0.1373 -0.0250  0.0213
  446MPD2    H7 6707   3.598   2.197  11.280  2.2608  1.3187  1.4189
  447TMC3    C1 6708   4.276   2.349  11.448  0.4113  0.7208 -0.5887
  447TMC3    C2 6709   4.230   2.463  11.390 -0.0534 -0.3329  0.1486
  447TMC3    C3 6710   4.317   2.552  11.341  0.6001  0.2521  0.1707
  447TMC3    C4 6711   4.410   2.313  11.457 -0.5607 -0.6526 -0.3275
  447TMC3    C5 6712   4.494   2.408  11.406 -0.0843  0.8520 -0.0713
  447TMC3    C6 6713   4.451   2.531  11.354 -0.7306 -0.1322  0.4738
  447TMC3     C 6714   4.186   2.247  11.494 -0.0995 -0.2099  0.0517
  447TMC3     O 6715   4.230   2.161  11.569  0.7452  0.1599 -0.6597
  447TMC3     H 6716   4.126   2.488  11.376 -0.4289 -1.0604  1.7009
  447TMC3    H1 6717   4.431   2.215  11.498  0.7700  0.0972  0.7636
  447TMC3    H2 6718   4.521   2.597  11.306  0.4818  0.3047  2.8085
  447TMC3    C7 6719   4.632   2.365  11.393 -0.0350 -0.7001 -0.0604
  447TMC3    C8 6720   4.261   2.675  11.276  0.0046 -0.3508 -0.4726
  447TMC3    O1 6721   4.663   2.245  11.395  0.1643 -0.6852  0.3755
  447TMC3    O2 6722   4.141   2.702  11.291  0.4964 -0.5242 -0.4036
  448TMC3    C1 6723   3.109   2.062   0.428 -0.1986  0.9442  1.0141
  448TMC3    C2 6724   3.045   2.003   0.326 -0.3085  0.0275  0.2362
  448TMC3    C3 6725   2.965   1.893   0.354  0.5817 -0.9668 -0.5150
  448TMC3    C4 6726   3.098   2.017   0.552  0.4115  0.4177  0.8927
  448TMC3    C5 6727   3.019   1.912   0.578 -0.2698  0.3322 -0.0131
  448TMC3    C6 6728   2.948   1.844   0.478 -0.2701 -0.1147 -0.0625
  448TMC3     C 6729   3.185   2.184   0.408  0.0027  0.2638  0.0853
  448TMC3     O 6730   3.157   2.256   0.316  0.3209 -0.3190  0.2227
  448TMC3     H 6731   3.068   2.042   0.227 -2.4446 -1.5644 -0.8671
  448TMC3    H1 6732   3.158   2.053   0.634 -0.0817  0.9414  1.0179
  448TMC3    H2 6733   2.883   1.761   0.503 -1.5736  1.5665  2.1535
  448TMC3    C7 6734   3.049   1.835   0.693 -0.2014 -0.1221 -0.1461
  448TMC3    C8 6735   2.913   1.817   0.249  0.2543  0.0430 -0.6321
  448TMC3    O1 6736   3.159   1.847   0.749 -0.0015  0.1197 -0.2504
  448TMC3    O2 6737   2.849   1.716   0.275  0.6439 -0.4213 -0.5110
  449MPD2     C 6738   4.046   0.787  14.777  0.5248  0.7385  0.3744
  449MPD2    C1 6739   3.908   0.792  14.761 -0.0900 -0.1196  0.0671
  449MPD2    C2 6740   3.827   0.678  14.794 -0.6827 -0.0992 -0.4711
  449MPD2    C3 6741   3.883   0.567  14.846 -1.0149  0.2568 -1.0249
  449MPD2    C4 6742   4.021   0.568  14.860 -0.1975 -0.2116 -0.0676
  449MPD2    C5 6743   4.097   0.673  14.830 -0.8398 -0.4930 -0.0756
  449MPD2     H 6744   3.720   0.686  14.779 -1.0305  0.4044  2.4033
  449MPD2    H1 6745   4.071   0.484  14.905  0.0130  0.4953  1.0074
  449MPD2    H2 6746   4.112   0.866  14.741  0.9645  0.2827  0.1849
  449MPD2    H3 6747   4.205   0.666  14.838 -0.6913 -1.3298 -2.7413
  449MPD2     N 6748   3.806   0.451  14.872  0.1216  0.4062  0.1628
  449MPD2    H5 6749   3.712   0.461  14.835 -0.4602  0.8944  1.7658
  449MPD2    N1 6750   3.841   0.894  14.692  0.0709  0.5025  0.1992
  449MPD2    H7 6751   3.741   0.890  14.677  0.0173  1.9249  0.1488
  450TMC3    C1 6752   3.793   1.090  14.576 -0.0278  0.7466  0.0389
  450TMC3    C2 6753   3.839   1.124  14.452 -0.7769  0.9080 -0.4811
  450TMC3    C3 6754   3.745   1.119  14.359  0.6888  0.1799  0.1092
  450TMC3    C4 6755   3.662   1.059  14.609 -1.3615 -0.2207  0.7902
  450TMC3    C5 6756   3.576   1.047  14.503  0.1690  0.1752  0.8215
  450TMC3    C6 6757   3.615   1.086  14.383  0.1008 -0.0783  0.5404
  450TMC3     C 6758   3.897   1.011  14.648 -0.9250  0.2193  0.3433
  450TMC3     O 6759   4.008   1.052  14.621 -0.4373  0.2405 -0.1030
  450TMC3     H 6760   3.938   1.167  14.439 -0.6259  1.2715  1.7357
  450TMC3    H1 6761   3.638   1.044  14.714 -0.1115 -0.5543  1.0305
  450TMC3    H2 6762   3.539   1.096  14.307 -0.4729  0.3961  1.1679
  450TMC3    C7 6763   3.513   0.920  14.525  0.3548 -0.2364  0.2622
  450TMC3    C8 6764   3.759   1.155  14.218 -0.4781 -0.0437  0.3683
  450TMC3    O1 6765   3.560   0.860  14.616 -0.3500  0.0066  0.0536
  450TMC3    O2 6766   3.670   1.211  14.160  0.4815  0.4381  0.1721
  451MPD2     C 6767   0.631   2.858   0.913  0.3801 -0.2097  0.0735
  451MPD2    C1 6768   0.616   2.724   0.874  0.8802 -0.1072 -0.3853
  451MPD2    C2 6769   0.728   2.653   0.827 -0.4592 -0.7402  0.0818
  451MPD2    C3 6770   0.842   2.717   0.783 -0.3870  0.1908  1.0438
  451MPD2    C4 6771   0.851   2.854   0.802 -0.2651 -0.8990 -0.2841
  451MPD2    C5 6772   0.747   2.921   0.872  0.1889  0.4567 -0.1068
  451MPD2     H 6773   0.715   2.547   0.810  0.2092 -0.8637  0.3440
  451MPD2    H1 6774   0.938   2.913   0.775  0.5649 -2.3904 -0.8652
  451MPD2    H2 6775   0.550   2.920   0.950 -0.6248 -0.7610 -1.1836
  451MPD2    H3 6776   0.764   3.027   0.886 -0.6237  0.4236  1.1153
  451MPD2     N 6777   0.959   2.652   0.732 -0.0426  0.0435  0.0961
  451MPD2    H5 6778   1.035   2.714   0.703 -0.6444  0.2078 -1.1093
  451MPD2    N1 6779   0.483   2.673   0.877 -0.0419  0.2170  0.2236
  451MPD2    H7 6780   0.404   2.733   0.898 -1.5178 -1.1606 -1.3685
  452TMC3    C1 6781   1.107   2.480   0.663  0.1868 -0.0828 -0.7149
  452TMC3    C2 6782   1.175   2.372   0.712 -0.6328  0.1683 -0.1744
  452TMC3    C3 6783   1.303   2.354   0.664  0.7240 -0.4643  0.5244
  452TMC3    C4 6784   1.159   2.558   0.556  0.5058 -0.2477 -0.3211
  452TMC3    C5 6785   1.285   2.541   0.516 -0.0618 -0.1119 -0.7981
  452TMC3    C6 6786   1.358   2.439   0.572  0.4469 -0.6783  0.5825
  452TMC3     C 6787   0.980   2.516   0.725 -0.2732 -0.0440 -0.4820
  452TMC3     O 6788   0.925   2.430   0.797 -0.4486  0.1587 -0.1744
  452TMC3     H 6789   1.130   2.309   0.788  4.0797 -0.4477  2.0650
  452TMC3    H1 6790   1.099   2.643   0.525 -0.4612 -0.5680  0.6495
  452TMC3    H2 6791   1.458   2.415   0.540  0.7473 -1.0710  1.8245
  452TMC3    C7 6792   1.321   2.614   0.395  0.9698 -0.3001 -0.0260
  452TMC3    C8 6793   1.381   2.240   0.718 -0.5634 -0.1294 -0.0170
  452TMC3    O1 6794   1.269   2.723   0.376  0.0489 -0.3942 -0.0386
  452TMC3    O2 6795   1.327   2.184   0.812 -0.1923 -0.2485 -0.1057
  453TMC3    C1 6796   1.145   1.809  12.028 -0.6826 -0.4972 -0.1756
  453TMC3    C2 6797   1.050   1.710  12.023 -0.3193  0.4023  0.2192
  453TMC3    C3 6798   1.060   1.612  11.931 -0.3412 -0.5368 -0.2885
  453TMC3    C4 6799   1.227   1.825  11.923  0.0623  0.1350  0.0476
  453TMC3    C5 6800   1.212   1.734  11.811 -0.2437 -0.2515  0.2898
  453TMC3    C6 6801   1.137   1.620  11.818 -0.5029  0.3662  0.0976
  453TMC3     C 6802   1.204   1.811  12.166  0.5059  0.2533  0.6150
  453TMC3     O 6803   1.178   1.715  12.238  0.8258 -0.3054  0.0747
  453TMC3     H 6804   0.983   1.689  12.106  0.3375 -1.0940  0.3644
  453TMC3    H1 6805   1.302   1.903  11.922 -0.2678  0.4520  0.1240
  453TMC3    H2 6806   1.121   1.552  11.736  0.0954  0.7178 -0.3055
  453TMC3    C7 6807   1.285   1.757  11.689 -0.5707 -0.1943 -0.0925
  453TMC3    C8 6808   0.985   1.498  11.966 -0.4945 -0.3766  0.3532
  453TMC3    O1 6809   1.290   1.669  11.604 -0.3377 -0.1046  0.4679
  453TMC3    O2 6810   0.901   1.501  12.058 -0.0759 -0.8718 -0.5678
  454MPD2     C 6811   0.158   0.610  16.417  0.3183  0.6121 -0.1430
  454MPD2    C1 6812   0.071   0.655  16.319 -0.4058 -0.0805 -0.2607
  454MPD2    C2 6813   4.683   0.711  16.356  0.8518 -0.3170  0.1683
  454MPD2    C3 6814   4.645   0.714  16.489  0.4199  0.6437  0.1915
  454MPD2    C4 6815   4.729   0.674  16.589  0.3611  0.6920 -0.1364
  454MPD2    C5 6816   0.117   0.628  16.550  1.1703 -0.3332 -0.6464
  454MPD2     H 6817   4.616   0.736  16.275 -0.7786  0.2237  1.6802
  454MPD2    H1 6818   4.707   0.681  16.695  2.5499 -1.3452  0.4463
  454MPD2    H2 6819   0.251   0.557  16.400  0.7807  0.7937  1.8459
  454MPD2    H3 6820   0.178   0.599  16.635 -0.2677 -0.0703  0.4879
  454MPD2     N 6821   4.517   0.748  16.529 -0.2759  0.0749 -0.2465
  454MPD2    H5 6822   4.498   0.742  16.629  0.5515 -3.1786 -0.3078
  454MPD2    N1 6823   0.105   0.661  16.182 -0.0035  0.2985 -0.6427
  454MPD2    H7 6824   0.033   0.700  16.123  0.1595 -0.8297 -1.5948
  455TMC3    C1 6825   4.282   0.735  16.530  0.1730  0.2099 -0.0752
  455TMC3    C2 6826   4.293   0.716  16.666 -1.0202 -0.0469 -0.2540
  455TMC3    C3 6827   4.181   0.663  16.723  0.0568  0.5939  0.8447
  455TMC3    C4 6828   4.181   0.684  16.452  0.0605  0.1706 -0.5105
  455TMC3    C5 6829   4.086   0.606  16.508 -0.4416  0.3907  0.7867
  455TMC3    C6 6830   4.082   0.596  16.644 -0.1337  0.4176  0.2686
  455TMC3     C 6831   4.404   0.762  16.450 -0.5865  0.2859 -0.1702
  455TMC3     O 6832   4.390   0.770  16.329 -0.5233  0.5507 -0.0779
  455TMC3     H 6833   4.371   0.765  16.722 -0.1819 -1.6452 -0.0187
  455TMC3    H1 6834   4.179   0.681  16.344  1.1375  0.6167 -0.5417
  455TMC3    H2 6835   3.997   0.539  16.679  0.3649 -0.5551 -0.1151
  455TMC3    C7 6836   4.085   0.480  16.432  0.3190 -0.3460 -0.0407
  455TMC3    C8 6837   4.170   0.662  16.864  0.2166 -0.2728  0.2763
  455TMC3    O1 6838   4.052   0.485  16.314  0.3829 -0.2668 -0.2439
  455TMC3    O2 6839   4.269   0.695  16.932 -0.6155  0.3898  0.1010
  456MPD2     C 6840   2.337   1.142  16.835 -0.0168  0.4054  0.7539
  456MPD2    C1 6841   2.457   1.078  16.848 -0.4176 -0.1311  0.0373
  456MPD2    C2 6842   2.513   1.068  16.971 -0.3018 -0.4788  0.4094
  456MPD2    C3 6843   2.467   1.138  17.079  0.1548  0.1454  0.8176
  456MPD2    C4 6844   2.351   1.210  17.066 -0.0642 -0.1737  0.5123
  456MPD2    C5 6845   2.292   1.215  16.939  0.2332  0.2640  0.1683
  456MPD2     H 6846   2.613   1.026  16.973  0.3694  1.0592 -1.3314
  456MPD2    H1 6847   2.307   1.271  17.144  1.2189  2.7891 -1.0914
  456MPD2    H2 6848   2.289   1.140  16.738  2.1470 -4.7823 -0.1703
  456MPD2    H3 6849   2.205   1.276  16.919  0.8709  0.8515 -0.8178
  456MPD2     N 6850   2.540   1.133  17.204 -0.0534  0.3128  0.7568
  456MPD2    H5 6851   2.621   1.074  17.196 -1.2121 -1.1403 -0.2806
  456MPD2    N1 6852   2.501   1.013  16.728  0.1327  0.5015 -0.1585
  456MPD2    H7 6853   2.451   1.046  16.647 -0.3301 -0.3880 -0.2412
  457TMC3    C1 6854   2.611   1.179  17.413  0.1419 -0.6083 -0.2545
  457TMC3    C2 6855   2.626   1.300  17.473  0.6113  0.1939 -0.5316
  457TMC3    C3 6856   2.648   1.304  17.606  0.4587 -0.0082 -0.2230
  457TMC3    C4 6857   2.609   1.058  17.486  0.3460  0.5060  0.0890
  457TMC3    C5 6858   2.627   1.076  17.625  0.1937  0.3470 -0.1569
  457TMC3    C6 6859   2.657   1.193  17.690 -0.1020  0.3478  0.0763
  457TMC3     C 6860   2.512   1.196  17.316 -0.8831 -0.0457 -0.8538
  457TMC3     O 6861   2.403   1.251  17.339  0.3258  0.2303 -0.2050
  457TMC3     H 6862   2.619   1.387  17.410 -0.7133  0.3059 -0.2336
  457TMC3    H1 6863   2.569   0.964  17.450  1.5199 -0.5390  1.5128
  457TMC3    H2 6864   2.705   1.202   0.046 -1.4400 -0.7165  0.8368
  457TMC3    C7 6865   2.633   0.958  17.701  0.4073 -0.2236  0.8003
  457TMC3    C8 6866   2.692   1.431  17.661 -0.0565 -0.2508 -0.1462
  457TMC3    O1 6867   2.648   0.854  17.639  0.0709 -0.3682  0.1254
  457TMC3    O2 6868   2.678   1.436   0.040  0.5371  0.7060 -0.3376
  458MPD2     C 6869   0.663   0.602  12.285  1.4101 -0.7847  0.1907
  458MPD2    C1 6870   0.702   0.549  12.405 -0.5901 -0.4164  0.3112
  458MPD2    C2 6871   0.630   0.446  12.453  0.4373 -0.5496 -0.6631
  458MPD2    C3 6872   0.511   0.403  12.391 -0.3582 -1.2694 -0.9957
  458MPD2    C4 6873   0.477   0.464  12.278  0.1732 -0.5099  0.5096
  458MPD2    C5 6874   0.556   0.559  12.221  0.1507  0.5226 -1.0323
  458MPD2     H 6875   0.652   0.417  12.555  1.6826  0.5893 -0.6076
  458MPD2    H1 6876   0.381   0.435  12.237  1.3768 -0.3019 -2.4047
  458MPD2    H2 6877   0.727   0.675  12.237  0.7688  0.8312  1.7895
  458MPD2    H3 6878   0.530   0.605  12.127 -0.8378  1.3472 -0.3535
  458MPD2     N 6879   0.423   0.320  12.464  0.1712  0.3224  0.2494
  458MPD2    H5 6880   0.452   0.266  12.545  3.7260 -0.3333 -1.4354
  458MPD2    N1 6881   0.811   0.609  12.475  0.2210 -0.5394 -0.4603
  458MPD2    H7 6882   0.844   0.693  12.429  0.7964 -0.6979 -0.3303
  459TMC3    C1 6883   0.960   0.671  12.644  0.1117  0.4035  0.4623
  459TMC3    C2 6884   0.953   0.803  12.622 -0.0682 -0.1722 -0.1153
  459TMC3    C3 6885   1.040   0.884  12.690 -0.5081 -0.2079 -0.6019
  459TMC3    C4 6886   1.048   0.618  12.732 -0.1786 -0.2997 -0.0964
  459TMC3    C5 6887   1.121   0.704  12.803  0.3743  0.0830  0.0244
  459TMC3    C6 6888   1.125   0.839  12.786 -0.0641 -0.4493 -0.1697
  459TMC3     C 6889   0.851   0.585  12.599  0.5650 -0.0463 -0.2986
  459TMC3     O 6890   0.813   0.499  12.674 -0.0589  0.2182  0.0420
  459TMC3     H 6891   0.891   0.842  12.542 -1.6957 -1.6851  0.3950
  459TMC3    H1 6892   1.047   0.514  12.761  0.7899  0.3380  2.1640
  459TMC3    H2 6893   1.195   0.912  12.826 -0.4706 -0.4683  0.5792
  459TMC3    C7 6894   1.148   0.640  12.933 -0.4929 -0.4974  0.6912
  459TMC3    C8 6895   1.083   1.003  12.625 -0.0211  0.4052 -0.4280
  459TMC3    O1 6896   1.198   0.531  12.939  0.0626 -0.7934 -1.3002
  459TMC3    O2 6897   1.196   1.000  12.580  0.1762 -0.9333 -0.1465
  460MPD2     C 6898   4.439   2.866  11.007 -0.2506  0.2530 -0.2647
  460MPD2    C1 6899   4.334   2.809  11.074 -0.8830 -0.1267  0.5689
  460MPD2    C2 6900   4.205   2.827  11.024 -0.6000 -0.4353 -0.5868
  460MPD2    C3 6901   4.181   2.895  10.910  0.5685  0.2651  0.5608
  460MPD2    C4 6902   4.289   2.949  10.839  0.2906  0.4331 -0.0266
  460MPD2    C5 6903   4.415   2.941  10.897 -0.1805  0.1398  0.4582
  460MPD2     H 6904   4.123   2.784  11.079 -0.1489  1.0030  1.2339
  460MPD2    H1 6905   4.278   3.011  10.750 -1.4569  0.7792  0.4282
  460MPD2    H2 6906   4.541   2.844  11.037 -0.4412 -0.2041  0.0425
  460MPD2    H3 6907   4.497   2.989  10.845 -1.4008  1.7236 -0.0125
  460MPD2     N 6908   4.049   2.908  10.863 -0.2872  0.6059  0.9233
  460MPD2    H5 6909   3.980   2.840  10.894 -1.3605  0.1662 -2.4252
  460MPD2    N1 6910   4.357   2.736  11.194 -0.5600 -0.1266  0.0295
  460MPD2    H7 6911   4.453   2.713  11.218  0.1028  0.9189 -1.6785
  461TMC3    C1 6912   3.885   2.988  10.722 -0.9876 -0.3872  0.2018
  461TMC3    C2 6913   3.862   2.860  10.676 -0.4769 -0.1833  0.0315
  461TMC3    C3 6914   3.747   2.848  10.596 -0.0401 -0.7978 -0.5528
  461TMC3    C4 6915   3.800   3.093  10.689  0.3882  0.1957  0.5674
  461TMC3    C5 6916   3.687   3.073  10.617  0.4721  0.0113  0.5901
  461TMC3    C6 6917   3.665   2.949  10.562 -0.1424 -0.2043 -0.7555
  461TMC3     C 6918   4.018   3.017  10.780 -0.2047  0.3304 -0.6201
  461TMC3     O 6919   4.073   3.127  10.769 -0.3522 -0.3823 -0.1495
  461TMC3     H 6920   3.932   2.779  10.691 -0.9108 -0.4432  0.6816
  461TMC3    H1 6921   3.829   3.188  10.733  1.9509  1.2423 -2.7271
  461TMC3    H2 6922   3.582   2.952  10.492 -1.4494 -1.1727  0.7347
  461TMC3    C7 6923   3.623   3.188  10.551  0.5310 -1.4355 -0.7387
  461TMC3    C8 6924   3.777   2.749  10.492 -0.0117  0.6095 -0.0304
  461TMC3    O1 6925   3.613   3.174  10.431 -0.5457 -0.3030 -0.0647
  461TMC3    O2 6926   3.887   2.696  10.488  0.3187  0.1597 -0.9243
  462TMC3    C1 6927   4.235   3.675   0.488 -0.6765  0.0822  0.0183
  462TMC3    C2 6928   4.344   3.677   0.412  0.2328 -0.0590 -0.2121
  462TMC3    C3 6929   4.401   3.557   0.370  0.3138  0.0949  0.4063
  462TMC3    C4 6930   4.168   3.562   0.515 -0.7832 -0.5981  0.1490
  462TMC3    C5 6931   4.227   3.446   0.474  0.2114 -0.4958 -0.0513
  462TMC3    C6 6932   4.344   3.435   0.408 -0.2738  0.3198  0.4438
  462TMC3     C 6933   4.194   3.787   0.562  0.7082  0.2086  0.5791
  462TMC3     O 6934   4.125   3.760   0.655 -0.2973 -0.5227 -0.1207
  462TMC3     H 6935   4.405   3.767   0.415  1.1228 -0.7424  1.6278
  462TMC3    H1 6936   4.079   3.565   0.578 -2.4633 -0.9347 -2.2098
  462TMC3    H2 6937   4.388   3.339   0.383 -0.2898  0.4731 -0.1726
  462TMC3    C7 6938   4.169   3.311   0.496  0.9392  0.1621 -0.0661
  462TMC3    C8 6939   4.510   3.564   0.267  0.2341  0.0404 -0.1836
  462TMC3    O1 6940   4.244   3.216   0.498  0.2938  0.0293  0.5239
  462TMC3    O2 6941   4.534   3.674   0.215 -0.1366  0.8156  0.2411
  463MPD2     C 6942   1.363   1.244   1.927  0.0432  0.4838 -0.3631
  463MPD2    C1 6943   1.344   1.319   1.818 -0.0047 -0.0115 -0.6048
  463MPD2    C2 6944   1.425   1.430   1.794  0.2794  0.2781 -0.2383
  463MPD2    C3 6945   1.518   1.473   1.892  0.4087  0.6048  0.0711
  463MPD2    C4 6946   1.533   1.395   2.004 -0.3921 -0.1299 -0.2347
  463MPD2    C5 6947   1.461   1.278   2.021  0.6379 -0.1534  0.2449
  463MPD2     H 6948   1.402   1.489   1.706 -4.3448  0.2358  0.9601
  463MPD2    H1 6949   1.599   1.418   2.087 -0.8219 -0.7831  0.2829
  463MPD2    H2 6950   1.311   1.149   1.938 -0.4222  0.7562 -0.1839
  463MPD2    H3 6951   1.477   1.217   2.110 -1.6962 -0.2734  0.6047
  463MPD2     N 6952   1.583   1.598   1.872  0.4319 -1.1000 -0.3971
  463MPD2    H5 6953   1.567   1.643   1.783 -2.0619 -0.7201  0.2408
  463MPD2    N1 6954   1.247   1.290   1.723 -0.0945  0.5134 -1.0258
  463MPD2    H7 6955   1.247   1.352   1.644 -1.3026 -0.5022 -1.8218
  464TMC3    C1 6956   1.053   1.212   1.625 -0.8504  0.4493 -0.3909
  464TMC3    C2 6957   1.026   1.337   1.569 -0.0904  0.1177  0.3016
  464TMC3    C3 6958   0.922   1.345   1.481  0.3474 -0.3902 -0.2183
  464TMC3    C4 6959   0.969   1.101   1.606  0.3911 -0.0474  0.0145
  464TMC3    C5 6960   0.859   1.124   1.531 -0.2029  0.5841  0.2942
  464TMC3    C6 6961   0.841   1.245   1.461  0.5116 -0.1075 -0.8844
  464TMC3     C 6962   1.142   1.202   1.736  0.5885  0.3715 -1.4594
  464TMC3     O 6963   1.131   1.102   1.809 -0.1899  0.3332  0.3763
  464TMC3     H 6964   1.077   1.421   1.614  0.4013 -0.2128  0.3610
  464TMC3    H1 6965   0.993   1.004   1.649 -1.5802 -1.6192 -2.4319
  464TMC3    H2 6966   0.764   1.252   1.385 -0.5319  0.1148  0.1761
  464TMC3    C7 6967   0.767   1.016   1.502  0.4102  0.4271  0.2521
  464TMC3    C8 6968   0.871   1.476   1.440  0.0208 -0.1203 -0.3508
  464TMC3    O1 6969   0.808   0.902   1.514 -0.0508 -0.3695 -0.5153
  464TMC3    O2 6970   0.753   1.488   1.421  0.4111  0.8538 -0.0045
  465MPD2     C 6971   2.147   0.222  17.382  0.0128  0.4739  0.1078
  465MPD2    C1 6972   2.052   0.276  17.473 -0.1333  0.5518 -0.0424
  465MPD2    C2 6973   1.963   0.371  17.428  0.0556  0.0363 -0.4549
  465MPD2    C3 6974   1.981   0.423  17.301  0.2315 -1.1065  0.1541
  465MPD2    C4 6975   2.082   0.382  17.225  0.1127 -0.2192 -0.2852
  465MPD2    C5 6976   2.163   0.278  17.259  0.5486 -0.2653  0.1428
  465MPD2     H 6977   1.882   0.399  17.493 -0.4442  0.8932 -1.4465
  465MPD2    H1 6978   2.089   0.411  17.120 -2.1461  0.9546 -0.1225
  465MPD2    H2 6979   2.218   0.147  17.413  0.5837  1.3404  0.9084
  465MPD2    H3 6980   2.242   0.237  17.197  1.5150  0.3945  0.9490
  465MPD2     N 6981   1.887   0.521  17.259 -0.7263  0.3175 -0.0563
  465MPD2    H5 6982   1.819   0.547  17.330 -0.5042  2.6219 -0.6824
  465MPD2    N1 6983   2.021   0.226  17.605 -0.1585 -0.7052  0.7127
  465MPD2    H7 6984   1.954   0.276  17.662  0.5108  0.6600  0.2856
  466TMC3    C1 6985   1.562   0.745  17.127  0.0492  0.0645  0.2240
  466TMC3    C2 6986   1.594   0.849  17.050  0.7661 -0.1109 -0.0108
  466TMC3    C3 6987   1.717   0.858  16.991  0.4233 -0.3867 -0.1204
  466TMC3    C4 6988   1.656   0.651  17.153  0.0004  0.4403  0.0270
  466TMC3    C5 6989   1.785   0.663  17.100  0.4228 -0.0543 -0.3686
  466TMC3    C6 6990   1.818   0.765  17.011  0.3871 -0.4713  0.6753
  466TMC3     C 6991   1.434   0.723  17.186  0.0182 -0.4264 -0.2142
  466TMC3     O 6992   1.423   0.625  17.261 -0.1741  0.2922 -0.4789
  466TMC3     H 6993   1.513   0.920  17.040  2.0945  1.0920 -1.9770
  466TMC3    H1 6994   1.619   0.557  17.193  1.9960 -0.0777  0.6851
  466TMC3    H2 6995   1.916   0.776  16.964 -0.7112  0.2072 -1.4762
  466TMC3    C7 6996   1.890   0.569  17.127  0.2441  0.0921  0.0139
  466TMC3    C8 6997   1.774   0.985  16.946  0.6846  0.6149  0.1427
  466TMC3    O1 6998   1.968   0.562  17.035 -0.3328 -0.4085 -0.7659
  466TMC3    O2 6999   1.849   0.975  16.853  0.1827 -0.5581  0.2127
  467TMC3    C1 7000   2.495   4.565  13.472 -0.0950  0.0547 -0.3420
  467TMC3    C2 7001   2.587   4.637  13.396  0.6442  0.6168 -0.6220
  467TMC3    C3 7002   2.570   0.036  13.395  0.9481  0.2359  0.5870
  467TMC3    C4 7003   2.400   4.631  13.547  0.2429 -0.5782 -0.5248
  467TMC3    C5 7004   2.386   0.028  13.540  0.2279 -0.6004  0.2694
  467TMC3    C6 7005   2.464   0.105  13.457 -0.3667 -0.2872  0.0255
  467TMC3     C 7006   2.521   4.421  13.491  0.4890  0.8255 -0.4374
  467TMC3     O 7007   2.586   4.371  13.400 -0.1561 -0.4987 -0.0504
  467TMC3     H 7008   2.651   4.582  13.329  1.9768  3.4717 -1.6769
  467TMC3    H1 7009   2.332   4.559  13.593  0.3324  0.6003  1.4259
  467TMC3    H2 7010   2.459   0.212  13.446 -1.1006 -0.4877 -1.5925
  467TMC3    C7 7011   2.270   0.101  13.591 -0.2781  0.1613 -0.8572
  467TMC3    C8 7012   2.676   0.115  13.335  0.1371 -0.0510  0.9140
  467TMC3    O1 7013   2.235   0.204  13.536  0.8169 -0.5813 -0.1805
  467TMC3    O2 7014   2.689   0.229  13.382  0.4214  0.1600  0.2701
  468MPD2     C 7015   1.100   2.723  11.389  0.7177 -0.0105 -0.1965
  468MPD2    C1 7016   1.192   2.703  11.288  0.0104  0.6603  0.1981
  468MPD2    C2 7017   1.221   2.578  11.253 -0.3020  0.2351  0.7003
  468MPD2    C3 7018   1.159   2.462  11.303 -0.3451  0.0931  0.0365
  468MPD2    C4 7019   1.058   2.489  11.396 -0.3143  0.0157  0.4776
  468MPD2    C5 7020   1.032   2.617  11.445  0.2556  0.1428 -0.1477
  468MPD2     H 7021   1.291   2.564  11.171 -0.3370  1.8959  0.4014
  468MPD2    H1 7022   0.991   2.413  11.436  1.1466 -1.9378 -0.7703
  468MPD2    H2 7023   1.073   2.819  11.431  1.4820  0.0172  0.2341
  468MPD2    H3 7024   0.956   2.630  11.521  0.1714 -2.5061  0.2252
  468MPD2     N 7025   1.183   2.334  11.249 -0.3146  0.3062 -0.2501
  468MPD2    H5 7026   1.117   2.260  11.274  0.3865  0.4646  2.0711
  468MPD2    N1 7027   1.262   2.812  11.230 -0.1375  0.3102  0.4725
  468MPD2    H7 7028   1.341   2.796  11.168 -1.1332 -1.9838 -0.2026
  469TMC3    C1 7029   1.312   3.035  11.171 -0.4157  0.3735  0.5571
  469TMC3    C2 7030   1.443   3.012  11.192 -0.6217  0.1422 -0.6600
  469TMC3    C3 7031   1.531   3.115  11.206 -0.4274  0.0583  0.2412
  469TMC3    C4 7032   1.264   3.169  11.166 -0.4199  0.0908  0.9126
  469TMC3    C5 7033   1.350   3.266  11.201  0.0762  0.1912  1.1729
  469TMC3    C6 7034   1.483   3.247  11.216  0.2264  0.4274  0.4091
  469TMC3     C 7035   1.217   2.942  11.222  0.0250  0.0399  0.1927
  469TMC3     O 7036   1.108   2.982  11.249  0.9424 -0.3853 -0.5902
  469TMC3     H 7037   1.491   2.915  11.191 -1.5743 -0.3309  0.8708
  469TMC3    H1 7038   1.159   3.189  11.151 -0.0777  1.2856  0.0859
  469TMC3    H2 7039   1.538   3.340  11.227  1.5991 -0.3192 -0.1475
  469TMC3    C7 7040   1.293   3.399  11.236 -0.0366  0.6727  0.4221
  469TMC3    C8 7041   1.657   3.084  11.270 -0.3630 -0.3167 -0.3040
  469TMC3    O1 7042   1.369   3.488  11.269 -0.2848 -0.1124  0.1977
  469TMC3    O2 7043   1.740   3.014  11.212 -0.3401  0.2307  0.5294
  470TMC3    C1 7044   3.214   2.284   0.902 -0.1690  0.2850 -0.3660
  470TMC3    C2 7045   3.306   2.380   0.908 -0.0545  0.9121  0.1351
  470TMC3    C3 7046   3.427   2.349   0.968 -0.4735 -0.2329  0.2829
  470TMC3    C4 7047   3.240   2.155   0.953 -0.5631  0.0762 -0.8773
  470TMC3    C5 7048   3.363   2.124   0.999  0.4935  0.1580  0.4447
  470TMC3    C6 7049   3.458   2.221   1.002  0.6042 -0.4097 -0.8231
  470TMC3     C 7050   3.088   2.305   0.837  0.8073 -0.5258 -0.9163
  470TMC3     O 7051   3.074   2.409   0.772  0.1745  0.3723  0.2859
  470TMC3     H 7052   3.287   2.482   0.876  3.7859  0.8546 -2.3031
  470TMC3    H1 7053   3.175   2.069   0.948 -1.0972  0.3211  2.0526
  470TMC3    H2 7054   3.553   2.194   1.047  0.9107  0.9240 -0.6533
  470TMC3    C7 7055   3.403   1.983   1.031  0.0491  0.6143 -0.1023
  470TMC3    C8 7056   3.529   2.451   0.970  0.9570  0.3352 -0.5940
  470TMC3    O1 7057   3.525   1.959   1.019  0.0448  0.5379  0.1496
  470TMC3    O2 7058   3.496   2.564   0.934  0.3154 -0.2759  0.0836
  471MPD2     C 7059   4.175   4.431  16.992  0.6935 -0.6278 -0.1680
  471MPD2    C1 7060   4.145   4.290  16.977  0.2734  0.2931  0.7319
  471MPD2    C2 7061   4.227   4.200  17.039 -0.5359 -0.5414  0.4264
  471MPD2    C3 7062   4.340   4.238  17.114  0.2817  0.3808  0.1994
  471MPD2    C4 7063   4.359   4.370  17.138 -0.1616 -0.2112  0.1316
  471MPD2    C5 7064   4.280   4.466  17.078 -0.6449  0.4727 -0.0596
  471MPD2     H 7065   4.199   4.096  17.027  0.3778 -0.2038 -4.5762
  471MPD2    H1 7066   4.440   4.411  17.197 -0.0835 -0.6072  0.3039
  471MPD2    H2 7067   4.126   4.515  16.945 -0.5038 -0.8089  0.7470
  471MPD2    H3 7068   4.310   4.569  17.098 -0.7668  0.7783 -1.4512
  471MPD2     N 7069   4.433   4.151  17.178  0.0786  0.2760 -0.2345
  471MPD2    H5 7070   4.500   4.194  17.241 -2.0472  2.0391  0.8145
  471MPD2    N1 7071   4.043   4.241  16.898 -0.5614  0.5504 -0.2670
  471MPD2    H7 7072   4.033   4.142  16.877 -0.0554  0.6146 -0.8042
  472TMC3    C1 7073   3.866   4.229  16.745 -0.3072 -0.0838  0.2733
  472TMC3    C2 7074   3.743   4.273  16.711 -0.3354  0.1732 -0.7116
  472TMC3    C3 7075   3.653   4.182  16.657 -0.1756 -0.4761 -0.9333
  472TMC3    C4 7076   3.910   4.102  16.714  0.6401  0.0436  0.1291
  472TMC3    C5 7077   3.816   4.023  16.659  0.2153  0.0032  0.1346
  472TMC3    C6 7078   3.689   4.055  16.625  0.0638  0.0675 -0.2642
  472TMC3     C 7079   3.944   4.318  16.836 -0.3280  0.3124  0.8179
  472TMC3     O 7080   3.925   4.439  16.828  0.4048  0.5087 -0.1113
  472TMC3     H 7081   3.707   4.370  16.742  1.4735 -0.0804  2.1819
  472TMC3    H1 7082   4.012   4.067  16.726  0.2439 -1.2672 -0.3411
  472TMC3    H2 7083   3.620   3.974  16.606 -0.1009  0.0838  0.2810
  472TMC3    C7 7084   3.844   3.884  16.670 -0.2370  0.3778  0.4954
  472TMC3    C8 7085   3.535   4.229  16.603  0.1234  0.5836  0.5374
  472TMC3    O1 7086   3.929   3.847  16.744  0.4304  0.0294 -0.5508
  472TMC3    O2 7087   3.523   4.354  16.603  0.4041  0.1262  1.0176
  473MPD2     C 7088   3.826   2.102  13.989 -0.6153  0.1015 -0.0774
  473MPD2    C1 7089   3.783   2.198  13.894 -0.3664 -0.1011 -0.3060
  473MPD2    C2 7090   3.843   2.327  13.913 -0.3692  0.3053  0.0478
  473MPD2    C3 7091   3.937   2.358  14.011 -0.5721 -0.4252  0.6281
  473MPD2    C4 7092   3.985   2.256  14.087 -0.3085 -0.2214  0.0237
  473MPD2    C5 7093   3.933   2.135  14.074 -0.0444 -0.0290 -0.3479
  473MPD2     H 7094   3.800   2.406  13.852 -0.1789 -1.1089 -1.9161
  473MPD2    H1 7095   4.058   2.271  14.166  0.1507 -0.3442 -0.3722
  473MPD2    H2 7096   3.782   2.003  13.989 -1.1890  0.3575 -0.7876
  473MPD2    H3 7097   3.964   2.054  14.139 -1.1515 -1.4467 -1.5968
  473MPD2     N 7098   3.996   2.480  14.033  0.1060  0.3026 -0.1199
  473MPD2    H5 7099   4.057   2.490  14.113  0.0961 -0.9890  0.0482
  473MPD2    N1 7100   3.692   2.183  13.788  0.3634  0.3030 -0.2278
  473MPD2    H7 7101   3.675   2.265  13.731 -1.6577 -0.0197 -0.0955
  474TMC3    C1 7102   4.070   2.702  13.989  0.0300 -0.1590 -0.2124
  474TMC3    C2 7103   4.016   2.826  13.971 -0.2712  0.0865 -0.2948
  474TMC3    C3 7104   4.061   2.933  14.042 -0.2893 -0.1488 -0.6245
  474TMC3    C4 7105   4.173   2.679  14.077 -0.5230 -0.5378 -0.3637
  474TMC3    C5 7106   4.225   2.789  14.144  0.1244  0.2150  0.4511
  474TMC3    C6 7107   4.167   2.909  14.131 -0.3805 -0.1951 -0.0837
  474TMC3     C 7108   3.981   2.596  13.952  0.4987  0.3428 -0.3088
  474TMC3     O 7109   3.909   2.619  13.858 -0.1099 -0.4262 -0.0951
  474TMC3     H 7110   3.931   2.834  13.904 -0.3149 -0.0708 -0.2576
  474TMC3    H1 7111   4.210   2.580  14.102  1.6189  0.7836  1.6741
  474TMC3    H2 7112   4.209   2.989  14.191 -1.4477 -0.5933  1.2100
  474TMC3    C7 7113   4.345   2.776  14.228  0.2542 -0.1315  0.6248
  474TMC3    C8 7114   3.989   3.060  14.019  0.2711  0.3099 -0.2899
  474TMC3    O1 7115   4.421   2.680  14.219  0.1902 -0.6037 -0.6239
  474TMC3    O2 7116   3.881   3.051  13.963 -0.8831 -0.2387  0.7772
  475MPD2     C 7117   2.331   0.230   9.899 -0.2402 -0.5853  0.7361
  475MPD2    C1 7118   2.372   0.336   9.984 -0.0946  0.2034  0.7858
  475MPD2    C2 7119   2.282   0.380  10.078 -0.3377 -0.0132 -0.0265
  475MPD2    C3 7120   2.153   0.331  10.081  0.6397  0.1306 -0.0789
  475MPD2    C4 7121   2.119   0.226  10.002  0.3630 -0.1171  0.7706
  475MPD2    C5 7122   2.211   0.172   9.921 -0.3270 -0.2308 -0.5936
  475MPD2     H 7123   2.302   0.458  10.150 -1.6067 -0.3670  0.7179
  475MPD2    H1 7124   2.019   0.187   9.996  0.9568 -1.5462  0.1324
  475MPD2    H2 7125   2.393   0.186   9.822  0.8326  2.4753 -0.1633
  475MPD2    H3 7126   2.191   0.082   9.864 -1.7261 -1.8935  2.4835
  475MPD2     N 7127   2.060   0.399  10.166 -0.2651 -0.3330 -0.0426
  475MPD2    H5 7128   2.088   0.478  10.223  2.2541 -0.4429 -1.1287
  475MPD2    N1 7129   2.488   0.409   9.969 -0.3272 -0.2922  0.3403
  475MPD2    H7 7130   2.514   0.464  10.051  1.1001  2.5535 -2.0173
  476TMC3    C1 7131   2.592   0.575   9.869 -0.1325  0.0278  0.5153
  476TMC3    C2 7132   2.506   0.678   9.828  0.3904  0.8093  0.0301
  476TMC3    C3 7133   2.504   0.793   9.906 -0.2618 -0.1600  0.6162
  476TMC3    C4 7134   2.667   0.592   9.982 -0.2877  0.5334  0.2849
  476TMC3    C5 7135   2.643   0.701  10.064 -0.1599  0.9169  0.4293
  476TMC3    C6 7136   2.574   0.809  10.025  0.3580 -0.2304 -0.1626
  476TMC3     C 7137   2.530   0.454   9.849  0.3511 -0.6416  0.0327
  476TMC3     O 7138   2.472   0.426   9.744 -0.0627 -0.2297 -0.2236
  476TMC3     H 7139   2.448   0.667   9.737  0.8652 -0.3202 -0.1392
  476TMC3    H1 7140   2.718   0.509  10.028 -1.5098 -0.1877  0.3445
  476TMC3    H2 7141   2.561   0.899  10.083 -0.9957 -1.4617  1.4371
  476TMC3    C7 7142   2.634   0.659  10.202 -0.0541 -0.5063 -0.2055
  476TMC3    C8 7143   2.381   0.867   9.909 -1.2435  0.1226  0.3846
  476TMC3    O1 7144   2.581   0.550  10.214  0.0351 -0.0935  0.0146
  476TMC3    O2 7145   2.378   0.970   9.976 -0.1037 -0.0666 -0.3656
  477MPD2     C 7146   0.350   2.185  12.302  0.0451  0.0584 -0.0436
  477MPD2    C1 7147   0.275   2.084  12.247 -0.7013 -0.4094 -0.3414
  477MPD2    C2 7148   0.263   1.963  12.322 -0.1803  0.6495 -0.2768
  477MPD2    C3 7149   0.315   1.953  12.450  0.1974  0.0190 -0.3711
  477MPD2    C4 7150   0.381   2.065  12.503 -0.2894  0.2666  0.2586
  477MPD2    C5 7151   0.413   2.167  12.419 -0.0429 -0.3919  0.5781
  477MPD2     H 7152   0.209   1.874  12.293 -0.5791  1.3803 -1.7532
  477MPD2    H1 7153   0.413   2.072  12.606 -1.5109 -0.8095  0.7126
  477MPD2    H2 7154   0.364   2.284  12.262  0.5264  1.1832  2.8938
  477MPD2    H3 7155   0.474   2.246  12.461 -0.4684 -1.0490  2.4208
  477MPD2     N 7156   0.286   1.844  12.532  0.1431 -0.3538  0.7254
  477MPD2    H5 7157   0.246   1.765  12.482 -1.6093 -0.4657  2.2815
  477MPD2    N1 7158   0.215   2.108  12.123 -0.4017  0.2255 -0.3389
  477MPD2    H7 7159   0.216   2.204  12.089  1.2798  0.1123 -0.6232
  478TMC3    C1 7160   0.102   2.060  11.919 -0.5229 -0.1450  0.2543
  478TMC3    C2 7161   0.056   2.189  11.920  0.4410  0.3061  0.4615
  478TMC3    C3 7162   4.708   2.224  11.821  0.1670 -0.0985 -0.9734
  478TMC3    C4 7163   0.068   1.964  11.827  0.3499  0.3257 -0.3151
  478TMC3    C5 7164   4.728   2.012  11.722  0.1523  0.4597 -0.2228
  478TMC3    C6 7165   4.679   2.138  11.716 -0.0291 -0.3663  0.5042
  478TMC3     C 7166   0.162   2.010  12.042  0.6044  0.3503 -0.4701
  478TMC3     O 7167   0.162   1.889  12.053 -0.1954  0.2145 -0.4795
  478TMC3     H 7168   0.065   2.262  12.001 -1.1471 -0.1431  1.0518
  478TMC3    H1 7169   0.098   1.861  11.835 -1.0562  0.0823  1.6218
  478TMC3    H2 7170   4.621   2.181  11.635 -2.5080 -2.3876  1.1986
  478TMC3    C7 7171   4.697   1.914  11.620  0.1353  0.1797 -0.0818
  478TMC3    C8 7172   4.700   2.366  11.792  0.6044 -0.2815 -0.1197
  478TMC3    O1 7173   4.731   1.797  11.637 -0.2921 -0.6116  0.2763
  478TMC3    O2 7174   0.065   2.435  11.820  0.3661 -0.1008 -0.5180
  479MPD2     C 7175   3.943   4.360  15.269 -0.5078 -0.1781  0.5725
  479MPD2    C1 7176   3.907   4.285  15.375 -0.4507 -0.3864 -0.5619
  479MPD2    C2 7177   3.997   4.268  15.473  0.4238 -0.2836  0.6412
  479MPD2    C3 7178   4.121   4.323  15.466 -0.3801 -0.2051 -0.1659
  479MPD2    C4 7179   4.158   4.395  15.358  0.1409  0.4485 -0.4406
  479MPD2    C5 7180   4.068   4.412  15.262 -0.1107 -0.5815 -0.4165
  479MPD2     H 7181   3.966   4.201  15.552 -2.3823 -1.1453 -1.1968
  479MPD2    H1 7182   4.259   4.434  15.350  0.0854  0.4330 -1.2240
  479MPD2    H2 7183   3.886   4.381  15.179  2.1460  1.4373 -0.7295
  479MPD2    H3 7184   4.082   4.476  15.176  0.8719 -0.7971 -0.4172
  479MPD2     N 7185   4.224   4.293  15.561 -1.5151 -0.3770 -0.1715
  479MPD2    H5 7186   4.317   4.320  15.531 -1.8014  0.2531 -0.4771
  479MPD2    N1 7187   3.772   4.227  15.381 -0.0426 -0.1149 -0.3119
  479MPD2    H7 7188   3.705   4.256  15.311 -0.1029 -1.0695 -0.6587
  480TMC3    C1 7189   3.967   4.144  15.933  0.2484 -0.7772 -0.5285
  480TMC3    C2 7190   3.879   4.246  15.932 -0.8717  0.1357 -0.5098
  480TMC3    C3 7191   3.912   4.352  15.849  0.4367  0.1972 -0.2910
  480TMC3    C4 7192   4.084   4.143  15.854  0.3903 -0.1630 -0.0260
  480TMC3    C5 7193   4.105   4.245  15.762 -0.2565 -0.0857 -0.4277
  480TMC3    C6 7194   4.022   4.353  15.766  0.8275  0.0675 -0.0461
  480TMC3     C 7195   3.922   4.013  15.981  0.3058  0.5266 -0.4148
  480TMC3     O 7196   4.003   3.922  15.996  0.7961 -0.3537 -0.0196
  480TMC3     H 7197   3.799   4.262  16.004 -0.6566 -0.2528 -0.1842
  480TMC3    H1 7198   4.139   4.050  15.846 -1.7667 -1.3150 -1.4342
  480TMC3    H2 7199   4.041   4.439  15.703  1.5147 -1.0991 -1.4356
  480TMC3    C7 7200   4.222   4.232  15.683 -0.1565  0.0001  0.3489
  480TMC3    C8 7201   3.804   4.446  15.811  0.3713  0.3179 -0.0163
  480TMC3    O1 7202   4.325   4.195  15.739  0.1863 -0.0938  0.2082
  480TMC3    O2 7203   3.735   4.489  15.904 -0.2638 -0.0774 -0.2262
  481MPD2     C 7204   0.840   3.790  14.321  0.0313  0.3720  0.4470
  481MPD2    C1 7205   0.702   3.773  14.346  0.2987  0.3301 -0.5535
  481MPD2    C2 7206   0.665   3.737  14.477 -0.1593  0.2105 -0.7245
  481MPD2    C3 7207   0.764   3.705  14.570 -0.8598  0.1512  0.1711
  481MPD2    C4 7208   0.902   3.711  14.546  0.1897  0.0311  0.0533
  481MPD2    C5 7209   0.935   3.761  14.421  0.2277 -0.0948 -0.3389
  481MPD2     H 7210   0.560   3.725  14.501 -0.3170 -0.5488 -1.8039
  481MPD2    H1 7211   0.986   3.700  14.613  0.6762 -0.2080 -0.5916
  481MPD2    H2 7212   0.875   3.827  14.225 -0.1022  1.6200  0.8753
  481MPD2    H3 7213   1.040   3.773  14.397 -0.1766  1.5063 -1.3310
  481MPD2     N 7214   0.727   3.685  14.705  0.5391 -0.1382  0.0737
  481MPD2    H5 7215   0.801   3.693  14.775  0.4350  0.4616  0.1160
  481MPD2    N1 7216   0.609   3.808  14.249  0.2882 -0.0005  0.2313
  481MPD2    H7 7217   0.643   3.833  14.157 -0.2501 -0.0782  0.0073
  482TMC3    C1 7218   0.405   3.898  14.159  0.0654 -0.3161  0.0163
  482TMC3    C2 7219   0.277   3.848  14.155  0.7573  0.3786 -0.0801
  482TMC3    C3 7220   0.198   3.895  14.055 -0.1770  0.5584 -0.4325
  482TMC3    C4 7221   0.458   3.997  14.080  0.6444  0.2968 -0.5770
  482TMC3    C5 7222   0.385   4.026  13.971  0.4365  0.3018  0.3632
  482TMC3    C6 7223   0.258   3.979  13.957 -0.5029 -0.9379  0.6650
  482TMC3     C 7224   0.478   3.835  14.275  0.7505 -1.0043 -0.3341
  482TMC3     O 7225   0.409   3.820  14.379 -0.2984  0.3616 -0.3241
  482TMC3     H 7226   0.244   3.767  14.219  0.3253  1.9248  1.6630
  482TMC3    H1 7227   0.561   4.030  14.091  0.0761  1.4582  1.1711
  482TMC3    H2 7228   0.208   3.992  13.862  1.6800  1.6538 -0.1382
  482TMC3    C7 7229   0.465   4.044  13.848  0.5419  0.0256 -0.0100
  482TMC3    C8 7230   0.105   3.801  14.004  0.7272 -0.2984 -0.3920
  482TMC3    O1 7231   0.584   4.020  13.854 -0.2129 -0.8137  0.1659
  482TMC3    O2 7232   0.121   3.683  14.023 -0.1571 -0.2128 -0.1592
  483TMC3    C1 7233   3.414   1.690   0.621  0.7676  0.0397  0.7740
  483TMC3    C2 7234   3.517   1.779   0.608  0.1395 -0.4887  0.0979
  483TMC3    C3 7235   3.607   1.783   0.708  0.0826  0.2931 -0.1352
  483TMC3    C4 7236   3.404   1.597   0.715  0.2044  0.0816  0.0090
  483TMC3    C5 7237   3.496   1.603   0.816 -0.1363 -0.1719 -0.6127
  483TMC3    C6 7238   3.600   1.692   0.811  0.3502  0.0807 -0.4241
  483TMC3     C 7239   3.325   1.688   0.505 -0.3579  0.1104  0.5508
  483TMC3     O 7240   3.331   1.789   0.432 -0.5741  0.3125 -0.2416
  483TMC3     H 7241   3.527   1.842   0.521  2.1968 -0.7591  0.1471
  483TMC3    H1 7242   3.320   1.528   0.722 -1.2914  2.0943  1.6404
  483TMC3    H2 7243   3.677   1.707   0.886 -2.1410 -1.4087  2.4674
  483TMC3    C7 7244   3.542   1.468   0.850 -0.2291  0.3203 -1.3029
  483TMC3    C8 7245   3.702   1.893   0.713  0.3678  0.2849 -0.7772
  483TMC3    O1 7246   3.455   1.386   0.840  0.0862 -0.0000  0.0690
  483TMC3    O2 7247   3.739   1.932   0.601 -0.0984 -0.3251  0.1686
  484MPD2     C 7248   0.843   1.262  12.504 -0.1295  0.5987 -0.6561
  484MPD2    C1 7249   0.961   1.201  12.528 -0.0639  0.5272 -0.3771
  484MPD2    C2 7250   1.070   1.260  12.463 -0.4871  0.6835 -0.5424
  484MPD2    C3 7251   1.064   1.375  12.389 -0.1740 -0.7273  1.1676
  484MPD2    C4 7252   0.938   1.430  12.376  0.1957  0.6971  0.3327
  484MPD2    C5 7253   0.830   1.371  12.423 -0.0070 -0.1096 -0.1407
  484MPD2     H 7254   1.168   1.212  12.468 -1.7990 -2.1051 -1.4264
  484MPD2    H1 7255   0.925   1.521  12.318 -1.7098  0.5369  0.5032
  484MPD2    H2 7256   0.753   1.214  12.540 -0.7638 -0.2617 -3.4105
  484MPD2    H3 7257   0.738   1.426  12.404 -1.6784 -1.9491  2.5552
  484MPD2     N 7258   1.176   1.443  12.331  0.8788 -0.5051  0.0664
  484MPD2    H5 7259   1.170   1.532  12.283 -1.4467 -1.0680 -0.6788
  484MPD2    N1 7260   0.968   1.081  12.605 -0.2400 -0.5384 -0.0588
  484MPD2    H7 7261   0.885   1.048  12.655 -1.3692  0.2618 -1.3966
  485TMC3    C1 7262   1.400   1.472  12.261  0.8602 -0.0760 -0.1163
  485TMC3    C2 7263   1.519   1.476  12.321 -0.1296  0.6021  0.1878
  485TMC3    C3 7264   1.619   1.534  12.251 -0.6845  0.2474 -0.3350
  485TMC3    C4 7265   1.374   1.520  12.140  0.3629  0.1356  0.3826
  485TMC3    C5 7266   1.480   1.571  12.066  0.4569  0.1335 -0.1267
  485TMC3    C6 7267   1.600   1.585  12.124  0.2379 -0.0917  0.1892
  485TMC3     C 7268   1.306   1.400  12.344 -0.4877  0.1480  0.6452
  485TMC3     O 7269   1.355   1.320  12.420  0.4165 -0.1888 -0.4259
  485TMC3     H 7270   1.523   1.463  12.428  1.6758  0.0610  0.0546
  485TMC3    H1 7271   1.273   1.528  12.102  0.9651 -0.0044 -1.2822
  485TMC3    H2 7272   1.674   1.643  12.070 -1.1510  0.2641 -1.3374
  485TMC3    C7 7273   1.490   1.501  11.945 -0.0600 -0.3126 -0.0105
  485TMC3    C8 7274   1.758   1.507  12.300  0.6672 -0.0273 -0.1936
  485TMC3    O1 7275   1.559   1.540  11.856  0.4916 -0.0541 -0.8608
  485TMC3    O2 7276   1.853   1.559  12.257 -0.4703  0.7662  0.0354
  486MPD2     C 7277   3.206   4.692  12.619  0.3872 -0.4045  0.7871
  486MPD2    C1 7278   3.125   4.585  12.613  0.0904  0.9806  0.6507
  486MPD2    C2 7279   3.009   4.597  12.533  0.5297 -0.4082 -0.1114
  486MPD2    C3 7280   2.976   4.711  12.467 -0.2510  0.2056 -0.6222
  486MPD2    C4 7281   3.059   0.081  12.474 -0.1892  0.2607 -0.3286
  486MPD2    C5 7282   3.171   0.068  12.555 -0.4706  0.2750  0.2155
  486MPD2     H 7283   2.952   4.508  12.512  0.6904 -0.3616 -0.7686
  486MPD2    H1 7284   3.032   0.171  12.421 -1.2641 -1.4728 -2.7186
  486MPD2    H2 7285   3.288   4.689  12.690  2.5762 -1.7413 -1.7893
  486MPD2    H3 7286   3.232   0.157  12.570 -0.6022  0.4040 -0.0103
  486MPD2     N 7287   2.861   4.711  12.385  0.2864  0.8327 -0.3985
  486MPD2    H5 7288   2.812   4.622  12.390  3.1663 -0.6048  2.0192
  486MPD2    N1 7289   3.162   4.459  12.672 -0.4252 -0.1350  0.0136
  486MPD2    H7 7290   3.253   4.449  12.716 -0.1177  0.6420 -0.4422
  487TMC3    C1 7291   3.154   4.221  12.725 -0.8727  0.4320 -0.3554
  487TMC3    C2 7292   3.077   4.126  12.790 -0.9893 -0.8468  0.5719
  487TMC3    C3 7293   3.159   4.015  12.822 -0.1936  0.2541 -0.0818
  487TMC3    C4 7294   3.288   4.207  12.707  0.2874 -0.4946  0.4126
  487TMC3    C5 7295   3.349   4.093  12.740 -0.3173 -0.1524 -0.1796
  487TMC3    C6 7296   3.282   3.990  12.779  0.5376  0.1722  0.5297
  487TMC3     C 7297   3.083   4.341  12.675 -0.0873 -0.2933 -1.0499
  487TMC3     O 7298   2.966   4.327  12.642 -0.1050 -0.4280 -0.9891
  487TMC3     H 7299   2.973   4.146  12.814 -1.4063 -1.7156 -0.5156
  487TMC3    H1 7300   3.359   4.275  12.661  0.4175 -0.8338  0.1128
  487TMC3    H2 7301   3.339   3.910  12.826  0.9700  2.8517  4.5290
  487TMC3    C7 7302   3.493   4.099  12.735 -0.1772  0.4284 -0.0082
  487TMC3    C8 7303   3.093   3.896  12.856 -0.0780  0.2615 -0.3702
  487TMC3    O1 7304   3.548   4.203  12.762  0.9597 -0.7558 -0.1967
  487TMC3    O2 7305   3.139   3.790  12.834  0.0960  0.5348 -0.7282
  488MPD2     C 7306   3.749   1.315  16.162  0.7676  0.0872 -0.2912
  488MPD2    C1 7307   3.792   1.332  16.293  0.4995  0.6720  0.5092
  488MPD2    C2 7308   3.724   1.268  16.393 -0.0259  0.4857 -0.7930
  488MPD2    C3 7309   3.611   1.188  16.368  0.2543  0.0148  0.2067
  488MPD2    C4 7310   3.581   1.166  16.235  0.4764  0.3919  0.7980
  488MPD2    C5 7311   3.643   1.237  16.138 -0.9137  0.2906 -0.1014
  488MPD2     H 7312   3.760   1.286  16.494  0.9441 -1.0845 -0.8631
  488MPD2    H1 7313   3.499   1.107  16.193  0.3015 -0.3954  2.2361
  488MPD2    H2 7314   3.799   1.366  16.081  1.8567 -1.0693 -0.3661
  488MPD2    H3 7315   3.599   1.226  16.039  1.4486  1.0567 -1.2256
  488MPD2     N 7316   3.544   1.129  16.480  0.2587  0.3705  0.6867
  488MPD2    H5 7317   3.560   1.164  16.574  0.5582  1.1288  0.3531
  488MPD2    N1 7318   3.908   1.411  16.331  0.0295  0.1253 -0.3988
  488MPD2    H7 7319   3.938   1.415  16.428 -2.0264  0.0461  0.2316
  489TMC3    C1 7320   3.426   0.955  16.599 -0.7411  0.1683 -0.0819
  489TMC3    C2 7321   3.386   1.041  16.702 -0.3668 -0.1530 -0.5687
  489TMC3    C3 7322   3.297   0.992  16.789  0.2665  0.4445  0.0369
  489TMC3    C4 7323   3.390   0.824  16.595 -0.4505  0.5501 -0.8335
  489TMC3    C5 7324   3.301   0.775  16.690  0.1821 -0.4838  0.0072
  489TMC3    C6 7325   3.244   0.864  16.787  0.0818  0.1352 -0.4641
  489TMC3     C 7326   3.476   1.009  16.467  0.3335 -0.1623  0.9476
  489TMC3     O 7327   3.488   0.931  16.371 -0.1732  0.5589  0.5078
  489TMC3     H 7328   3.425   1.142  16.702 -4.3521  1.3780 -1.9885
  489TMC3    H1 7329   3.439   0.765  16.519  0.3636  1.2111 -0.8190
  489TMC3    H2 7330   3.181   0.837  16.871  0.9414  0.2414  0.2112
  489TMC3    C7 7331   3.300   0.633  16.707  0.7762 -0.4431  0.1510
  489TMC3    C8 7332   3.312   1.041  16.922  0.7086 -0.1619 -0.0343
  489TMC3    O1 7333   3.398   0.568  16.687  0.8106  0.2220 -0.1581
  489TMC3    O2 7334   3.218   1.039  17.000 -0.0378 -0.0442  0.5738
  490MPD2     C 7335   4.226   4.550   0.182 -0.3591 -1.1673 -0.6525
  490MPD2    C1 7336   4.324   4.474   0.122 -0.6071  0.5759 -0.2822
  490MPD2    C2 7337   4.443   4.454   0.188 -0.5101 -0.5996  0.0211
  490MPD2    C3 7338   4.481   4.529   0.297  0.2627 -0.1106 -0.2267
  490MPD2    C4 7339   4.383   4.606   0.351  0.2478  0.2372 -0.0159
  490MPD2    C5 7340   4.255   4.610   0.302 -0.5321  0.2452 -0.0388
  490MPD2     H 7341   4.506   4.370   0.161  0.2975  0.0761 -0.2028
  490MPD2    H1 7342   4.406   4.663   0.440  0.2137  2.4732 -1.4411
  490MPD2    H2 7343   4.123   4.552   0.148  0.2987  0.3210 -2.5142
  490MPD2    H3 7344   4.174   4.666   0.348 -2.4168 -1.7186 -0.9975
  490MPD2     N 7345   4.606   4.530   0.368  0.7343  0.3220  0.6268
  490MPD2    H5 7346   4.611   4.604   0.437  0.2855  2.7973 -2.0100
  490MPD2    N1 7347   4.307   4.399   0.002  0.1778 -0.0014 -0.2785
  490MPD2    H7 7348   4.386   4.339  17.721 -1.3109 -2.3242  0.6867
  491TMC3    C1 7349   4.214   4.350  17.535  0.3272 -0.3173  0.2980
  491TMC3    C2 7350   4.226   4.216  17.561 -0.3489 -0.0207  0.3024
  491TMC3    C3 7351   4.153   4.120  17.493 -0.5027  0.3425  0.3187
  491TMC3    C4 7352   4.132   4.387  17.429 -0.3827 -0.2917 -0.0342
  491TMC3    C5 7353   4.071   4.292  17.347  0.0780  0.3172 -0.2370
  491TMC3    C6 7354   4.084   4.156  17.374  0.6147  0.6477  0.5262
  491TMC3     C 7355   4.208   4.436  17.645 -1.3258 -0.3764 -0.2295
  491TMC3     O 7356   4.119   4.521  17.650  0.2773 -0.0121 -0.3869
  491TMC3     H 7357   4.259   4.183  17.659  0.0490  0.0247  0.1863
  491TMC3    H1 7358   4.123   4.493  17.407  0.2170 -0.2227  0.0597
  491TMC3    H2 7359   4.010   4.085  17.339  2.0377 -0.2381 -0.6956
  491TMC3    C7 7360   3.943   4.336  17.287  0.7406 -0.2022 -0.0706
  491TMC3    C8 7361   4.084   4.024  17.576  0.5195 -0.3657  0.3110
  491TMC3    O1 7362   3.859   4.246  17.265 -0.5535  0.7199 -0.1164
  491TMC3    O2 7363   4.076   4.060  17.696 -0.2017  0.2741  0.0802
  492MPD2     C 7364   3.714   0.151  10.916  0.4829 -0.9655 -0.4048
  492MPD2    C1 7365   3.828   0.228  10.945  1.0565 -0.2499 -0.4825
  492MPD2    C2 7366   3.887   0.224  11.070  0.6160 -0.1633 -1.0730
  492MPD2    C3 7367   3.828   0.145  11.171 -0.5936  0.2472 -0.1147
  492MPD2    C4 7368   3.715   0.077  11.139  0.5260  0.0324  0.3201
  492MPD2    C5 7369   3.663   0.075  11.013 -0.1153 -0.4301  0.6523
  492MPD2     H 7370   3.980   0.279  11.084 -0.1268  0.8560 -0.1669
  492MPD2    H1 7371   3.677   0.000  11.205 -0.8597  1.0973  0.7564
  492MPD2    H2 7372   3.662   0.169  10.822  1.2140  0.5830 -0.5245
  492MPD2    H3 7373   3.571   0.018  11.001  0.5565 -1.5825  0.9493
  492MPD2     N 7374   3.877   0.129  11.302  0.3177 -0.1427 -0.1151
  492MPD2    H5 7375   3.820   0.083  11.371 -0.1746  2.0280  0.9151
  492MPD2    N1 7376   3.866   0.315  10.842 -0.5481 -0.2194  0.5886
  492MPD2    H7 7377   3.806   0.305  10.761  1.1660  2.2106 -0.9815
  493TMC3    C1 7378   3.969   0.500  10.740 -0.1883  0.1019 -0.1122
  493TMC3    C2 7379   4.058   0.604  10.763  0.4792  0.1938  0.1123
  493TMC3    C3 7380   4.033   0.726  10.697 -0.5076  0.0615 -0.0761
  493TMC3    C4 7381   3.863   0.512  10.656 -0.2762  0.6541 -0.0028
  493TMC3    C5 7382   3.838   0.637  10.600 -0.3193 -0.8266 -0.3698
  493TMC3    C6 7383   3.926   0.743  10.618 -0.1546  0.2723 -0.4841
  493TMC3     C 7384   3.972   0.404  10.844 -0.0019  0.5502  0.7214
  493TMC3     O 7385   4.054   0.407  10.934 -0.3379  0.6168  0.4241
  493TMC3     H 7386   4.146   0.590  10.825  0.2445  2.4397  0.9481
  493TMC3    H1 7387   3.813   0.424  10.618  1.8771  0.6505 -2.8635
  493TMC3    H2 7388   3.920   0.832  10.557  0.5325  0.4424 -0.3092
  493TMC3    C7 7389   3.729   0.658  10.513  0.4380  0.1441 -0.0157
  493TMC3    C8 7390   4.110   0.844  10.732  0.0160 -0.0483 -0.0975
  493TMC3    O1 7391   3.741   0.749  10.434  0.3510  0.4876 -0.3516
  493TMC3    O2 7392   4.100   0.943  10.659 -0.1741 -0.0091 -0.4482
  494TMC3    C1 7393   0.129   1.521   0.786 -0.1444 -0.5223 -0.3199
  494TMC3    C2 7394   0.185   1.395   0.817 -0.0897  0.7404 -0.1309
  494TMC3    C3 7395   0.232   1.323   0.711 -0.0599  0.2633  0.4256
  494TMC3    C4 7396   0.139   1.581   0.655  1.0192  0.1881  0.5890
  494TMC3    C5 7397   0.190   1.501   0.556  0.4686  0.4608 -0.3583
  494TMC3    C6 7398   0.233   1.375   0.589 -0.5635  0.3284  0.1499
  494TMC3     C 7399   0.101   1.602   0.895  0.3085 -0.9156 -0.1821
  494TMC3     O 7400   0.150   1.561   0.999 -0.2902  0.3666  0.3735
  494TMC3     H 7401   0.175   1.349   0.915  2.1572  0.7247  0.0782
  494TMC3    H1 7402   0.107   1.682   0.634  3.0307  0.7004 -0.0011
  494TMC3    H2 7403   0.261   1.322   0.498  0.7037 -2.6039  2.2370
  494TMC3    C7 7404   0.173   1.536   0.414  0.3031  0.2829 -0.0393
  494TMC3    C8 7405   0.293   1.187   0.716 -0.3837  1.2068 -0.3664
  494TMC3    O1 7406   0.256   1.491   0.331 -0.2036  0.0873 -0.2697
  494TMC3    O2 7407   0.268   1.120   0.616  0.1927  0.2074  0.2891
  495TMC3    C1 7408   3.698   4.596  14.833  0.0801 -0.8289  0.5458
  495TMC3    C2 7409   3.585   4.526  14.808  0.1459 -0.2895  0.2892
  495TMC3    C3 7410   3.513   4.476  14.916  0.1716 -0.6038  0.0551
  495TMC3    C4 7411   3.731   4.642  14.951 -0.6080  0.1271 -0.2333
  495TMC3    C5 7412   3.653   4.599  15.054 -0.1359 -0.4881  0.2172
  495TMC3    C6 7413   3.541   4.522  15.044 -0.1758 -0.0063 -0.5920
  495TMC3     C 7414   3.809   4.589  14.738  0.0507  0.3085 -0.7967
  495TMC3     O 7415   3.924   4.586  14.782 -0.2321  0.8776 -0.1483
  495TMC3     H 7416   3.562   4.490  14.709 -0.1385  0.6374  0.0135
  495TMC3    H1 7417   3.817   4.707  14.963 -0.0185 -0.8618  0.8869
  495TMC3    H2 7418   3.484   4.498  15.133 -1.0305 -2.1269 -1.7195
  495TMC3    C7 7419   3.701   4.629  15.183  0.3446  0.6289  0.4749
  495TMC3    C8 7420   3.444   4.349  14.892  0.4560 -0.1475 -0.1174
  495TMC3    O1 7421   3.822   4.633  15.212 -0.0554 -0.0459  0.5313
  495TMC3    O2 7422   3.373   4.337  14.793  0.4047 -0.5419 -0.4766
  496MPD2     C 7423   1.249   4.506  15.001 -1.2342  0.0514 -0.3244
  496MPD2    C1 7424   1.256   4.464  15.129 -0.1942  0.2681 -0.2496
  496MPD2    C2 7425   1.139   4.427  15.192 -0.0767  0.2029 -0.6540
  496MPD2    C3 7426   1.015   4.424  15.121  1.0144  0.1900  0.0227
  496MPD2    C4 7427   1.014   4.464  14.993 -0.0993  0.5069  0.7648
  496MPD2    C5 7428   1.129   4.503  14.937 -0.1962 -0.0594  0.6219
  496MPD2     H 7429   1.138   4.389  15.294  1.2951 -0.4314 -0.8769
  496MPD2    H1 7430   0.933   4.447  14.924  1.0346 -1.1109 -0.1588
  496MPD2    H2 7431   1.333   4.542  14.943  0.0604  1.0771  2.1932
  496MPD2    H3 7432   1.123   4.528  14.831 -0.7379  1.1204  0.9364
  496MPD2     N 7433   0.891   4.371  15.172 -0.0367  0.1274  0.3796
  496MPD2    H5 7434   0.822   4.362  15.098  0.6937 -3.1176  0.1077
  496MPD2    N1 7435   1.380   4.453  15.194  0.1463 -0.4590  0.1819
  496MPD2    H7 7436   1.459   4.484  15.138  0.5818 -1.6620  0.1162
  497TMC3    C1 7437   0.729   4.302  15.336  0.4413  0.0259  0.6005
  497TMC3    C2 7438   0.643   4.275  15.233 -0.6172 -0.5017 -1.0230
  497TMC3    C3 7439   0.523   4.229  15.274  0.4255  0.6797 -0.4668
  497TMC3    C4 7440   0.693   4.295  15.466 -0.0699  0.0171 -0.9295
  497TMC3    C5 7441   0.572   4.250  15.497  0.6284 -0.2881  0.3481
  497TMC3    C6 7442   0.475   4.217  15.402 -0.0764  0.1690 -0.2572
  497TMC3     C 7443   0.866   4.349  15.307  0.2381  0.7698  0.2160
  497TMC3     O 7444   0.936   4.368  15.403  0.2232 -0.5103 -0.3888
  497TMC3     H 7445   0.672   4.274  15.129  3.1264  1.7566 -0.0101
  497TMC3    H1 7446   0.768   4.309  15.543 -0.3343  2.8996 -1.2059
  497TMC3    H2 7447   0.377   4.175  15.423 -0.0861  0.4638  0.2919
  497TMC3    C7 7448   0.528   4.256  15.638 -0.0517  0.5557 -0.3286
  497TMC3    C8 7449   0.428   4.197  15.173  1.0912  0.0032 -0.8884
  497TMC3    O1 7450   0.407   4.274  15.662 -0.0895 -0.0119  0.5502
  497TMC3    O2 7451   0.310   4.209  15.207 -0.2885  0.1260  0.6887
  498MPD2     C 7452   1.240   1.017  10.072 -0.1267  0.0908  0.7600
  498MPD2    C1 7453   1.335   0.920  10.041  0.6477 -0.2414  0.0975
  498MPD2    C2 7454   1.311   0.786  10.068 -0.0035 -0.5295  0.3618
  498MPD2    C3 7455   1.193   0.758  10.129 -0.0288 -0.0051 -0.0594
  498MPD2    C4 7456   1.104   0.850  10.151  0.2494  0.2084 -0.1885
  498MPD2    C5 7457   1.118   0.986  10.120  0.3714  0.2975 -0.6460
  498MPD2     H 7458   1.390   0.714  10.049 -0.5711 -0.9638 -0.3772
  498MPD2    H1 7459   1.006   0.823  10.191  0.2883 -0.1604 -0.3454
  498MPD2    H2 7460   1.265   1.122  10.068  2.3364 -0.4836  0.5830
  498MPD2    H3 7461   1.042   1.058  10.147  0.4158  0.4332 -0.8877
  498MPD2     N 7462   1.173   0.619  10.138 -0.0700  0.0601  0.0702
  498MPD2    H5 7463   1.242   0.559  10.094  2.8439  2.5773  1.2031
  498MPD2    N1 7464   1.459   0.945   9.981 -0.1702 -0.0900  0.3842
  498MPD2    H7 7465   1.516   0.868   9.947 -1.4397 -1.4546  1.3752
  499TMC3    C1 7466   1.634   1.067   9.858  0.4990  0.1074 -0.6094
  499TMC3    C2 7467   1.657   0.965   9.767  0.4324 -0.6285  0.1678
  499TMC3    C3 7468   1.756   0.983   9.686  0.3978 -0.6805  0.2919
  499TMC3    C4 7469   1.700   1.187   9.846  0.5641 -0.5184  0.5252
  499TMC3    C5 7470   1.803   1.189   9.759  0.0509  0.3349 -0.2660
  499TMC3    C6 7471   1.833   1.094   9.670 -0.2920  0.1982 -0.7015
  499TMC3     C 7472   1.504   1.070   9.934 -0.1107 -0.5241  0.5914
  499TMC3     O 7473   1.461   1.181   9.967 -0.1254  0.3586  0.0220
  499TMC3     H 7474   1.596   0.875   9.772  1.7905 -1.5887 -0.6889
  499TMC3    H1 7475   1.692   1.265   9.921  0.0042 -0.8180  0.7776
  499TMC3    H2 7476   1.899   1.107   9.585  0.3502 -1.3604 -0.4351
  499TMC3    C7 7477   1.872   1.311   9.750 -0.0814  0.1136  0.0834
  499TMC3    C8 7478   1.803   0.872   9.607  0.2423  0.6635  0.2615
  499TMC3    O1 7479   1.976   1.301   9.691 -0.1722 -0.6469 -0.6488
  499TMC3    O2 7480   1.915   0.881   9.557  0.2989  0.4852  0.4116
  500MPD2     C 7481   3.560   1.953  10.787  0.5637 -0.9017  0.1291
  500MPD2    C1 7482   3.440   1.880  10.781 -0.3284 -0.1171  1.2309
  500MPD2    C2 7483   3.339   1.926  10.697 -0.1464  1.0787  0.0140
  500MPD2    C3 7484   3.350   2.043  10.621 -0.2254  0.8110 -0.1193
  500MPD2    C4 7485   3.471   2.112  10.632  0.5491 -0.4343  0.2782
  500MPD2    C5 7486   3.578   2.060  10.703 -0.1132 -0.8067 -0.8089
  500MPD2     H 7487   3.241   1.880  10.692 -0.3772  1.6765 -1.0707
  500MPD2    H1 7488   3.491   2.196  10.566 -0.0447 -0.2092  0.3886
  500MPD2    H2 7489   3.653   1.920  10.832  0.1359 -0.6409  1.2074
  500MPD2    H3 7490   3.676   2.105  10.699 -0.8339  0.7399 -1.3719
  500MPD2     N 7491   3.241   2.081  10.533  0.4008  0.2930 -0.2601
  500MPD2    H5 7492   3.162   2.017  10.527 -1.2434  2.4444 -1.4096
  500MPD2    N1 7493   3.426   1.761  10.860  0.3278 -0.0865  0.6250
  500MPD2    H7 7494   3.338   1.711  10.848  1.4958 -2.0039  0.1101
  501TMC3    C1 7495   3.486   1.596  11.026  0.5819 -0.1722  0.0009
  501TMC3    C2 7496   3.500   1.501  10.926 -0.6673  0.6303  0.6121
  501TMC3    C3 7497   3.591   1.402  10.953 -0.7578 -0.1335  0.4608
  501TMC3    C4 7498   3.551   1.592  11.143  0.1330 -0.1671  0.4633
  501TMC3    C5 7499   3.643   1.490  11.164 -0.0010  0.6005  0.8845
  501TMC3    C6 7500   3.657   1.392  11.071  0.3614  0.0525 -0.9627
  501TMC3     C 7501   3.511   1.724  10.966 -0.8604  0.1577 -0.2878
  501TMC3     O 7502   3.595   1.792  11.027 -0.0899 -0.1549 -0.1033
  501TMC3     H 7503   3.451   1.521  10.831 -0.7823 -3.4880 -0.1901
  501TMC3    H1 7504   3.549   1.675  11.212  2.1400  1.4517 -1.4395
  501TMC3    H2 7505   3.723   1.308  11.089 -2.3988 -1.5403  1.7886
  501TMC3    C7 7506   3.775   1.530  11.203 -0.5520 -0.0422 -0.2265
  501TMC3    C8 7507   3.679   1.381  10.836  0.0392  0.5733  0.3349
  501TMC3    O1 7508   3.854   1.448  11.245  0.2545  0.0157  0.4597
  501TMC3    O2 7509   3.613   1.340  10.739 -0.2236  0.4831 -0.0919
  502TMC3    C1 7510   3.427   0.928  15.373 -0.4335  0.1847  0.6656
  502TMC3    C2 7511   3.344   1.030  15.374  0.4996 -0.4946  0.1079
  502TMC3    C3 7512   3.231   1.009  15.297 -0.0773  0.1283 -0.4473
  502TMC3    C4 7513   3.409   0.813  15.294  0.2224 -0.7995 -0.2008
  502TMC3    C5 7514   3.285   0.795  15.246  0.5688  0.4416  0.3165
  502TMC3    C6 7515   3.199   0.897  15.228 -0.6308 -0.2055 -0.4245
  502TMC3     C 7516   3.513   0.902  15.489 -0.1757 -0.8991 -0.3953
  502TMC3     O 7517   3.631   0.888  15.465  0.2240 -0.1041 -0.0014
  502TMC3     H 7518   3.373   1.127  15.411 -1.1562 -0.0007  0.1309
  502TMC3    H1 7519   3.483   0.735  15.306 -0.1375 -1.3004 -1.2756
  502TMC3    H2 7520   3.114   0.886  15.162 -0.9044  0.0294 -0.1074
  502TMC3    C7 7521   3.239   0.649  15.238 -0.3673  0.0059  0.2366
  502TMC3    C8 7522   3.157   1.121  15.265 -0.1121 -0.7021  0.0198
  502TMC3    O1 7523   3.332   0.570  15.263  0.0970  0.0878 -0.3854
  502TMC3    O2 7524   3.125   1.128  15.148 -0.0759  0.4798 -0.1698
  503MPD2     C 7525   0.598   0.160  17.208 -0.4589  0.6200 -0.1762
  503MPD2    C1 7526   0.681   0.240  17.278 -0.3132  0.4336 -0.1824
  503MPD2    C2 7527   0.784   0.186  17.344  0.7872 -0.6849 -0.8223
  503MPD2    C3 7528   0.804   0.048  17.347  0.0831 -0.6113  0.6376
  503MPD2    C4 7529   0.728   4.709  17.268  0.5354  0.1085 -0.4253
  503MPD2    C5 7530   0.631   0.032  17.191  0.0229  0.1217  0.0800
  503MPD2     H 7531   0.845   0.247  17.409  0.6945 -0.0038 -1.3670
  503MPD2    H1 7532   0.749   4.603  17.254 -0.0312 -0.4460  3.0478
  503MPD2    H2 7533   0.525   0.196  17.136 -0.0053  0.3676 -0.7650
  503MPD2    H3 7534   0.569   4.712  17.122 -0.6908 -0.4098  1.1545
  503MPD2     N 7535   0.905   4.732  17.434  0.4256 -0.0912 -0.8792
  503MPD2    H5 7536   0.969   0.064  17.474  0.5823 -0.2465 -0.8684
  503MPD2    N1 7537   0.652   0.381  17.289  0.2664 -0.0735  0.0805
  503MPD2    H7 7538   0.726   0.428  17.342 -0.9294  0.4981  1.2482
  504TMC3    C1 7539   1.035   4.595  17.560 -0.3381  0.1195  0.2515
  504TMC3    C2 7540   1.044   4.465  17.602  0.9491  0.4936 -0.4508
  504TMC3    C3 7541   1.168   4.410  17.584  0.9159 -0.4304  0.1923
  504TMC3    C4 7542   1.145   4.664  17.513  0.7856 -0.1386 -0.2818
  504TMC3    C5 7543   1.269   4.600  17.507 -0.1278  0.7271 -0.0724
  504TMC3    C6 7544   1.280   4.472  17.545  0.1890  0.8619 -0.2082
  504TMC3     C 7545   0.927   4.605  17.471 -0.5021 -0.2732  0.0937
  504TMC3     O 7546   0.893   4.492  17.439 -0.2986  0.0498 -0.1654
  504TMC3     H 7547   0.953   4.415  17.633  1.0829  0.0243 -0.8036
  504TMC3    H1 7548   1.144   0.031  17.480 -1.3005  1.0517  3.5299
  504TMC3    H2 7549   1.361   4.404  17.523 -1.5765 -1.2707 -0.1295
  504TMC3    C7 7550   1.381   4.662  17.440  0.3912  0.2735  0.3836
  504TMC3    C8 7551   1.165   4.264  17.601 -0.4820  0.2809 -0.8317
  504TMC3    O1 7552   1.369   0.036  17.389  0.1830 -0.0818  0.1726
  504TMC3    O2 7553   1.233   4.204  17.520 -0.1009  0.1749  0.1047
  505MPD2     C 7554   1.128   4.173  10.702 -0.4946  0.1944  0.1417
  505MPD2    C1 7555   1.141   4.082  10.599 -0.4371  0.1337  0.8509
  505MPD2    C2 7556   1.269   4.056  10.562 -0.5036 -0.6340  0.4433
  505MPD2    C3 7557   1.378   4.127  10.607  0.7976 -0.5232  0.2989
  505MPD2    C4 7558   1.359   4.219  10.699  0.4484 -0.5394  0.4684
  505MPD2    C5 7559   1.233   4.246  10.743 -0.1622  0.8942  0.2178
  505MPD2     H 7560   1.279   3.998  10.471  1.3822  1.2755 -0.5765
  505MPD2    H1 7561   1.441   4.278  10.738  1.3273 -1.7756  0.4955
  505MPD2    H2 7562   1.026   4.194  10.733 -1.2587 -0.3878 -1.9936
  505MPD2    H3 7563   1.218   4.307  10.831  0.5077  0.6626  0.4973
  505MPD2     N 7564   1.511   4.110  10.557  0.2706  0.2207  0.0731
  505MPD2    H5 7565   1.591   4.152  10.604 -0.3044  0.5177  0.7971
  505MPD2    N1 7566   1.022   4.035  10.540  0.3371 -0.5843  0.5785
  505MPD2    H7 7567   0.932   4.057  10.583 -0.0433 -1.9155  0.4476
  506TMC3    C1 7568   0.891   3.942  10.383 -0.2221  0.1685  0.7864
  506TMC3    C2 7569   0.841   4.049  10.329  0.0767 -0.2330 -0.4971
  506TMC3    C3 7570   0.795   4.061  10.199  0.3404  0.3085 -0.1195
  506TMC3    C4 7571   0.891   3.830  10.299 -0.2426  0.1426 -0.2157
  506TMC3    C5 7572   0.844   3.833  10.170  0.1958 -0.8410  0.0869
  506TMC3    C6 7573   0.794   3.951  10.130  0.2430  0.6081  0.4630
  506TMC3     C 7574   1.017   3.958  10.431  0.1659 -0.2493  0.1993
  506TMC3     O 7575   1.111   3.898  10.380 -0.3718 -0.2133  0.2544
  506TMC3     H 7576   0.850   4.144  10.380  1.4388  0.8172 -2.7145
  506TMC3    H1 7577   0.943   3.738  10.326  1.6971  1.0812 -0.7635
  506TMC3    H2 7578   0.752   3.963  10.031 -1.1362  0.6385  1.0484
  506TMC3    C7 7579   0.930   3.775  10.074 -0.9223 -0.4809 -0.6764
  506TMC3    C8 7580   0.715   4.178  10.152  0.3930 -0.3411  0.7483
  506TMC3    O1 7581   0.886   3.756   9.961  0.1574  0.0677  0.5115
  506TMC3    O2 7582   0.625   4.156  10.076  0.5770  0.3851  0.0270
  507TMC3    C1 7583   1.674   0.576  15.567 -0.4245  0.6744 -0.6135
  507TMC3    C2 7584   1.797   0.633  15.552  0.0487 -0.0944  0.1947
  507TMC3    C3 7585   1.799   0.755  15.486  0.1551 -0.6095 -0.2063
  507TMC3    C4 7586   1.548   0.629  15.530  0.1764  0.8500 -1.1859
  507TMC3    C5 7587   1.558   0.743  15.463  0.8764  0.3105 -1.0152
  507TMC3    C6 7588   1.679   0.808  15.437 -0.0190 -0.2556 -0.8143
  507TMC3     C 7589   1.690   0.436  15.559  0.9400 -0.4212  0.4197
  507TMC3     O 7590   1.797   0.387  15.593 -0.4512 -0.4729  0.4028
  507TMC3     H 7591   1.887   0.593  15.599  0.8165  3.9596  2.1631
  507TMC3    H1 7592   1.452   0.578  15.535  1.1621 -0.8714  0.3674
  507TMC3    H2 7593   1.682   0.907  15.394 -1.0854  0.2090  0.1838
  507TMC3    C7 7594   1.483   0.723  15.338  0.1438  0.1001 -0.4838
  507TMC3    C8 7595   1.908   0.771  15.392 -0.1239  0.4510 -0.1417
  507TMC3    O1 7596   1.451   0.609  15.314 -0.4036 -0.3666 -0.3377
  507TMC3    O2 7597   2.011   0.711  15.423  0.2673  0.1432 -0.1363
  508MPD2     C 7598   2.352   2.714  16.094  0.0133 -0.0207  0.5101
  508MPD2    C1 7599   2.476   2.783  16.092  0.3714 -0.0049 -0.1250
  508MPD2    C2 7600   2.482   2.894  16.017  0.1601  0.4593 -0.3846
  508MPD2    C3 7601   2.373   2.938  15.951 -0.0882  0.2025  0.3007
  508MPD2    C4 7602   2.271   2.851  15.927 -0.5782  0.5022 -0.5587
  508MPD2    C5 7603   2.255   2.738  16.005 -0.2504  0.4164  0.2776
  508MPD2     H 7604   2.572   2.955  16.024 -0.1228  1.1202 -2.3278
  508MPD2    H1 7605   2.186   2.879  15.865 -1.5991 -1.2571  0.0304
  508MPD2    H2 7606   2.334   2.628  16.158 -1.8929 -0.8723 -1.1517
  508MPD2    H3 7607   2.163   2.681  15.999 -0.1015  0.0294  1.5403
  508MPD2     N 7608   2.381   3.063  15.884 -0.0428 -0.8967 -0.0478
  508MPD2    H5 7609   2.467   3.116  15.888 -1.1646  0.7981  1.7550
  508MPD2    N1 7610   2.577   2.750  16.183 -0.2084 -0.2950 -0.3669
  508MPD2    H7 7611   2.555   2.664  16.233  1.7040 -1.4721 -1.5473
  509TMC3    C1 7612   2.326   3.466  15.869 -0.1695  0.0350  0.7948
  509TMC3    C2 7613   2.466   3.474  15.871  0.0125 -0.2535 -0.0324
  509TMC3    C3 7614   2.539   3.360  15.830  0.0801  0.9073  0.6136
  509TMC3    C4 7615   2.258   3.353  15.826 -0.6591  0.0723 -0.2437
  509TMC3    C5 7616   2.338   3.255  15.775  0.0400 -0.6732  0.1393
  509TMC3    C6 7617   2.473   3.259  15.770 -0.0162  0.6366  0.4740
  509TMC3     C 7618   2.248   3.596  15.865 -0.2467  0.9129  0.3480
  509TMC3     O 7619   2.128   3.586  15.885  0.0570 -0.7561  0.2126
  509TMC3     H 7620   2.511   3.563  15.912  0.9233  0.2356 -2.1436
  509TMC3    H1 7621   2.150   3.360  15.825 -0.7306 -1.3247 -1.2091
  509TMC3    H2 7622   2.522   3.174  15.724 -1.1991 -0.0784  0.5438
  509TMC3    C7 7623   2.280   3.127  15.815  0.2550 -0.7241 -0.9730
  509TMC3    C8 7624   2.678   3.332  15.874  0.3241  0.7455  0.2369
  509TMC3    O1 7625   2.161   3.109  15.823  0.0045  0.3436 -0.4531
  509TMC3    O2 7626   2.699   3.215  15.885 -0.2553  0.1326 -0.0245
  510MPD2     C 7627   0.627   0.431  14.501 -0.1956 -0.3201 -0.0481
  510MPD2    C1 7628   0.650   0.297  14.530 -0.5363 -0.5523  0.5195
  510MPD2    C2 7629   0.756   0.224  14.488 -0.6955  0.2209 -0.3966
  510MPD2    C3 7630   0.857   0.289  14.411 -0.4937 -0.5391 -0.4921
  510MPD2    C4 7631   0.841   0.425  14.386  0.2374  0.0389 -0.3851
  510MPD2    C5 7632   0.727   0.487  14.431 -0.3842 -0.2738 -0.0907
  510MPD2     H 7633   0.758   0.121  14.522  0.8052  0.5361  0.4945
  510MPD2    H1 7634   0.912   0.485  14.330 -0.6694 -0.5342 -2.1550
  510MPD2    H2 7635   0.554   0.495  14.550  1.7743  1.4155  0.6332
  510MPD2    H3 7636   0.712   0.591  14.407  2.1332 -0.3717 -2.1193
  510MPD2     N 7637   0.963   0.210  14.361 -0.0045 -0.2270 -0.0110
  510MPD2    H5 7638   0.981   0.121  14.404  2.1867  1.7092  3.0298
  510MPD2    N1 7639   0.551   0.219  14.592 -0.4313 -0.3153 -0.2748
  510MPD2    H7 7640   0.572   0.119  14.593  1.2086  0.0507  3.4398
  511TMC3    C1 7641   0.364   0.157  14.706 -0.3777  0.1522 -0.0391
  511TMC3    C2 7642   0.321   0.173  14.837 -0.1198  0.3197 -0.2804
  511TMC3    C3 7643   0.254   0.069  14.897 -0.2770  0.2089 -1.0305
  511TMC3    C4 7644   0.341   0.037  14.634 -0.3924 -0.2028  0.2457
  511TMC3    C5 7645   0.277   4.671  14.707 -0.2963 -0.4969  0.3166
  511TMC3    C6 7646   0.233   4.690  14.841  0.4284 -0.2082 -0.1444
  511TMC3     C 7647   0.436   0.262  14.652  0.0529 -0.0376  0.4480
  511TMC3     O 7648   0.400   0.371  14.684 -0.4763  0.4849 -0.0876
  511TMC3     H 7649   0.342   0.265  14.890  0.5515 -0.5853  1.0509
  511TMC3    H1 7650   0.379   0.024  14.533 -0.9242  0.9948 -0.1070
  511TMC3    H2 7651   0.163   4.623  14.889  1.0155 -1.3558 -0.9027
  511TMC3    C7 7652   0.215   4.572  14.614  0.0065 -0.2529 -0.2483
  511TMC3    C8 7653   0.205   0.076  15.042  0.2639 -0.5384 -0.1672
  511TMC3    O1 7654   0.209   4.603  14.496  0.7306 -0.3460  0.4178
  511TMC3    O2 7655   0.154   0.175  15.086 -0.0147  0.4001 -0.4023
  512TMC3    C1 7656   3.784   4.142  12.370  0.0009  0.2591 -0.2963
  512TMC3    C2 7657   3.878   4.200  12.445  0.3552  0.0321 -0.2833
  512TMC3    C3 7658   3.996   4.134  12.453  0.3475 -0.1347 -0.0552
  512TMC3    C4 7659   3.811   4.020  12.311 -0.1310  0.0865  0.5497
  512TMC3    C5 7660   3.923   3.949  12.342  0.3420  0.7556  0.4067
  512TMC3    C6 7661   4.015   4.003  12.421  1.3675 -0.3546 -0.2380
  512TMC3     C 7662   3.649   4.205  12.369  0.2456  0.5046  0.1702
  512TMC3     O 7663   3.637   4.310  12.428  0.0342 -0.1905  0.3509
  512TMC3     H 7664   3.865   4.306  12.461 -4.5329 -0.4864 -0.5524
  512TMC3    H1 7665   3.739   3.969  12.249 -0.1377  1.2747 -0.3986
  512TMC3    H2 7666   4.119   3.971  12.431  0.9847 -1.7464 -0.6240
  512TMC3    C7 7667   3.949   3.818  12.286 -0.0730 -1.0395 -0.2771
  512TMC3    C8 7668   4.081   4.170  12.559  0.1487  1.4287  0.0652
  512TMC3    O1 7669   3.898   3.774  12.185  0.0553 -0.5946 -0.0398
  512TMC3    O2 7670   4.200   4.144  12.555  0.5331 -0.5974  0.1376
  513MPD2     C 7671   0.780   3.661  13.530  0.3874 -0.2435  0.1466
  513MPD2    C1 7672   0.859   3.773  13.495  0.1537  0.0420 -0.0543
  513MPD2    C2 7673   0.943   3.824  13.587 -0.1216 -0.0245 -0.5203
  513MPD2    C3 7674   0.942   3.788  13.719 -0.7071 -0.3026 -0.2775
  513MPD2    C4 7675   0.865   3.679  13.758  0.4333  0.5502 -0.4078
  513MPD2    C5 7676   0.791   3.616  13.660 -0.0154 -0.7072 -0.0104
  513MPD2     H 7677   1.011   3.903  13.557 -2.1926  1.3499 -1.6562
  513MPD2    H1 7678   0.858   3.645  13.861 -0.5907  1.4718 -0.1766
  513MPD2    H2 7679   0.727   3.601  13.457 -0.0639  2.1188 -1.4868
  513MPD2    H3 7680   0.732   3.528  13.682 -1.5333  0.7554  1.7521
  513MPD2     N 7681   1.029   3.853  13.805  0.4981  0.2780 -0.3791
  513MPD2    H5 7682   1.068   3.942  13.776 -1.8760  0.6520 -2.4120
  513MPD2    N1 7683   0.877   3.820  13.362 -0.2983 -0.6563 -0.6737
  513MPD2    H7 7684   0.953   3.883  13.340  0.0357 -0.4357  1.1874
  514TMC3    C1 7685   0.874   3.834  13.134  1.2034 -0.2033  0.8345
  514TMC3    C2 7686   0.780   3.905  13.060 -1.1355  0.5191 -0.0520
  514TMC3    C3 7687   0.814   4.036  13.031 -0.0768  0.3744  0.4038
  514TMC3    C4 7688   0.997   3.894  13.164 -0.2319 -0.0941  0.1289
  514TMC3    C5 7689   1.018   4.021  13.136  0.1402 -0.1802 -0.4320
  514TMC3    C6 7690   0.928   4.098  13.073 -0.4749 -0.0860 -0.5473
  514TMC3     C 7691   0.816   3.767  13.247  0.0443 -0.1518  0.4430
  514TMC3     O 7692   0.724   3.688  13.227 -0.2472  0.7336  0.5431
  514TMC3     H 7693   0.691   3.854  13.025 -1.7061  0.4317  1.5300
  514TMC3    H1 7694   1.073   3.840  13.219  0.9868  0.5119 -0.9601
  514TMC3    H2 7695   0.935   4.207  13.070 -0.6194 -0.0483  0.5915
  514TMC3    C7 7696   1.074   4.087  13.252 -0.3066  0.0433  0.0938
  514TMC3    C8 7697   0.731   4.098  12.934 -0.5455  0.0022 -0.5299
  514TMC3    O1 7698   1.094   4.013  13.347 -0.3502  0.7692  0.0520
  514TMC3    O2 7699   0.613   4.052  12.931 -0.1773 -0.5271  0.0141
  515MPD2     C 7700   4.355   0.977  15.189  0.6254 -0.2447  0.3526
  515MPD2    C1 7701   4.235   0.988  15.248  0.0229  0.7441  0.1705
  515MPD2    C2 7702   4.225   1.089  15.333  0.2532  0.8458 -0.4808
  515MPD2    C3 7703   4.334   1.173  15.365 -0.1074  0.3772  0.6228
  515MPD2    C4 7704   4.445   1.171  15.279  0.2763 -0.4628  0.2356
  515MPD2    C5 7705   4.454   1.067  15.197 -0.1373 -0.3611 -0.0188
  515MPD2     H 7706   4.135   1.093  15.393 -0.8775 -1.3181 -2.0131
  515MPD2    H1 7707   4.526   1.243  15.278 -0.7481  0.7276  1.9342
  515MPD2    H2 7708   4.366   0.892  15.123  0.6600 -0.2759  0.3987
  515MPD2    H3 7709   4.538   1.043  15.133  1.6084  1.6499  1.5145
  515MPD2     N 7710   4.332   1.269  15.466 -0.4780  0.2992 -0.4296
  515MPD2    H5 7711   4.413   1.329  15.480 -0.5394  0.2565  0.1083
  515MPD2    N1 7712   4.117   0.905  15.233  0.1739 -0.0973 -0.3011
  515MPD2    H7 7713   4.033   0.937  15.281  0.4523  0.7686 -0.3874
  516TMC3    C1 7714   3.981   0.733  15.166  0.5426 -0.3228 -0.1824
  516TMC3    C2 7715   3.889   0.826  15.138 -0.4094  0.7946 -0.0554
  516TMC3    C3 7716   3.757   0.779  15.142  0.1713  0.7045  0.3625
  516TMC3    C4 7717   3.953   0.610  15.219 -0.5212 -0.3091 -0.6905
  516TMC3    C5 7718   3.825   0.567  15.228 -0.4599  0.1340  0.0520
  516TMC3    C6 7719   3.725   0.650  15.178 -0.2542  0.7158 -0.3765
  516TMC3     C 7720   4.112   0.777  15.178  0.0648 -0.0694 -0.3241
  516TMC3     O 7721   4.212   0.720  15.129 -0.4142 -0.3125 -0.6165
  516TMC3     H 7722   3.908   0.921  15.089  1.7202  1.1740  1.4832
  516TMC3    H1 7723   4.031   0.541  15.248  0.1305  0.5962 -0.2618
  516TMC3    H2 7724   3.621   0.620  15.174  0.3114 -1.1877 -0.6971
  516TMC3    C7 7725   3.795   0.488  15.343  0.5034  0.2513  0.4803
  516TMC3    C8 7726   3.649   0.860  15.093 -0.2086  0.3745 -0.1148
  516TMC3    O1 7727   3.893   0.435  15.396  0.1955 -1.0672  0.1771
  516TMC3    O2 7728   3.564   0.805  15.026 -0.2097 -0.1565  0.0438
  517MPD2     C 7729   3.505   1.989   0.190 -0.9011  0.0212 -0.4164
  517MPD2    C1 7730   3.621   1.941   0.249  0.1212 -0.0474  0.2331
  517MPD2    C2 7731   3.708   2.037   0.302 -0.3168  0.2657 -0.0995
  517MPD2    C3 7732   3.687   2.177   0.282 -0.4572 -0.1204 -0.2710
  517MPD2    C4 7733   3.573   2.218   0.215  0.0669  0.4284  0.3230
  517MPD2    C5 7734   3.480   2.124   0.180 -0.5567  0.0534  0.1716
  517MPD2     H 7735   3.792   1.988   0.350  0.0993  1.0178 -0.0621
  517MPD2    H1 7736   3.554   2.325   0.213 -0.2700  0.4440  3.3111
  517MPD2    H2 7737   3.431   1.925   0.145 -0.8875  0.6183 -1.2812
  517MPD2    H3 7738   3.390   2.162   0.132 -1.4698 -2.5115 -0.1467
  517MPD2     N 7739   3.776   2.282   0.312  0.0444 -0.4336 -0.4840
  517MPD2    H5 7740   3.755   2.373   0.270 -0.4347 -0.1453  0.3790
  517MPD2    N1 7741   3.636   1.801   0.265 -0.6397 -0.6656 -0.5586
  517MPD2    H7 7742   3.714   1.779   0.327 -1.1233  0.8219  0.5904
  518TMC3    C1 7743   3.593   1.562   0.267  0.2527  0.4905 -1.1720
  518TMC3    C2 7744   3.518   1.454   0.221  0.5025 -0.3808 -0.1676
  518TMC3    C3 7745   3.532   1.330   0.283 -0.3277  0.2304  0.5002
  518TMC3    C4 7746   3.685   1.546   0.370 -0.4484  0.2883 -0.4709
  518TMC3    C5 7747   3.701   1.423   0.423 -0.0180  0.2533 -0.2953
  518TMC3    C6 7748   3.626   1.319   0.385 -0.4860  0.3104  0.0287
  518TMC3     C 7749   3.573   1.693   0.207  0.3829 -0.0854  0.4649
  518TMC3     O 7750   3.510   1.694   0.102  0.2691  0.2079  0.7090
  518TMC3     H 7751   3.444   1.473   0.144  1.6535  1.0996 -0.9104
  518TMC3    H1 7752   3.755   1.627   0.390 -1.2590  0.3240  2.2867
  518TMC3    H2 7753   3.618   1.230   0.447  0.8234 -0.6217 -1.1456
  518TMC3    C7 7754   3.827   1.390   0.475  0.6947 -0.0026  0.9867
  518TMC3    C8 7755   3.482   1.202   0.230  1.1205  0.6295  0.4581
  518TMC3    O1 7756   3.895   1.484   0.520 -0.0645 -0.2524  0.1309
  518TMC3    O2 7757   3.490   1.096   0.293  0.1604  0.3476 -0.0911
  519MPD2     C 7758   0.809   0.682  14.834 -0.7191 -0.6072  0.5729
  519MPD2    C1 7759   0.727   0.743  14.740  0.2976  0.3581 -0.1033
  519MPD2    C2 7760   0.782   0.778  14.620  0.9062 -0.0165 -0.3590
  519MPD2    C3 7761   0.903   0.739  14.584  0.7370  0.2837 -0.1711
  519MPD2    C4 7762   0.979   0.674  14.679 -0.1911 -0.3092 -0.1187
  519MPD2    C5 7763   0.938   0.655  14.803  0.1074  0.5568 -0.2653
  519MPD2     H 7764   0.729   0.834  14.544  0.2649 -0.3896 -0.1865
  519MPD2    H1 7765   1.078   0.643  14.648 -0.0400 -1.0672  1.1417
  519MPD2    H2 7766   0.774   0.644  14.929 -1.2828 -1.7826 -0.0951
  519MPD2    H3 7767   1.001   0.614  14.882  0.7714  0.4665 -0.8404
  519MPD2     N 7768   0.956   0.745  14.457  0.1468  0.6372 -0.4787
  519MPD2    H5 7769   1.046   0.706  14.430 -0.2483 -0.6030  0.0115
  519MPD2    N1 7770   0.596   0.759  14.767  0.1502  0.1514  0.3544
  519MPD2    H7 7771   0.565   0.740  14.862 -0.8957  0.2443  0.0328
  520TMC3    C1 7772   0.980   0.800  14.229  0.1947  0.9983  0.3365
  520TMC3    C2 7773   0.922   0.838  14.111  0.2503 -0.3755  0.2985
  520TMC3    C3 7774   0.979   0.786  13.995  0.2796 -0.0924  0.5301
  520TMC3    C4 7775   1.109   0.744  14.238  0.0660  0.2210 -0.6877
  520TMC3    C5 7776   1.177   0.726  14.117 -0.4475 -0.1309  0.1705
  520TMC3    C6 7777   1.109   0.729  13.997 -0.0821  0.2097 -0.4878
  520TMC3     C 7778   0.894   0.800  14.347  0.2881 -0.1730 -0.1335
  520TMC3     O 7779   0.779   0.841  14.331  0.0653 -0.3936 -0.6048
  520TMC3     H 7780   0.843   0.912  14.107  1.7445  1.2790  1.4930
  520TMC3    H1 7781   1.163   0.746  14.332  3.2275 -2.1948 -2.4425
  520TMC3    H2 7782   1.149   0.682  13.908 -2.5384  1.8278 -2.4502
  520TMC3    C7 7783   1.285   0.634  14.135  0.8189 -0.1215 -0.6124
  520TMC3    C8 7784   0.906   0.799  13.868  0.5362 -0.0757 -0.4665
  520TMC3    O1 7785   1.285   0.574  14.245 -0.5027 -0.0077  0.3380
  520TMC3    O2 7786   0.972   0.774  13.766  0.1802 -0.5239  0.2715
  521MPD2     C 7787   1.602   2.221  17.612 -0.3106  0.2427  0.4861
  521MPD2    C1 7788   1.574   2.338  17.549  0.2050  0.3240  0.0616
  521MPD2    C2 7789   1.664   2.391  17.465 -0.5593  0.6233 -0.0617
  521MPD2    C3 7790   1.787   2.340  17.445 -0.1089 -0.0113  0.2820
  521MPD2    C4 7791   1.811   2.220  17.510 -0.0047 -0.0090  0.6096
  521MPD2    C5 7792   1.719   2.158  17.589 -0.2314 -0.6949 -0.3732
  521MPD2     H 7793   1.633   2.468  17.395  0.0268 -0.0053 -1.0108
  521MPD2    H1 7794   1.899   2.164  17.483 -0.2132 -0.0180 -0.0696
  521MPD2    H2 7795   1.526   2.175  17.674 -1.3113  2.1148  0.6382
  521MPD2    H3 7796   1.740   2.059  17.627 -0.9009 -0.9912 -0.7770
  521MPD2     N 7797   1.876   2.404  17.358 -0.0121 -0.5873  0.3044
  521MPD2    H5 7798   1.833   2.467  17.291 -3.5799 -0.7707  2.4612
  521MPD2    N1 7799   1.439   2.374  17.559  0.0779 -0.2298 -0.4649
  521MPD2    H7 7800   1.378   2.320  17.620  0.4459 -0.1785 -0.0519
  522TMC3    C1 7801   2.079   2.441  17.244  0.0641 -0.0624  0.3626
  522TMC3    C2 7802   2.206   2.389  17.234 -0.5717 -0.0756 -0.9041
  522TMC3    C3 7803   2.295   2.452  17.149 -0.5235 -0.5964 -0.3474
  522TMC3    C4 7804   2.045   2.565  17.195 -0.0353 -0.1754 -0.4298
  522TMC3    C5 7805   2.146   2.626  17.127  0.7247  0.7284  0.2826
  522TMC3    C6 7806   2.268   2.573  17.104 -0.1118 -0.7947 -0.0584
  522TMC3     C 7807   2.003   2.361  17.340 -0.3243  0.2042 -0.8061
  522TMC3     O 7808   2.064   2.278  17.404 -0.2128  0.1186 -0.5933
  522TMC3     H 7809   2.234   2.292  17.273  0.0531  1.1887  1.7967
  522TMC3    H1 7810   1.953   2.620  17.213  1.6201  1.9987  1.4654
  522TMC3    H2 7811   2.339   2.636  17.052 -0.9920  1.4162  1.3683
  522TMC3    C7 7812   2.135   2.769  17.102 -0.0584  0.7412  0.3330
  522TMC3    C8 7813   2.436   2.418  17.156  0.4475  0.0233  0.0324
  522TMC3    O1 7814   2.237   2.838  17.115  0.3698  0.1643  0.0125
  522TMC3    O2 7815   2.463   2.350  17.252 -0.4339  0.6476 -0.3025
  523MPD2     C 7816   3.596   3.526  10.677  0.7676  0.2551 -0.5904
  523MPD2    C1 7817   3.578   3.423  10.588  0.3042  0.0528  0.6462
  523MPD2    C2 7818   3.527   3.457  10.461 -0.6898  0.3654  0.3096
  523MPD2    C3 7819   3.494   3.589  10.432  0.0383  0.1472 -0.8018
  523MPD2    C4 7820   3.506   3.687  10.528  0.6853  0.2815  0.2642
  523MPD2    C5 7821   3.552   3.656  10.658  0.0681  0.2864 -0.4689
  523MPD2     H 7822   3.496   3.383  10.388 -0.8490 -0.8246  1.5701
  523MPD2    H1 7823   3.504   3.790  10.493 -1.3863 -0.4793 -1.8500
  523MPD2    H2 7824   3.642   3.501  10.772  1.7443 -1.9087 -1.6513
  523MPD2    H3 7825   3.578   3.735  10.727 -0.8341  0.5103 -0.3820
  523MPD2     N 7826   3.445   3.634  10.308 -0.4607  0.0491  0.2875
  523MPD2    H5 7827   3.429   3.733  10.291 -0.3160  0.1897  0.9906
  523MPD2    N1 7828   3.614   3.291  10.635 -0.9493  0.3979 -0.5018
  523MPD2    H7 7829   3.628   3.278  10.735  1.3298 -3.3121 -1.2782
  524TMC3    C1 7830   3.391   3.632  10.079 -0.3110  0.1469  0.0434
  524TMC3    C2 7831   3.394   3.568   9.956  0.1454  0.2782 -0.0409
  524TMC3    C3 7832   3.331   3.632   9.855 -0.0057 -0.8873  0.1206
  524TMC3    C4 7833   3.321   3.749  10.104  0.1084  0.3308 -0.6947
  524TMC3    C5 7834   3.265   3.811   9.998  0.2047  0.6912  0.1874
  524TMC3    C6 7835   3.273   3.755   9.871  0.5081 -0.1604  1.1120
  524TMC3     C 7836   3.445   3.556  10.192  0.8724  0.3116  0.1072
  524TMC3     O 7837   3.488   3.446  10.166 -0.1481  0.5611  0.1992
  524TMC3     H 7838   3.465   3.490   9.929 -0.7016  0.0026 -1.4574
  524TMC3    H1 7839   3.305   3.782  10.207  1.2612 -0.3149 -0.3121
  524TMC3    H2 7840   3.240   3.799   9.778  1.8872 -0.7982  0.3259
  524TMC3    C7 7841   3.189   3.932  10.015  0.1254 -0.0592  0.1766
  524TMC3    C8 7842   3.329   3.570   9.725  0.8074  0.2122  0.3195
  524TMC3    O1 7843   3.208   3.992  10.121  0.3864  0.8688  0.0174
  524TMC3    O2 7844   3.292   3.637   9.629  0.3965 -0.0085 -0.2152
  525MPD2     C 7845   2.224   0.412  14.649 -0.1289  0.3322  0.4006
  525MPD2    C1 7846   2.336   0.361  14.704 -0.3926 -0.3314 -0.2401
  525MPD2    C2 7847   2.447   0.446  14.709  0.0373  0.0535  0.3306
  525MPD2    C3 7848   2.440   0.573  14.651  0.3083  0.5842  0.7013
  525MPD2    C4 7849   2.336   0.603  14.563  0.0431 -0.1882  0.2106
  525MPD2    C5 7850   2.224   0.528  14.580 -0.3211  0.5129 -0.0749
  525MPD2     H 7851   2.526   0.417  14.778  0.0346 -1.8598 -0.4632
  525MPD2    H1 7852   2.326   0.697  14.509  1.1503 -0.4152 -0.3844
  525MPD2    H2 7853   2.127   0.365  14.653 -0.2095  0.2533 -2.6450
  525MPD2    H3 7854   2.134   0.554  14.525 -0.6540 -1.0916 -0.2970
  525MPD2     N 7855   2.536   0.673  14.668  0.4101  0.3471  0.5297
  525MPD2    H5 7856   2.618   0.655  14.726  0.5776  1.1999  0.5464
  525MPD2    N1 7857   2.333   0.237  14.768 -0.0619  0.0837 -0.0583
  525MPD2    H7 7858   2.417   0.208  14.815 -1.4587  0.2942  2.5603
  526TMC3    C1 7859   2.270   0.027  14.836 -0.5493  0.0050 -0.5657
  526TMC3    C2 7860   2.234   0.016  14.968  0.4878  0.5268 -1.4522
  526TMC3    C3 7861   2.318   4.679  15.046 -0.3207 -0.3755 -0.6075
  526TMC3    C4 7862   2.384   4.708  14.786 -0.5498 -0.6424 -0.2306
  526TMC3    C5 7863   2.455   4.624  14.869  0.5001 -0.3989 -0.6787
  526TMC3    C6 7864   2.419   4.595  15.002  0.1826 -0.3076 -0.2775
  526TMC3     C 7865   2.227   0.151  14.777  0.1885  0.3704 -0.2418
  526TMC3     O 7866   2.107   0.158  14.754 -0.3439 -0.0603  0.1809
  526TMC3     H 7867   2.152   0.074  15.007  0.2582  0.0671 -1.2479
  526TMC3    H1 7868   2.407   4.730  14.682 -0.4164 -3.0627 -0.7067
  526TMC3    H2 7869   2.485   4.552  15.077  1.0980 -0.4781 -1.1839
  526TMC3    C7 7870   2.557   4.541  14.817  0.2832 -0.4720 -0.2474
  526TMC3    C8 7871   2.314   4.690  15.191  0.0447 -0.2116 -0.2918
  526TMC3    O1 7872   2.601   4.453  14.893  0.7490 -0.2579 -0.4387
  526TMC3    O2 7873   2.416   4.658  15.254 -0.2393  0.0503 -0.1193
  527MPD2     C 7874   0.419   2.597   1.471 -0.1986  0.3416  0.5671
  527MPD2    C1 7875   0.525   2.527   1.416 -0.1723 -0.1555  0.1615
  527MPD2    C2 7876   0.494   2.441   1.315 -0.4114 -0.2431  0.6975
  527MPD2    C3 7877   0.364   2.428   1.272  0.6018  0.6197 -0.3450
  527MPD2    C4 7878   0.264   2.482   1.337  0.0100 -0.5306 -0.4810
  527MPD2    C5 7879   0.293   2.564   1.443  0.3805 -0.0414  0.0787
  527MPD2     H 7880   0.563   2.370   1.271 -1.2694  0.1585 -1.3056
  527MPD2    H1 7881   0.159   2.479   1.310 -0.2066  1.6879  0.0254
  527MPD2    H2 7882   0.431   2.665   1.554  1.9878  0.7210 -0.0712
  527MPD2    H3 7883   0.205   2.611   1.485  0.2756 -1.7177  1.7174
  527MPD2     N 7884   0.352   2.335   1.162  0.3136 -0.0883  0.4420
  527MPD2    H5 7885   0.432   2.286   1.123  1.0293  1.8677 -0.5427
  527MPD2    N1 7886   0.657   2.537   1.466  0.0845  0.4040  0.1389
  527MPD2    H7 7887   0.725   2.486   1.411  1.1771 -0.2982  2.1138
  528TMC3    C1 7888   0.853   2.605   1.576  0.5400  0.2403  0.0862
  528TMC3    C2 7889   0.912   2.481   1.562  0.4288  0.0341 -0.6052
  528TMC3    C3 7890   1.043   2.460   1.590  0.3738  0.2998  0.6755
  528TMC3    C4 7891   0.919   2.702   1.649  0.5388 -0.0517 -0.4515
  528TMC3    C5 7892   1.050   2.664   1.694 -0.2556 -0.0580 -0.1167
  528TMC3    C6 7893   1.117   2.553   1.662  0.3753 -0.2424 -0.1154
  528TMC3     C 7894   0.707   2.617   1.569  0.7250  0.1612  0.6607
  528TMC3     O 7895   0.648   2.705   1.629 -0.4701 -1.1236 -0.3373
  528TMC3     H 7896   0.853   2.404   1.513 -0.7408 -0.2720  1.2750
  528TMC3    H1 7897   0.869   2.794   1.680  2.7741  0.8065  0.6075
  528TMC3    H2 7898   1.223   2.539   1.675 -0.2648 -2.2513  3.2154
  528TMC3    C7 7899   1.117   2.755   1.784  0.4767  0.4216 -0.5229
  528TMC3    C8 7900   1.107   2.333   1.552  0.1496 -0.1731 -0.3456
  528TMC3    O1 7901   1.236   2.759   1.771  1.2864 -0.2567  0.4925
  528TMC3    O2 7902   1.092   2.274   1.445  0.6409 -0.5166  0.6106
  529MPD2     C 7903   2.041   0.609   1.282  0.3547 -0.0751 -0.0225
  529MPD2    C1 7904   2.179   0.624   1.267 -0.6226  0.1923  0.6322
  529MPD2    C2 7905   2.227   0.744   1.222 -0.0716 -0.1418 -0.3664
  529MPD2    C3 7906   2.145   0.860   1.209 -0.1508 -0.7461 -0.1316
  529MPD2    C4 7907   2.013   0.845   1.237 -0.0814 -1.1544  0.1329
  529MPD2    C5 7908   1.964   0.722   1.263 -0.3580  0.0142 -0.6120
  529MPD2     H 7909   2.334   0.756   1.214 -0.3516  1.6228 -1.6306
  529MPD2    H1 7910   1.942   0.926   1.232  0.0622 -0.8930  2.2900
  529MPD2    H2 7911   1.997   0.513   1.307  0.1061  0.2256  0.6980
  529MPD2    H3 7912   1.856   0.715   1.264 -0.2827 -1.1955 -0.4376
  529MPD2     N 7913   2.190   0.993   1.182 -0.1132 -0.1564  0.1194
  529MPD2    H5 7914   2.125   1.066   1.209  0.2034  0.5819 -1.1091
  529MPD2    N1 7915   2.270   0.519   1.300  0.1886 -0.3049  0.0790
  529MPD2    H7 7916   2.370   0.536   1.296  0.2371 -0.2038  1.7110
  530TMC3    C1 7917   2.335   0.303   1.365 -0.2541  0.2094  0.0309
  530TMC3    C2 7918   2.430   0.363   1.445 -0.2213 -0.0842  0.1808
  530TMC3    C3 7919   2.554   0.298   1.458 -0.4103 -0.0351 -0.3191
  530TMC3    C4 7920   2.360   0.190   1.300  0.0097 -1.0689  0.8204
  530TMC3    C5 7921   2.481   0.126   1.327 -0.1680  0.2312 -0.2358
  530TMC3    C6 7922   2.588   0.179   1.393 -0.4747 -0.2537  0.1058
  530TMC3     C 7923   2.226   0.388   1.316  0.5465  0.9777  0.0084
  530TMC3     O 7924   2.121   0.329   1.292 -0.6805  0.5022  0.0416
  530TMC3     H 7925   2.399   0.444   1.510  1.9265 -1.3963  2.8335
  530TMC3    H1 7926   2.284   0.153   1.232 -1.3019 -0.8017  2.1326
  530TMC3    H2 7927   2.668   0.113   1.426  1.2817 -0.0575 -3.7601
  530TMC3    C7 7928   2.478   4.724   1.308 -0.2017 -0.4169  0.1908
  530TMC3    C8 7929   2.654   0.373   1.534 -0.1028 -0.9237 -0.3889
  530TMC3    O1 7930   2.590   4.675   1.290 -0.1046  0.3055  0.6369
  530TMC3    O2 7931   2.620   0.449   1.624 -0.4231  0.1330  0.5018
  531MPD2     C 7932   1.281   4.448  13.544 -0.0191 -0.1927 -0.1837
  531MPD2    C1 7933   1.216   4.331  13.571 -0.3696 -0.7371  1.0375
  531MPD2    C2 7934   1.160   4.258  13.466 -0.1132  0.1721 -0.1760
  531MPD2    C3 7935   1.161   4.303  13.337 -0.0141 -0.1183 -0.5190
  531MPD2    C4 7936   1.227   4.418  13.310 -0.2759 -0.4734  0.3336
  531MPD2    C5 7937   1.284   4.487  13.411 -0.2919  0.4498  0.1367
  531MPD2     H 7938   1.103   4.171  13.497 -2.4232  2.8571  3.2009
  531MPD2    H1 7939   1.243   4.450  13.208  1.3085  0.1142  0.7786
  531MPD2    H2 7940   1.339   4.502  13.618 -0.8430 -2.0704  1.8303
  531MPD2    H3 7941   1.319   4.586  13.382  1.8348 -0.7594 -1.3940
  531MPD2     N 7942   1.112   4.222  13.231 -0.1980  0.0425  0.3414
  531MPD2    H5 7943   1.120   4.264  13.139  5.1180 -1.5348  0.0603
  531MPD2    N1 7944   1.216   4.295  13.707 -0.6236 -0.3476 -0.2944
  531MPD2    H7 7945   1.266   4.350  13.776 -2.5057 -0.3892  1.1041
  532TMC3    C1 7946   1.206   4.132  13.888 -0.3185 -0.6026 -0.5703
  532TMC3    C2 7947   1.112   4.045  13.930 -0.2690 -0.2093  0.0174
  532TMC3    C3 7948   1.152   3.925  13.979 -0.0993  0.3834  0.7560
  532TMC3    C4 7949   1.340   4.106  13.903 -0.2413  0.3655  0.5647
  532TMC3    C5 7950   1.370   3.985  13.962 -0.3272 -0.1548  0.4185
  532TMC3    C6 7951   1.275   3.889  14.002 -0.1204 -0.2102  0.2258
  532TMC3     C 7952   1.159   4.184  13.754 -0.5465  0.5778 -0.1808
  532TMC3     O 7953   1.069   4.116  13.698 -0.7860 -0.8030  0.1024
  532TMC3     H 7954   1.007   4.066  13.917 -0.1888 -0.6382 -1.3638
  532TMC3    H1 7955   1.422   4.166  13.866  2.2430 -3.7828 -0.6550
  532TMC3    H2 7956   1.298   3.793  14.047 -1.8330 -0.2710  0.9826
  532TMC3    C7 7957   1.508   3.951  13.978 -0.6779 -0.5304  0.4275
  532TMC3    C8 7958   1.063   3.821  13.935  0.2313  0.4102  0.3805
  532TMC3    O1 7959   1.587   4.029  14.027  0.2615  0.1114  0.1151
  532TMC3    O2 7960   1.034   3.720  14.002  0.4981 -0.0985  0.1960
  533TMC3    C1 7961   2.609   0.892  14.693 -0.0229  0.3600  0.2486
  533TMC3    C2 7962   2.620   1.019  14.635 -0.3128 -0.1632 -0.1269
  533TMC3    C3 7963   2.619   1.121  14.725 -0.5755  0.1017 -0.6172
  533TMC3    C4 7964   2.598   0.867  14.828  0.2084  0.5519  0.6951
  533TMC3    C5 7965   2.592   0.974  14.908  0.3842  0.0277  0.7671
  533TMC3    C6 7966   2.598   1.103  14.857  0.5042  0.0426  0.0978
  533TMC3     C 7967   2.542   0.795  14.605 -0.6111  0.0731 -0.2149
  533TMC3     O 7968   2.503   0.815  14.489  0.3092  0.0736 -0.1795
  533TMC3     H 7969   2.612   1.032  14.527  2.6599 -2.2113 -0.5909
  533TMC3    H1 7970   2.573   0.771  14.872  0.8071  0.0538 -0.0481
  533TMC3    H2 7971   2.609   1.175  14.937 -3.6697 -0.9459  1.5694
  533TMC3    C7 7972   2.568   0.948  15.043  0.0775  0.4779  0.5810
  533TMC3    C8 7973   2.685   1.240  14.688 -0.2324  0.1384 -0.2137
  533TMC3    O1 7974   2.587   0.832  15.080  0.6950 -0.3027 -0.1673
  533TMC3    O2 7975   2.723   1.310  14.784  0.0709  0.8257 -0.0285
  534MPD2     C 7976   0.551   0.850   1.390 -0.2616 -0.3888  1.0919
  534MPD2    C1 7977   0.540   0.989   1.422  0.3003 -0.5101 -0.0995
  534MPD2    C2 7978   0.420   1.049   1.391 -0.0251 -0.5528  0.4707
  534MPD2    C3 7979   0.323   0.979   1.318  0.0874  0.5965  0.3565
  534MPD2    C4 7980   0.340   0.846   1.277 -0.2363 -0.0203  0.7486
  534MPD2    C5 7981   0.455   0.783   1.316  0.6078 -0.1916 -0.4492
  534MPD2     H 7982   0.408   1.154   1.416  1.6978 -0.0905 -0.5652
  534MPD2    H1 7983   0.267   0.788   1.222  1.5816  0.2775 -2.0136
  534MPD2    H2 7984   0.644   0.797   1.406  0.6234  0.9652  0.4123
  534MPD2    H3 7985   0.465   0.676   1.301 -0.1091 -0.2527 -0.4847
  534MPD2     N 7986   0.204   1.038   1.285 -0.6896 -1.0591  0.0461
  534MPD2    H5 7987   0.139   0.984   1.229  1.5922 -1.7913 -1.9027
  534MPD2    N1 7988   0.645   1.068   1.469  0.1186  0.3368  0.0311
  534MPD2    H7 7989   0.625   1.166   1.487  0.8577  0.3935  0.5386
  535TMC3    C1 7990   0.040   1.203   1.242 -0.3398  0.8844 -0.1846
  535TMC3    C2 7991   4.673   1.264   1.307 -0.2743  0.0822 -0.4076
  535TMC3    C3 7992   4.563   1.289   1.231  0.3839  0.4969 -0.3102
  535TMC3    C4 7993   0.040   1.182   1.107 -0.8174  0.3433  0.2339
  535TMC3    C5 7994   4.665   1.223   1.031  0.1779  0.8133  0.0849
  535TMC3    C6 7995   4.559   1.279   1.091  0.2706 -0.0809 -0.8396
  535TMC3     C 7996   0.159   1.159   1.323  0.2970  0.2462  0.4070
  535TMC3     O 7997   0.196   1.241   1.409  0.0819  0.5356 -0.6740
  535TMC3     H 7998   4.675   1.265   1.415 -0.3513  0.7115 -0.4159
  535TMC3    H1 7999   0.127   1.136   1.060 -0.2825  2.8745 -1.2743
  535TMC3    H2 8000   4.476   1.315   1.032 -0.7925 -0.0076  0.6827
  535TMC3    C7 8001   4.672   1.199   0.883 -0.0201 -0.4058 -0.9984
  535TMC3    C8 8002   4.450   1.331   1.296  0.1189 -0.2307  0.6947
  535TMC3    O1 8003   0.021   1.109   0.867  0.0005  0.4081  0.2455
  535TMC3    O2 8004   4.457   1.366   1.412 -0.2732  0.1894 -0.4644
  536MPD2     C 8005   3.524   4.644  16.434 -0.9380 -0.7494 -0.2344
  536MPD2    C1 8006   3.387   4.643  16.457 -0.3567 -0.7372  0.4518
  536MPD2    C2 8007   3.297   4.709  16.379  0.3383 -0.2546 -0.2137
  536MPD2    C3 8008   3.351   0.062  16.281  0.8112 -0.5867  0.5443
  536MPD2    C4 8009   3.490   0.067  16.262  0.5930 -0.6158 -0.5362
  536MPD2    C5 8010   3.575   4.718  16.335 -0.7144  0.3989 -0.3347
  536MPD2     H 8011   3.191   4.709  16.401  0.8046 -1.0811  2.0525
  536MPD2    H1 8012   3.522   0.113  16.169 -1.1281  1.2189 -0.2292
  536MPD2    H2 8013   3.594   4.587  16.496 -1.4504 -0.0681  0.9772
  536MPD2    H3 8014   3.681   4.711  16.314 -0.5876 -1.8634  1.0909
  536MPD2     N 8015   3.273   0.135  16.189 -0.2028 -0.0800 -0.8422
  536MPD2    H5 8016   3.324   0.187  16.118  1.6478 -0.4260  0.2150
  536MPD2    N1 8017   3.355   4.577  16.574 -0.4698  0.3991 -0.0468
  536MPD2    H7 8018   3.426   4.524  16.624 -1.1685 -2.0647 -1.6477
  537TMC3    C1 8019   3.234   4.479  16.741 -0.6864 -0.3457  0.0376
  537TMC3    C2 8020   3.345   4.484  16.817 -0.2616 -0.2617  0.6259
  537TMC3    C3 8021   3.352   4.399  16.921  0.1380  0.0364 -0.1043
  537TMC3    C4 8022   3.139   4.388  16.765 -0.1259 -0.3600 -0.5506
  537TMC3    C5 8023   3.142   4.312  16.875 -0.0746  0.1317  0.8044
  537TMC3    C6 8024   3.252   4.310  16.961 -0.0531  0.4422  0.4793
  537TMC3     C 8025   3.228   4.560  16.622 -0.1843  0.3410 -0.0982
  537TMC3     O 8026   3.116   4.583  16.573  0.1058 -0.1788 -0.1550
  537TMC3     H 8027   3.430   4.549  16.798 -0.4926 -0.6961 -1.8507
  537TMC3    H1 8028   3.056   4.387  16.696  1.3479  0.3868 -2.3500
  537TMC3    H2 8029   3.243   4.246  17.048 -1.2598 -1.8911 -1.3876
  537TMC3    C7 8030   3.010   4.253  16.916 -0.4999 -0.7482  0.0809
  537TMC3    C8 8031   3.465   4.398  17.004  0.4676  0.1354 -0.2171
  537TMC3    O1 8032   2.918   4.304  16.856 -0.2224 -0.6550 -0.1538
  537TMC3    O2 8033   3.493   4.296  17.065  0.4768  0.2555 -0.0559
  538TMC3    C1 8034   0.186   2.997  11.389 -0.0153  0.2203  0.0356
  538TMC3    C2 8035   0.240   2.954  11.274  0.2828  0.0325 -0.6466
  538TMC3    C3 8036   0.165   2.956  11.159 -0.4202  0.2475 -0.5794
  538TMC3    C4 8037   0.055   3.040  11.386 -0.6858  0.3595  0.0054
  538TMC3    C5 8038   4.730   3.055  11.262 -0.1400  0.0587 -0.1759
  538TMC3    C6 8039   0.042   3.005  11.145 -0.4968 -0.3831 -0.3034
  538TMC3     C 8040   0.276   3.043  11.503 -0.0567 -0.3570 -0.2525
  538TMC3     O 8041   0.393   3.039  11.478 -0.5449  0.5062 -0.5264
  538TMC3     H 8042   0.341   2.914  11.275  0.7874  1.4300  2.0982
  538TMC3    H1 8043   0.014   3.101  11.466 -1.6201  0.2250 -0.3776
  538TMC3    H2 8044   4.719   2.996  11.054  1.1668  0.7237 -1.4834
  538TMC3    C7 8045   4.596   3.108  11.255  0.4539  0.1890 -0.2513
  538TMC3    C8 8046   0.212   2.872  11.059  0.4154  0.1162  0.4942
  538TMC3    O1 8047   4.510   3.062  11.332 -0.3227 -0.1706 -0.3125
  538TMC3    O2 8048   0.203   2.752  11.077  0.1788 -1.0405  0.1674
  539MPD2     C 8049   4.642   2.636  11.663  0.7182  0.0661 -0.7773
  539MPD2    C1 8050   4.547   2.547  11.714 -0.2128 -0.0522 -0.9143
  539MPD2    C2 8051   4.414   2.577  11.700 -0.4984 -0.2752  0.0988
  539MPD2    C3 8052   4.375   2.703  11.646 -0.1073 -0.4649 -0.5302
  539MPD2    C4 8053   4.471   2.785  11.602  0.2102  0.1694  0.1947
  539MPD2    C5 8054   4.602   2.751  11.602 -0.0782  0.0406  0.2632
  539MPD2     H 8055   4.337   2.506  11.730 -2.3428  1.6012 -0.1713
  539MPD2    H1 8056   4.453   2.882  11.557 -1.7502 -0.3819 -0.2297
  539MPD2    H2 8057   0.012   2.617  11.679  0.1960 -0.7729  1.6730
  539MPD2    H3 8058   4.672   2.826  11.567 -0.0600  0.3068  0.8552
  539MPD2     N 8059   4.242   2.747  11.645  0.1122  0.0185  0.0976
  539MPD2    H5 8060   4.216   2.827  11.588 -0.7260  0.2077  0.7389
  539MPD2    N1 8061   4.579   2.411  11.755  0.4731 -0.1233  0.5952
  539MPD2    H7 8062   4.494   2.356  11.763 -0.0001  0.5115 -0.0856
  540TMC3    C1 8063   4.003   2.743  11.706  0.5223 -0.3325 -0.1331
  540TMC3    C2 8064   3.972   2.819  11.591  0.1303  0.6717 -0.6805
  540TMC3    C3 8065   3.837   2.860  11.581 -0.3589  0.4073  0.1830
  540TMC3    C4 8066   3.923   2.731  11.810  0.5306  0.4739 -0.0322
  540TMC3    C5 8067   3.800   2.787  11.801  0.4400  0.8785 -0.4467
  540TMC3    C6 8068   3.754   2.845  11.693  0.3481 -0.1595  0.0266
  540TMC3     C 8069   4.142   2.702  11.729  0.4295  0.3249 -0.7978
  540TMC3     O 8070   4.149   2.636  11.830 -0.4047 -0.4069 -0.1120
  540TMC3     H 8071   4.041   2.849  11.512 -0.8532  0.9524 -1.4225
  540TMC3    H1 8072   3.947   2.669  11.896  1.1899 -1.7017 -1.7934
  540TMC3    H2 8073   3.648   2.870  11.684 -0.1335 -1.3617  2.3328
  540TMC3    C7 8074   3.708   2.781  11.915  0.5085 -0.2160 -0.1564
  540TMC3    C8 8075   3.780   2.879  11.452  0.1790  0.5583 -0.5757
  540TMC3    O1 8076   3.593   2.810  11.891  0.1515  0.4481  0.3665
  540TMC3    O2 8077   3.676   2.943  11.423  0.1007 -0.1244  0.5844
  541MPD2     C 8078   2.120   4.343  13.514 -0.5248  0.5335  0.2731
  541MPD2    C1 8079   2.205   4.261  13.444 -0.0677 -0.7657 -0.5528
  541MPD2    C2 8080   2.254   4.297  13.323  0.8394  0.5402  0.8266
  541MPD2    C3 8081   2.228   4.421  13.267  0.3404  0.1730  0.0052
  541MPD2    C4 8082   2.157   4.503  13.352 -0.0495  0.5644  0.1067
  541MPD2    C5 8083   2.102   4.472  13.473  0.3695  0.3902  0.4425
  541MPD2     H 8084   2.319   4.223  13.278  0.0675 -0.6181  1.6098
  541MPD2    H1 8085   2.145   4.607  13.326 -1.4229  1.2595  3.5640
  541MPD2    H2 8086   2.087   4.311  13.612 -0.5809 -1.4589 -0.3908
  541MPD2    H3 8087   2.040   4.535  13.535  0.0078 -1.0648  1.5552
  541MPD2     N 8088   2.276   4.462  13.144  0.3960  0.1958  0.0666
  541MPD2    H5 8089   2.265   4.561  13.125 -3.7183 -0.1942  0.2793
  541MPD2    N1 8090   2.238   4.140  13.495 -0.3607 -0.2855  0.2235
  541MPD2    H7 8091   2.259   4.140  13.595 -1.2649 -0.6181  0.4131
  542TMC3    C1 8092   2.406   4.445  12.938  0.1529  0.3206 -0.5339
  542TMC3    C2 8093   2.502   4.379  12.869  0.0411  0.2034  0.0207
  542TMC3    C3 8094   2.515   4.397  12.734  0.3977  0.4304  0.5016
  542TMC3    C4 8095   2.324   4.537  12.884  0.1636  0.5286  0.0623
  542TMC3    C5 8096   2.338   4.557  12.747 -0.1784  0.1460 -0.6043
  542TMC3    C6 8097   2.448   4.498  12.674  0.3322 -0.2690  0.3129
  542TMC3     C 8098   2.368   4.387  13.067  0.0537  0.4877 -0.0211
  542TMC3     O 8099   2.426   4.279  13.085  0.3936  0.6448  0.0519
  542TMC3     H 8100   2.566   4.308  12.920  0.2713 -1.0880 -2.0319
  542TMC3    H1 8101   2.235   4.573  12.934 -0.8469 -1.0962 -0.5740
  542TMC3    H2 8102   2.458   4.506  12.566  3.0027 -1.2377  0.4879
  542TMC3    C7 8103   2.221   4.605  12.672  0.6351  0.0259  0.0597
  542TMC3    C8 8104   2.573   4.295  12.637 -0.0026  0.3000  0.8670
  542TMC3    O1 8105   2.140   4.680  12.727 -0.1489  0.0414  0.6910
  542TMC3    O2 8106   2.570   4.322  12.521 -0.1379 -0.2583 -0.5886
  543TMC3    C1 8107   2.308   0.771  17.706  0.5819 -0.1326 -0.1386
  543TMC3    C2 8108   2.356   0.647   0.009 -0.5833 -0.3495  0.2088
  543TMC3    C3 8109   2.356   0.627   0.146 -0.4594 -0.5335  0.6369
  543TMC3    C4 8110   2.262   0.871   0.048 -0.0133  0.3893  0.1971
  543TMC3    C5 8111   2.276   0.846   0.183 -0.0726 -0.7819  0.2160
  543TMC3    C6 8112   2.320   0.725   0.233 -0.3429  0.2944  0.8329
  543TMC3     C 8113   2.281   0.773  17.563  0.3867 -0.2606  0.3440
  543TMC3     O 8114   2.322   0.675  17.498 -0.6333 -0.1182  0.3141
  543TMC3     H 8115   2.402   0.578  17.681 -0.8888  1.6030 -1.9399
  543TMC3    H1 8116   2.229   0.964   0.004 -1.2707 -0.1289  0.0664
  543TMC3    H2 8117   2.315   0.707   0.340  0.8459  0.0794  0.8551
  543TMC3    C7 8118   2.274   0.958   0.279 -0.2014  0.4322  0.2656
  543TMC3    C8 8119   2.370   0.492   0.189  0.2368  1.3486 -0.0803
  543TMC3    O1 8120   2.271   0.934   0.397 -0.5782  0.3903 -0.4968
  543TMC3    O2 8121   2.366   0.407   0.105 -0.1120  0.0711  0.0042
  544MPD2     C 8122   2.493   0.124   0.525  0.7543 -0.3698  0.0191
  544MPD2    C1 8123   2.421   0.119   0.408 -0.9154 -0.5891 -0.8174
  544MPD2    C2 8124   2.395   0.238   0.336  0.1558 -0.4792  1.2328
  544MPD2    C3 8125   2.427   0.361   0.387 -0.7020 -0.3511  0.2544
  544MPD2    C4 8126   2.486   0.362   0.512  0.0298  0.6557 -0.1687
  544MPD2    C5 8127   2.521   0.247   0.577 -0.4993  0.2047  0.7674
  544MPD2     H 8128   2.338   0.233   0.244  2.0680  2.2673 -0.1088
  544MPD2    H1 8129   2.521   0.455   0.554  2.5183  0.1834 -1.2206
  544MPD2    H2 8130   2.515   0.032   0.578  2.7462  0.9315  1.4643
  544MPD2    H3 8131   2.563   0.244   0.677  2.4311 -0.2220 -0.4911
  544MPD2     N 8132   2.406   0.480   0.321 -0.1778  0.1913  0.8037
  544MPD2    H5 8133   2.433   0.562   0.374 -1.0934 -0.1793  1.8680
  544MPD2    N1 8134   2.380   4.730   0.354  1.0819 -0.4750  0.5412
  544MPD2    H7 8135   2.393   4.653   0.420 -0.8106 -0.9587  0.3752
  545TMC3    C1 8136   2.297   4.572   0.204 -0.4005 -0.2529 -0.3996
  545TMC3    C2 8137   2.283   4.540   0.071 -0.8120 -0.1478 -0.9450
  545TMC3    C3 8138   2.211   4.425   0.048 -0.5180 -0.0525 -0.0956
  545TMC3    C4 8139   2.242   4.499   0.309 -0.6058  0.2537  0.7027
  545TMC3    C5 8140   2.182   4.387   0.274 -0.9076 -0.1480 -0.4996
  545TMC3    C6 8141   2.168   4.341   0.144 -0.7870  0.0029  0.7941
  545TMC3     C 8142   2.351   4.704   0.223 -0.4870  0.3349 -0.0722
  545TMC3     O 8143   2.347   0.050   0.132  0.1862  0.3707  0.5074
  545TMC3     H 8144   2.333   4.590  17.731 -1.5185  0.6580 -0.8779
  545TMC3    H1 8145   2.246   4.519   0.415 -0.3844 -1.4861  1.0253
  545TMC3    H2 8146   2.091   4.270   0.116 -0.1831 -0.3230 -0.0491
  545TMC3    C7 8147   2.157   4.288   0.382  0.4013  0.4866  0.4265
  545TMC3    C8 8148   2.194   4.376  17.659  0.6112  0.2161 -0.0860
  545TMC3    O1 8149   2.143   4.320   0.500  0.2449  0.8410  0.4281
  545TMC3    O2 8150   2.167   4.256  17.640 -0.2106  0.2035  1.0737
  546MPD2     C 8151   3.392   4.435  17.363 -0.2829 -0.5572 -0.1526
  546MPD2    C1 8152   3.303   4.530  17.337  0.3995  0.1064 -0.3400
  546MPD2    C2 8153   3.314   4.661  17.386  0.0840  0.7261  0.3246
  546MPD2    C3 8154   3.426   4.692  17.461 -0.1047 -0.2816  0.0659
  546MPD2    C4 8155   3.518   4.596  17.487  0.0602 -0.6431 -0.6352
  546MPD2    C5 8156   3.500   4.469  17.438  0.2284 -0.3649 -0.3241
  546MPD2     H 8157   3.238   0.000  17.365  0.3952  1.3071  1.3342
  546MPD2    H1 8158   3.609   4.612  17.544  1.2044 -0.4625 -2.5042
  546MPD2    H2 8159   3.390   4.334  17.323 -0.3596 -1.1581  1.3638
  546MPD2    H3 8160   3.577   4.395  17.456 -0.7034 -1.3269 -0.2822
  546MPD2     N 8161   3.443   0.076  17.528 -0.0142 -0.2983 -0.3618
  546MPD2    H5 8162   3.528   0.079  17.583 -1.0447  0.2877  1.1841
  546MPD2    N1 8163   3.189   4.486  17.264 -0.3346 -0.3562  0.1284
  546MPD2    H7 8164   3.173   4.386  17.262 -0.6981 -0.3206  1.8052
  547TMC3    C1 8165   2.961   4.505  17.199  0.3507 -0.4690  0.4176
  547TMC3    C2 8166   2.864   4.592  17.159  0.5546 -0.2958 -0.2177
  547TMC3    C3 8167   2.735   4.561  17.195  0.2184  0.2992  0.3060
  547TMC3    C4 8168   2.931   4.390  17.268 -0.1031 -0.3633 -0.2938
  547TMC3    C5 8169   2.797   4.357  17.297  0.2635  0.1397 -0.1232
  547TMC3    C6 8170   2.698   4.444  17.259 -0.1590  0.3353 -0.4364
  547TMC3     C 8171   3.084   4.575  17.224  0.0384 -0.1678  0.4183
  547TMC3     O 8172   3.104   4.693  17.185  0.2671 -0.3747  0.1670
  547TMC3     H 8173   2.882   4.692  17.120  0.7157 -0.4319 -0.4916
  547TMC3    H1 8174   3.009   4.324  17.305  0.6494 -0.3391 -1.8307
  547TMC3    H2 8175   2.598   4.433  17.300  0.1702 -1.2308 -0.0266
  547TMC3    C7 8176   2.761   4.235  17.372  0.5202 -0.2607 -0.3959
  547TMC3    C8 8177   2.637   4.651  17.149 -0.1102  0.5070  0.2738
  547TMC3    O1 8178   2.658   4.247  17.439 -0.1342  0.2116  0.3185
  547TMC3    O2 8179   2.672   0.032  17.147  0.5858  0.1148  0.1083
  548MPD2     C 8180   3.089   1.193  12.667 -0.2004 -0.3542 -0.9741
  548MPD2    C1 8181   3.037   1.071  12.627  0.0307  0.1637 -0.2034
  548MPD2    C2 8182   3.117   0.960  12.624 -0.0537 -0.7702 -0.7439
  548MPD2    C3 8183   3.230   0.961  12.707 -0.0163 -0.0390  0.5258
  548MPD2    C4 8184   3.268   1.074  12.774 -0.5447  0.1913 -0.0803
  548MPD2    C5 8185   3.201   1.193  12.746  0.8334 -0.6031 -0.0635
  548MPD2     H 8186   3.082   0.871  12.573  1.2619 -2.0271  0.5268
  548MPD2    H1 8187   3.350   1.095  12.842 -2.0297  2.3769  1.0380
  548MPD2    H2 8188   3.041   1.288  12.646  1.9465  1.1739  1.0157
  548MPD2    H3 8189   3.240   1.286  12.786  2.2209 -1.9517  1.6988
  548MPD2     N 8190   3.308   0.847  12.715  0.1321 -0.2364 -0.0743
  548MPD2    H5 8191   3.296   0.787  12.634 -0.0046  1.2685 -1.1645
  548MPD2    N1 8192   2.914   1.082  12.570  0.1547  0.8296 -0.7012
  548MPD2    H7 8193   2.877   1.176  12.576  0.2332  0.8035  0.1192
  549TMC3    C1 8194   2.693   1.003  12.510  0.5587  0.3305 -0.2847
  549TMC3    C2 8195   2.654   1.133  12.513 -0.8303  0.0750  0.4192
  549TMC3    C3 8196   2.541   1.173  12.448  0.0680 -0.7621 -0.0141
  549TMC3    C4 8197   2.607   0.904  12.465  0.1700  0.0155 -0.1524
  549TMC3    C5 8198   2.483   0.953  12.423 -0.6917 -1.1355  0.2385
  549TMC3    C6 8199   2.452   1.086  12.400 -0.0106 -0.2819  1.0719
  549TMC3     C 8200   2.824   0.968  12.548 -0.5282 -0.5746 -0.1994
  549TMC3     O 8201   2.855   0.852  12.536 -0.0559  0.7467  0.1523
  549TMC3     H 8202   2.717   1.211  12.556 -1.9941 -0.2375  2.6665
  549TMC3    H1 8203   2.641   0.802  12.463 -1.6601 -0.5657 -2.2821
  549TMC3    H2 8204   2.348   1.101  12.375  0.4831 -0.8229 -1.3703
  549TMC3    C7 8205   2.389   0.860  12.363 -0.0577 -0.4699  0.0472
  549TMC3    C8 8206   2.482   1.310  12.446 -0.3334  0.5818 -0.1606
  549TMC3    O1 8207   2.284   0.908  12.316  0.3079 -0.0461  0.2596
  549TMC3    O2 8208   2.423   1.349  12.348 -0.1726 -0.6199 -0.0013
  550TMC3    C1 8209   1.434   3.868  12.768 -0.0765 -0.3890  0.2401
  550TMC3    C2 8210   1.439   3.927  12.897 -0.2009 -0.4088  0.2671
  550TMC3    C3 8211   1.549   4.003  12.919 -0.3617  0.6870 -0.3751
  550TMC3    C4 8212   1.535   3.872  12.679 -0.0756  0.0364  0.5641
  550TMC3    C5 8213   1.642   3.957  12.705 -0.0285 -0.1747  0.2273
  550TMC3    C6 8214   1.642   4.034  12.823  0.0187 -0.2554  0.7925
  550TMC3     C 8215   1.312   3.844  12.694 -0.1665 -0.5047 -0.3235
  550TMC3     O 8216   1.225   3.781  12.753  0.6736  0.7825  0.3463
  550TMC3     H 8217   1.364   3.917  12.975 -0.0583 -0.4008  0.4050
  550TMC3    H1 8218   1.539   3.810  12.590 -1.1039  0.7635 -0.0002
  550TMC3    H2 8219   1.720   4.106  12.843  1.2720 -0.6938 -2.4873
  550TMC3    C7 8220   1.647   4.040  12.591  0.0878  0.6680  0.0942
  550TMC3    C8 8221   1.521   4.114  12.999  0.4364 -0.1840  0.0656
  550TMC3    O1 8222   1.553   4.026  12.514 -0.2570  0.4429 -0.2547
  550TMC3    O2 8223   1.455   4.103  13.101  0.3439 -0.1526 -0.1557
  551TMC3    C1 8224   4.373   1.647  13.765  0.7717 -0.2782 -0.3213
  551TMC3    C2 8225   4.497   1.584  13.751 -0.4013  0.0624  0.4834
  551TMC3    C3 8226   4.581   1.606  13.853  0.5098  0.1174  0.0020
  551TMC3    C4 8227   4.335   1.714  13.874 -0.3128 -1.1111 -1.4502
  551TMC3    C5 8228   4.423   1.730  13.976 -0.9833 -0.3677  0.5456
  551TMC3    C6 8229   4.544   1.676  13.963  0.1813 -0.1376  1.1917
  551TMC3     C 8230   4.264   1.590  13.678 -0.7891  0.1037 -0.3529
  551TMC3     O 8231   4.145   1.630  13.683  0.0426 -0.1477 -0.3316
  551TMC3     H 8232   4.524   1.538  13.657 -0.2793 -0.9082  0.9920
  551TMC3    H1 8233   4.234   1.752  13.887 -0.2126 -1.5545  0.6930
  551TMC3    H2 8234   4.620   1.689  14.039  0.5712  3.0882  0.2141
  551TMC3    C7 8235   4.385   1.781  14.104  0.7652 -0.2281 -0.0810
  551TMC3    C8 8236   4.703   1.536  13.877 -0.7635  0.0586  1.0746
  551TMC3    O1 8237   4.438   1.715  14.192  0.1038  1.1550  0.1300
  551TMC3    O2 8238   4.734   1.497  13.990  0.5349 -0.3086  0.0483
  552MPD2     C 8239   1.405   3.788  14.684  0.9448  0.6475 -0.7999
  552MPD2    C1 8240   1.418   3.649  14.687  0.3048  0.2337 -0.2836
  552MPD2    C2 8241   1.509   3.595  14.780  0.2203  0.1904  0.6456
  552MPD2    C3 8242   1.594   3.675  14.852  0.1867  0.2230  0.1898
  552MPD2    C4 8243   1.586   3.810  14.839  0.7989 -0.3644  0.3586
  552MPD2    C5 8244   1.497   3.863  14.746 -0.1937 -0.2706  0.1049
  552MPD2     H 8245   1.515   3.488  14.797  2.9809  0.3964  0.9511
  552MPD2    H1 8246   1.647   3.865  14.909 -1.2392  1.4486  0.6851
  552MPD2    H2 8247   1.332   3.836  14.620  0.3927 -0.5430 -1.0585
  552MPD2    H3 8248   1.498   3.972  14.740  1.6568 -0.3043 -0.2303
  552MPD2     N 8249   1.690   3.625  14.947  0.0498 -0.1869  0.2939
  552MPD2    H5 8250   1.760   3.690  14.983 -0.4808  0.1091  0.8012
  552MPD2    N1 8251   1.342   3.558  14.609 -0.6952 -0.1325  0.5575
  552MPD2    H7 8252   1.364   3.460  14.628 -1.0637  0.0260  1.7679
  553TMC3    C1 8253   1.206   3.473  14.465  0.0504  0.4042  0.3351
  553TMC3    C2 8254   1.227   3.458  14.328  0.5385  0.1214 -0.3667
  553TMC3    C3 8255   1.232   3.325  14.282 -0.0948 -0.0121  0.3717
  553TMC3    C4 8256   1.200   3.367  14.550  0.2068  0.4498 -0.5336
  553TMC3    C5 8257   1.212   3.246  14.500  0.7249  0.0380 -0.8296
  553TMC3    C6 8258   1.225   3.218  14.361 -0.3251  0.0883 -0.1358
  553TMC3     C 8259   1.252   3.591  14.515  0.5837 -0.0688 -0.3373
  553TMC3     O 8260   1.243   3.693  14.450 -0.3524 -0.0770  0.4013
  553TMC3     H 8261   1.247   3.551  14.277  3.7073 -0.4176 -0.0883
  553TMC3    H1 8262   1.180   3.386  14.655 -1.2021 -0.1628 -0.6858
  553TMC3    H2 8263   1.245   3.121  14.319 -0.3176 -0.1530  0.4180
  553TMC3    C7 8264   1.318   3.187  14.571 -0.1113  0.1009  0.3392
  553TMC3    C8 8265   1.278   3.299  14.147 -0.2157 -0.8611 -0.2005
  553TMC3    O1 8266   1.398   3.263  14.621 -0.5960  0.2367  0.7127
  553TMC3    O2 8267   1.377   3.226  14.133 -0.2313 -0.3305 -1.1347
  554TMC3    C1 8268   2.983   2.666  11.774 -0.2392 -0.3655 -0.7944
  554TMC3    C2 8269   2.937   2.630  11.650  0.1215 -0.0544  0.2000
  554TMC3    C3 8270   3.029   2.632  11.543 -1.4527 -0.4282  0.3991
  554TMC3    C4 8271   3.111   2.720  11.791  0.4900  0.4913 -0.6877
  554TMC3    C5 8272   3.196   2.717  11.681  0.3288  0.0654  0.1877
  554TMC3    C6 8273   3.161   2.667  11.555 -0.3147  0.2843 -0.4058
  554TMC3     C 8274   2.913   2.622  11.892 -0.5346  0.7826 -0.1684
  554TMC3     O 8275   2.792   2.598  11.887  0.1264 -0.1250 -0.1287
  554TMC3     H 8276   2.836   2.591  11.649 -0.0244  0.3615 -3.6604
  554TMC3    H1 8277   3.148   2.772  11.879 -0.2119  2.2351 -1.4317
  554TMC3    H2 8278   3.230   2.675  11.471 -0.4656 -2.2788 -0.7779
  554TMC3    C7 8279   3.310   2.805  11.672  0.7102  0.7811  0.9266
  554TMC3    C8 8280   2.982   2.617  11.411 -0.0741 -1.1722 -0.8848
  554TMC3    O1 8281   3.396   2.786  11.584 -0.4474 -0.0249  0.0759
  554TMC3    O2 8282   3.072   2.606  11.326  0.1968  0.3059 -0.3392
  555TMC3    C1 8283   2.575   2.205  15.118 -0.3508  0.6120 -0.4878
  555TMC3    C2 8284   2.476   2.247  15.195 -0.4668  0.0109 -0.2526
  555TMC3    C3 8285   2.476   2.198  15.326 -0.0135  0.1267 -0.1862
  555TMC3    C4 8286   2.663   2.105  15.142 -0.7994 -0.4616 -0.0675
  555TMC3    C5 8287   2.658   2.054  15.271  0.7262 -0.5964  0.5044
  555TMC3    C6 8288   2.571   2.105  15.363 -0.1060 -0.6970 -0.1852
  555TMC3     C 8289   2.603   2.288  15.000  0.3608  0.0235  0.5491
  555TMC3     O 8290   2.722   2.295  14.970  0.2682  0.3160 -0.4549
  555TMC3     H 8291   2.411   2.328  15.164 -1.0710  0.1066  1.2369
  555TMC3    H1 8292   2.737   2.073  15.069 -0.1999 -0.2952  0.4631
  555TMC3    H2 8293   2.572   2.061  15.462 -1.4650  1.1770  0.6668
  555TMC3    C7 8294   2.684   1.909  15.295  0.2038 -0.0157 -0.0487
  555TMC3    C8 8295   2.409   2.279  15.420  0.5265  0.2273 -0.0495
  555TMC3    O1 8296   2.653   1.855  15.403  0.0865 -0.1646 -0.3417
  555TMC3    O2 8297   2.327   2.360  15.376 -0.0678  0.4052  0.6006
  556MPD2     C 8298   0.994   3.810  10.783 -0.5641 -0.3176 -0.0948
  556MPD2    C1 8299   0.875   3.752  10.831 -0.6778  0.2701  0.4898
  556MPD2    C2 8300   0.811   3.643  10.768 -0.2221  0.1714  0.0425
  556MPD2    C3 8301   0.860   3.598  10.651  0.2734 -0.6221  0.4259
  556MPD2    C4 8302   0.985   3.650  10.612 -0.4128 -0.2530  0.0562
  556MPD2    C5 8303   1.048   3.757  10.679 -0.5004 -0.0236  0.6532
  556MPD2     H 8304   0.711   3.616  10.799  0.0699 -0.4514  0.4313
  556MPD2    H1 8305   1.044   3.616  10.528  0.2145  1.3252 -0.1324
  556MPD2    H2 8306   1.039   3.902  10.819  0.0554 -0.8100  0.3855
  556MPD2    H3 8307   1.142   3.797  10.642 -0.0917  0.0937  1.8310
  556MPD2     N 8308   0.796   3.502  10.574 -0.0106  0.7028  0.0283
  556MPD2    H5 8309   0.704   3.476  10.609 -0.4951 -0.0517 -1.8185
  556MPD2    N1 8310   0.827   3.801  10.954 -0.7799  0.3351 -0.2504
  556MPD2    H7 8311   0.740   3.759  10.988 -0.3095 -1.5739 -1.3649
  557TMC3    C1 8312   0.728   3.369  10.390 -0.0598 -0.3496  0.4435
  557TMC3    C2 8313   0.741   3.336  10.256 -0.6036  0.6409  1.1376
  557TMC3    C3 8314   0.688   3.213  10.219 -0.1234 -0.4892  0.1447
  557TMC3    C4 8315   0.659   3.292  10.479 -0.5837 -0.3170  0.4926
  557TMC3    C5 8316   0.592   3.184  10.430 -0.4055  0.1931 -0.2887
  557TMC3    C6 8317   0.601   3.138  10.307 -0.4545  0.2368  0.4920
  557TMC3     C 8318   0.829   3.466  10.445 -0.4557  0.6315  0.0866
  557TMC3     O 8319   0.909   3.512  10.366  0.2528 -0.2938  0.4162
  557TMC3     H 8320   0.808   3.386  10.187 -0.7301 -2.6647 -1.3918
  557TMC3    H1 8321   0.647   3.325  10.581  1.2968 -1.6640  1.1438
  557TMC3    H2 8322   0.553   3.049  10.270  0.5981 -0.2731  0.3495
  557TMC3    C7 8323   0.504   3.127  10.531 -0.5270 -0.6938 -1.0608
  557TMC3    C8 8324   0.708   3.164  10.090  0.9465  0.5995 -0.9001
  557TMC3    O1 8325   0.467   3.210  10.610  0.1699  0.0530 -0.1454
  557TMC3    O2 8326   0.763   3.243  10.011 -0.3285 -0.4626 -1.0567
  558TMC3    C1 8327   3.125   2.218  10.362 -0.0071  0.1262 -0.3250
  558TMC3    C2 8328   3.004   2.168  10.400 -0.1105  1.0270  0.0812
  558TMC3    C3 8329   2.888   2.212  10.344 -0.4263 -0.5771  0.2634
  558TMC3    C4 8330   3.122   2.313  10.262 -0.8156 -0.4839 -0.0209
  558TMC3    C5 8331   3.001   2.339  10.196  0.3126 -0.4052 -0.9129
  558TMC3    C6 8332   2.876   2.294  10.241  0.0081  0.7939 -0.4389
  558TMC3     C 8333   3.240   2.198  10.453  0.6421  0.2194  0.3175
  558TMC3     O 8334   3.324   2.286  10.441 -0.1950 -0.2682 -0.0422
  558TMC3     H 8335   2.991   2.117  10.495  1.3352  1.0247  0.2724
  558TMC3    H1 8336   3.210   2.353  10.211 -0.3288 -1.0703  0.3576
  558TMC3    H2 8337   2.776   2.309  10.201  0.5040  0.8068 -1.6623
  558TMC3    C7 8338   2.996   2.377  10.058 -0.9624 -0.2552  0.1989
  558TMC3    C8 8339   2.763   2.158  10.393  0.2277  0.1920 -0.1725
  558TMC3    O1 8340   3.104   2.412  10.014  0.1927 -0.6668 -0.4222
  558TMC3    O2 8341   2.672   2.235  10.387 -0.0581  0.0450 -0.3863
  559MPD2     C 8342   2.955   2.446  10.632  0.1835  0.4736  0.0705
  559MPD2    C1 8343   2.893   2.343  10.704  0.4987 -0.4610  0.0944
  559MPD2    C2 8344   2.967   2.264  10.796  0.4493 -0.0042  0.4448
  559MPD2    C3 8345   3.101   2.295  10.816  0.3762  0.3282  0.2019
  559MPD2    C4 8346   3.163   2.406  10.756 -0.1981 -0.0788  0.2174
  559MPD2    C5 8347   3.089   2.477  10.662  0.0523 -0.2568  0.0843
  559MPD2     H 8348   2.925   2.185  10.857 -0.4053 -0.0361 -0.1759
  559MPD2    H1 8349   3.268   2.428  10.772 -0.5438  1.8979 -0.2939
  559MPD2    H2 8350   2.904   2.498  10.552  0.8363  0.3289 -0.4390
  559MPD2    H3 8351   3.146   2.551  10.606 -0.1669  0.2597  0.5381
  559MPD2     N 8352   3.169   2.192  10.896  0.4964  0.1021 -0.1919
  559MPD2    H5 8353   3.116   2.113  10.932  0.9323 -0.3526 -0.5414
  559MPD2    N1 8354   2.758   2.328  10.686  0.6064  0.0242 -0.4449
  559MPD2    H7 8355   2.706   2.401  10.638  0.5119 -0.1247 -0.5697
  560TMC3    C1 8356   3.332   2.094  11.022 -0.2409  0.4738 -0.4304
  560TMC3    C2 8357   3.242   1.986  11.025 -0.1456  0.2432  0.4517
  560TMC3    C3 8358   3.241   1.904  11.132 -0.1000 -0.3570 -0.4607
  560TMC3    C4 8359   3.417   2.123  11.124 -0.4092  0.5111 -0.2661
  560TMC3    C5 8360   3.408   2.030  11.233 -0.4895  0.0965 -0.2769
  560TMC3    C6 8361   3.321   1.922  11.243 -0.3649  0.5201 -0.2187
  560TMC3     C 8362   3.300   2.205  10.931  0.1599 -1.0204 -0.8217
  560TMC3     O 8363   3.376   2.301  10.934  0.5197  0.5364  0.1228
  560TMC3     H 8364   3.187   1.957  10.936 -0.4609  1.6580  0.1818
  560TMC3    H1 8365   3.491   2.201  11.112  0.4970 -0.6153 -2.0853
  560TMC3    H2 8366   3.291   1.869  11.333 -2.0375  1.3426 -0.3061
  560TMC3    C7 8367   3.507   2.024  11.337 -0.1782 -0.7966  0.1560
  560TMC3    C8 8368   3.154   1.789  11.123 -0.2344  0.5246 -0.1146
  560TMC3    O1 8369   3.486   1.935  11.415 -0.2758  0.1635  0.4278
  560TMC3    O2 8370   3.058   1.801  11.046  0.0625  0.5029  0.7739
  561TMC3    C1 8371   0.697   1.178  11.639  0.2932  0.4229 -0.0716
  561TMC3    C2 8372   0.652   1.122  11.757  1.4350 -1.1210 -0.0125
  561TMC3    C3 8373   0.620   1.204  11.861  0.5816  0.3896  0.6429
  561TMC3    C4 8374   0.733   1.313  11.628 -0.3220 -0.2535  0.0804
  561TMC3    C5 8375   0.708   1.387  11.738 -0.6173 -0.1368 -1.2768
  561TMC3    C6 8376   0.633   1.339  11.843 -0.3699 -0.9027 -0.3102
  561TMC3     C 8377   0.755   1.080  11.550 -0.1720  0.7222 -0.1935
  561TMC3     O 8378   0.716   0.964  11.551 -0.1037 -0.4284 -0.0339
  561TMC3     H 8379   0.625   1.018  11.774  0.9167 -0.9194  0.4021
  561TMC3    H1 8380   0.771   1.365  11.540 -1.0455 -1.2420 -0.8266
  561TMC3    H2 8381   0.597   1.406  11.920  0.6897  1.1867 -1.6428
  561TMC3    C7 8382   0.710   1.536  11.732  0.3952  0.5651  0.1036
  561TMC3    C8 8383   0.587   1.136  11.993 -0.0917  0.0722 -0.3573
  561TMC3    O1 8384   0.640   1.600  11.813  0.5980 -0.4865 -0.1723
  561TMC3    O2 8385   0.583   1.016  11.993  0.0767 -0.2530 -0.3215
  562TMC3    C1 8386   2.420   2.441  16.572  0.2270 -0.1569 -0.8794
  562TMC3    C2 8387   2.311   2.515  16.572  0.0768 -0.0114  0.0900
  562TMC3    C3 8388   2.231   2.520  16.680  0.6031 -0.3394  0.2874
  562TMC3    C4 8389   2.423   2.337  16.662 -0.5181  0.2022 -0.0316
  562TMC3    C5 8390   2.335   2.336  16.767  0.2559  0.5554  0.1672
  562TMC3    C6 8391   2.239   2.434  16.781  0.4845  0.4160  0.5671
  562TMC3     C 8392   2.508   2.452  16.452 -0.2933  0.3435 -0.2519
  562TMC3     O 8393   2.473   2.528  16.362  0.3868  0.0286  0.0454
  562TMC3     H 8394   2.306   2.610  16.519  2.1694  0.6362  1.0568
  562TMC3    H1 8395   2.488   2.253  16.638 -0.7189  0.2051 -0.5923
  562TMC3    H2 8396   2.175   2.426  16.868 -1.8458 -0.1972 -1.2175
  562TMC3    C7 8397   2.339   2.227  16.863 -0.2271  0.4869 -0.1591
  562TMC3    C8 8398   2.121   2.614  16.695  0.1257  0.1712  0.4681
  562TMC3    O1 8399   2.243   2.218  16.937  0.0954 -0.7990  0.0418
  562TMC3    O2 8400   2.073   2.622  16.807 -0.0494 -0.1700  0.2153
  563MPD2     C 8401   0.067   2.998  15.900 -0.3336 -0.7845  0.2970
  563MPD2    C1 8402   4.734   3.109  15.949 -0.3743 -0.0565  0.2774
  563MPD2    C2 8403   0.075   3.225  15.991 -0.6313  0.6203  0.1358
  563MPD2    C3 8404   0.214   3.214  16.005  0.2384 -0.1673  0.8376
  563MPD2    C4 8405   0.274   3.099  15.958  0.0953  0.3550  0.5619
  563MPD2    C5 8406   0.203   2.997  15.906  0.5358  0.3671  0.5757
  563MPD2     H 8407   0.031   3.319  16.022 -0.9387  0.3530  0.5091
  563MPD2    H1 8408   0.382   3.097  15.966  0.1948  0.5754 -0.8409
  563MPD2    H2 8409   0.015   2.907  15.871  1.9179 -1.2381 -2.3157
  563MPD2    H3 8410   0.266   2.911  15.885  1.4016  0.5205  2.5154
  563MPD2     N 8411   0.285   3.332  16.052  0.6229 -0.2600  0.1390
  563MPD2    H5 8412   0.225   3.406  16.085 -0.6634 -1.0498 -0.4468
  563MPD2    N1 8413   4.588   3.108  15.950 -0.1225 -0.3211 -0.3091
  563MPD2    H7 8414   4.543   3.031  15.903 -1.9113 -1.0981  2.6979
  564TMC3    C1 8415   4.372   3.185  15.991 -0.2377  0.3147  0.3449
  564TMC3    C2 8416   4.348   3.057  15.950  0.0845 -0.2006  0.0439
  564TMC3    C3 8417   4.282   2.970  16.035 -0.3146  0.5093 -0.1186
  564TMC3    C4 8418   4.318   3.231  16.108  0.1094 -0.6973  0.3835
  564TMC3    C5 8419   4.257   3.136  16.193  0.9734  1.1812  0.4320
  564TMC3    C6 8420   4.238   3.005  16.157  0.1703  0.4656 -0.5392
  564TMC3     C 8421   4.514   3.216  15.991 -0.5919  0.0225 -0.0576
  564TMC3     O 8422   4.542   3.318  16.053  0.7106 -0.0269 -1.1708
  564TMC3     H 8423   4.372   3.039  15.846 -1.0623 -1.1751 -0.0577
  564TMC3    H1 8424   4.338   3.327  16.154  2.3275 -1.9011  1.9544
  564TMC3    H2 8425   4.216   2.929  16.232  0.4665  2.1125  1.2286
  564TMC3    C7 8426   4.340   3.129  16.313 -0.3636  0.2095  0.9222
  564TMC3    C8 8427   4.237   2.848  15.988 -0.4146  0.2083 -0.1523
  564TMC3    O1 8428   4.405   3.030  16.325  0.4288 -0.0509  0.5862
  564TMC3    O2 8429   4.143   2.799  16.055  0.2808  0.1888 -0.4149
  565TMC3    C1 8430   4.576   0.567  10.066  0.4886 -0.5713  0.5115
  565TMC3    C2 8431   4.571   0.455  10.140 -1.1540 -0.1782 -0.4910
  565TMC3    C3 8432   4.447   0.394  10.147 -0.1570  0.6255  0.7451
  565TMC3    C4 8433   4.473   0.619   9.996  0.5211  0.0352  0.7217
  565TMC3    C5 8434   4.355   0.554   9.994  0.5340 -0.0965  0.1921
  565TMC3    C6 8435   4.336   0.445  10.073  0.2021 -0.2104 -0.4975
  565TMC3     C 8436   4.699   0.637  10.061 -0.1795 -0.6419  0.4880
  565TMC3     O 8437   4.731   0.696   9.957  0.1592  0.2709  0.0059
  565TMC3     H 8438   4.661   0.396  10.152 -0.2941  0.9795 -1.2247
  565TMC3    H1 8439   4.492   0.704   9.932  0.1349  0.7202  1.5163
  565TMC3    H2 8440   4.235   0.427  10.109  0.6770 -0.3823  0.7388
  565TMC3    C7 8441   4.258   0.600   9.894  0.6969 -0.5492  0.9335
  565TMC3    C8 8442   4.445   0.268  10.219 -0.1573 -0.0046 -1.1340
  565TMC3    O1 8443   4.275   0.711   9.843  0.6776 -0.7976  0.0278
  565TMC3    O2 8444   4.547   0.252  10.283  0.6070  0.1088  0.0431
  566MPD2     C 8445   2.157   1.467  14.323  0.3592 -0.1832  0.3185
  566MPD2    C1 8446   2.155   1.604  14.297  0.0463 -0.0484 -0.4076
  566MPD2    C2 8447   2.042   1.668  14.258 -0.3420 -0.8779 -0.3269
  566MPD2    C3 8448   1.923   1.600  14.244 -0.4213 -0.4543  0.6564
  566MPD2    C4 8449   1.927   1.462  14.264  0.0591  0.1047 -0.7548
  566MPD2    C5 8450   2.041   1.398  14.304 -0.3725  0.0524  0.0813
  566MPD2     H 8451   2.028   1.774  14.247  1.3041 -0.9046 -2.7224
  566MPD2    H1 8452   1.840   1.399  14.251 -1.8087  2.7897 -1.2434
  566MPD2    H2 8453   2.241   1.408  14.358 -0.4159 -1.7766 -0.4957
  566MPD2    H3 8454   2.040   1.291  14.321  1.3147 -0.0416 -0.4646
  566MPD2     N 8455   1.808   1.673  14.207 -0.0833  0.3530 -0.5555
  566MPD2    H5 8456   1.822   1.772  14.186 -1.2094  0.6645  0.2033
  566MPD2    N1 8457   2.270   1.677  14.324  0.3382  0.1764  0.6234
  566MPD2    H7 8458   2.348   1.636  14.375  1.8798  2.8223  0.3358
  567TMC3    C1 8459   2.411   1.878  14.330  0.0968 -1.1028  0.3453
  567TMC3    C2 8460   2.452   1.985  14.265  0.1529 -0.0324 -0.1732
  567TMC3    C3 8461   2.517   2.086  14.322  0.6456 -0.7445 -0.3013
  567TMC3    C4 8462   2.432   1.868  14.465  0.0807  0.5389 -0.0241
  567TMC3    C5 8463   2.503   1.973  14.520 -1.0336  0.2658 -0.1910
  567TMC3    C6 8464   2.544   2.085  14.455  0.7168  0.3356 -0.5373
  567TMC3     C 8465   2.294   1.807  14.277  0.5647 -0.4260 -0.3845
  567TMC3     O 8466   2.246   1.873  14.186  0.5423 -0.3323 -0.8863
  567TMC3     H 8467   2.429   1.997  14.159  1.1246  0.3525 -0.3427
  567TMC3    H1 8468   2.387   1.786  14.519  0.2127 -0.2047 -1.0436
  567TMC3    H2 8469   2.592   2.171  14.500 -0.6506  0.2113  1.1248
  567TMC3    C7 8470   2.511   1.982  14.664 -0.4158  0.5084 -0.0400
  567TMC3    C8 8471   2.486   2.212  14.255  0.6884  0.3713  0.0823
  567TMC3    O1 8472   2.624   1.953  14.703 -0.4793 -0.0450  0.5834
  567TMC3    O2 8473   2.369   2.225  14.210  0.4894  0.2586 -0.4867
  568MPD2     C 8474   4.717   1.903  16.577 -1.0191  0.2066  0.1376
  568MPD2    C1 8475   4.597   1.863  16.635  0.3106 -0.2190 -0.3040
  568MPD2    C2 8476   4.476   1.892  16.569 -0.2012  0.0433  0.4648
  568MPD2    C3 8477   4.477   1.955  16.452  0.9773  0.6749  0.3860
  568MPD2    C4 8478   4.599   2.002  16.401  0.5051  0.8768  0.3722
  568MPD2    C5 8479   4.719   1.977  16.464 -0.1599  0.5387  0.1016
  568MPD2     H 8480   4.383   1.858  16.614  0.3015 -0.8234  0.8568
  568MPD2    H1 8481   4.610   2.045  16.303  0.2559 -0.0492 -0.0655
  568MPD2    H2 8482   0.068   1.854  16.619  0.5400  0.1266 -3.2208
  568MPD2    H3 8483   0.076   2.004  16.414 -1.0047  0.5757 -1.4726
  568MPD2     N 8484   4.352   1.978  16.380  0.7938 -0.1177  0.0411
  568MPD2    H5 8485   4.268   1.959  16.433  0.1260  1.0874 -0.5917
  568MPD2    N1 8486   4.600   1.770  16.745  0.1413 -0.0056  0.0360
  568MPD2    H7 8487   4.689   1.723  16.759 -0.0632 -0.8040 -1.2642
  569TMC3    C1 8488   4.211   2.041  16.206 -0.2592  0.2574  0.3128
  569TMC3    C2 8489   4.115   2.085  16.287 -0.4622 -0.3765  0.5819
  569TMC3    C3 8490   4.012   2.157  16.229  0.4981  0.7969 -0.0464
  569TMC3    C4 8491   4.205   2.055  16.073  0.0718  0.6823 -0.0967
  569TMC3    C5 8492   4.097   2.120  16.014  0.4089 -0.2305 -0.4752
  569TMC3    C6 8493   3.994   2.175  16.091  0.4218  0.1293 -0.3255
  569TMC3     C 8494   4.344   2.030  16.251 -0.6646  0.5650 -0.5497
  569TMC3     O 8495   4.432   2.060  16.170 -0.2520  0.6534  0.4164
  569TMC3     H 8496   4.128   2.070  16.394  1.6264  2.1440  0.6860
  569TMC3    H1 8497   4.277   2.011  16.006 -1.2886 -0.8722 -0.5224
  569TMC3    H2 8498   3.921   2.249  16.060  0.2123  0.3039  0.5890
  569TMC3    C7 8499   4.144   2.193  15.897  0.0030 -0.6293  0.3886
  569TMC3    C8 8500   3.942   2.247  16.317 -0.6987 -0.0337 -0.0457
  569TMC3    O1 8501   4.209   2.141  15.804 -0.3058 -0.2776  0.1690
  569TMC3    O2 8502   3.836   2.292  16.276  0.1894 -0.3626  0.1098
  570TMC3    C1 8503   4.094   1.538  16.307  0.5254 -0.1161  0.2141
  570TMC3    C2 8504   4.194   1.571  16.226 -0.2596 -0.4298 -0.6349
  570TMC3    C3 8505   4.303   1.616  16.286  0.7588 -0.1347 -0.6259
  570TMC3    C4 8506   4.085   1.556  16.442 -0.2356  0.4309 -0.8721
  570TMC3    C5 8507   4.189   1.624  16.496  0.0731 -0.0624 -0.3674
  570TMC3    C6 8508   4.300   1.651  16.418 -0.0805 -0.1610  0.6821
  570TMC3     C 8509   3.983   1.475  16.238 -0.3532  0.1331 -0.4203
  570TMC3     O 8510   3.983   1.462  16.118 -0.3642 -0.3253  0.3018
  570TMC3     H 8511   4.190   1.545  16.121 -0.5635  0.2336 -0.7915
  570TMC3    H1 8512   4.000   1.536  16.506 -0.6428 -0.4823 -1.7059
  570TMC3    H2 8513   4.391   1.697  16.455  0.0866 -0.5916  0.7965
  570TMC3    C7 8514   4.214   1.582  16.635  0.2590  0.8710  0.2592
  570TMC3    C8 8515   4.398   1.671  16.191  0.4697 -0.0181 -0.2981
  570TMC3    O1 8516   4.320   1.534  16.671 -0.0191  0.2721 -0.0164
  570TMC3    O2 8517   4.354   1.679  16.077  0.1577  0.5740 -0.3665
  571MPD2     C 8518   2.096   3.040  17.348  0.3447 -0.0599 -0.7929
  571MPD2    C1 8519   2.059   2.949  17.441 -0.1690 -0.4403 -0.6619
  571MPD2    C2 8520   1.947   2.984  17.520 -0.6999  0.3474 -0.5753
  571MPD2    C3 8521   1.894   3.113  17.510 -0.1375 -1.5922 -0.0249
  571MPD2    C4 8522   1.949   3.208  17.426  0.1430  0.4966 -0.6272
  571MPD2    C5 8523   2.046   3.166  17.337 -0.3788 -0.3257  0.4308
  571MPD2     H 8524   1.911   2.909  17.590 -1.1603  1.3399  0.2448
  571MPD2    H1 8525   1.922   3.313  17.425 -1.0703  0.1795 -1.0539
  571MPD2    H2 8526   2.173   3.005  17.280  1.7927  0.2107  0.7003
  571MPD2    H3 8527   2.084   3.239  17.267 -1.1312 -0.0470  0.3220
  571MPD2     N 8528   1.787   3.152  17.589 -0.1281  0.0996  0.1489
  571MPD2    H5 8529   1.763   3.250  17.573  1.7550  0.3759 -0.9732
  571MPD2    N1 8530   2.136   2.829  17.453 -0.2734  0.5735 -0.1078
  571MPD2    H7 8531   2.230   2.824  17.417 -0.0279 -1.3693  0.7899
  572TMC3    C1 8532   1.620   3.183   0.011 -0.2928  0.2618  0.2805
  572TMC3    C2 8533   1.592   3.152   0.145 -0.4529 -1.1132  0.0002
  572TMC3    C3 8534   1.594   3.255   0.238 -0.1948  0.7556  0.0108
  572TMC3    C4 8535   1.631   3.312  17.709 -0.0022 -0.5973  1.0431
  572TMC3    C5 8536   1.633   3.411   0.063 -0.2639 -0.1482  0.1132
  572TMC3    C6 8537   1.617   3.381   0.195 -0.3625 -0.0108  0.7888
  572TMC3     C 8538   1.729   3.095  17.696 -0.4227  0.1038  0.3802
  572TMC3     O 8539   1.748   2.985   0.002  0.3465 -0.3956 -0.1069
  572TMC3     H 8540   1.619   3.055   0.187 -1.6833 -2.0418 -1.3774
  572TMC3    H1 8541   1.635   3.331  17.602  0.9069 -1.2551  0.9621
  572TMC3    H2 8542   1.628   3.458   0.271  2.2506  0.1936  0.1952
  572TMC3    C7 8543   1.676   3.546   0.016 -0.1396 -0.4469 -0.8262
  572TMC3    C8 8544   1.690   3.237   0.348  0.3323  0.6364  0.0524
  572TMC3    O1 8545   1.707   3.561  17.642  0.4110  0.0785  0.2262
  572TMC3    O2 8546   1.789   3.303   0.359  0.2619 -0.2136 -0.4510
  573MPD2     C 8547   2.185   2.735   0.634  0.6200  0.0788  0.5708
  573MPD2    C1 8548   2.301   2.800   0.631  0.3684  0.2439 -0.8109
  573MPD2    C2 8549   2.319   2.907   0.546 -0.7889  0.3214  1.2776
  573MPD2    C3 8550   2.215   2.954   0.466  0.3075  0.1368  0.4442
  573MPD2    C4 8551   2.092   2.883   0.476  0.5625 -0.4126 -0.5348
  573MPD2    C5 8552   2.076   2.777   0.561  0.1445 -0.0513 -0.9198
  573MPD2     H 8553   2.413   2.961   0.547 -0.1291 -0.8131  0.5254
  573MPD2    H1 8554   2.010   2.895   0.406  1.3560  0.0859 -1.3811
  573MPD2    H2 8555   2.182   2.654   0.707  0.9446  0.8057  1.3972
  573MPD2    H3 8556   1.989   2.713   0.572  0.1722  0.2285  0.8435
  573MPD2     N 8557   2.216   3.069   0.389  0.2735 -0.3371  0.3642
  573MPD2    H5 8558   2.131   3.095   0.339  1.4942  1.2157 -0.9152
  573MPD2    N1 8559   2.397   2.754   0.726 -0.4882  0.5771 -0.7009
  573MPD2    H7 8560   2.374   2.680   0.792  0.4744 -1.8068 -3.0461
  574TMC3    C1 8561   2.305   3.237   0.252  1.0028  0.0370  0.7751
  574TMC3    C2 8562   2.203   3.322   0.286 -0.1006 -0.2751  0.9699
  574TMC3    C3 8563   2.227   3.459   0.268 -0.5510 -0.4227 -1.2645
  574TMC3    C4 8564   2.420   3.287   0.191  0.1692  0.2205  0.4896
  574TMC3    C5 8565   2.432   3.419   0.168 -0.0427  0.5293 -0.2018
  574TMC3    C6 8566   2.338   3.509   0.213  0.3231  0.1132  0.1577
  574TMC3     C 8567   2.329   3.136   0.348  0.3148  1.0721 -0.0697
  574TMC3     O 8568   2.452   3.128   0.373  0.0993 -0.0125  0.0051
  574TMC3     H 8569   2.118   3.288   0.343 -0.0642 -1.2390  0.4434
  574TMC3    H1 8570   2.505   3.226   0.163  1.1412  1.2450  1.2165
  574TMC3    H2 8571   2.353   3.615   0.195  0.3624 -0.4820 -3.2882
  574TMC3    C7 8572   2.548   3.475   0.107  0.4142 -0.4094 -1.1584
  574TMC3    C8 8573   2.145   3.553   0.335  0.3211 -0.5887 -0.4999
  574TMC3    O1 8574   2.539   3.576   0.043  0.6710 -0.1569  0.2315
  574TMC3    O2 8575   2.064   3.495   0.412  0.1473 -0.5936  0.1928
  575TMC3    C1 8576   0.115   4.534  10.774 -0.2208 -0.0956  1.1154
  575TMC3    C2 8577   0.165   4.426  10.707 -0.0990  0.1038  0.4155
  575TMC3    C3 8578   0.091   4.376  10.603  0.6385  0.0454  0.2475
  575TMC3    C4 8579   4.721   4.576  10.743 -0.0139 -0.2573  0.2506
  575TMC3    C5 8580   4.656   4.513  10.639  0.1997  0.1499  0.2683
  575TMC3    C6 8581   4.703   4.410  10.570  0.3660  1.5228  0.0640
  575TMC3     C 8582   0.164   4.543  10.905  0.0278  0.4014  0.0633
  575TMC3     O 8583   0.250   4.465  10.939  1.0425  0.4790 -0.0368
  575TMC3     H 8584   0.264   4.392  10.734  0.2489  1.9287  1.4665
  575TMC3    H1 8585   4.679   4.665  10.789  0.7010  0.4287 -0.4204
  575TMC3    H2 8586   4.657   4.371  10.480  2.0258 -0.9254  0.2908
  575TMC3    C7 8587   4.574   4.604  10.562 -0.6675  0.1183  0.3039
  575TMC3    C8 8588   0.180   4.306  10.512 -0.0019 -0.2075  0.6886
  575TMC3    O1 8589   4.569   4.720  10.596  0.2804  0.3437  0.7091
  575TMC3    O2 8590   0.301   4.324  10.515  0.1575  0.0574  0.0772
  576MPD2     C 8591   4.629   1.534  13.214  0.7049  0.7618  0.6308
  576MPD2    C1 8592   4.642   1.653  13.133 -0.0707 -0.1718  0.1826
  576MPD2    C2 8593   4.586   1.766  13.179 -0.2794 -0.3673  0.3412
  576MPD2    C3 8594   4.509   1.768  13.292 -0.8662  0.1315 -0.1896
  576MPD2    C4 8595   4.511   1.663  13.376 -0.6118 -0.2861  0.0935
  576MPD2    C5 8596   4.562   1.543  13.337  0.5760  0.0719 -0.1137
  576MPD2     H 8597   4.584   1.851  13.111  0.0691 -1.2888 -0.8214
  576MPD2    H1 8598   4.466   1.654  13.475 -0.5702 -2.1209 -0.0581
  576MPD2    H2 8599   4.667   1.439  13.178 -1.2314  0.5516 -0.8852
  576MPD2    H3 8600   4.566   1.457  13.402 -0.3735 -0.3337 -0.6004
  576MPD2     N 8601   4.462   1.898  13.326 -0.2743  0.4424  0.4291
  576MPD2    H5 8602   4.498   1.965  13.259 -0.9163  0.7718  0.4176
  576MPD2    N1 8603   4.712   1.647  13.008 -0.1015 -0.1276 -0.3492
  576MPD2    H7 8604   4.695   1.731  12.954 -0.7658 -0.4312 -0.6143
  577TMC3    C1 8605   0.131   1.568  12.843  0.4600  0.6055  0.3018
  577TMC3    C2 8606   0.195   1.463  12.785  0.1950 -0.4906 -0.2127
  577TMC3    C3 8607   0.282   1.480  12.677 -0.1540  0.1982  1.2850
  577TMC3    C4 8608   0.156   1.696  12.800 -0.2254 -0.4427  0.2055
  577TMC3    C5 8609   0.242   1.705  12.694  0.3421  0.1743 -0.1201
  577TMC3    C6 8610   0.306   1.605  12.634  0.4823 -0.4443  0.6370
  577TMC3     C 8611   0.041   1.535  12.956 -0.6342  0.4803  0.3951
  577TMC3     O 8612   0.058   1.424  13.000  0.1525  0.2795  0.3016
  577TMC3     H 8613   0.181   1.365  12.830 -0.9285 -0.0723  0.3315
  577TMC3    H1 8614   0.118   1.786  12.847 -2.0051 -0.3292 -1.4307
  577TMC3    H2 8615   0.393   1.628  12.574  0.5005 -2.8813 -0.2631
  577TMC3    C7 8616   0.276   1.845  12.663  0.0546 -0.2135 -0.4757
  577TMC3    C8 8617   0.355   1.359  12.636  0.1501  0.0386  0.6353
  577TMC3    O1 8618   0.273   1.932  12.749 -0.1607  0.1247 -0.0155
  577TMC3    O2 8619   0.316   1.253  12.686 -0.1898  0.0881  0.3836
  578MPD2     C 8620   2.866   1.041   0.807  0.0079 -0.3847  0.0887
  578MPD2    C1 8621   2.960   0.976   0.732 -0.1119 -0.2282 -0.3324
  578MPD2    C2 8622   3.089   0.962   0.789  0.3603 -0.4431  0.0374
  578MPD2    C3 8623   3.116   1.015   0.912  0.7231  0.3827 -0.6062
  578MPD2    C4 8624   3.012   1.079   0.985 -0.0494  0.5830  0.3603
  578MPD2    C5 8625   2.892   1.089   0.930 -0.4234  0.3375 -0.2403
  578MPD2     H 8626   3.167   0.903   0.742  1.7504  0.3213  1.4134
  578MPD2    H1 8627   3.020   1.121   1.084  1.9274  1.2192 -0.0746
  578MPD2    H2 8628   2.768   1.065   0.767 -0.3190 -2.3053 -0.2440
  578MPD2    H3 8629   2.811   1.137   0.985 -0.2232 -0.4480  0.7214
  578MPD2     N 8630   3.254   1.014   0.953 -0.4094 -0.0074 -0.1898
  578MPD2    H5 8631   3.326   0.982   0.889  0.0970  2.3933 -0.8094
  578MPD2    N1 8632   2.935   0.941   0.599 -0.2171 -0.1674 -0.2682
  578MPD2    H7 8633   2.851   0.972   0.550  0.4704 -0.6515 -1.7534
  579TMC3    C1 8634   3.435   1.047   1.092 -0.0355  0.4743  0.1044
  579TMC3    C2 8635   3.511   1.150   1.126  0.3538  0.6796  0.1858
  579TMC3    C3 8636   3.646   1.123   1.123  0.2883 -0.0149  0.3824
  579TMC3    C4 8637   3.480   0.919   1.067 -0.2850 -0.1813  0.0957
  579TMC3    C5 8638   3.622   0.902   1.058  0.3702 -0.4334  0.1964
  579TMC3    C6 8639   3.708   1.002   1.096  0.4923  0.1593  0.8479
  579TMC3     C 8640   3.295   1.074   1.070  0.0071 -0.1025 -0.4516
  579TMC3     O 8641   3.240   1.164   1.135 -0.3862  0.0908  0.4880
  579TMC3     H 8642   3.473   1.248   1.153 -0.3494  0.5016 -0.1628
  579TMC3    H1 8643   3.423   0.827   1.067 -0.0888 -0.3076 -2.2003
  579TMC3    H2 8644   3.815   0.990   1.082  0.4597  1.9813 -0.9374
  579TMC3    C7 8645   3.678   0.776   1.013 -0.2407 -0.2880 -0.1730
  579TMC3    C8 8646   3.737   1.232   1.159 -0.1062  0.3380 -0.0683
  579TMC3    O1 8647   3.800   0.784   0.996  0.3045  0.3171  0.1034
  579TMC3    O2 8648   3.685   1.341   1.177 -0.9625  0.0783 -0.6214
  580TMC3    C1 8649   2.493   1.126  11.953 -0.1696  0.1923 -0.1097
  580TMC3    C2 8650   2.582   1.175  12.043 -0.1828  0.0025 -0.5348
  580TMC3    C3 8651   2.650   1.095  12.122  0.8885  0.1807 -0.3163
  580TMC3    C4 8652   2.497   0.995  11.920  0.0454  0.3617 -0.0356
  580TMC3    C5 8653   2.559   0.915  12.004 -0.0320  1.1233  0.0741
  580TMC3    C6 8654   2.648   0.964  12.101 -0.1151 -0.1696 -0.8083
  580TMC3     C 8655   2.458   1.216  11.844  0.1332  0.2299  0.1708
  580TMC3     O 8656   2.472   1.175  11.729  0.7862  0.1991  0.2601
  580TMC3     H 8657   2.593   1.283  12.041 -0.6464  0.0199 -2.1448
  580TMC3    H1 8658   2.425   0.960  11.847  0.9874 -4.2677  1.2186
  580TMC3    H2 8659   2.686   0.891  12.172 -1.9553 -0.1279  0.2265
  580TMC3    C7 8660   2.548   0.769  11.992  0.7273 -0.3597  0.3076
  580TMC3    C8 8661   2.766   1.156  12.183  0.2636  0.3995  0.1353
  580TMC3    O1 8662   2.602   0.704  12.080  0.2937  0.4246  0.0925
  580TMC3    O2 8663   2.760   1.272  12.221  0.1792  0.1204  0.2703
  581MPD2     C 8664   0.776   0.335  14.971 -0.5565 -0.7648  0.1507
  581MPD2    C1 8665   0.774   0.371  15.106  0.4705 -0.1387 -0.7245
  581MPD2    C2 8666   0.676   0.454  15.157 -0.0137  0.0282  0.6967
  581MPD2    C3 8667   0.573   0.493  15.074  0.5903  0.5977 -0.4222
  581MPD2    C4 8668   0.570   0.454  14.945  0.3228 -0.2695 -0.2132
  581MPD2    C5 8669   0.675   0.381  14.891  0.3036  0.5771 -0.4274
  581MPD2     H 8670   0.673   0.480  15.262  2.4696  0.7555  0.5825
  581MPD2    H1 8671   0.494   0.488  14.875 -0.0969 -0.7967 -0.0229
  581MPD2    H2 8672   0.856   0.280  14.924  1.3497  0.7560  1.5894
  581MPD2    H3 8673   0.669   0.355  14.786  2.0082  0.5703 -0.5283
  581MPD2     N 8674   0.479   0.585  15.126  0.9862 -0.7247 -0.2957
  581MPD2    H5 8675   0.507   0.621  15.216 -0.0301 -3.0462  0.9465
  581MPD2    N1 8676   0.866   0.297  15.181 -0.5151 -0.5378  0.2074
  581MPD2    H7 8677   0.916   0.226  15.129 -0.0034 -0.5918  0.7661
  582TMC3    C1 8678   0.920   0.186  15.387  0.1135 -0.3939 -0.8993
  582TMC3    C2 8679   0.952   0.213  15.519  0.1154 -0.0665  0.5726
  582TMC3    C3 8680   0.866   0.175  15.617  1.2776 -0.6049 -0.2289
  582TMC3    C4 8681   0.809   0.111  15.368 -0.3692  0.6912  0.5055
  582TMC3    C5 8682   0.722   0.080  15.472 -0.3794  0.0037 -0.5174
  582TMC3    C6 8683   0.747   0.112  15.597  0.6275 -0.5173 -0.6538
  582TMC3     C 8684   0.900   0.315  15.314 -0.2015  0.3225 -0.0155
  582TMC3     O 8685   0.896   0.415  15.387  0.3471 -0.7903 -0.4557
  582TMC3     H 8686   1.041   0.273  15.533  0.5650 -0.0819 -2.1763
  582TMC3    H1 8687   0.779   0.084  15.267  0.6549  1.1450  0.0739
  582TMC3    H2 8688   0.676   0.085  15.674  0.5515  0.1204 -0.4994
  582TMC3    C7 8689   0.594   0.116  15.428 -0.0623 -0.0856 -0.1871
  582TMC3    C8 8690   0.920   0.174  15.757  0.0389 -0.5487  0.2475
  582TMC3    O1 8691   0.557   0.072  15.324  0.0213 -0.5376  0.0402
  582TMC3    O2 8692   1.039   0.209  15.762 -0.1407  0.1955  0.0977
  583MPD2     C 8693   1.037   1.382  17.153 -0.2262  0.2627  0.1890
  583MPD2    C1 8694   0.977   1.457  17.061  0.6295  0.0626  0.5471
  583MPD2    C2 8695   0.861   1.530  17.093 -0.0748 -0.4181 -0.4790
  583MPD2    C3 8696   0.806   1.524  17.225  0.0426 -0.0152  0.4993
  583MPD2    C4 8697   0.872   1.443  17.318  0.5674 -0.8821  0.0761
  583MPD2    C5 8698   0.988   1.378  17.279 -1.0175  0.1142 -0.4264
  583MPD2     H 8699   0.820   1.593  17.016  3.0078  2.1165 -0.0378
  583MPD2    H1 8700   0.842   1.420  17.419 -1.2237 -0.0300 -0.2761
  583MPD2    H2 8701   1.127   1.329  17.124 -0.0713 -0.4975  2.0247
  583MPD2    H3 8702   1.037   1.321  17.357 -2.1516 -0.3876 -0.0856
  583MPD2     N 8703   0.685   1.596  17.241 -0.1534 -0.2765 -0.1978
  583MPD2    H5 8704   0.647   1.639  17.158 -0.2473 -0.3174 -0.1761
  583MPD2    N1 8705   1.033   1.484  16.937 -0.1432 -0.1554 -0.7065
  583MPD2    H7 8706   0.983   1.553  16.881  0.4831  0.1536 -0.8768
  584TMC3    C1 8707   0.479   1.652  17.343 -0.0919  0.5423 -0.4160
  584TMC3    C2 8708   0.463   1.775  17.281 -0.1897 -0.2174 -0.5576
  584TMC3    C3 8709   0.389   1.875  17.347  0.6140 -0.3205 -0.1973
  584TMC3    C4 8710   0.411   1.631  17.463  0.0315 -0.6261 -0.3793
  584TMC3    C5 8711   0.342   1.730  17.525  0.5090 -0.0112 -0.2231
  584TMC3    C6 8712   0.339   1.859  17.473 -0.6302  0.5386  0.0329
  584TMC3     C 8713   0.611   1.587  17.353  0.2012 -0.2521  1.0011
  584TMC3     O 8714   0.645   1.533  17.458 -0.5162  0.4623  0.2151
  584TMC3     H 8715   0.517   1.799  17.190  1.0337 -1.8715 -0.2614
  584TMC3    H1 8716   0.416   1.535  17.513  0.1448  0.7838  2.3002
  584TMC3    H2 8717   0.297   1.943  17.526  0.2719 -1.2802  3.6058
  584TMC3    C7 8718   0.274   1.689  17.647  0.6363 -0.2057 -0.3556
  584TMC3    C8 8719   0.399   2.005  17.287  0.1996 -0.2174  0.6907
  584TMC3    O1 8720   0.294   1.573  17.682  0.2354  0.3918 -0.5237
  584TMC3    O2 8721   0.407   2.005  17.163  0.1283  0.0344  0.0052
  585MPD2     C 8722   0.065   0.530   0.670  0.0298  0.0255  0.2496
  585MPD2    C1 8723   0.064   0.505   0.536 -0.5396 -0.5433  0.4576
  585MPD2    C2 8724   0.093   0.373   0.506 -0.3963  0.7013 -0.0813
  585MPD2    C3 8725   0.148   0.283   0.591  0.4295 -0.1748  0.7227
  585MPD2    C4 8726   0.156   0.313   0.726  0.0935 -0.0759 -0.7627
  585MPD2    C5 8727   0.117   0.437   0.759 -0.1296 -0.1511  0.5494
  585MPD2     H 8728   0.076   0.345   0.403  0.5113  1.1422 -0.3511
  585MPD2    H1 8729   0.192   0.251   0.807 -0.9298  0.2321 -0.0723
  585MPD2    H2 8730   0.031   0.627   0.705 -1.9916 -1.5548  2.6150
  585MPD2    H3 8731   0.126   0.459   0.865  0.9013  0.4133  0.3363
  585MPD2     N 8732   0.177   0.150   0.552 -0.7192 -0.3443 -0.0307
  585MPD2    H5 8733   0.196   0.085   0.628  0.9542  1.1227  0.7873
  585MPD2    N1 8734   0.029   0.601   0.440 -0.1352 -0.8021 -0.4801
  585MPD2    H7 8735   0.004   0.692   0.477  0.4020 -0.0440 -1.9453
  586TMC3    C1 8736   0.215   4.698   0.416 -0.4134  0.2784 -0.3920
  586TMC3    C2 8737   0.321   4.650   0.348  0.8091  0.4219 -0.0566
  586TMC3    C3 8738   0.319   4.523   0.300  0.4357 -0.0737 -0.2092
  586TMC3    C4 8739   0.108   4.623   0.441  0.0738 -0.4912  0.4047
  586TMC3    C5 8740   0.096   4.496   0.382 -0.6328 -0.2554  0.1206
  586TMC3    C6 8741   0.210   4.438   0.322  0.2981  0.0030 -0.0669
  586TMC3     C 8742   0.195   0.107   0.430  0.2492 -0.7012 -0.1586
  586TMC3     O 8743   0.204   0.170   0.322  0.0204 -0.2385 -0.2378
  586TMC3     H 8744   0.408   4.708   0.316  0.0013  2.4037  1.3553
  586TMC3    H1 8745   0.027   4.681   0.484 -0.4595 -0.5793 -0.4792
  586TMC3    H2 8746   0.211   4.342   0.272 -0.5953  0.1472 -0.3624
  586TMC3    C7 8747   4.710   4.449   0.331 -0.1630 -0.7106  0.1503
  586TMC3    C8 8748   0.392   4.483   0.183  0.6432  0.3222  0.0947
  586TMC3    O1 8749   4.724   4.365   0.244 -0.4113 -0.2396  0.6645
  586TMC3    O2 8750   0.412   4.363   0.164  0.5665  0.1209 -0.2646
  587TMC3    C1 8751   2.068   4.648  16.020 -0.3274  0.2587  0.3513
  587TMC3    C2 8752   2.134   0.027  16.060 -0.6003 -0.1125 -0.1826
  587TMC3    C3 8753   2.240   0.029  16.143 -0.4464  0.8917 -1.2729
  587TMC3    C4 8754   2.105   4.529  16.080 -0.4002 -0.3427  0.3817
  587TMC3    C5 8755   2.210   4.528  16.169  0.2560 -0.2770  0.1860
  587TMC3    C6 8756   2.284   4.645  16.187 -0.8315 -0.2974  0.0720
  587TMC3     C 8757   1.931   4.663  15.975  0.6733 -0.0023  0.5394
  587TMC3     O 8758   1.892   0.040  15.944 -0.0792  0.4584 -0.8228
  587TMC3     H 8759   2.080   0.117  16.033 -1.2331 -0.3481  0.3086
  587TMC3    H1 8760   2.062   4.431  16.063 -0.2931 -0.3916  0.3950
  587TMC3    H2 8761   2.367   4.634  16.256 -0.6461 -2.2388 -0.4736
  587TMC3    C7 8762   2.252   4.396  16.219 -0.0575 -0.1194 -0.5421
  587TMC3    C8 8763   2.234   0.132  16.251 -0.0401  0.7042 -0.0990
  587TMC3    O1 8764   2.227   4.294  16.155  0.3385 -0.2700 -0.0597
  587TMC3    O2 8765   2.255   0.098  16.366  0.1588  0.1054  0.5005
  588TMC3    C1 8766   4.456   2.429  10.223  0.4324 -0.1126  0.7126
  588TMC3    C2 8767   4.446   2.292  10.257  0.1357  0.2441  0.1302
  588TMC3    C3 8768   4.567   2.221  10.272 -0.2276  0.0504 -0.1861
  588TMC3    C4 8769   4.578   2.497  10.217 -0.3271  0.1590  0.9293
  588TMC3    C5 8770   4.688   2.416  10.227  0.3528  0.0508  0.1860
  588TMC3    C6 8771   4.695   2.281  10.249 -0.5525 -0.3354 -0.4752
  588TMC3     C 8772   4.351   2.521  10.256 -0.5581  0.1611 -0.3858
  588TMC3     O 8773   4.237   2.501  10.217  0.6570 -0.3172 -0.1693
  588TMC3     H 8774   4.353   2.251  10.294 -0.6295  1.5520 -0.3314
  588TMC3    H1 8775   4.583   2.604  10.200  0.7352  0.0364  0.4944
  588TMC3    H2 8776   0.054   2.229  10.253  0.1457  0.9368 -0.2945
  588TMC3    C7 8777   0.083   2.486  10.234 -0.1118  0.1121  0.5915
  588TMC3    C8 8778   4.570   2.080  10.290 -0.4018 -0.7589  0.2502
  588TMC3    O1 8779   0.191   2.433  10.195 -0.1225  0.1819  0.6711
  588TMC3    O2 8780   4.670   2.028  10.344  0.2219 -0.0301 -0.3353
  589TMC3    C1 8781   3.828   3.235   0.866  0.2483  0.4911 -0.3675
  589TMC3    C2 8782   3.960   3.263   0.862  0.4980 -0.1469 -0.5310
  589TMC3    C3 8783   4.054   3.170   0.824  0.4550  0.1337 -0.1208
  589TMC3    C4 8784   3.790   3.103   0.834 -0.3834  0.1491 -1.0580
  589TMC3    C5 8785   3.886   3.011   0.804  0.0093 -0.6434  0.1813
  589TMC3    C6 8786   4.018   3.040   0.803  0.1115  0.5989  1.0535
  589TMC3     C 8787   3.725   3.341   0.903  0.1574 -0.0377 -0.5903
  589TMC3     O 8788   3.612   3.312   0.872  0.0325 -0.5044 -0.1009
  589TMC3     H 8789   3.993   3.366   0.862  2.5460 -0.8116  2.6446
  589TMC3    H1 8790   3.687   3.071   0.848 -0.1305  0.0565  0.6710
  589TMC3    H2 8791   4.085   2.963   0.766 -0.5786  0.8327 -0.6619
  589TMC3    C7 8792   3.844   2.874   0.840 -0.5735 -0.4862 -0.4739
  589TMC3    C8 8793   4.190   3.217   0.821 -0.3560  0.1900  0.9343
  589TMC3    O1 8794   3.731   2.840   0.806 -0.1768  0.2372  0.0699
  589TMC3    O2 8795   4.205   3.339   0.822 -0.4814  0.5301 -0.3373
  590MPD2     C 8796   3.438   2.707  16.576 -0.7228 -0.3926  0.1321
  590MPD2    C1 8797   3.376   2.756  16.460  0.0928 -0.5407 -0.0095
  590MPD2    C2 8798   3.446   2.824  16.365 -0.4859  0.0531  0.2512
  590MPD2    C3 8799   3.580   2.861  16.394 -0.5370  0.2422  0.0452
  590MPD2    C4 8800   3.638   2.821  16.514  0.2138  0.8292  0.1256
  590MPD2    C5 8801   3.568   2.740  16.601 -0.1318 -0.4473  0.0752
  590MPD2     H 8802   3.394   2.866  16.280 -0.0884 -1.6269 -0.8265
  590MPD2    H1 8803   3.739   2.852  16.541  0.7245 -0.6340 -0.1157
  590MPD2    H2 8804   3.385   2.654  16.654 -1.3989  1.2751  0.7983
  590MPD2    H3 8805   3.612   2.698  16.691  2.1138  1.8560  0.0538
  590MPD2     N 8806   3.643   2.944  16.299 -0.0380 -0.3229  0.5663
  590MPD2    H5 8807   3.590   2.988  16.224  1.0025 -0.0620 -0.0299
  590MPD2    N1 8808   3.243   2.711  16.446 -0.3908  0.2211  0.3058
  590MPD2    H7 8809   3.200   2.648  16.513  1.2831 -0.0507  1.1255
  591TMC3    C1 8810   3.812   3.099  16.223  0.3055 -0.0202 -0.1073
  591TMC3    C2 8811   3.913   3.069  16.135 -0.2037  0.7429 -0.0141
  591TMC3    C3 8812   3.957   3.162  16.052  0.2939 -0.2611 -0.6435
  591TMC3    C4 8813   3.732   3.204  16.219  0.5028 -0.4050  0.2090
  591TMC3    C5 8814   3.776   3.298  16.127 -0.2927  0.1284 -0.3970
  591TMC3    C6 8815   3.884   3.281  16.037  0.0022  0.1632 -0.0923
  591TMC3     C 8816   3.775   2.991  16.318 -0.2551  0.1463  0.1153
  591TMC3     O 8817   3.863   2.921  16.354 -0.3338 -0.1723 -0.4053
  591TMC3     H 8818   3.972   2.980  16.155  0.3807  1.3515  0.9548
  591TMC3    H1 8819   3.659   3.224  16.297  0.2909 -1.3645  0.2551
  591TMC3    H2 8820   3.905   3.354  15.960  1.8156  0.8518  1.0575
  591TMC3    C7 8821   3.685   3.399  16.079  0.3808  0.3103  0.2462
  591TMC3    C8 8822   3.988   3.101  15.929  0.0005 -0.1686  0.1542
  591TMC3    O1 8823   3.571   3.378  16.121  0.2178  0.3740  0.6823
  591TMC3    O2 8824   3.936   2.988  15.920  0.8506 -0.1198 -0.3085
  592MPD2     C 8825   3.743   0.409  11.562  0.2878 -0.0791  1.0294
  592MPD2    C1 8826   3.760   0.393  11.696 -0.3773  0.2077  0.5034
  592MPD2    C2 8827   3.666   0.315  11.758 -0.4304 -0.1017  0.2519
  592MPD2    C3 8828   3.578   0.244  11.685  0.4070  0.5102  0.2587
  592MPD2    C4 8829   3.568   0.257  11.546 -0.3363 -0.5292  0.1525
  592MPD2    C5 8830   3.649   0.346  11.490  0.3189  0.6155  0.9723
  592MPD2     H 8831   3.653   0.317  11.866  0.8784 -3.0098  0.4629
  592MPD2    H1 8832   3.493   0.204  11.487 -0.7332  0.7095 -0.4534
  592MPD2    H2 8833   3.803   0.479  11.505  0.4395 -2.9334 -2.2701
  592MPD2    H3 8834   3.635   0.366  11.385 -0.0517  2.1650  1.3142
  592MPD2     N 8835   3.483   0.173  11.760 -0.3712 -0.4510  0.0371
  592MPD2    H5 8836   3.494   0.183  11.860  0.8101 -4.5608  0.3242
  592MPD2    N1 8837   3.841   0.479  11.767 -0.0537  0.5733 -0.0107
  592MPD2    H7 8838   3.899   0.543  11.715  2.1700 -0.4709  1.1842
  593TMC3    C1 8839   3.924   0.583  11.964  0.7977  0.2744 -0.8572
  593TMC3    C2 8840   3.865   0.616  12.076 -0.3677 -0.9234 -0.5907
  593TMC3    C3 8841   3.902   0.727  12.153 -0.8008 -1.1619  0.0349
  593TMC3    C4 8842   4.025   0.660  11.913  0.1239  0.1016 -0.1308
  593TMC3    C5 8843   4.061   0.771  11.989  0.0262  0.6136  0.8137
  593TMC3    C6 8844   4.000   0.812  12.104  0.5901  0.0110  0.3089
  593TMC3     C 8845   3.863   0.463  11.896 -0.1119 -0.3512 -0.2045
  593TMC3     O 8846   3.842   0.365  11.968  0.5593 -0.5066 -0.5045
  593TMC3     H 8847   3.778   0.555  12.097  0.6907 -2.6822 -1.3141
  593TMC3    H1 8848   4.087   0.633  11.828 -1.9398 -0.8330 -1.3271
  593TMC3    H2 8849   4.022   0.905  12.156  2.3273  0.5176 -1.3315
  593TMC3    C7 8850   4.160   0.863  11.939  0.6795  1.0979 -0.2024
  593TMC3    C8 8851   3.814   0.756  12.261 -0.5101 -0.6129 -0.0984
  593TMC3    O1 8852   4.175   0.966  12.002  0.1030  0.1853 -0.1178
  593TMC3    O2 8853   3.714   0.681  12.276 -0.1914  0.2889 -0.3091
  594MPD2     C 8854   2.457   3.265  14.992  0.2589 -0.6157 -0.2373
  594MPD2    C1 8855   2.390   3.383  15.005  0.1569 -0.0506 -0.1810
  594MPD2    C2 8856   2.466   3.498  14.983  0.4665 -0.3679  0.3153
  594MPD2    C3 8857   2.588   3.496  14.914 -0.3351 -0.2446  0.4156
  594MPD2    C4 8858   2.641   3.375  14.893 -0.6389  0.6794  0.4930
  594MPD2    C5 8859   2.574   3.262  14.925 -0.1827  0.0966 -0.5006
  594MPD2     H 8860   2.436   3.597  15.015 -1.9610 -1.4493  1.3847
  594MPD2    H1 8861   2.735   3.357  14.843 -1.6284 -0.0577 -1.1137
  594MPD2    H2 8862   2.409   3.172  15.021  1.2880 -1.0645  0.0382
  594MPD2    H3 8863   2.628   3.168  14.922 -0.0831  0.1647 -0.8470
  594MPD2     N 8864   2.653   3.618  14.885 -0.1954 -0.3191 -0.5748
  594MPD2    H5 8865   2.619   3.701  14.933 -0.3022 -0.2226 -0.8219
  594MPD2    N1 8866   2.254   3.381  15.051  0.0359  0.3461  1.1899
  594MPD2    H7 8867   2.216   3.293  15.086  0.0169  0.0355  0.3918
  595TMC3    C1 8868   3.019   3.862  14.699  0.1185 -0.4655 -0.4017
  595TMC3    C2 8869   2.970   3.757  14.771  0.8926 -0.3943 -0.1001
  595TMC3    C3 8870   2.838   3.756  14.808 -0.2005  0.2999 -0.2150
  595TMC3    C4 8871   2.933   3.956  14.654  0.4525 -0.3880 -0.1653
  595TMC3    C5 8872   2.801   3.950  14.677  0.1706  0.8534  0.0059
  595TMC3    C6 8873   2.753   3.852  14.762 -0.1007 -0.7410  0.7166
  595TMC3     C 8874   3.138   3.924  14.754 -0.2561  0.4319 -0.3454
  595TMC3     O 8875   3.181   4.023  14.690  0.3626  0.4940 -0.1532
  595TMC3     H 8876   3.039   3.676  14.787  0.4755 -0.9826 -1.3277
  595TMC3    H1 8877   2.971   4.046  14.607 -1.3503  1.0432  1.0871
  595TMC3    H2 8878   2.646   3.856  14.780  0.0122 -0.3595  1.2665
  595TMC3    C7 8879   2.720   4.066  14.654 -0.4821  0.0230  0.2846
  595TMC3    C8 8880   2.783   3.621  14.817 -0.4078  0.3738 -0.0510
  595TMC3    O1 8881   2.617   4.084  14.720 -0.0672  0.4979 -0.6102
  595TMC3    O2 8882   2.845   3.538  14.752  0.2076  0.7010 -0.6508
  596MPD2     C 8883   1.889   1.532  17.098  0.1518 -0.3508  0.1609
  596MPD2    C1 8884   1.873   1.653  17.034  0.0291 -0.9461  0.7226
  596MPD2    C2 8885   1.884   1.656  16.896  0.0240 -0.1477  0.8892
  596MPD2    C3 8886   1.928   1.547  16.826  0.3450 -0.3831  0.5354
  596MPD2    C4 8887   1.962   1.431  16.899  0.5680  0.5419 -0.0464
  596MPD2    C5 8888   1.939   1.419  17.034 -0.1787 -0.0296  0.3637
  596MPD2     H 8889   1.872   1.755  16.853 -0.6418  0.5440  2.6476
  596MPD2    H1 8890   2.009   1.351  16.842 -0.0378 -1.5926  2.4853
  596MPD2    H2 8891   1.864   1.524  17.203  3.0116  0.8137  0.9451
  596MPD2    H3 8892   1.969   1.329  17.086 -0.1396  0.3231  0.9535
  596MPD2     N 8893   1.962   1.560  16.685  0.0182  0.1074  0.2001
  596MPD2    H5 8894   2.002   1.475  16.647 -0.9929 -1.3829  2.4774
  596MPD2    N1 8895   1.836   1.772  17.092  0.7313 -0.1905  0.0347
  596MPD2    H7 8896   1.806   1.850  17.035  1.1544 -0.5038 -0.6113
  597TMC3    C1 8897   1.720   1.916  17.234  0.3040  0.8763 -0.5005
  597TMC3    C2 8898   1.740   2.017  17.143 -0.2777  0.5179  0.5838
  597TMC3    C3 8899   1.652   2.125  17.159  0.0554  0.5066  0.4364
  597TMC3    C4 8900   1.631   1.921  17.336 -0.2311  0.4185 -0.3277
  597TMC3    C5 8901   1.544   2.027  17.343 -0.2606  0.3213 -0.1862
  597TMC3    C6 8902   1.555   2.134  17.256  0.5532 -0.0792  1.0302
  597TMC3     C 8903   1.802   1.792  17.223 -0.1881 -0.1826  0.2609
  597TMC3     O 8904   1.790   1.709  17.311 -0.2402  0.4577  0.6671
  597TMC3     H 8905   1.819   2.004  17.070 -1.0093  1.2653 -0.3367
  597TMC3    H1 8906   1.616   1.831  17.395 -0.0841  1.1600  0.8537
  597TMC3    H2 8907   1.498   2.223  17.280  1.0820 -0.0170  2.0511
  597TMC3    C7 8908   1.411   2.002  17.392  0.1623 -0.5397 -0.1419
  597TMC3    C8 8909   1.655   2.238  17.071 -0.0495  0.2276  0.0128
  597TMC3    O1 8910   1.406   1.934  17.489  0.4098 -0.5889  0.1865
  597TMC3    O2 8911   1.552   2.307  17.070 -0.2703  0.3333  0.7233
  598TMC3    C1 8912   4.548   3.861  15.097  0.1478  0.8467 -0.0421
  598TMC3    C2 8913   4.423   3.812  15.132 -0.3171  0.3476  0.6160
  598TMC3    C3 8914   4.335   3.818  15.028 -0.2878 -0.2094  0.2450
  598TMC3    C4 8915   4.573   3.942  14.990  0.6356  0.1132 -0.0484
  598TMC3    C5 8916   4.476   3.950  14.898  0.7248 -0.4187  0.9902
  598TMC3    C6 8917   4.353   3.889  14.916 -0.1474  0.2035  0.5714
  598TMC3     C 8918   4.666   3.849  15.188  0.3453  0.3619 -0.0477
  598TMC3     O 8919   0.023   3.927  15.164  0.0949 -0.1096 -0.3908
  598TMC3     H 8920   4.404   3.766  15.228  0.3597  1.2257  1.1715
  598TMC3    H1 8921   4.674   3.964  14.959  0.5943 -0.5418 -0.6449
  598TMC3    H2 8922   4.269   3.901  14.847  1.7150  1.3404 -1.4900
  598TMC3    C7 8923   4.494   4.039  14.781  0.0418  0.4073  0.2047
  598TMC3    C8 8924   4.198   3.759  15.058 -0.1837 -0.1747  0.5390
  598TMC3    O1 8925   4.409   4.029  14.693  0.1787  0.4765 -0.1300
  598TMC3    O2 8926   4.099   3.803  14.999 -0.0293 -0.3683 -0.2577
  599MPD2     C 8927   4.451   0.935  15.817 -0.1310  0.7805  0.1083
  599MPD2    C1 8928   4.437   0.808  15.863  0.1933 -0.5009 -0.4658
  599MPD2    C2 8929   4.322   0.760  15.927  0.6195  0.1443  0.2586
  599MPD2    C3 8930   4.215   0.842  15.933  0.0088  0.1809  0.0430
  599MPD2    C4 8931   4.227   0.969  15.883 -0.1505 -0.0268  0.1818
  599MPD2    C5 8932   4.346   1.023  15.836  0.2645  0.7579 -0.2527
  599MPD2     H 8933   4.314   0.657  15.958  1.1488  0.2344  0.6757
  599MPD2    H1 8934   4.138   1.031  15.894  0.0085 -0.0109  1.4088
  599MPD2    H2 8935   4.545   0.974  15.780 -0.0884 -0.2295 -0.8502
  599MPD2    H3 8936   4.358   1.129  15.818  3.9618  0.4488  0.3759
  599MPD2     N 8937   4.101   0.829  16.014  0.4189 -0.3690  0.0169
  599MPD2    H5 8938   4.051   0.916  16.028 -2.2629 -2.2934  2.1832
  599MPD2    N1 8939   4.558   0.743  15.851  0.0653 -0.1699  0.6257
  599MPD2    H7 8940   4.643   0.790  15.822  0.4859 -1.1990  0.1786
  600TMC3    C1 8941   3.948   0.727  16.160 -0.4718  0.3538  0.3390
  600TMC3    C2 8942   3.834   0.653  16.150 -0.2470  0.0743  0.3089
  600TMC3    C3 8943   3.732   0.681  16.235  0.1372  0.3409 -0.0411
  600TMC3    C4 8944   3.953   0.830  16.241  0.3606  0.7815 -0.0614
  600TMC3    C5 8945   3.849   0.862  16.326 -0.4239  0.2761 -0.5571
  600TMC3    C6 8946   3.745   0.776  16.332 -0.1967  0.0127  0.6203
  600TMC3     C 8947   4.055   0.699  16.065 -0.5887  0.3355 -0.0368
  600TMC3     O 8948   4.080   0.589  16.018 -0.2184 -0.0776 -0.2587
  600TMC3     H 8949   3.831   0.568  16.083  3.2492 -0.2705  0.6066
  600TMC3    H1 8950   4.046   0.883  16.258  1.5365 -1.5080  0.6346
  600TMC3    H2 8951   3.677   0.790  16.415  2.4005  2.2259  2.3476
  600TMC3    C7 8952   3.886   0.929  16.457  0.8714  0.3951 -0.0070
  600TMC3    C8 8953   3.614   0.600  16.247 -0.6113 -0.2168  0.0046
  600TMC3    O1 8954   3.839   0.894  16.563  0.9336 -0.0382 -0.1305
  600TMC3    O2 8955   3.617   0.491  16.188  0.3131  0.1166  0.1622
  601MPD2     C 8956   1.839   4.029   0.086  0.5634 -0.9709  0.1132
  601MPD2    C1 8957   1.806   3.954  17.718 -0.5733  0.1042 -0.2512
  601MPD2    C2 8958   1.769   3.826  17.728  1.0039 -0.4238  0.2532
  601MPD2    C3 8959   1.755   3.765   0.108  0.0164  0.1133  0.6654
  601MPD2    C4 8960   1.796   3.835   0.217 -0.6540  0.0868 -0.4248
  601MPD2    C5 8961   1.845   3.964   0.209  0.4727  0.1601  0.1457
  601MPD2     H 8962   1.742   3.773  17.637 -1.5013  3.1888 -1.1172
  601MPD2    H1 8963   1.790   3.799   0.319  0.3637  1.1831  0.0208
  601MPD2    H2 8964   1.875   4.129   0.067 -0.6216 -0.4671  0.4806
  601MPD2    H3 8965   1.865   4.010   0.305  1.6636 -2.6312  1.2299
  601MPD2     N 8966   1.708   3.631   0.113 -0.3686 -0.2424 -1.0411
  601MPD2    H5 8967   1.701   3.603   0.211 -1.1743  0.5941 -0.8591
  601MPD2    N1 8968   1.812   4.032  17.599  0.1920 -0.4247  0.3067
  601MPD2    H7 8969   1.816   4.134  17.604  0.8133 -0.3887 -0.8640
  602TMC3    C1 8970   1.818   4.084  17.372  0.4900  0.6090 -0.1414
  602TMC3    C2 8971   1.734   4.187  17.381 -0.2174  0.4307  0.7015
  602TMC3    C3 8972   1.724   4.278  17.280  0.2860 -0.1215  0.1995
  602TMC3    C4 8973   1.897   4.070  17.264 -0.5141 -0.3447 -0.4396
  602TMC3    C5 8974   1.884   4.155  17.162  0.0506  0.3099  0.1788
  602TMC3    C6 8975   1.793   4.253  17.164  0.1266  0.2405 -0.0107
  602TMC3     C 8976   1.808   3.979  17.475 -0.1785  0.1991  0.0680
  602TMC3     O 8977   1.812   3.866  17.426  0.1084 -0.0310  0.1299
  602TMC3     H 8978   1.671   4.207  17.467 -2.1007 -1.6438 -0.1921
  602TMC3    H1 8979   1.978   3.998  17.266  0.2703  0.5558 -0.0004
  602TMC3    H2 8980   1.747   4.295  17.076  2.2236 -1.1820 -1.7833
  602TMC3    C7 8981   1.985   4.153  17.052 -0.1606  0.5232  0.4087
  602TMC3    C8 8982   1.613   4.366  17.268  1.0284  0.0184  0.4808
  602TMC3    O1 8983   2.066   4.061  17.041 -0.4550  0.1404  0.6253
  602TMC3    O2 8984   1.514   4.330  17.327 -0.4925 -0.2386  0.5591
  603TMC3    C1 8985   4.250   4.604  10.766  0.6573  1.4022  0.1878
  603TMC3    C2 8986   4.334   4.596  10.878 -0.2459 -0.1907  0.9479
  603TMC3    C3 8987   4.392   4.710  10.929 -0.0417  0.1691 -0.0248
  603TMC3    C4 8988   4.238   4.720  10.698  0.5092 -0.3569  0.4981
  603TMC3    C5 8989   4.287   0.097  10.761  0.2851  0.5611 -0.2754
  603TMC3    C6 8990   4.359   0.100  10.873  0.9581 -0.4452 -0.4123
  603TMC3     C 8991   4.198   4.479  10.705  0.7051 -0.0467  0.3949
  603TMC3     O 8992   4.257   4.378  10.729  0.3106  0.0881 -0.1710
  603TMC3     H 8993   4.352   4.507  10.938  2.9225  0.3378  0.7613
  603TMC3    H1 8994   4.200   4.709  10.597  1.6545 -1.4118  0.1919
  603TMC3    H2 8995   4.418   0.186  10.904  0.7163  0.2269 -1.8462
  603TMC3    C7 8996   4.258   0.217  10.686  0.0051  0.4828  0.0119
  603TMC3    C8 8997   4.465   4.699  11.052 -0.1695 -0.8590  0.0989
  603TMC3    O1 8998   4.312   0.319  10.723 -0.7376  0.1659  0.0252
  603TMC3    O2 8999   4.497   4.583  11.080 -0.6078 -0.2066 -0.5929
  604MPD2     C 9000   0.639   2.476  16.534 -0.2722 -0.0892  0.9948
  604MPD2    C1 9001   0.562   2.564  16.461  0.5041 -0.2122 -0.3643
  604MPD2    C2 9002   0.577   2.574  16.318 -0.2300  0.0918  0.7213
  604MPD2    C3 9003   0.671   2.496  16.253 -0.3502 -0.0786 -0.1328
  604MPD2    C4 9004   0.733   2.397  16.329  0.6634 -0.1844  0.4820
  604MPD2    C5 9005   0.725   2.398  16.467  0.0128 -0.0029 -0.2863
  604MPD2     H 9006   0.526   2.652  16.264  1.2772  0.2698 -0.4268
  604MPD2    H1 9007   0.795   2.320  16.283  0.2449 -0.3537  0.1977
  604MPD2    H2 9008   0.635   2.469  16.642  1.8730 -0.9233  1.0234
  604MPD2    H3 9009   0.763   2.310  16.519 -1.5170  0.4243  1.5454
  604MPD2     N 9010   0.702   2.525  16.120 -0.1138  0.1872  0.0350
  604MPD2    H5 9011   0.644   2.596  16.076 -0.0795  0.5187  0.5279
  604MPD2    N1 9012   0.483   2.661  16.540 -0.0655 -0.0911 -0.5663
  604MPD2    H7 9013   0.490   2.652  16.641  1.7074 -2.4057 -0.8904
  605TMC3    C1 9014   0.330   2.831  16.597 -0.9416 -0.1607  0.9484
  605TMC3    C2 9015   0.418   2.898  16.679  0.2460  0.3450  0.2300
  605TMC3    C3 9016   0.371   2.993  16.765  0.5222  0.0723 -0.1352
  605TMC3    C4 9017   0.190   2.851  16.593 -0.8160 -0.2074 -0.4137
  605TMC3    C5 9018   0.151   2.957  16.674 -0.1758  0.1214 -0.2291
  605TMC3    C6 9019   0.235   3.028  16.760 -0.3561 -0.4225 -0.3047
  605TMC3     C 9020   0.376   2.735  16.497  0.3089 -0.3730 -0.1210
  605TMC3     O 9021   0.333   2.749  16.385 -0.3015 -0.2181 -0.3079
  605TMC3     H 9022   0.524   2.874  16.683  0.6021  1.8874  0.1081
  605TMC3    H1 9023   0.127   2.809  16.515 -0.6256  2.0459 -1.7975
  605TMC3    H2 9024   0.198   3.103  16.829  0.2215 -0.7317  0.3383
  605TMC3    C7 9025   0.022   3.008  16.636 -0.2557  0.2977  0.1726
  605TMC3    C8 9026   0.459   3.053  16.868 -0.8312  0.5857 -0.0512
  605TMC3    O1 9027   4.676   2.933  16.580 -0.2668  0.8751 -0.1027
  605TMC3    O2 9028   0.407   3.124  16.951 -0.7511 -0.4718 -0.2277
  606TMC3    C1 9029   2.082   1.435   0.043  0.3128 -0.1076 -0.1062
  606TMC3    C2 9030   2.081   1.480   0.174  0.0734  0.5312  0.3581
  606TMC3    C3 9031   2.012   1.400   0.259  0.4531 -0.1186 -0.3394
  606TMC3    C4 9032   2.034   1.313   0.008  0.1936  0.5031 -0.7870
  606TMC3    C5 9033   1.962   1.241   0.094  0.0988 -0.1993  0.1202
  606TMC3    C6 9034   1.956   1.283   0.222  0.3247  0.0065  0.0628
  606TMC3     C 9035   2.183   1.486  17.690  0.3682  0.8216 -0.3575
  606TMC3     O 9036   2.239   1.402  17.618  0.1206  0.0288  0.6183
  606TMC3     H 9037   2.150   1.553   0.215  4.3035 -3.2599 -0.0341
  606TMC3    H1 9038   2.050   1.284  17.647  1.0494  0.5442 -0.6635
  606TMC3    H2 9039   1.906   1.218   0.294 -0.2828 -0.2442 -0.5903
  606TMC3    C7 9040   1.956   1.100   0.081 -0.2429 -0.1871  0.9897
  606TMC3    C8 9041   2.022   1.431   0.400 -0.9363 -0.7708  0.0574
  606TMC3    O1 9042   2.021   1.046  17.735  0.6718 -0.4408 -0.8262
  606TMC3    O2 9043   2.001   1.345   0.485 -0.4205 -0.0436  0.0597
  607MPD2     C 9044   3.751   4.599  12.016  0.0728 -0.5867 -0.0756
  607MPD2    C1 9045   3.805   4.726  12.019 -0.3108  0.4114 -0.3009
  607MPD2    C2 9046   3.828   0.053  12.137 -0.4512  0.5138  0.8954
  607MPD2    C3 9047   3.820   4.716  12.262 -0.0308  0.6411  0.0546
  607MPD2    C4 9048   3.777   4.580  12.255  0.2204  0.4032  0.4357
  607MPD2    C5 9049   3.731   4.534  12.135  0.2439 -0.1004 -0.5403
  607MPD2     H 9050   3.859   0.156  12.151 -1.7235  1.2150 -1.4220
  607MPD2    H1 9051   3.766   4.523  12.346 -1.9961  3.3473  2.0374
  607MPD2    H2 9052   3.702   4.557  11.929 -0.4533  1.6647 -0.8610
  607MPD2    H3 9053   3.680   4.439  12.141 -1.3891  0.7669 -0.8418
  607MPD2     N 9054   3.871   0.030  12.383 -0.2642  0.4720  0.4592
  607MPD2    H5 9055   3.914   0.120  12.364  2.1913 -1.3112 -2.2771
  607MPD2    N1 9056   3.837   0.063  11.905  0.1384  0.0636  0.3331
  607MPD2    H7 9057   3.892   0.144  11.933 -0.3266  0.7999 -0.9064
  608TMC3    C1 9058   3.940   0.096  11.691  0.5757 -0.7389  0.5257
  608TMC3    C2 9059   4.028   0.174  11.758  0.4781 -0.2968  0.0562
  608TMC3    C3 9060   4.114   0.252  11.685 -0.5247  0.8987  0.1707
  608TMC3    C4 9061   3.920   0.110  11.560  0.0080 -0.2736 -0.0315
  608TMC3    C5 9062   4.010   0.182  11.488 -0.0170 -0.1624  0.2455
  608TMC3    C6 9063   4.106   0.260  11.548 -0.2087 -0.1741 -0.3709
  608TMC3     C 9064   3.841   0.019  11.775  0.0597 -0.2095  0.2839
  608TMC3     O 9065   3.778   4.665  11.722  0.0228  0.2104  0.0119
  608TMC3     H 9066   4.041   0.160  11.865  1.3822 -1.7226 -0.2526
  608TMC3    H1 9067   3.845   0.047  11.513 -0.5442  1.9258 -2.1143
  608TMC3    H2 9068   4.165   0.331  11.492 -0.2933  1.2129  1.2807
  608TMC3    C7 9069   3.989   0.197  11.348  0.1011  0.2506  0.0108
  608TMC3    C8 9070   4.188   0.353  11.756 -0.2341 -0.2411  0.0433
  608TMC3    O1 9071   4.065   0.275  11.294  0.2860  0.0213 -0.4521
  608TMC3    O2 9072   4.230   0.456  11.702 -0.3373 -0.0992  0.1248
  609TMC3    C1 9073   1.488   3.360   9.373 -1.0235  0.0856  0.3914
  609TMC3    C2 9074   1.425   3.236   9.348  0.0024  0.1911 -0.1080
  609TMC3    C3 9075   1.466   3.166   9.243 -0.0715 -0.8516  0.3107
  609TMC3    C4 9076   1.589   3.399   9.296 -0.1820 -0.6895 -0.0622
  609TMC3    C5 9077   1.640   3.313   9.206 -0.4003  0.6977 -0.1424
  609TMC3    C6 9078   1.576   3.198   9.176  0.5434  0.0499  0.1646
  609TMC3     C 9079   1.488   3.411   9.512  0.4415 -0.0090  0.1857
  609TMC3     O 9080   1.406   3.359   9.585  0.2251  0.3317  0.2119
  609TMC3     H 9081   1.341   3.212   9.412 -0.1390 -0.6255 -0.5989
  609TMC3    H1 9082   1.610   3.505   9.297 -0.3386 -0.6499 -2.0038
  609TMC3    H2 9083   1.607   3.142   9.088 -0.4911 -0.2322 -0.0231
  609TMC3    C7 9084   1.752   3.373   9.127  0.0512  0.2385 -1.1938
  609TMC3    C8 9085   1.405   3.032   9.217 -0.3575  0.2818 -0.4399
  609TMC3    O1 9086   1.806   3.478   9.158 -0.4869  0.0252  0.9366
  609TMC3    O2 9087   1.455   2.967   9.126  0.0586  0.5581 -0.5098
  610TMC3    C1 9088   4.616   0.447  12.321  0.1667  0.2719  0.5136
  610TMC3    C2 9089   4.620   0.384  12.201  0.8858  0.5115 -0.3109
  610TMC3    C3 9090   4.615   0.246  12.193 -0.2200 -0.1849  0.4092
  610TMC3    C4 9091   4.612   0.369  12.436 -0.2897  0.0231  0.9155
  610TMC3    C5 9092   4.605   0.232  12.428 -0.0211  0.6027 -0.7246
  610TMC3    C6 9093   4.600   0.167  12.307 -0.1625 -0.0431 -0.0902
  610TMC3     C 9094   4.668   0.581  12.334 -0.4122  0.3496 -0.1366
  610TMC3     O 9095   4.632   0.646  12.431 -0.5500  0.2983 -0.3034
  610TMC3     H 9096   4.623   0.447  12.113 -0.3946 -0.2069 -0.8651
  610TMC3    H1 9097   4.636   0.420  12.528 -0.4176  2.7696 -0.5709
  610TMC3    H2 9098   4.597   0.059  12.300 -3.1486  0.1046 -1.0821
  610TMC3    C7 9099   4.609   0.139  12.549  0.9668  0.1492  0.2964
  610TMC3    C8 9100   4.551   0.197  12.071  0.2322  0.6791  0.9875
  610TMC3    O1 9101   4.661   0.029  12.541  0.1424 -0.4568 -0.2897
  610TMC3    O2 9102   4.604   0.236  11.971  0.2313  0.2508 -0.2429
  611MPD2     C 9103   2.927   4.685  10.149  0.5763 -0.0337 -0.2221
  611MPD2    C1 9104   3.046   4.649  10.208 -0.3916 -0.1798 -0.1919
  611MPD2    C2 9105   3.159   4.722  10.176  0.2786 -0.3292  0.0018
  611MPD2    C3 9106   3.156   0.090  10.086  0.9435  0.2081  0.2245
  611MPD2    C4 9107   3.031   0.125  10.037  1.3826 -0.1689  0.0849
  611MPD2    C5 9108   2.917   0.057  10.070 -0.1652 -0.1426  0.0348
  611MPD2     H 9109   3.257   4.696  10.215  0.6039 -0.3357 -0.8271
  611MPD2    H1 9110   3.020   0.210   9.969 -0.7287  0.2070  0.8929
  611MPD2    H2 9111   2.836   4.629  10.164  0.3137  1.4585  3.6595
  611MPD2    H3 9112   2.829   0.077  10.010 -0.0014 -0.0999 -0.1938
  611MPD2     N 9113   3.270   0.167  10.048 -0.2637  0.1217 -0.0431
  611MPD2    H5 9114   3.250   0.241   9.981 -1.0971 -1.7968 -1.9226
  611MPD2    N1 9115   3.059   4.531  10.292  0.0885  0.7995  1.4391
  611MPD2    H7 9116   2.968   4.493  10.319 -0.2108 -0.9865 -1.9179
  612TMC3    C1 9117   3.500   0.244  10.048  0.4838 -0.3404 -0.0512
  612TMC3    C2 9118   3.611   0.275  10.127 -0.1644 -0.5252  1.1114
  612TMC3    C3 9119   3.690   0.378  10.084  0.2591 -0.0692  0.2558
  612TMC3    C4 9120   3.480   0.304   9.924 -0.2270 -0.0046  0.9253
  612TMC3    C5 9121   3.566   0.404   9.886  0.0011  0.2383  0.3143
  612TMC3    C6 9122   3.666   0.449   9.970  1.0842 -0.1043  0.5368
  612TMC3     C 9123   3.395   0.155  10.103  0.3183 -0.4412 -0.4614
  612TMC3     O 9124   3.423   0.115  10.215  0.2713 -0.0647  0.0567
  612TMC3     H 9125   3.615   0.229  10.225 -3.6316  0.6029  1.8174
  612TMC3    H1 9126   3.403   0.262   9.860  0.8112  0.2402 -0.4841
  612TMC3    H2 9127   3.726   0.530   9.931 -1.3650  0.6736 -1.6584
  612TMC3    C7 9128   3.529   0.471   9.763 -0.1187  0.1152  0.4395
  612TMC3    C8 9129   3.790   0.440  10.162  0.6169 -0.1656  0.5061
  612TMC3    O1 9130   3.457   0.418   9.683 -0.2574  0.1970 -0.0850
  612TMC3    O2 9131   3.838   0.543  10.111 -0.2196  0.3826  0.4899
  613MPD2     C 9132   2.832   1.672  16.157 -0.1406 -0.1166  0.1253
  613MPD2    C1 9133   2.781   1.740  16.264  0.1547  0.3785 -0.3253
  613MPD2    C2 9134   2.776   1.682  16.392  0.6680  0.2608 -1.1320
  613MPD2    C3 9135   2.836   1.559  16.408  0.8048 -0.4563  0.1890
  613MPD2    C4 9136   2.881   1.485  16.301 -0.1953 -0.3790  0.9039
  613MPD2    C5 9137   2.888   1.543  16.178  1.1833 -0.0460  0.3314
  613MPD2     H 9138   2.727   1.731  16.476  0.9372 -1.3062 -0.0547
  613MPD2    H1 9139   2.910   1.381  16.306  0.7019 -0.3551 -3.5626
  613MPD2    H2 9140   2.811   1.712  16.059  0.7320 -2.4731 -1.0191
  613MPD2    H3 9141   2.912   1.489  16.087  0.5589  0.5665 -0.2021
  613MPD2     N 9142   2.843   1.497  16.540 -0.1834 -0.5808 -0.2956
  613MPD2    H5 9143   2.872   1.400  16.543  0.1666 -0.4567  0.4104
  613MPD2    N1 9144   2.709   1.859  16.237  0.2834  0.1581 -0.2055
  613MPD2    H7 9145   2.678   1.870  16.141 -0.5715 -1.7046 -0.1558
  614TMC3    C1 9146   2.531   1.999  16.305  0.4655  0.2801 -0.5752
  614TMC3    C2 9147   2.457   1.984  16.418  0.0317 -0.2489 -0.1794
  614TMC3    C3 9148   2.354   2.073  16.434 -0.6288 -0.6314  0.8462
  614TMC3    C4 9149   2.509   2.099  16.212  0.1293 -0.4939  0.7052
  614TMC3    C5 9150   2.417   2.193  16.246  0.4558 -0.3361  0.7232
  614TMC3    C6 9151   2.337   2.185  16.361  0.7687 -0.1969 -0.5971
  614TMC3     C 9152   2.660   1.941  16.336  0.1272  0.7696 -0.3460
  614TMC3     O 9153   2.710   1.954  16.448 -0.1581  0.3952  0.2446
  614TMC3     H 9154   2.484   1.921  16.502  3.1753 -0.3362 -1.2587
  614TMC3    H1 9155   2.586   2.106  16.136 -0.4193  0.0222  0.1923
  614TMC3    H2 9156   2.255   2.252  16.386  1.0495 -0.0648 -0.0302
  614TMC3    C7 9157   2.361   2.282  16.145  0.4719  0.2877 -0.0977
  614TMC3    C8 9158   2.252   2.025  16.524  0.5688 -0.3122 -0.8365
  614TMC3    O1 9159   2.273   2.361  16.179 -0.3775  0.0864 -0.0397
  614TMC3    O2 9160   2.198   2.113  16.593  0.2027 -0.0304 -0.1222
  615MPD2     C 9161   2.016   3.080  16.365 -1.1228 -0.1778  0.3009
  615MPD2    C1 9162   1.905   3.159  16.332 -0.0418  0.1386 -0.1023
  615MPD2    C2 9163   1.859   3.162  16.203  0.5826 -0.2781 -0.7642
  615MPD2    C3 9164   1.937   3.107  16.103  0.0935 -0.0568  0.4542
  615MPD2    C4 9165   2.061   3.048  16.136  0.1969  0.2852 -0.0838
  615MPD2    C5 9166   2.091   3.017  16.269 -0.3342 -0.0076  0.3332
  615MPD2     H 9167   1.770   3.222  16.186 -0.5014 -2.7065 -3.6376
  615MPD2    H1 9168   2.124   3.015  16.054 -1.1768  1.1188 -1.4845
  615MPD2    H2 9169   2.028   3.042  16.466  1.6106 -0.3270 -0.0750
  615MPD2    H3 9170   2.180   2.959  16.293 -0.1555  1.1054  2.3719
  615MPD2     N 9171   1.921   3.135  15.965  0.0706  0.1142 -0.4188
  615MPD2    H5 9172   1.999   3.106  15.908  1.4287  2.2342  0.3636
  615MPD2    N1 9173   1.835   3.233  16.435  0.6440  0.2350  0.2543
  615MPD2    H7 9174   1.765   3.292  16.390  0.0535 -0.3899  0.3610
  616TMC3    C1 9175   1.816   3.371  16.618 -0.0488  0.1762  0.7404
  616TMC3    C2 9176   1.915   3.455  16.666  0.7052  0.0098 -0.0211
  616TMC3    C3 9177   1.887   3.585  16.669  1.1103  0.9987 -0.0293
  616TMC3    C4 9178   1.697   3.417  16.563 -0.3221  0.0928  0.0810
  616TMC3    C5 9179   1.668   3.550  16.576  0.7795  0.1282 -0.3437
  616TMC3    C6 9180   1.766   3.637  16.630 -1.1149  0.0403 -0.0239
  616TMC3     C 9181   1.883   3.248  16.560  0.4431  0.1070 -0.2828
  616TMC3     O 9182   1.985   3.206  16.616  0.4252 -0.0165 -0.3283
  616TMC3     H 9183   2.013   3.421  16.698 -0.0676  0.4071  2.7822
  616TMC3    H1 9184   1.619   3.346  16.538 -1.9122  1.8951 -0.0527
  616TMC3    H2 9185   1.753   3.744  16.634 -1.7075 -0.0641  0.7529
  616TMC3    C7 9186   1.579   3.600  16.478  0.6569  0.1688 -0.5846
  616TMC3    C8 9187   1.979   3.693  16.687  0.2986 -0.2122  1.2728
  616TMC3    O1 9188   1.513   3.516  16.419  0.4545  0.0980 -0.0875
  616TMC3    O2 9189   1.941   3.802  16.732  0.3035  0.3706 -0.7884
  617MPD2     C 9190   0.071   2.095  13.937 -0.2705 -0.4250 -0.7846
  617MPD2    C1 9191   0.172   2.002  13.932 -0.1736  0.9173 -0.0375
  617MPD2    C2 9192   0.169   1.899  14.024  0.5629  0.6658  0.4063
  617MPD2    C3 9193   0.067   1.895  14.117  0.3563  0.9580  0.3609
  617MPD2    C4 9194   4.702   1.989  14.114 -0.1196  0.4349  0.1219
  617MPD2    C5 9195   4.705   2.091  14.022  0.4468  0.3473 -0.3524
  617MPD2     H 9196   0.239   1.816  14.021 -0.1640  0.0743 -0.2896
  617MPD2    H1 9197   4.614   1.967  14.174 -1.0329  0.6044 -1.1608
  617MPD2    H2 9198   0.071   2.169  13.859 -0.4087 -2.0371 -2.3169
  617MPD2    H3 9199   4.622   2.160  14.022  0.8349  0.8134 -0.4215
  617MPD2     N 9200   0.049   1.787  14.208  0.0211  0.0863  0.3822
  617MPD2    H5 9201   4.703   1.796  14.267  0.4936 -0.1598  1.0752
  617MPD2    N1 9202   0.272   2.019  13.837 -0.3397 -0.3297  0.1540
  617MPD2    H7 9203   0.272   2.097  13.772  1.1673  0.1647  0.7504
  618TMC3    C1 9204   0.484   1.985  13.735 -0.4419  0.2781  0.1961
  618TMC3    C2 9205   0.612   1.976  13.785 -0.6006  1.0673 -0.2472
  618TMC3    C3 9206   0.710   1.963  13.692 -0.3351  0.7496  0.0357
  618TMC3    C4 9207   0.454   1.970  13.604  0.1136 -0.4004 -0.5831
  618TMC3    C5 9208   0.550   1.953  13.511 -0.0438  0.1126  0.5024
  618TMC3    C6 9209   0.681   1.950  13.561 -0.4987 -0.1248  0.1741
  618TMC3     C 9210   0.388   1.949  13.833 -0.7845 -0.1167  0.3699
  618TMC3     O 9211   0.434   1.858  13.903  0.0250  0.0960 -0.5189
  618TMC3     H 9212   0.638   1.973  13.890  1.6473  1.6035 -0.7870
  618TMC3    H1 9213   0.351   1.955  13.574 -0.2491 -3.5780  2.2041
  618TMC3    H2 9214   0.759   1.961  13.486 -1.4140 -1.2939 -0.9589
  618TMC3    C7 9215   0.520   1.835  13.435  0.0649  0.2811  0.3247
  618TMC3    C8 9216   0.802   1.857  13.737 -0.5746  0.0770 -0.3594
  618TMC3    O1 9217   0.436   1.762  13.479  0.2071 -0.5533 -0.7001
  618TMC3    O2 9218   0.813   1.834  13.855  0.0668 -0.0245 -0.4097
  619MPD2     C 9219   1.711   2.874  14.154  0.5253  0.8416  0.5276
  619MPD2    C1 9220   1.628   2.906  14.045 -0.7362  0.3176 -0.0811
  619MPD2    C2 9221   1.492   2.887  14.056 -0.2264 -0.1065 -0.6905
  619MPD2    C3 9222   1.424   2.842  14.163  0.4029  0.3148 -0.0125
  619MPD2    C4 9223   1.511   2.802  14.266  0.4975 -0.0125 -0.6675
  619MPD2    C5 9224   1.649   2.807  14.258  0.7524  0.0217 -0.7797
  619MPD2     H 9225   1.434   2.938  13.980  1.2137 -0.5433 -2.0871
  619MPD2    H1 9226   1.469   2.786  14.365 -0.1443  1.3364 -0.7299
  619MPD2    H2 9227   1.820   2.873  14.150  0.5285 -0.4591  0.7278
  619MPD2    H3 9228   1.706   2.769  14.342  0.9783 -0.7617 -1.2864
  619MPD2     N 9229   1.285   2.842  14.186  0.0755  0.6850  0.4399
  619MPD2    H5 9230   1.243   2.810  14.273 -1.3466 -2.3276 -1.3073
  619MPD2    N1 9231   1.675   2.955  13.924 -0.4745 -0.1820  0.2834
  619MPD2    H7 9232   1.604   2.998  13.866 -0.5414 -0.0710  0.4502
  620TMC3    C1 9233   1.822   3.038  13.771  0.2215  0.3900  0.3941
  620TMC3    C2 9234   1.698   3.019  13.708  0.5132 -0.6341 -0.3551
  620TMC3    C3 9235   1.639   3.121  13.643  0.3426 -0.4279  0.2836
  620TMC3    C4 9236   1.898   3.157  13.760  0.6047 -0.0903 -0.2924
  620TMC3    C5 9237   1.838   3.250  13.685 -0.1883  0.6002 -0.1098
  620TMC3    C6 9238   1.713   3.241  13.626  0.1805 -0.4289 -0.2531
  620TMC3     C 9239   1.811   2.984  13.897  0.0550 -0.6884 -0.6318
  620TMC3     O 9240   1.902   3.001  13.973  0.1626  0.4585  0.1889
  620TMC3     H 9241   1.658   2.919  13.699  0.9570 -1.0478  2.4110
  620TMC3    H1 9242   1.994   3.183  13.803 -0.7356  1.5968  1.6632
  620TMC3    H2 9243   1.676   3.333  13.583 -2.4944 -1.1961  0.4129
  620TMC3    C7 9244   1.874   3.381  13.732  0.1824  0.3884  1.0533
  620TMC3    C8 9245   1.500   3.141  13.683 -0.0411  0.5082  0.1022
  620TMC3    O1 9246   1.993   3.408  13.754 -0.0334  0.3443 -0.3535
  620TMC3    O2 9247   1.455   3.064  13.770 -0.3544 -0.3706  0.4938
  621MPD2     C 9248   1.924   2.601  10.686  0.1024 -0.4089  0.1147
  621MPD2    C1 9249   1.840   2.566  10.584  0.2464 -0.1188  0.2215
  621MPD2    C2 9250   1.813   2.655  10.482  0.3670 -0.3239  0.8179
  621MPD2    C3 9251   1.863   2.782  10.482  0.4234  0.6436  0.0531
  621MPD2    C4 9252   1.931   2.824  10.597 -0.6705  0.6060  0.2679
  621MPD2    C5 9253   1.968   2.731  10.686  0.0431 -0.3940 -0.0684
  621MPD2     H 9254   1.760   2.615  10.396 -0.0615  1.3856  0.2671
  621MPD2    H1 9255   1.976   2.919  10.623  0.9218  0.0839 -0.6007
  621MPD2    H2 9256   1.959   2.533  10.763  0.1459 -0.4831  0.0308
  621MPD2    H3 9257   2.040   2.764  10.760  0.2556 -1.5521  0.2406
  621MPD2     N 9258   1.857   2.852  10.364 -0.0715 -0.0253  0.0466
  621MPD2    H5 9259   1.814   2.800  10.287 -0.6827 -0.1494  0.4723
  621MPD2    N1 9260   1.780   2.442  10.578  0.1135  0.7015 -0.0451
  621MPD2    H7 9261   1.738   2.417  10.489  1.8199 -0.0100 -0.6458
  622TMC3    C1 9262   1.685   2.240  10.647  0.1069  0.4065  0.3252
  622TMC3    C2 9263   1.606   2.193  10.736 -0.3406  0.0706 -1.2828
  622TMC3    C3 9264   1.537   2.081  10.699  0.0148 -2.1055  0.2567
  622TMC3    C4 9265   1.709   2.186  10.525 -0.0038  0.9944 -0.1855
  622TMC3    C5 9266   1.639   2.075  10.487 -0.5610 -0.3932 -0.2040
  622TMC3    C6 9267   1.552   2.021  10.577  0.3143 -0.2827  0.3963
  622TMC3     C 9268   1.767   2.357  10.681  0.0899 -0.1032  0.4382
  622TMC3     O 9269   1.803   2.363  10.797 -0.4936  0.0483 -0.0113
  622TMC3     H 9270   1.586   2.233  10.835  0.5100  1.2812 -1.5988
  622TMC3    H1 9271   1.786   2.226  10.460 -0.4449  1.9990 -0.0951
  622TMC3    H2 9272   1.508   1.927  10.546  1.0912 -0.3914 -0.3869
  622TMC3    C7 9273   1.670   2.009  10.361  0.4774  0.2118  0.0888
  622TMC3    C8 9274   1.411   2.058  10.761  0.1168  0.0823  0.0087
  622TMC3    O1 9275   1.646   1.887  10.354 -0.3145  0.3226 -0.0632
  622TMC3    O2 9276   1.365   1.944  10.743  0.5484  0.0068 -0.2108
  623MPD2     C 9277   1.032   3.750  16.441  0.6600  0.3297  0.8835
  623MPD2    C1 9278   0.964   3.630  16.421 -0.2355 -0.2374 -0.2006
  623MPD2    C2 9279   1.019   3.510  16.473  0.4094  0.2239 -0.0944
  623MPD2    C3 9280   1.143   3.509  16.536 -1.1784  0.3224  0.3436
  623MPD2    C4 9281   1.219   3.629  16.545  0.0994  0.2013  0.2421
  623MPD2    C5 9282   1.159   3.744  16.498  0.3194 -0.2711 -0.2691
  623MPD2     H 9283   0.968   3.415  16.478 -1.0326  0.9935 -0.3052
  623MPD2    H1 9284   1.320   3.635  16.583  0.4284 -3.2081 -0.1389
  623MPD2    H2 9285   1.002   3.850  16.412 -0.1684 -0.4478 -0.9236
  623MPD2    H3 9286   1.214   3.837  16.509 -2.2686  1.2230  0.0865
  623MPD2     N 9287   1.186   3.385  16.582  0.2019 -0.2510 -0.5351
  623MPD2    H5 9288   1.124   3.305  16.577  1.4637 -1.0645 -2.8975
  623MPD2    N1 9289   0.836   3.629  16.362 -0.2925  0.2879 -0.3193
  623MPD2    H7 9290   0.805   3.721  16.332 -0.1589  0.0938 -1.0419
  624TMC3    C1 9291   1.436   3.073  16.826 -0.4397 -0.4601  0.3341
  624TMC3    C2 9292   1.326   2.990  16.826 -0.1639  0.5070 -0.7209
  624TMC3    C3 9293   1.226   3.019  16.742 -0.4747 -0.3096 -0.0586
  624TMC3    C4 9294   1.431   3.191  16.757  0.5884  0.0159 -0.2602
  624TMC3    C5 9295   1.321   3.226  16.681 -0.3711  0.0720 -0.7860
  624TMC3    C6 9296   1.216   3.137  16.669  0.2908  0.2535  0.1241
  624TMC3     C 9297   1.552   3.031  16.902 -0.4529  0.4466  1.1274
  624TMC3     O 9298   1.565   2.908  16.901 -0.1628  0.1219  0.1261
  624TMC3     H 9299   1.322   2.909  16.898  1.2203  0.8870 -0.2146
  624TMC3    H1 9300   1.521   3.251  16.749 -0.4962  1.7150  0.2198
  624TMC3    H2 9301   1.119   3.158  16.625 -0.0464 -0.2904  0.6171
  624TMC3    C7 9302   1.297   3.366  16.654  0.4642  0.5785 -0.0197
  624TMC3    C8 9303   1.103   2.972  16.785 -0.2487  0.2789 -0.6897
  624TMC3    O1 9304   1.370   3.449  16.712 -0.2159 -0.9865  0.9507
  624TMC3    O2 9305   1.030   2.938  16.694  0.1448 -0.1738 -0.0403
  625MPD2     C 9306   1.516   3.453   0.654 -0.1889 -0.1751  0.3974
  625MPD2    C1 9307   1.490   3.585   0.681 -0.8875 -0.2117 -0.1229
  625MPD2    C2 9308   1.579   3.664   0.748  0.2694 -0.3494  0.6460
  625MPD2    C3 9309   1.706   3.612   0.787  0.2883 -0.3508  0.6234
  625MPD2    C4 9310   1.736   3.485   0.755  0.1375  0.3027 -0.0663
  625MPD2    C5 9311   1.641   3.406   0.694  0.1494  0.6716  0.2039
  625MPD2     H 9312   1.545   3.764   0.770  2.1360  0.0760  1.6398
  625MPD2    H1 9313   1.830   3.433   0.774  0.0571 -0.2501 -1.1515
  625MPD2    H2 9314   1.447   3.373   0.628  0.9502 -0.9189 -0.3413
  625MPD2    H3 9315   1.661   3.301   0.680 -0.5947  0.7704 -1.5813
  625MPD2     N 9316   1.803   3.695   0.846 -0.0612 -0.7536  0.3385
  625MPD2    H5 9317   1.770   3.791   0.849  2.2174  0.0595 -0.2087
  625MPD2    N1 9318   1.365   3.642   0.658 -0.3209 -0.6052  0.1621
  625MPD2    H7 9319   1.342   3.735   0.692 -1.0689 -1.5350  2.1493
  626TMC3    C1 9320   1.151   3.686   0.608  0.0965  0.0416  0.7201
  626TMC3    C2 9321   1.090   3.745   0.499  0.0765 -0.1310  0.1597
  626TMC3    C3 9322   1.032   3.873   0.510 -0.3137  0.0853 -0.6974
  626TMC3    C4 9323   1.148   3.745   0.729  0.2777 -0.0038 -0.7575
  626TMC3    C5 9324   1.089   3.871   0.736  0.2540 -0.3545  0.1202
  626TMC3    C6 9325   1.046   3.944   0.628  0.4481  0.2085 -0.8759
  626TMC3     C 9326   1.255   3.591   0.589 -0.7766  0.0951  0.0334
  626TMC3     O 9327   1.232   3.496   0.523 -0.1926  0.4855 -0.4205
  626TMC3     H 9328   1.102   3.695   0.404  1.7192  1.7519 -0.6315
  626TMC3    H1 9329   1.185   3.695   0.818 -1.4719 -2.7886 -1.5949
  626TMC3    H2 9330   1.000   4.042   0.635  0.4706  0.2397 -1.1652
  626TMC3    C7 9331   1.082   3.928   0.870 -0.2713 -0.0456  0.3666
  626TMC3    C8 9332   1.016   3.957   0.393 -0.0019 -0.2564  0.4676
  626TMC3    O1 9333   1.145   3.873   0.958 -0.4392  0.3927 -0.7643
  626TMC3    O2 9334   1.055   4.072   0.404 -0.1624  0.5015 -0.3409
  627MPD2     C 9335   4.515   0.776  14.751  0.7965 -0.0545  0.1047
  627MPD2    C1 9336   4.555   0.685  14.846 -0.0101  0.6817 -0.5070
  627MPD2    C2 9337   4.509   0.554  14.826  0.1574 -0.6891  0.6410
  627MPD2    C3 9338   4.412   0.512  14.735 -0.1329 -0.1711  1.0653
  627MPD2    C4 9339   4.378   0.606  14.638 -0.2295  0.3636  0.2616
  627MPD2    C5 9340   4.431   0.736  14.651  0.9146 -0.0628  0.7867
  627MPD2     H 9341   4.543   0.490  14.906  1.3082  0.1311  0.8148
  627MPD2    H1 9342   4.309   0.592  14.556  1.3174  3.9437 -1.6585
  627MPD2    H2 9343   4.558   0.875  14.746  0.8052 -0.0278  0.6738
  627MPD2    H3 9344   4.399   0.810  14.579  0.4388 -0.9862  0.0430
  627MPD2     N 9345   4.354   0.384  14.739 -0.6179 -0.4246  0.3799
  627MPD2    H5 9346   4.377   0.322  14.817 -0.4064 -0.2520  0.4534
  627MPD2    N1 9347   4.652   0.709  14.948  0.2314 -0.3496  0.0083
  627MPD2    H7 9348   4.670   0.633  15.013  0.2882 -0.0325  0.3643
  628TMC3    C1 9349   0.078   0.811  15.084 -0.1518 -0.1368  0.4406
  628TMC3    C2 9350   0.141   0.695  15.108  0.2400  0.6960  0.2693
  628TMC3    C3 9351   0.274   0.700  15.149 -0.2041 -0.0817 -0.0676
  628TMC3    C4 9352   0.142   0.926  15.122  0.0990 -0.0044 -0.3093
  628TMC3    C5 9353   0.271   0.930  15.166  0.0692 -0.6979  0.5386
  628TMC3    C6 9354   0.341   0.813  15.193  0.2040 -0.4120  0.2402
  628TMC3     C 9355   4.718   0.823  14.971  0.1543  0.1212  0.3611
  628TMC3     O 9356   4.694   0.928  14.921 -0.2715  0.7294 -0.2938
  628TMC3     H 9357   0.093   0.602  15.077  1.0385  0.5583 -0.5716
  628TMC3    H1 9358   0.092   1.022  15.113 -2.7189 -1.3614  0.6589
  628TMC3    H2 9359   0.448   0.818  15.207  0.3238  3.0886 -1.9698
  628TMC3    C7 9360   0.364   1.039  15.125 -0.3231 -0.3277 -0.8317
  628TMC3    C8 9361   0.352   0.600  15.073 -0.3412  0.3765 -0.3887
  628TMC3    O1 9362   0.482   1.031  15.156 -0.1188 -0.7313  0.7142
  628TMC3    O2 9363   0.293   0.552  14.976  0.5926  0.0602  0.7829
  629MPD2     C 9364   2.470   3.808  16.775 -0.1361  0.6166  0.4465
  629MPD2    C1 9365   2.465   3.731  16.659  0.0711 -0.2022  0.1277
  629MPD2    C2 9366   2.339   3.674  16.632 -0.6718  0.7901 -0.3438
  629MPD2    C3 9367   2.221   3.715  16.689  0.6096  0.2147  0.1034
  629MPD2    C4 9368   2.231   3.805  16.794  0.3796 -0.0543 -1.0858
  629MPD2    C5 9369   2.354   3.839  16.841 -0.2224  0.1390 -0.0896
  629MPD2     H 9370   2.342   3.608  16.545 -0.6612  1.7325 -1.0584
  629MPD2    H1 9371   2.149   3.852  16.848  0.2469 -0.1852 -1.1731
  629MPD2    H2 9372   2.558   3.854  16.818 -0.1083  1.5348 -0.6078
  629MPD2    H3 9373   2.369   3.905  16.925 -0.0781 -0.3361  0.2615
  629MPD2     N 9374   2.106   3.645  16.663 -0.0708 -0.8245 -0.3251
  629MPD2    H5 9375   2.111   3.564  16.603  0.1082 -1.5255  0.6280
  629MPD2    N1 9376   2.585   3.703  16.587  0.0537  0.0558  0.5087
  629MPD2    H7 9377   2.661   3.764  16.615  1.0398 -1.2362  0.6482
  630TMC3    C1 9378   2.746   3.618  16.438  0.1857  0.2530  0.3150
  630TMC3    C2 9379   2.836   3.722  16.466 -0.5443 -0.4710 -0.4472
  630TMC3    C3 9380   2.966   3.686  16.455 -1.0338  0.0566  0.2374
  630TMC3    C4 9381   2.793   3.491  16.403  0.3954  0.3763 -0.3296
  630TMC3    C5 9382   2.927   3.465  16.409  0.4941  0.3933 -0.0219
  630TMC3    C6 9383   3.017   3.562  16.435 -0.0390 -0.3097  0.6264
  630TMC3     C 9384   2.603   3.616  16.484  0.4523 -0.4359 -0.3155
  630TMC3     O 9385   2.525   3.536  16.429  0.1570 -0.2428  0.3590
  630TMC3     H 9386   2.804   3.811  16.519 -0.4954 -0.7480  0.0481
  630TMC3    H1 9387   2.720   3.413  16.425  1.5102 -0.5858 -0.0657
  630TMC3    H2 9388   3.122   3.538  16.436 -0.2131 -1.0496  1.2423
  630TMC3    C7 9389   2.964   3.357  16.492  0.4629 -0.2819  0.3114
  630TMC3    C8 9390   3.061   3.786  16.493  0.6541  0.1902  0.0407
  630TMC3    O1 9391   3.033   3.390  16.585 -0.2229  0.9008  0.7632
  630TMC3    O2 9392   3.162   3.743  16.550 -0.2704 -0.1061  0.4267
  631MPD2     C 9393   1.268   3.843  15.503 -0.7550  0.3143 -0.6390
  631MPD2    C1 9394   1.406   3.849  15.490  0.3978  0.0921  0.6225
  631MPD2    C2 9395   1.488   3.740  15.517 -0.2635 -0.1987 -0.0393
  631MPD2    C3 9396   1.438   3.617  15.550  0.2547  0.3598  0.0959
  631MPD2    C4 9397   1.299   3.617  15.573 -0.1595  0.4336  0.6718
  631MPD2    C5 9398   1.220   3.731  15.558  0.3818 -0.2617  0.6174
  631MPD2     H 9399   1.597   3.740  15.520 -0.2527  0.0797 -0.4944
  631MPD2    H1 9400   1.244   3.530  15.606 -0.1675  0.5245  0.9020
  631MPD2    H2 9401   1.197   3.925  15.493  0.6068  1.6805  0.9652
  631MPD2    H3 9402   1.115   3.719  15.581 -0.3472 -1.0173 -3.1504
  631MPD2     N 9403   1.531   3.518  15.585  0.0979 -0.1582  0.6488
  631MPD2    H5 9404   1.624   3.549  15.560 -0.0935  1.0801  1.5093
  631MPD2    N1 9405   1.460   3.972  15.455 -0.2114  0.3294  0.2426
  631MPD2    H7 9406   1.393   4.044  15.430 -1.6264 -0.8578  0.5639
  632TMC3    C1 9407   1.617   4.132  15.366  0.1155 -0.2155 -0.8965
  632TMC3    C2 9408   1.533   4.230  15.404 -0.2285 -0.4744 -0.0400
  632TMC3    C3 9409   1.537   4.340  15.323  0.3643  0.2791 -0.3875
  632TMC3    C4 9410   1.710   4.144  15.263 -0.0974 -0.3128 -0.0270
  632TMC3    C5 9411   1.713   4.260  15.188  0.1904  1.0688 -0.6389
  632TMC3    C6 9412   1.620   4.362  15.221 -0.1305 -0.5852  0.5252
  632TMC3     C 9413   1.590   3.998  15.417  0.5329  0.5719  0.5754
  632TMC3     O 9414   1.680   3.920  15.400  0.6110  0.2280 -0.6990
  632TMC3     H 9415   1.469   4.217  15.490  0.3178  1.4306  0.6368
  632TMC3    H1 9416   1.751   4.053  15.221  0.9156  1.4379 -2.8911
  632TMC3    H2 9417   1.626   4.459  15.174  1.1500 -1.1169 -0.4092
  632TMC3    C7 9418   1.750   4.256  15.048 -0.7987 -0.4421 -0.2826
  632TMC3    C8 9419   1.404   4.393  15.318  0.1244 -0.8084  0.4223
  632TMC3    O1 9420   1.702   4.352  14.982  1.0102  0.3811 -0.5805
  632TMC3    O2 9421   1.328   4.379  15.411 -0.0425 -0.8634  0.1547
  633MPD2     C 9422   1.130   1.519   0.038  0.0217  0.3848 -0.1145
  633MPD2    C1 9423   1.156   1.430  17.674 -0.1527 -0.3489  0.5554
  633MPD2    C2 9424   1.159   1.300  17.701  0.3815 -0.2223 -0.0013
  633MPD2    C3 9425   1.135   1.250   0.079  0.0271  0.0492 -0.3101
  633MPD2    C4 9426   1.104   1.336   0.187  0.0300  0.0242 -1.0234
  633MPD2    C5 9427   1.101   1.470   0.161 -0.2350  0.0764  0.4384
  633MPD2     H 9428   1.197   1.236  17.622 -0.2919  0.1418 -0.6196
  633MPD2    H1 9429   1.070   1.303   0.285 -1.3901  0.1898 -1.4519
  633MPD2    H2 9430   1.117   1.626   0.025 -0.3277  0.2703 -0.7237
  633MPD2    H3 9431   1.069   1.544   0.234 -0.4763  1.3718 -0.9918
  633MPD2     N 9432   1.134   1.110   0.079  0.0800  0.1817 -0.2572
  633MPD2    H5 9433   1.144   1.059  17.734  0.2682 -1.0440  0.4736
  633MPD2    N1 9434   1.199   1.482  17.549  0.1495  0.0612 -0.1033
  633MPD2    H7 9435   1.238   1.420  17.479 -1.2553 -1.8017  0.7688
  634TMC3    C1 9436   1.215   1.624  17.370  0.4098  0.2440  0.1289
  634TMC3    C2 9437   1.345   1.583  17.337  1.0335  0.6055  0.0824
  634TMC3    C3 9438   1.393   1.622  17.215  0.2091 -0.2813  0.0053
  634TMC3    C4 9439   1.140   1.705  17.292 -0.5530  0.6086  0.2923
  634TMC3    C5 9440   1.201   1.748  17.175  0.3830 -0.3629 -0.0860
  634TMC3    C6 9441   1.328   1.707  17.136  0.8264 -0.1716  0.0298
  634TMC3     C 9442   1.173   1.610  17.505  0.0446  0.1757 -0.2931
  634TMC3     O 9443   1.088   1.689  17.546 -0.8465 -0.0924 -0.5858
  634TMC3     H 9444   1.411   1.537  17.410 -0.0710  0.9839  1.3189
  634TMC3    H1 9445   1.038   1.728  17.318 -0.0136  2.7866  0.5583
  634TMC3    H2 9446   1.383   1.752  17.055 -1.6428  1.1098 -0.9187
  634TMC3    C7 9447   1.120   1.811  17.078 -0.2524 -0.1671  0.3537
  634TMC3    C8 9448   1.516   1.539  17.162 -0.2502  0.3031  0.5233
  634TMC3    O1 9449   1.186   1.819  16.974 -0.5509 -0.4961  0.4689
  634TMC3    O2 9450   1.579   1.471  17.238 -0.6954 -0.7789 -0.3364
  635TMC3    C1 9451   2.222   2.622  17.553  0.0350 -0.4555 -0.5250
  635TMC3    C2 9452   2.354   2.653  17.527 -0.4363  0.7430 -0.0181
  635TMC3    C3 9453   2.453   2.567  17.565  0.2827  0.8057 -0.2344
  635TMC3    C4 9454   2.190   2.517  17.630 -0.0020  0.3186  0.3055
  635TMC3    C5 9455   2.289   2.422  17.662 -0.2056 -1.0365  0.5163
  635TMC3    C6 9456   2.424   2.454  17.637 -0.2673  0.1003  0.5247
  635TMC3     C 9457   2.110   2.725  17.538 -0.2548  0.3132 -0.0355
  635TMC3     O 9458   2.007   2.716  17.604 -0.0653 -0.1630 -0.3167
  635TMC3     H 9459   2.385   2.754  17.501  2.1940 -0.3368 -1.1136
  635TMC3    H1 9460   2.087   2.510  17.663 -0.2345 -1.3266 -0.7356
  635TMC3    H2 9461   2.503   2.381  17.651  1.9520  2.3062 -0.4688
  635TMC3    C7 9462   2.259   2.320   0.018 -0.5326  0.0988  0.4410
  635TMC3    C8 9463   2.581   2.572  17.500  0.0497  0.2249 -0.0393
  635TMC3    O1 9464   2.360   2.278   0.073 -0.1230  0.1248 -0.1529
  635TMC3    O2 9465   2.669   2.512  17.559  0.2806  0.4533  0.3049
  636MPD2     C 9466   2.434   2.071  17.093 -0.2593  0.1005 -0.0815
  636MPD2    C1 9467   2.489   2.065  16.965  0.4774  0.1000 -0.0545
  636MPD2    C2 9468   2.570   1.954  16.930  0.2770  0.8185  0.0362
  636MPD2    C3 9469   2.583   1.842  17.018  0.3561  0.3332 -0.1460
  636MPD2    C4 9470   2.529   1.854  17.142 -0.4226  0.3041  0.5519
  636MPD2    C5 9471   2.465   1.968  17.181 -0.4653 -0.0984 -0.4755
  636MPD2     H 9472   2.602   1.947  16.827 -0.3224 -0.8591 -0.0291
  636MPD2    H1 9473   2.551   1.783  17.220  2.4630  1.0320  0.3830
  636MPD2    H2 9474   2.380   2.156  17.134 -1.4574 -0.1695 -1.1310
  636MPD2    H3 9475   2.425   1.983  17.281 -0.3929  1.5595 -0.6971
  636MPD2     N 9476   2.657   1.726  16.978 -0.6079  0.2860 -0.2551
  636MPD2    H5 9477   2.685   1.720  16.881  0.3162 -0.0113  0.0282
  636MPD2    N1 9478   2.458   2.160  16.870 -0.7126  0.6159  0.0911
  636MPD2    H7 9479   2.529   2.175  16.799  0.7115  0.6130  1.5243
  637TMC3    C1 9480   2.708   1.494  16.975  0.1011  0.4735  0.6573
  637TMC3    C2 9481   2.800   1.528  16.881  0.4711 -0.5731  0.5479
  637TMC3    C3 9482   2.798   1.463  16.761  0.2813  0.0182 -0.0921
  637TMC3    C4 9483   2.599   1.413  16.949  0.2470 -0.3628 -0.1691
  637TMC3    C5 9484   2.584   1.373  16.818 -0.0086  0.3029 -0.3134
  637TMC3    C6 9485   2.689   1.383  16.735  0.9036 -0.8207  0.3707
  637TMC3     C 9486   2.670   1.609  17.056 -0.2347 -0.2346  0.6519
  637TMC3     O 9487   2.625   1.577  17.164  0.5065 -0.3646 -0.6516
  637TMC3     H 9488   2.874   1.605  16.897 -0.2247  0.2721 -0.2557
  637TMC3    H1 9489   2.520   1.415  17.023  0.2390 -0.2963 -0.1797
  637TMC3    H2 9490   2.668   1.345  16.635 -2.0002  0.2304  0.5964
  637TMC3    C7 9491   2.468   1.434  16.754 -0.4284  0.9052 -0.4362
  637TMC3    C8 9492   2.829   1.557  16.661 -0.0922 -0.5227 -0.1606
  637TMC3    O1 9493   2.458   1.440  16.632  0.1694 -0.3014  0.3447
  637TMC3    O2 9494   2.820   1.676  16.697 -0.1994  0.4449  0.1373
  638MPD2     C 9495   2.366   1.139  15.289  0.0360  0.5324  0.6185
  638MPD2    C1 9496   2.440   1.032  15.236  0.3813  0.5275 -0.6435
  638MPD2    C2 9497   2.433   0.909  15.303  0.7069 -0.0381  0.0325
  638MPD2    C3 9498   2.339   0.887  15.409  0.2337 -0.4211 -0.0695
  638MPD2    C4 9499   2.262   0.985  15.447 -0.4871  0.6853  0.0624
  638MPD2    C5 9500   2.282   1.111  15.392  0.3341  1.1386 -0.8478
  638MPD2     H 9501   2.491   0.826  15.266  1.9708  0.9977 -0.2788
  638MPD2    H1 9502   2.189   0.969  15.525 -0.2167 -1.4947 -0.1373
  638MPD2    H2 9503   2.374   1.236  15.243  0.4721  1.0963  1.8816
  638MPD2    H3 9504   2.234   1.199  15.433  1.0561  1.1788 -0.0818
  638MPD2     N 9505   2.332   0.759  15.471  0.6630  0.5625  0.7120
  638MPD2    H5 9506   2.253   0.747  15.534  0.8328  0.0811  0.8320
  638MPD2    N1 9507   2.505   1.047  15.106  0.3920  0.1901  0.1832
  638MPD2    H7 9508   2.486   1.135  15.058 -0.3285  0.2768  0.6246
  639TMC3    C1 9509   2.365   0.534  15.474  0.1780  0.1129  0.0715
  639TMC3    C2 9510   2.264   0.499  15.385 -0.1615 -0.0046  0.2385
  639TMC3    C3 9511   2.272   0.382  15.318 -0.2662  0.0752 -0.2997
  639TMC3    C4 9512   2.471   0.455  15.503  0.3755 -0.5256  0.0453
  639TMC3    C5 9513   2.481   0.340  15.418  0.7786  0.3674 -0.3655
  639TMC3    C6 9514   2.380   0.299  15.335  0.3044  0.5034  0.3730
  639TMC3     C 9515   2.425   0.657  15.449  0.5777  0.0552 -0.6988
  639TMC3     O 9516   2.546   0.667  15.420  0.2324  0.1746  0.2268
  639TMC3     H 9517   2.195   0.577  15.356 -1.2773 -1.3443 -0.7042
  639TMC3    H1 9518   2.557   0.485  15.561  0.2154  0.7368 -0.3655
  639TMC3    H2 9519   2.395   0.223  15.260  2.4930  1.8031 -0.4952
  639TMC3    C7 9520   2.616   0.302  15.387  0.1727 -0.0929 -0.4244
  639TMC3    C8 9521   2.193   0.365  15.200 -0.9026  0.6028 -0.3660
  639TMC3    O1 9522   2.639   0.185  15.408 -0.4767 -0.1353 -0.2604
  639TMC3    O2 9523   2.242   0.305  15.106  0.8024 -0.2102  0.1246
  640MPD2     C 9524   2.013   4.510  10.017 -0.9077  0.3829  0.1012
  640MPD2    C1 9525   1.929   4.513   9.907 -0.4852  0.9557  0.4635
  640MPD2    C2 9526   1.837   4.626   9.883  0.2709 -0.2946  0.1526
  640MPD2    C3 9527   1.839   4.724   9.984  0.3561 -0.1444 -0.8844
  640MPD2    C4 9528   1.922   4.716  10.087  0.3967 -0.7078  0.1845
  640MPD2    C5 9529   2.008   4.612  10.105  0.0363 -0.2052  0.1920
  640MPD2     H 9530   1.780   4.633   9.792 -0.2458  0.7565  0.5599
  640MPD2    H1 9531   1.919   0.059  10.162  1.1978 -0.2951 -0.2255
  640MPD2    H2 9532   2.083   4.428  10.028  0.0647  0.9801 -1.5599
  640MPD2    H3 9533   2.062   4.619  10.199 -3.2022 -0.8098  2.0760
  640MPD2     N 9534   1.753   0.097   9.984 -0.0275  0.2470 -0.3557
  640MPD2    H5 9535   1.779   0.172  10.048  0.2259 -1.8990  2.0556
  640MPD2    N1 9536   1.927   4.400   9.824 -0.0987 -0.2378  0.1645
  640MPD2    H7 9537   2.000   4.334   9.850 -1.2298 -2.9278 -3.6222
  641TMC3    C1 9538   1.830   4.241   9.668  0.6154 -0.3591 -0.1519
  641TMC3    C2 9539   1.957   4.200   9.641 -0.3697 -0.2629 -0.1072
  641TMC3    C3 9540   1.964   4.091   9.563  1.1697 -0.6422 -0.3845
  641TMC3    C4 9541   1.722   4.176   9.621  0.1758  0.3732 -0.1286
  641TMC3    C5 9542   1.739   4.062   9.540 -0.3005 -0.6493 -0.9965
  641TMC3    C6 9543   1.864   4.014   9.514 -0.6954 -0.1408  0.1570
  641TMC3     C 9544   1.812   4.364   9.750  0.7136 -0.8998 -0.2138
  641TMC3     O 9545   1.696   4.405   9.763  0.1884  0.2476 -0.0389
  641TMC3     H 9546   2.046   4.260   9.649 -0.0760 -0.5512 -1.2533
  641TMC3    H1 9547   1.623   4.206   9.654  0.1089 -0.0834  0.0976
  641TMC3    H2 9548   1.881   3.917   9.471  0.2206 -0.6694  1.7043
  641TMC3    C7 9549   1.624   4.003   9.484  0.2162 -0.3698 -0.0480
  641TMC3    C8 9550   2.087   4.047   9.515 -0.0524 -0.1646 -0.6300
  641TMC3    O1 9551   1.518   4.022   9.544  0.1470  0.1167 -0.7152
  641TMC3    O2 9552   2.088   3.979   9.415  0.4945  0.0494  0.1240
  642TMC3    C1 9553   3.509   0.733  12.759 -0.0384 -1.0394  0.0904
  642TMC3    C2 9554   3.622   0.730  12.839  0.1748  0.3530  0.4011
  642TMC3    C3 9555   3.697   0.615  12.827  0.1889 -0.7283  1.0588
  642TMC3    C4 9556   3.476   0.639  12.665  0.3031  0.2440 -0.3335
  642TMC3    C5 9557   3.562   0.537  12.654 -0.1461  0.3124  0.4343
  642TMC3    C6 9558   3.670   0.518  12.732  0.5141  0.5971  0.0879
  642TMC3     C 9559   3.410   0.826  12.806  0.5693  0.0202  0.0140
  642TMC3     O 9560   3.440   0.885  12.908  0.0908 -0.6555 -0.1716
  642TMC3     H 9561   3.648   0.795  12.922 -1.1428  1.7271 -0.2573
  642TMC3    H1 9562   3.382   0.645  12.612 -0.2764  1.3039  0.8116
  642TMC3    H2 9563   3.737   0.437  12.706 -0.2111  0.3183 -0.8860
  642TMC3    C7 9564   3.520   0.440  12.558  0.1079  0.4635  0.1545
  642TMC3    C8 9565   3.825   0.597  12.908  0.3999 -0.7373  0.2568
  642TMC3    O1 9566   3.451   0.472  12.457  0.1362  0.0857  0.0674
  642TMC3    O2 9567   3.852   0.690  12.987  1.0100 -0.1249  0.3631
  643TMC3    C1 9568   2.679   3.979   0.400  0.1661  1.1314  0.6276
  643TMC3    C2 9569   2.553   4.031   0.376 -0.2996 -0.5171 -0.3147
  643TMC3    C3 9570   2.493   3.994   0.261  0.6461  0.0682 -0.1030
  643TMC3    C4 9571   2.736   3.877   0.329 -0.7965  0.0891  0.7277
  643TMC3    C5 9572   2.658   3.826   0.225  0.2821 -0.7255  1.0105
  643TMC3    C6 9573   2.546   3.886   0.187 -1.2350 -0.2347 -0.4278
  643TMC3     C 9574   2.767   4.072   0.460  0.1056  0.3150  0.4122
  643TMC3     O 9575   2.735   4.188   0.431 -0.1123  0.3716 -0.4063
  643TMC3     H 9576   2.508   4.116   0.426  0.1870  1.4125 -3.1407
  643TMC3    H1 9577   2.827   3.832   0.367  0.6337  2.3350  0.0035
  643TMC3    H2 9578   2.483   3.838   0.113 -1.1409  0.9389 -1.2795
  643TMC3    C7 9579   2.750   3.804   0.117 -0.0630  0.5477 -0.0164
  643TMC3    C8 9580   2.462   4.101   0.171 -0.1877  0.5606  0.4093
  643TMC3    O1 9581   2.852   3.751   0.156 -0.7713  0.2678  0.4930
  643TMC3    O2 9582   2.391   4.086   0.070  0.1161 -1.0006  0.4916
  644MPD2     C 9583   2.087   4.536   9.482 -0.9724  0.0627 -0.1654
  644MPD2    C1 9584   2.114   4.427   9.398  0.0148  0.3183 -0.4764
  644MPD2    C2 9585   2.003   4.358   9.346 -0.0767 -0.2854 -0.1351
  644MPD2    C3 9586   1.871   4.398   9.364  0.5630 -0.4623  0.2894
  644MPD2    C4 9587   1.848   4.499   9.455 -0.2142 -0.0996 -0.3061
  644MPD2    C5 9588   1.953   4.570   9.505  0.1685  0.2709  1.1586
  644MPD2     H 9589   2.033   4.276   9.280 -1.9756 -0.5506 -0.6536
  644MPD2    H1 9590   1.747   4.515   9.491 -0.0621  1.6341 -0.6266
  644MPD2    H2 9591   2.160   4.592   9.538 -1.5513  0.9105 -0.2686
  644MPD2    H3 9592   1.929   4.656   9.567  0.7563 -0.3227  2.2140
  644MPD2     N 9593   1.774   4.320   9.304 -0.1128  0.3506  0.9034
  644MPD2    H5 9594   1.799   4.245   9.241 -1.0112 -0.3504  1.3776
  644MPD2    N1 9595   2.253   4.384   9.383  0.2991  0.6060 -0.0941
  644MPD2    H7 9596   2.321   4.441   9.432 -1.3355  2.9171 -0.5053
  645TMC3    C1 9597   1.557   4.245   9.233  0.8665 -0.0272 -0.3504
  645TMC3    C2 9598   1.430   4.207   9.278 -0.6665  0.0683 -0.5505
  645TMC3    C3 9599   1.363   4.111   9.204  0.2913  0.5983  0.0726
  645TMC3    C4 9600   1.606   4.195   9.114 -0.3643 -0.3210 -0.2290
  645TMC3    C5 9601   1.528   4.118   9.036  0.0420 -0.2345  0.2341
  645TMC3    C6 9602   1.405   4.066   9.084  0.0874  0.3045 -0.1036
  645TMC3     C 9603   1.638   4.336   9.311  0.5387  0.4387  0.3267
  645TMC3     O 9604   1.579   4.395   9.399  0.1659  0.0123  0.6198
  645TMC3     H 9605   1.405   4.244   9.376 -3.4309 -1.9593 -0.5084
  645TMC3    H1 9606   1.704   4.229   9.081 -0.7884 -0.0433 -1.1957
  645TMC3    H2 9607   1.340   4.004   9.023  2.2413  0.4767 -2.5760
  645TMC3    C7 9608   1.606   4.043   8.935  0.0948 -0.4035  0.3494
  645TMC3    C8 9609   1.245   4.052   9.248  0.1099  0.4603  0.0052
  645TMC3    O1 9610   1.729   4.038   8.955 -0.2863  0.1448  0.1713
  645TMC3    O2 9611   1.182   3.984   9.165 -0.0994  0.0369  0.8457
  646MPD2     C 9612   2.355   4.323  14.574  0.0715 -0.1263 -0.5753
  646MPD2    C1 9613   2.281   4.333  14.694 -0.1996 -0.0494 -0.2983
  646MPD2    C2 9614   2.172   4.420  14.698  0.3727 -0.6665 -0.2959
  646MPD2    C3 9615   2.142   4.489  14.578  0.0826 -0.3988  0.1626
  646MPD2    C4 9616   2.217   4.478  14.464 -0.0519  0.3229  0.0450
  646MPD2    C5 9617   2.323   4.389  14.465  0.5392 -0.2671  0.2697
  646MPD2     H 9618   2.104   4.426  14.782  0.6699 -0.7467 -0.0506
  646MPD2    H1 9619   2.202   4.528  14.369  0.5181  1.7491  0.6952
  646MPD2    H2 9620   2.437   4.252  14.565  0.1069 -0.1482 -0.0490
  646MPD2    H3 9621   2.387   4.383  14.378  0.3813 -1.1343  0.2154
  646MPD2     N 9622   2.030   4.572  14.583 -0.5652 -0.2835  0.1103
  646MPD2    H5 9623   1.962   4.569  14.658 -0.5426  1.9453  0.2369
  646MPD2    N1 9624   2.337   4.278  14.812  0.2549  0.2710  0.4397
  646MPD2    H7 9625   2.407   4.206  14.797 -0.6010 -0.6261  0.6685
  647TMC3    C1 9626   2.360   4.228  15.037 -0.0906  0.7185 -0.1200
  647TMC3    C2 9627   2.296   4.221  15.159 -0.0136  0.5967 -0.1154
  647TMC3    C3 9628   2.363   4.178  15.268 -0.2382 -0.3570 -0.3089
  647TMC3    C4 9629   2.487   4.182  15.022  1.0820  0.2654  0.2786
  647TMC3    C5 9630   2.551   4.136  15.135 -0.4009 -0.5006 -0.0467
  647TMC3    C6 9631   2.489   4.125  15.255 -0.1663  0.1058  0.0954
  647TMC3     C 9632   2.294   4.306  14.937  0.3820 -0.0457  0.8056
  647TMC3     O 9633   2.215   4.391  14.977  0.4466  0.0788  0.3717
  647TMC3     H 9634   2.199   4.267  15.171 -0.7697 -0.0085 -4.0243
  647TMC3    H1 9635   2.537   4.198  14.927  1.4379 -1.7532  0.1357
  647TMC3    H2 9636   2.549   4.103  15.343  1.5156  2.4609 -0.4823
  647TMC3    C7 9637   2.688   4.138  15.129  0.4774  0.6891 -0.3408
  647TMC3    C8 9638   2.282   4.149  15.379 -0.5241 -0.3080  0.7497
  647TMC3    O1 9639   2.750   4.055  15.197 -0.1190 -0.0765  0.2483
  647TMC3    O2 9640   2.175   4.209  15.386 -0.3236  0.0784 -1.1872
  648TMC3    C1 9641   1.989   1.677  16.475  0.2934 -0.6067 -0.1056
  648TMC3    C2 9642   2.079   1.576  16.435  0.2564  0.9816 -0.0728
  648TMC3    C3 9643   2.086   1.553  16.303  0.6863 -0.7257 -1.0826
  648TMC3    C4 9644   1.914   1.752  16.385 -0.1633 -0.2297  0.5781
  648TMC3    C5 9645   1.935   1.717  16.252 -0.9353  0.1101  0.3450
  648TMC3    C6 9646   2.020   1.627  16.206  0.1107  0.1867  0.1219
  648TMC3     C 9647   1.935   1.678  16.613 -0.2040 -0.1002  0.2790
  648TMC3     O 9648   1.863   1.777  16.635  0.5709 -0.4461 -1.2211
  648TMC3     H 9649   2.135   1.511  16.501  1.6169 -0.3604 -2.5815
  648TMC3    H1 9650   1.847   1.830  16.418  1.7222  2.3144 -1.6390
  648TMC3    H2 9651   2.010   1.589  16.105 -3.1913  3.2250 -0.6917
  648TMC3    C7 9652   1.841   1.779  16.160 -0.8504  0.3783  0.5073
  648TMC3    C8 9653   2.110   1.418  16.269  1.1231 -0.0685  0.0504
  648TMC3    O1 9654   1.876   1.780  16.044 -0.4468 -0.2142 -0.4944
  648TMC3    O2 9655   2.065   1.336  16.348  0.3449 -0.1657 -0.0979
  649TMC3    C1 9656   0.556   3.335  13.103 -0.5857 -0.0511  0.0086
  649TMC3    C2 9657   0.685   3.377  13.140  0.0094 -0.0464  1.0261
  649TMC3    C3 9658   0.739   3.307  13.240  0.2698 -0.2797 -0.1199
  649TMC3    C4 9659   0.495   3.227  13.162 -0.3143 -0.5722 -0.2847
  649TMC3    C5 9660   0.557   3.159  13.261  0.0039 -0.1768  0.2122
  649TMC3    C6 9661   0.680   3.205  13.308 -0.5081 -0.1130  0.3787
  649TMC3     C 9662   0.468   3.410  13.013 -0.0196 -0.1813  0.1421
  649TMC3     O 9663   0.349   3.394  13.017  0.0007  0.0740 -0.3076
  649TMC3     H 9664   0.714   3.473  13.099  0.1251 -0.9300 -0.9882
  649TMC3    H1 9665   0.395   3.200  13.130  0.4473 -2.9610 -0.6978
  649TMC3    H2 9666   0.731   3.164  13.394 -2.0839 -0.8713  0.9527
  649TMC3    C7 9667   0.472   3.115  13.363  0.0566 -0.3483  0.1378
  649TMC3    C8 9668   0.849   3.379  13.310  0.5331  0.0488 -0.3312
  649TMC3    O1 9669   0.359   3.087  13.332  0.3741  0.1945 -0.0257
  649TMC3    O2 9670   0.873   3.358  13.429  0.2529 -0.4947  0.8795
  650TMC3    C1 9671   2.676   0.035  12.275 -0.9692 -0.0160  0.5256
  650TMC3    C2 9672   2.584   0.039  12.383  0.4087 -0.1585 -0.3754
  650TMC3    C3 9673   2.449   0.068  12.365 -0.7266  0.4960  0.4090
  650TMC3    C4 9674   2.620   0.070  12.153  0.3301  0.1076 -0.2907
  650TMC3    C5 9675   2.489   0.056  12.131  0.1132 -0.0645  0.1646
  650TMC3    C6 9676   2.401   0.064  12.236 -0.5153 -0.1059  0.3580
  650TMC3     C 9677   2.813   0.078  12.300 -0.1937  0.0545  0.7483
  650TMC3     O 9678   2.860   0.187  12.261 -0.2300 -0.0300  0.5545
  650TMC3     H 9679   2.610   0.011  12.485 -1.4680  0.4167  0.2612
  650TMC3    H1 9680   2.685   0.071  12.067  1.3668  3.1525  0.5330
  650TMC3    H2 9681   2.295   0.073  12.219 -0.7073  0.0517  1.6765
  650TMC3    C7 9682   2.429   0.126  12.019 -0.4133  0.1627 -0.4019
  650TMC3    C8 9683   2.412   0.186  12.441 -0.5267 -0.2025 -0.0198
  650TMC3    O1 9684   2.327   0.088  11.971 -0.9655  0.0095  0.0588
  650TMC3    O2 9685   2.504   0.242  12.506 -0.8444 -0.1173  0.0121
  651MPD2     C 9686   1.818   1.800  10.968 -0.1256 -0.3389  0.1002
  651MPD2    C1 9687   1.782   1.935  10.971  0.2666  0.4358 -0.1985
  651MPD2    C2 9688   1.870   2.028  10.911 -0.3531  0.6608 -0.4290
  651MPD2    C3 9689   2.000   1.992  10.869 -0.3194 -1.0064 -0.5238
  651MPD2    C4 9690   2.032   1.857  10.870 -0.1272  0.5124  0.3151
  651MPD2    C5 9691   1.941   1.768  10.919  0.0665  0.7733 -0.4145
  651MPD2     H 9692   1.837   2.131  10.907 -1.1720  0.5381  3.5793
  651MPD2    H1 9693   2.127   1.814  10.837 -0.1929  2.0025 -1.8499
  651MPD2    H2 9694   1.752   1.720  11.001 -0.2819 -0.0497  0.4869
  651MPD2    H3 9695   1.981   1.668  10.933  1.7436  1.2451 -1.8229
  651MPD2     N 9696   2.098   2.094  10.839 -0.4614  0.5534 -0.1733
  651MPD2    H5 9697   2.072   2.184  10.877 -0.0977 -0.5641  2.7404
  651MPD2    N1 9698   1.654   1.985  11.015 -0.4620  0.0560 -0.2463
  651MPD2    H7 9699   1.647   2.086  11.023  2.0362  0.2000  0.1234
  652TMC3    C1 9700   2.531   2.254  10.711 -0.5518 -0.4876  0.4316
  652TMC3    C2 9701   2.449   2.159  10.757 -0.0843  0.0185  0.1947
  652TMC3    C3 9702   2.314   2.185  10.786 -0.3730  0.1331  0.0922
  652TMC3    C4 9703   2.486   2.380  10.702 -1.4478  0.1461  0.0612
  652TMC3    C5 9704   2.355   2.405  10.738  0.4482  0.2883  0.5644
  652TMC3    C6 9705   2.270   2.314  10.789  0.2642  0.2139  0.5175
  652TMC3     C 9706   2.675   2.235  10.736  0.0293  0.5375 -0.4442
  652TMC3     O 9707   2.701   2.140  10.809  0.2252 -0.5383 -0.0983
  652TMC3     H 9708   2.479   2.056  10.773  1.4578  0.6459  1.3170
  652TMC3    H1 9709   2.553   2.461  10.678 -2.4009  1.0869  0.6083
  652TMC3    H2 9710   2.169   2.341  10.816  1.2582  2.9189  1.5369
  652TMC3    C7 9711   2.312   2.542  10.752  0.3762  0.0514 -0.2279
  652TMC3    C8 9712   2.225   2.072  10.794  0.6467  0.4742 -1.3043
  652TMC3    O1 9713   2.240   2.563  10.851 -0.1163 -0.6302  0.3704
  652TMC3    O2 9714   2.279   1.967  10.762  0.4613  0.1352  0.1699
  653MPD2     C 9715   0.781   1.202   0.120  0.2083  0.1671 -0.4769
  653MPD2    C1 9716   0.747   1.252  17.735 -0.2143  0.5187 -0.2310
  653MPD2    C2 9717   0.692   1.163  17.640 -0.0352 -0.0245  0.6126
  653MPD2    C3 9718   0.682   1.027  17.664  0.4263 -0.5005  0.9558
  653MPD2    C4 9719   0.730   0.973   0.040  0.3814 -0.0141 -0.4962
  653MPD2    C5 9720   0.782   1.062   0.135  0.1812 -0.4396 -0.8816
  653MPD2     H 9721   0.661   1.203  17.544  0.6055  1.1595  0.9033
  653MPD2    H1 9722   0.715   0.870   0.072  0.4210  0.2172  0.2681
  653MPD2    H2 9723   0.822   1.257   0.204  0.6899  0.1121 -0.6748
  653MPD2    H3 9724   0.809   1.029   0.234  0.4843  2.2964 -0.0458
  653MPD2     N 9725   0.635   0.937  17.563 -0.9897  0.4406  0.1391
  653MPD2    H5 9726   0.597   0.983  17.481  1.8236  1.9303 -0.3177
  653MPD2    N1 9727   0.755   1.388  17.708 -0.0372  0.0294 -0.0965
  653MPD2    H7 9728   0.713   1.414  17.620 -1.5258 -0.0134  0.5956
  654TMC3    C1 9729   0.564   0.757  17.453  0.2792  0.4493  0.0782
  654TMC3    C2 9730   0.461   0.834  17.402 -0.3883 -0.1077 -0.0971
  654TMC3    C3 9731   0.393   0.792  17.293  0.3337 -0.3284  0.0414
  654TMC3    C4 9732   0.602   0.638  17.399  0.1859  0.7269 -0.7397
  654TMC3    C5 9733   0.538   0.595  17.285  0.0367  0.0416 -0.4672
  654TMC3    C6 9734   0.429   0.669  17.240  0.2331  0.1908  0.0488
  654TMC3     C 9735   0.634   0.803  17.564 -1.0752  0.3247 -0.4703
  654TMC3     O 9736   0.722   0.738  17.618  0.0498 -0.0801  0.1284
  654TMC3     H 9737   0.430   0.930  17.442 -0.9934 -0.1791 -0.4007
  654TMC3    H1 9738   0.683   0.586  17.449  0.4046 -0.0615 -1.9204
  654TMC3    H2 9739   0.394   0.644  17.140 -0.7399 -0.6381  0.5962
  654TMC3    C7 9740   0.544   0.455  17.240  0.2514  0.1793 -0.4948
  654TMC3    C8 9741   0.298   0.880  17.230  0.3631  0.3792  0.0086
  654TMC3    O1 9742   0.449   0.420  17.171 -0.2369 -0.0302 -0.8521
  654TMC3    O2 9743   0.278   0.980  17.289  0.7840  0.3482 -0.1461
  655MPD2     C 9744   2.181   2.006  15.961 -1.1369 -0.0083  0.2331
  655MPD2    C1 9745   2.072   2.096  15.954  0.6027  0.6066 -0.0351
  655MPD2    C2 9746   2.033   2.144  15.832 -0.3290  0.5318  0.4389
  655MPD2    C3 9747   2.101   2.103  15.718  0.2345  0.5617  0.3038
  655MPD2    C4 9748   2.207   2.017  15.731  0.3894 -0.4451 -0.3016
  655MPD2    C5 9749   2.254   1.982  15.852 -0.2276  0.0735  0.3139
  655MPD2     H 9750   1.956   2.220  15.828 -0.8502  0.0160  0.6022
  655MPD2    H1 9751   2.273   1.994  15.649  0.7993  1.4546 -0.4842
  655MPD2    H2 9752   2.217   1.961  16.053  1.9871  1.1754 -0.4271
  655MPD2    H3 9753   2.335   1.910  15.852 -0.2365  0.0478 -1.5609
  655MPD2     N 9754   2.064   2.145  15.587  0.4311 -0.3555 -0.0654
  655MPD2    H5 9755   2.095   2.091  15.507 -1.0505 -1.9430  0.4513
  655MPD2    N1 9756   2.020   2.159  16.065  0.0845  0.3721  0.4304
  655MPD2    H7 9757   1.952   2.232  16.047  1.1925  1.3858  0.2748
  656TMC3    C1 9758   1.966   2.215  16.284 -0.4080 -0.6926  0.4014
  656TMC3    C2 9759   1.872   2.148  16.357 -0.7222 -0.3363 -0.2873
  656TMC3    C3 9760   1.752   2.209  16.371  0.3403  0.6970 -0.3845
  656TMC3    C4 9761   1.929   2.331  16.215  0.6979  0.3462 -0.5891
  656TMC3    C5 9762   1.800   2.375  16.219  0.6767 -0.1455  0.2719
  656TMC3    C6 9763   1.710   2.324  16.305  0.3047 -0.2543  0.5161
  656TMC3     C 9764   2.043   2.129  16.198 -0.2445  0.1962  0.5571
  656TMC3     O 9765   2.101   2.034  16.242 -0.0838  0.7656 -0.2667
  656TMC3     H 9766   1.898   2.052  16.400 -0.2332 -0.0168  0.1268
  656TMC3    H1 9767   1.997   2.390  16.155 -0.0558  0.0292 -1.7536
  656TMC3    H2 9768   1.608   2.360  16.318  1.6912  3.7526  0.2882
  656TMC3    C7 9769   1.772   2.418  16.083 -0.2722 -0.5126 -0.6283
  656TMC3    C8 9770   1.664   2.137  16.462 -0.4480 -0.4862 -0.2519
  656TMC3    O1 9771   1.853   2.390  15.996 -0.0008 -0.4000  0.2724
  656TMC3    O2 9772   1.699   2.019  16.479  0.3077 -0.1166  0.2397
  657TMC3    C1 9773   1.195   1.202  14.881  0.4532  0.5052  0.0602
  657TMC3    C2 9774   1.198   1.305  14.967 -0.6008 -0.5067 -0.3035
  657TMC3    C3 9775   1.226   1.430  14.912  0.6499  0.0752  0.6190
  657TMC3    C4 9776   1.216   1.216  14.750 -0.4670  0.3819  0.1408
  657TMC3    C5 9777   1.243   1.339  14.699  0.1328 -0.2305  0.2395
  657TMC3    C6 9778   1.247   1.453  14.777  0.4584  0.5763  0.5588
  657TMC3     C 9779   1.131   1.076  14.922 -0.2121  0.5700 -0.1352
  657TMC3     O 9780   1.078   1.010  14.837  0.3076 -0.0836  0.7129
  657TMC3     H 9781   1.171   1.291  15.071 -0.4642  0.5695 -0.1239
  657TMC3    H1 9782   1.206   1.128  14.687  0.2832 -1.2479  2.2965
  657TMC3    H2 9783   1.243   1.555  14.740  0.1683  0.0726 -0.8095
  657TMC3    C7 9784   1.257   1.344  14.557 -0.0525  0.0705 -0.6582
  657TMC3    C8 9785   1.249   1.541  15.003  0.1314  0.5364  0.4228
  657TMC3    O1 9786   1.292   1.238  14.502  0.2238  0.4573 -0.0504
  657TMC3    O2 9787   1.286   1.644  14.957  1.1045 -0.3238  0.2018
  658MPD2     C 9788   2.321   1.885  15.121 -0.1034  0.2989  0.4292
  658MPD2    C1 9789   2.234   1.965  15.062  1.1220  0.9396 -0.0126
  658MPD2    C2 9790   2.261   2.006  14.925  0.3472  0.1154  0.6471
  658MPD2    C3 9791   2.368   1.962  14.857 -0.1226 -0.1304 -0.3568
  658MPD2    C4 9792   2.462   1.880  14.922 -0.0640  0.1642 -0.9466
  658MPD2    C5 9793   2.428   1.842  15.049  0.1582 -0.3990  0.3612
  658MPD2     H 9794   2.187   2.063  14.871  1.9116  0.9620 -0.5761
  658MPD2    H1 9795   2.537   1.820  14.872 -0.3671 -1.7751  0.8975
  658MPD2    H2 9796   2.307   1.860  15.226 -1.6395 -2.2887 -0.3966
  658MPD2    H3 9797   2.490   1.768  15.098  0.3296 -0.6210 -0.1926
  658MPD2     N 9798   2.390   1.987  14.724  0.1421 -0.1167  0.5415
  658MPD2    H5 9799   2.312   2.023  14.669  1.7292  0.3608 -1.4026
  658MPD2    N1 9800   2.127   2.012  15.137 -0.7243 -0.1025  0.7256
  658MPD2    H7 9801   2.127   1.986  15.235  1.2084  1.5025  1.1563
  659TMC3    C1 9802   1.943   2.152  15.189 -0.6807  0.0226 -0.3894
  659TMC3    C2 9803   2.011   2.195  15.304  0.5947 -0.0280 -0.0778
  659TMC3    C3 9804   1.945   2.258  15.409  0.7538  0.0302  0.0488
  659TMC3    C4 9805   1.810   2.191  15.173  0.2383  0.5085  0.4991
  659TMC3    C5 9806   1.745   2.254  15.276  0.5326 -0.0542  0.0042
  659TMC3    C6 9807   1.811   2.279  15.396  0.4757  0.0871 -0.1418
  659TMC3     C 9808   2.025   2.093  15.086 -0.8474 -0.1618 -0.2946
  659TMC3     O 9809   2.012   2.145  14.977  0.2362 -0.5049 -0.5063
  659TMC3     H 9810   2.118   2.184  15.318  0.7433  2.0235  0.3899
  659TMC3    H1 9811   1.744   2.160  15.093 -0.5190  0.7326  1.0330
  659TMC3    H2 9812   1.771   2.325  15.486  2.6453  1.3441  0.1846
  659TMC3    C7 9813   1.610   2.214  15.288  0.3841 -0.1044 -0.3211
  659TMC3    C8 9814   1.994   2.259  15.548 -0.0753 -0.5820 -0.5905
  659TMC3    O1 9815   1.540   2.259  15.201  0.1749  0.0011 -0.1962
  659TMC3    O2 9816   1.940   2.344  15.617 -0.0493  0.2391  0.1983
  660MPD2     C 9817   4.486   1.204  13.221  0.2556  0.3846 -0.4212
  660MPD2    C1 9818   4.375   1.132  13.177  0.4674  0.2076 -0.7835
  660MPD2    C2 9819   4.350   1.005  13.230  0.3602 -0.4323  1.1418
  660MPD2    C3 9820   4.435   0.961  13.337  0.4083 -0.5450  0.2152
  660MPD2    C4 9821   4.546   1.036  13.379 -0.8007 -0.4898  0.7045
  660MPD2    C5 9822   4.572   1.156  13.316 -0.0327  0.0098 -0.0643
  660MPD2     H 9823   4.268   0.943  13.197  0.1835 -0.8479  2.3705
  660MPD2    H1 9824   4.624   1.000  13.444 -0.5081 -0.0566  0.5962
  660MPD2    H2 9825   4.515   1.303  13.186  0.3173 -0.3946 -2.5391
  660MPD2    H3 9826   4.652   1.221  13.351 -1.4796  2.2624 -0.9727
  660MPD2     N 9827   4.411   0.846  13.415  0.1228  0.2527  1.0354
  660MPD2    H5 9828   4.478   0.817  13.486 -0.8303 -3.0905  0.5723
  660MPD2    N1 9829   4.287   1.195  13.082  0.8658  0.6533  0.5119
  660MPD2    H7 9830   4.297   1.296  13.077 -0.7481  0.8498  1.4968
  661TMC3    C1 9831   4.105   1.250  12.944 -0.2024 -0.7168 -0.9256
  661TMC3    C2 9832   4.167   1.354  12.876  0.1081  0.8146  0.2424
  661TMC3    C3 9833   4.088   1.440  12.800  0.5849 -0.1644 -0.6697
  661TMC3    C4 9834   3.972   1.225  12.937  0.0512 -0.4630  0.2156
  661TMC3    C5 9835   3.892   1.315  12.866  0.3294 -0.1464 -0.0233
  661TMC3    C6 9836   3.957   1.418  12.798 -0.1931 -0.1989  0.4096
  661TMC3     C 9837   4.173   1.145  13.026  0.0433 -0.0963 -0.0259
  661TMC3     O 9838   4.145   1.029  13.007  0.2382 -0.2609 -0.0564
  661TMC3     H 9839   4.274   1.371  12.883  0.1560  0.0554  1.2999
  661TMC3    H1 9840   3.935   1.130  12.974  1.1902 -0.8705  0.3062
  661TMC3    H2 9841   3.895   1.491  12.747  1.0364  0.7311  0.2527
  661TMC3    C7 9842   3.789   1.247  12.796 -0.0025  0.1070 -0.2324
  661TMC3    C8 9843   4.134   1.520  12.692 -0.3435 -0.5632 -0.2815
  661TMC3    O1 9844   3.685   1.307  12.772 -0.2172 -0.7225  0.5535
  661TMC3    O2 9845   4.068   1.621  12.658 -0.4160  0.5683 -0.2381
  662MPD2     C 9846   0.452   4.563  17.414 -0.3289  0.6106  0.2666
  662MPD2    C1 9847   0.522   4.481  17.500 -0.4577 -0.5320  0.2379
  662MPD2    C2 9848   0.507   4.487  17.641 -0.0091  0.2833 -0.3354
  662MPD2    C3 9849   0.413   4.570  17.695 -0.3109  0.0921 -0.2641
  662MPD2    C4 9850   0.352   4.667  17.612 -0.4184  0.3923  0.7423
  662MPD2    C5 9851   0.383   4.667  17.475  0.1185 -0.2415 -1.3979
  662MPD2     H 9852   0.563   4.414  17.698 -1.1722 -0.5835 -0.2961
  662MPD2    H1 9853   0.288   0.010  17.651 -2.0495 -0.8362  0.5328
  662MPD2    H2 9854   0.446   4.555  17.306  0.0853 -0.5227  0.3294
  662MPD2    H3 9855   0.343   4.732  17.399  1.4420 -0.1314 -1.9946
  662MPD2     N 9856   0.389   4.585   0.088 -0.1114 -0.1951 -0.4601
  662MPD2    H5 9857   0.342   4.670   0.117 -1.4609 -1.0574 -0.1167
  662MPD2    N1 9858   0.623   4.390  17.454  0.0059  0.6804 -0.3961
  662MPD2    H7 9859   0.657   4.322  17.521 -0.3289 -1.3433 -2.2709
  663TMC3    C1 9860   0.712   4.221  17.319 -0.2994 -0.4877 -0.5572
  663TMC3    C2 9861   0.748   4.195  17.450  0.0898 -0.2328 -0.4034
  663TMC3    C3 9862   0.738   4.062  17.490 -0.1945 -0.0045  0.1848
  663TMC3    C4 9863   0.650   4.139  17.235 -0.8427  0.1884 -0.0344
  663TMC3    C5 9864   0.623   4.025  17.289  0.1032  0.3915  0.7397
  663TMC3    C6 9865   0.665   3.982  17.417  0.2144  0.0321 -0.7895
  663TMC3     C 9866   0.647   4.349  17.326 -0.2015 -0.1403 -1.0751
  663TMC3     O 9867   0.608   4.401  17.223 -0.0504  0.4289 -0.0127
  663TMC3     H 9868   0.838   4.241  17.486 -0.1205 -0.3099  0.2146
  663TMC3    H1 9869   0.590   4.166  17.149 -0.1284  0.4679 -0.4373
  663TMC3    H2 9870   0.684   3.876  17.431 -0.6318  0.0045  0.1754
  663TMC3    C7 9871   0.615   3.922  17.184  0.4007 -0.5402 -0.4572
  663TMC3    C8 9872   0.702   4.063  17.635 -0.0967  0.1158  0.4228
  663TMC3    O1 9873   0.657   3.955  17.074 -0.4126 -0.1699  0.2839
  663TMC3    O2 9874   0.724   4.171  17.689  0.2975  0.9148 -0.3049
  664MPD2     C 9875   2.343   3.262  17.542 -0.8912  0.1269  0.5794
  664MPD2    C1 9876   2.463   3.203  17.540 -1.2043 -0.3277 -0.2026
  664MPD2    C2 9877   2.491   3.085  17.612 -0.2381  0.9028  0.8583
  664MPD2    C3 9878   2.393   3.023  17.693 -0.3727 -0.1698  0.0280
  664MPD2    C4 9879   2.269   3.080  17.695  0.5905  0.3978 -0.1820
  664MPD2    C5 9880   2.247   3.194  17.619 -0.4501  0.4252 -1.0715
  664MPD2     H 9881   2.588   3.039  17.599 -0.7703 -0.0743  0.3380
  664MPD2    H1 9882   2.179   3.042   0.002  0.8891  0.8019  0.6835
  664MPD2    H2 9883   2.307   3.350  17.490  0.2865  0.2324 -0.0655
  664MPD2    H3 9884   2.151   3.243  17.621 -0.1606  1.0364 -1.7334
  664MPD2     N 9885   2.431   2.902   0.025  0.5368  0.1825  0.6618
  664MPD2    H5 9886   2.524   2.867   0.009  0.0909 -0.6569 -0.0311
  664MPD2    N1 9887   2.555   3.259  17.445 -0.3921 -0.2229  0.1964
  664MPD2    H7 9888   2.527   3.339  17.389  1.9445  2.3911  2.7474
  665TMC3    C1 9889   2.391   2.735   0.191  0.2320  0.4788  0.4894
  665TMC3    C2 9890   2.299   2.641   0.232  0.0939 -0.0339  0.1745
  665TMC3    C3 9891   2.343   2.525   0.286  0.2883 -0.0586 -0.4126
  665TMC3    C4 9892   2.528   2.722   0.212 -0.2736  0.0242 -0.0897
  665TMC3    C5 9893   2.565   2.605   0.273  0.0184 -0.0531  0.5141
  665TMC3    C6 9894   2.478   2.501   0.304  0.2853  0.0408  0.0589
  665TMC3     C 9895   2.335   2.830   0.094 -0.4431 -0.1882 -0.0904
  665TMC3     O 9896   2.211   2.836   0.088  0.1061 -0.0654  0.2786
  665TMC3     H 9897   2.195   2.656   0.205  0.5217  2.0100 -0.3356
  665TMC3    H1 9898   2.598   2.803   0.194 -0.2095  0.2230  1.0577
  665TMC3    H2 9899   2.510   2.410   0.353  2.7998  1.0172  0.2306
  665TMC3    C7 9900   2.703   2.589   0.325  0.3825 -0.1213 -0.3048
  665TMC3    C8 9901   2.266   2.450   0.384 -0.0955  0.0481  0.5286
  665TMC3    O1 9902   2.753   2.477   0.309 -0.1997  0.1347 -0.2569
  665TMC3    O2 9903   2.328   2.382   0.465  0.0240 -0.2675  0.3065
  666TMC3    C1 9904   1.865   3.022  10.195 -0.6027  0.1045  0.1547
  666TMC3    C2 9905   1.923   2.946  10.095  0.4717 -0.6860  0.6809
  666TMC3    C3 9906   1.954   3.002   9.973 -0.0981 -0.2389  0.4813
  666TMC3    C4 9907   1.842   3.157  10.183  0.1285 -0.3145 -0.0750
  666TMC3    C5 9908   1.884   3.218  10.064  0.3655  0.1069 -0.2998
  666TMC3    C6 9909   1.936   3.137   9.962  0.7003 -0.5120 -0.0943
  666TMC3     C 9910   1.882   2.985  10.339  0.8875 -0.1074  0.0148
  666TMC3     O 9911   1.907   3.070  10.424  0.0833  0.3221 -0.2329
  666TMC3     H 9912   1.947   2.843  10.121  1.1849 -0.6588  0.1394
  666TMC3    H1 9913   1.793   3.206  10.266 -0.8607 -4.1924  1.6321
  666TMC3    H2 9914   1.951   3.185   9.866 -1.1444 -1.5369 -0.9116
  666TMC3    C7 9915   1.896   3.363  10.058 -0.2696  0.6743  0.0174
  666TMC3    C8 9916   1.957   2.911   9.859  0.5270  0.0764  0.0975
  666TMC3    O1 9917   1.872   3.426  10.160  0.2999 -0.4396 -0.4517
  666TMC3    O2 9918   1.895   2.804   9.876 -0.2996  0.5566 -0.0781
  667MPD2     C 9919   3.786   4.171  14.761  0.6378  0.8074 -0.3475
  667MPD2    C1 9920   3.846   4.079  14.842 -0.2578 -0.1122  0.1538
  667MPD2    C2 9921   3.784   3.955  14.849  0.2015 -0.1137 -0.0595
  667MPD2    C3 9922   3.657   3.924  14.790  0.1060  0.0573  0.5467
  667MPD2    C4 9923   3.602   4.018  14.705  0.9537 -0.0146  0.8273
  667MPD2    C5 9924   3.668   4.137  14.694 -0.0470  0.2039 -0.1425
  667MPD2     H 9925   3.838   3.880  14.905 -0.3123  0.3680  1.0845
  667MPD2    H1 9926   3.505   3.999  14.660  0.5200  1.7098  1.0354
  667MPD2    H2 9927   3.823   4.272  14.749  0.8957  0.7232 -0.2493
  667MPD2    H3 9928   3.628   4.202  14.617 -1.0483 -0.4468 -0.1707
  667MPD2     N 9929   3.601   3.804  14.789  0.0935  0.1190 -0.1487
  667MPD2    H5 9930   3.521   3.792  14.728 -1.8661 -0.8360  2.5788
  667MPD2    N1 9931   3.969   4.098  14.912 -0.3664 -0.5368 -0.5282
  667MPD2    H7 9932   4.017   4.011  14.932  0.1100 -0.0866  0.2785
  668TMC3    C1 9933   4.165   4.201  14.982  0.6139 -0.2387 -0.5344
  668TMC3    C2 9934   4.248   4.309  14.964  0.9241  0.4362  0.4764
  668TMC3    C3 9935   4.359   4.330  15.038  0.3861  0.6892  0.4478
  668TMC3    C4 9936   4.182   4.124  15.091  0.1741 -0.3193  0.1829
  668TMC3    C5 9937   4.292   4.149  15.173 -0.7689  1.0201  0.2673
  668TMC3    C6 9938   4.386   4.247  15.142  0.2484 -0.1039 -0.0538
  668TMC3     C 9939   4.036   4.218  14.926 -0.3225  0.3460 -0.1921
  668TMC3     O 9940   3.996   4.330  14.904 -0.3299 -0.2232 -0.1121
  668TMC3     H 9941   4.227   4.374  14.880 -0.6338  0.2789  0.7338
  668TMC3    H1 9942   4.113   4.044  15.117  0.7563 -1.2605 -1.1406
  668TMC3    H2 9943   4.474   4.261  15.204 -1.3493 -0.0785  2.2061
  668TMC3    C7 9944   4.316   4.076  15.295  0.1704 -1.0535 -0.4868
  668TMC3    C8 9945   4.460   4.425  14.991 -0.0487  0.0894  0.1315
  668TMC3    O1 9946   4.422   4.040  15.338  0.3992 -0.2483 -0.2592
  668TMC3    O2 9947   4.550   4.465  15.066  0.1031  0.2720 -0.4582
  669TMC3    C1 9948   1.910   3.314  15.226  0.3824 -0.4948 -0.4939
  669TMC3    C2 9949   1.797   3.361  15.166 -0.0353  0.3527 -0.1818
  669TMC3    C3 9950   1.807   3.474  15.092  0.5385  0.4437  0.9061
  669TMC3    C4 9951   2.037   3.356  15.203  0.7289  0.7846  0.2793
  669TMC3    C5 9952   2.044   3.462  15.107  0.1301 -0.2686 -0.5298
  669TMC3    C6 9953   1.932   3.516  15.049  0.3204 -0.3429  0.2942
  669TMC3     C 9954   1.890   3.199  15.311  0.5068 -0.1445  0.5387
  669TMC3     O 9955   1.774   3.167  15.339  0.1053 -0.3554 -0.5144
  669TMC3     H 9956   1.695   3.330  15.185 -0.0955  1.9392  2.0697
  669TMC3    H1 9957   2.117   3.312  15.261  1.2691  1.5002  0.0700
  669TMC3    H2 9958   1.941   3.592  14.973  1.1041  0.0822  0.8098
  669TMC3    C7 9959   2.173   3.492  15.050 -0.2934  0.1692  0.1374
  669TMC3    C8 9960   1.692   3.498  15.003 -0.3339 -0.4918 -0.5311
  669TMC3    O1 9961   2.186   3.607  15.006  0.3240 -0.5401  0.4859
  669TMC3    O2 9962   1.621   3.405  14.977 -0.0535 -0.0340  0.1084
  670MPD2     C 9963   0.184   1.200  14.130  0.1160  0.4709  0.3639
  670MPD2    C1 9964   0.296   1.112  14.153  0.1791  0.0957  0.2482
  670MPD2    C2 9965   0.315   1.074  14.285 -0.6456 -0.1145  0.7164
  670MPD2    C3 9966   0.229   1.112  14.389  0.1607  0.0447  0.4178
  670MPD2    C4 9967   0.122   1.192  14.360  0.0924 -0.0507 -0.1573
  670MPD2    C5 9968   0.094   1.237  14.231  0.2500 -0.5674  0.7130
  670MPD2     H 9969   0.392   1.001  14.303 -1.6869 -1.4407 -0.1541
  670MPD2    H1 9970   0.055   1.218  14.441 -0.0976  2.3687 -1.0753
  670MPD2    H2 9971   0.156   1.243  14.035  0.0939 -0.6217 -0.1197
  670MPD2    H3 9972   0.003   1.287  14.199  1.0746 -0.7099 -1.8966
  670MPD2     N 9973   0.231   1.045  14.519 -0.3466  0.3449 -0.5049
  670MPD2    H5 9974   0.324   1.010  14.538 -1.0801 -1.8127 -0.8433
  670MPD2    N1 9975   0.391   1.084  14.053  0.1023 -0.2771  0.3578
  670MPD2    H7 9976   0.475   1.033  14.078 -0.4264 -1.2411  0.1727
  671TMC3    C1 9977   0.167   0.928  14.699 -0.1164 -0.5347  0.0233
  671TMC3    C2 9978   0.297   0.940  14.720  0.7809  0.4415 -0.2409
  671TMC3    C3 9979   0.370   0.828  14.735  0.1983  0.3401  0.8889
  671TMC3    C4 9980   0.112   0.804  14.679 -0.5078 -0.3770 -0.2525
  671TMC3    C5 9981   0.191   0.694  14.691 -0.5413  0.0376 -0.6258
  671TMC3    C6 9982   0.323   0.699  14.724 -0.8472  0.8648  0.4639
  671TMC3     C 9983   0.124   1.014  14.599  0.3107 -0.0285 -0.1559
  671TMC3     O 9984   0.002   1.031  14.590 -0.2240 -0.1221  0.5710
  671TMC3     H 9985   0.335   1.038  14.746 -1.6224  0.8355  1.8161
  671TMC3    H1 9986   0.019   0.799  14.625 -1.4870  0.4362  1.3440
  671TMC3    H2 9987   0.387   0.611  14.720  1.5991  2.5583  2.2258
  671TMC3    C7 9988   0.175   0.612  14.579  0.1579  0.2498 -0.3122
  671TMC3    C8 9989   0.506   0.843  14.695 -0.1140 -0.0669 -0.1179
  671TMC3    O1 9990   0.254   0.637  14.485 -0.6909 -0.1473  0.2978
  671TMC3    O2 9991   0.525   0.923  14.601  0.1231 -0.0200 -0.4031
  672MPD2     C 9992   0.472   0.930   0.266 -0.1794 -0.8649 -0.2266
  672MPD2    C1 9993   0.550   0.844   0.349  0.0685 -0.1753  0.5345
  672MPD2    C2 9994   0.628   0.904   0.448  0.3416 -0.0370 -0.3847
  672MPD2    C3 9995   0.626   1.044   0.466 -0.6770 -0.3299  0.6048
  672MPD2    C4 9996   0.542   1.125   0.389 -0.6712 -0.3091 -0.1295
  672MPD2    C5 9997   0.469   1.069   0.284 -0.3148 -0.5068  0.1102
  672MPD2     H 9998   0.677   0.835   0.516  1.8109 -0.6634 -2.0889
  672MPD2    H1 9999   0.534   1.232   0.403  0.1222 -0.2831  0.1411
  672MPD2    H210000   0.423   0.890   0.178  2.1095 -1.9650 -0.9849
  672MPD2    H310001   0.408   1.127   0.215  1.0365 -0.2407 -0.8720
  672MPD2     N10002   0.710   1.106   0.561  0.2902 -0.1874  0.1578
  672MPD2    H510003   0.720   1.207   0.560  3.0056 -0.4467  0.6638
  672MPD2    N110004   0.555   0.705   0.343 -0.1581 -0.9654 -0.1925
  672MPD2    H710005   0.606   0.655   0.415  0.5478  0.1475  0.0796
  673TMC3    C110006   0.440   0.512   0.345  0.0584 -0.7510  0.3876
  673TMC3    C210007   0.531   0.410   0.327  0.3056 -0.0484 -0.2301
  673TMC3    C310008   0.573   0.350   0.440  0.7023  1.2166 -0.7238
  673TMC3    C410009   0.406   0.557   0.470 -0.1375  0.0597  0.2023
  673TMC3    C510010   0.464   0.501   0.578 -0.6157 -0.2245  0.0199
  673TMC3    C610011   0.531   0.384   0.560  0.9386 -0.0070  0.1283
  673TMC3     C10012   0.466   0.629   0.270 -0.7691  0.3362 -1.0931
  673TMC3     O10013   0.375   0.669   0.195  0.2470  0.4746  0.1015
  673TMC3     H10014   0.556   0.370   0.229 -2.2149 -0.4197 -0.7026
  673TMC3    H110015   0.333   0.637   0.476  0.1059  0.2855  0.1715
  673TMC3    H210016   0.566   0.334   0.649 -1.9020 -1.4579  0.4367
  673TMC3    C710017   0.471   0.574   0.700  0.5204  0.4628 -0.1710
  673TMC3    C810018   0.690   0.263   0.414  0.9938  0.1928  0.1859
  673TMC3    O110019   0.511   0.504   0.794 -0.5225 -0.0372 -0.0155
  673TMC3    O210020   0.695   0.215   0.301  0.7030  0.0313  0.2954
  674MPD2     C10021   0.374   0.325  17.476  0.1317 -0.3394  0.3118
  674MPD2    C110022   0.453   0.378  17.575  0.3353 -0.5532  0.3875
  674MPD2    C210023   0.417   0.495  17.632 -0.3608 -0.0663 -0.1120
  674MPD2    C310024   0.315   0.576  17.582  0.0270  0.6613 -0.5126
  674MPD2    C410025   0.242   0.532  17.474 -0.1770  0.1751 -0.2868
  674MPD2    C510026   0.272   0.406  17.428 -0.0036 -0.4132  0.0643
  674MPD2     H10027   0.463   0.533  17.723 -2.3710  0.0097  0.8924
  674MPD2    H110028   0.155   0.584  17.435 -0.3329  0.2615  0.1802
  674MPD2    H210029   0.402   0.234  17.424 -1.8041 -1.1602  0.7458
  674MPD2    H310030   0.222   0.354  17.347  1.3942 -1.1802 -0.2986
  674MPD2     N10031   0.271   0.676  17.664  0.4605  0.0306 -0.9495
  674MPD2    H510032   0.317   0.681   0.012  0.0363 -0.4725 -0.7006
  674MPD2    N110033   0.567   0.306  17.614 -0.3230 -0.0658  0.1224
  674MPD2    H710034   0.587   0.215  17.575 -0.0459  0.3716 -0.7555
  675TMC3    C110035   0.761   0.259  17.730  0.3524  0.3209  0.2719
  675TMC3    C210036   0.721   0.126  17.741  0.8149  0.1141  0.2098
  675TMC3    C310037   0.818   0.034   0.024  0.2166 -0.1857 -0.1587
  675TMC3    C410038   0.884   0.308   0.027  0.0585 -0.4622 -0.3339
  675TMC3    C510039   0.980   0.213   0.049 -0.7641 -0.0018 -0.4106
  675TMC3    C610040   0.944   0.081   0.059 -0.4126 -0.2035 -0.6046
  675TMC3     C10041   0.665   0.361  17.687 -0.2110  0.0594  0.8054
  675TMC3     O10042   0.678   0.473  17.728 -0.1345 -0.0057 -0.4342
  675TMC3     H10043   0.624   0.081  17.725  1.1926 -1.4009  2.1535
  675TMC3    H110044   0.906   0.414   0.023 -0.8256 -0.1754  2.0001
  675TMC3    H210045   1.008   0.001   0.095 -0.1045 -1.2134 -3.3980
  675TMC3    C710046   1.084   0.239   0.136 -0.2599 -0.6633  0.1251
  675TMC3    C810047   0.781   4.644   0.073  0.3775  0.0712 -0.0959
  675TMC3    O110048   1.181   0.169   0.113 -0.1269  0.0929  0.2626
  675TMC3    O210049   0.864   4.555   0.063  0.0217  0.1446  0.3609
  676MPD2     C10050   3.198   4.681  11.265  0.3335  0.7324 -0.0259
  676MPD2    C110051   3.103   4.601  11.323  0.7522  0.0510  0.1653
  676MPD2    C210052   3.123   4.464  11.332 -0.4237  0.6825  0.7482
  676MPD2    C310053   3.240   4.407  11.294  0.0920 -0.7247 -0.3949
  676MPD2    C410054   3.330   4.485  11.224  0.0945 -0.1340  0.4946
  676MPD2    C510055   3.311   4.622  11.211  0.4725  0.5335 -0.1159
  676MPD2     H10056   3.053   4.410  11.396 -0.2544 -0.9427 -0.4413
  676MPD2    H110057   3.423   4.449  11.181  1.0486 -0.6094  2.9801
  676MPD2    H210058   3.200   0.053  11.255 -2.4815  1.0428  2.7126
  676MPD2    H310059   3.373   4.680  11.144 -0.9429  1.5548 -0.5098
  676MPD2     N10060   3.281   4.274  11.325  0.0793 -0.0215  0.5157
  676MPD2    H510061   3.363   4.235  11.280  1.5424  3.7511 -0.0815
  676MPD2    N110062   2.983   4.660  11.379  0.0816 -0.6407  0.1759
  676MPD2    H710063   2.932   4.584  11.424 -0.7293  0.8417  1.7602
  677TMC3    C110064   2.825   0.086  11.458 -0.1815  0.5618 -0.2591
  677TMC3    C210065   2.721   4.733  11.479  0.1605 -0.6065 -0.0230
  677TMC3    C310066   2.648   0.003  11.592  0.0751 -0.1518 -0.3667
  677TMC3    C410067   2.849   0.183  11.550 -0.2655  0.0104  0.0084
  677TMC3    C510068   2.767   0.193  11.655  0.4352  0.1270 -0.0249
  677TMC3    C610069   2.663   0.104  11.682 -0.3421 -0.4411  0.8008
  677TMC3     C10070   2.949   0.059  11.386 -0.4292  0.0473  0.0482
  677TMC3     O10071   3.033   0.144  11.370  0.6147 -0.1758 -0.6240
  677TMC3     H10072   2.709   4.643  11.419 -0.7299 -2.0077  2.2640
  677TMC3    H110073   2.920   0.260  11.521 -0.4846 -0.2130 -1.1474
  677TMC3    H210074   2.597   0.114  11.767  1.7642  0.3968  2.3164
  677TMC3    C710075   2.824   0.247  11.774  0.5045 -0.5825  0.6436
  677TMC3    C810076   2.542   4.646  11.596  0.0398  0.1053 -1.3030
  677TMC3    O110077   2.763   0.243  11.881 -0.3976 -0.3114  0.0898
  677TMC3    O210078   2.472   4.666  11.498  0.6336  0.0285 -0.6535
  678MPD2     C10079   4.695   3.086   0.805  0.3150  0.3000 -0.2930
  678MPD2    C110080   4.622   2.976   0.809  0.0202 -0.3311 -0.6372
  678MPD2    C210081   4.482   2.991   0.812  0.3230 -0.0445  0.5630
  678MPD2    C310082   4.419   3.107   0.811 -0.6146 -0.3271  0.3989
  678MPD2    C410083   4.496   3.225   0.809  0.1177 -0.3512 -0.4023
  678MPD2    C510084   4.632   3.214   0.814 -0.3971 -0.5133 -0.4265
  678MPD2     H10085   4.429   2.896   0.818 -0.4170  0.1756 -2.3691
  678MPD2    H110086   4.446   3.321   0.807 -1.7342 -1.3004  0.6229
  678MPD2    H210087   0.066   3.076   0.794  0.2083 -1.1589  0.0110
  678MPD2    H310088   4.687   3.306   0.803  0.3270 -0.5901  2.4140
  678MPD2     N10089   4.276   3.107   0.818  0.5107  0.1105 -0.4729
  678MPD2    H510090   4.238   3.014   0.831 -1.5086  1.2019  1.3961
  678MPD2    N110091   4.677   2.845   0.798 -0.0495  0.2231  0.3970
  678MPD2    H710092   4.616   2.765   0.786 -0.8547  0.9156 -0.1780
  679TMC3    C110093   0.300   2.544   0.818  0.3667  0.7612 -0.7005
  679TMC3    C210094   0.222   2.639   0.883  0.0309 -0.0878 -0.7589
  679TMC3    C310095   0.103   2.672   0.828 -0.0365 -0.1316 -0.3676
  679TMC3    C410096   0.275   2.495   0.695  0.2803  0.4436 -0.7234
  679TMC3    C510097   0.148   2.525   0.645  0.5177  0.5796 -0.0756
  679TMC3    C610098   0.066   2.609   0.713 -0.4719  0.0046  0.3588
  679TMC3     C10099   0.442   2.544   0.848  0.6263 -0.0391 -0.3252
  679TMC3     O10100   0.513   2.442   0.837 -0.4454  0.3356  0.1694
  679TMC3     H10101   0.243   2.686   0.978  0.2843  0.1243 -0.9186
  679TMC3    H110102   0.349   2.442   0.637  0.5084  1.7118 -1.5819
  679TMC3    H210103   4.720   2.644   0.651  0.7926  0.8743 -0.8367
  679TMC3    C710104   0.173   2.549   0.508 -0.1960  0.7398  0.1891
  679TMC3    C810105   0.067   2.808   0.845  0.4521 -0.9121 -0.5960
  679TMC3    O110106   0.232   2.465   0.442 -0.2111  0.0492 -0.1289
  679TMC3    O210107   0.161   2.885   0.878 -0.2423 -0.0555 -0.0932
  680MPD2     C10108   4.392   3.709  13.779  0.3783 -0.3573 -0.3024
  680MPD2    C110109   4.503   3.630  13.803 -0.4104 -0.6982 -0.7073
  680MPD2    C210110   4.618   3.678  13.856 -0.0924  0.2529  0.2332
  680MPD2    C310111   4.622   3.814  13.888  0.1948  0.6419 -0.6732
  680MPD2    C410112   4.516   3.891  13.864 -0.1507 -0.8387  0.4388
  680MPD2    C510113   4.406   3.844  13.814  0.1082 -0.4739  0.2013
  680MPD2     H10114   4.711   3.623  13.868  0.2570  1.2717  2.2012
  680MPD2    H110115   4.529   3.997  13.882  0.8280 -0.8112 -0.4478
  680MPD2    H210116   4.299   3.660  13.753 -0.9426  2.3070 -0.6218
  680MPD2    H310117   4.321   3.912  13.809 -1.8343 -2.8663  0.8723
  680MPD2     N10118   0.006   3.865  13.937  0.1118 -0.3128 -0.1290
  680MPD2    H510119   0.006   3.967  13.935  1.2010 -0.3076  0.2757
  680MPD2    N110120   4.487   3.491  13.785  0.1437  0.4037  0.2179
  680MPD2    H710121   4.394   3.461  13.758  0.1046 -0.9807  1.8537
  681TMC3    C110122   4.540   3.269  13.819  0.0435 -0.2883 -0.0354
  681TMC3    C210123   4.459   3.248  13.930  0.4223 -0.4744 -0.2899
  681TMC3    C310124   4.497   3.160  14.030  0.0956 -1.0761  1.0916
  681TMC3    C410125   4.645   3.186  13.797  0.2505 -0.1592  0.2697
  681TMC3    C510126   4.675   3.091  13.891 -0.1839 -0.0668  0.5022
  681TMC3    C610127   4.606   3.076  14.011  0.3118 -0.6578  0.4993
  681TMC3     C10128   4.587   3.403  13.810 -0.0855 -0.3741 -0.5213
  681TMC3     O10129   4.707   3.405  13.828 -0.1124 -0.4934  0.4677
  681TMC3     H10130   4.375   3.313  13.951  0.8260 -0.0632  0.0399
  681TMC3    H110131   4.695   3.185  13.701  1.2708 -0.1972  0.7960
  681TMC3    H210132   4.638   3.004  14.085 -0.1143 -0.9165  0.4293
  681TMC3    C710133   0.075   3.028  13.886  0.1468 -0.2575 -0.3783
  681TMC3    C810134   4.441   3.171  14.158 -0.0771  0.1910  0.3669
  681TMC3    O110135   0.111   2.958  13.977  0.1582  0.1314 -0.3817
  681TMC3    O210136   4.321   3.188  14.180  0.6287 -0.1988 -0.1267
  682MPD2     C10137   2.144   4.649  10.544 -0.1367  0.2170  0.6107
  682MPD2    C110138   2.095   4.551  10.626 -0.0875  0.4141  0.1740
  682MPD2    C210139   2.049   4.592  10.751 -0.6682  0.2163 -0.0565
  682MPD2    C310140   2.072   4.722  10.798 -0.0539  0.4499 -0.1155
  682MPD2    C410141   2.137   0.076  10.714 -0.3500  0.4297  0.1188
  682MPD2    C510142   2.170   0.037  10.587 -0.1103  0.7153 -0.1780
  682MPD2     H10143   1.997   4.521  10.814  0.9906  0.2396  1.3354
  682MPD2    H110144   2.147   0.179  10.746 -1.8251  0.5178  0.2999
  682MPD2    H210145   2.177   4.630  10.442 -1.0105 -0.5155  0.4575
  682MPD2    H310146   2.221   0.108  10.522  3.5581 -1.6987  0.0947
  682MPD2     N10147   2.024   0.039  10.920 -0.1656 -0.0176  0.4116
  682MPD2    H510148   2.071   0.117  10.963 -0.5649  0.7556 -0.5769
  682MPD2    N110149   2.074   4.420  10.575 -0.0993  0.3225  0.7292
  682MPD2    H710150   2.016   4.360  10.633 -0.8135  0.2166 -0.0888
  683TMC3    C110151   1.922   0.202  11.281  0.7727 -0.1477  0.3333
  683TMC3    C210152   1.837   0.137  11.366 -0.5217 -0.5157  0.3506
  683TMC3    C310153   1.797   0.017  11.327  0.0860  0.0514 -0.4787
  683TMC3    C410154   1.965   0.148  11.161 -0.8492 -0.0791 -0.4429
  683TMC3    C510155   1.896   0.038  11.116  0.8547  0.4204  0.2215
  683TMC3    C610156   1.807   4.709  11.196  0.0386 -0.1187 -0.3085
  683TMC3     C10157   1.943   0.340  11.321  0.3397  0.0779 -0.3818
  683TMC3     O10158   1.858   0.386  11.398 -0.1848 -0.1211  0.1036
  683TMC3     H10159   1.801   0.182  11.458  0.1149 -2.4194  1.5331
  683TMC3    H110160   2.019   0.218  11.098 -2.3542  1.0728 -0.4638
  683TMC3    H210161   1.769   4.611  11.170 -1.2296 -0.5287  3.1254
  683TMC3    C710162   1.915   4.716  10.987  0.5819 -0.5510 -0.4019
  683TMC3    C810163   1.744   4.659  11.423 -0.0007 -0.6578 -0.1405
  683TMC3    O110164   1.852   4.614  10.963  0.7849 -0.5733 -0.2422
  683TMC3    O210165   1.662   4.575  11.384  0.7259  0.5013  0.1339
  684MPD2     C10166   0.168   3.955  16.450  0.2861  0.2247 -0.4283
  684MPD2    C110167   0.305   3.948  16.427  0.2046 -0.3892  0.8447
  684MPD2    C210168   0.383   4.062  16.439  0.3327  0.1888  0.1332
  684MPD2    C310169   0.336   4.185  16.468  0.6247  0.5234  0.4581
  684MPD2    C410170   0.199   4.192  16.486  0.1319 -0.0844  0.5222
  684MPD2    C510171   0.117   4.081  16.474 -0.0822 -0.1640  0.3291
  684MPD2     H10172   0.484   4.051  16.399 -0.5353 -2.7104 -1.2347
  684MPD2    H110173   0.154   4.281  16.528  1.3718  1.9141 -2.3879
  684MPD2    H210174   0.113   3.862  16.453  0.5762  0.1433  2.1456
  684MPD2    H310175   0.016   4.087  16.512  1.0623  0.1239  3.2914
  684MPD2     N10176   0.412   4.307  16.456  0.0356  0.2902 -0.2556
  684MPD2    H510177   0.357   4.392  16.447 -2.0446 -0.8968  1.2457
  684MPD2    N110178   0.374   3.832  16.383  0.1539 -0.4017 -0.5328
  684MPD2    H710179   0.468   3.848  16.348 -0.4866  1.0202 -1.5712
  685TMC3    C110180   0.418   3.616  16.309  0.5992 -0.2598 -0.2989
  685TMC3    C210181   0.373   3.517  16.224 -0.2092 -0.0595 -0.0621
  685TMC3    C310182   0.466   3.446  16.155  0.8372  0.0559  0.1821
  685TMC3    C410183   0.549   3.643  16.326  0.7161 -0.2939  0.0897
  685TMC3    C510184   0.637   3.547  16.270 -0.5047  0.1724 -0.0515
  685TMC3    C610185   0.598   3.450  16.187  0.1541 -0.2162  0.0556
  685TMC3     C10186   0.321   3.707  16.359 -0.3318  0.2143  0.0914
  685TMC3     O10187   0.208   3.665  16.370 -0.3864  0.3244  0.6809
  685TMC3     H10188   0.267   3.493  16.225  0.0360 -1.1436  0.1633
  685TMC3    H110189   0.587   3.718  16.395  0.5555 -0.3724  0.2636
  685TMC3    H210190   0.670   3.381  16.144 -1.0880 -1.9137  0.6754
  685TMC3    C710191   0.758   3.518  16.338  0.5930  0.2725 -0.1650
  685TMC3    C810192   0.419   3.346  16.057  0.2588 -0.3527 -0.2621
  685TMC3    O110193   0.801   3.401  16.330 -0.1424 -0.4257  0.1861
  685TMC3    O210194   0.513   3.285  16.005 -0.1570  0.1460 -0.2851
  686MPD2     C10195   1.627   3.787  15.813  0.2499  0.0286 -0.7320
  686MPD2    C110196   1.659   3.661  15.863 -0.4995 -0.1744  0.0645
  686MPD2    C210197   1.775   3.592  15.815 -0.1221  0.3115 -0.6111
  686MPD2    C310198   1.848   3.654  15.716  1.0648  0.0243 -0.5001
  686MPD2    C410199   1.824   3.782  15.681 -0.1869 -0.5110  0.0090
  686MPD2    C510200   1.717   3.853  15.731  0.0812  0.1387 -0.1174
  686MPD2     H10201   1.801   3.489  15.833 -1.5348  0.1493  0.5306
  686MPD2    H110202   1.886   3.834  15.609  1.5852 -1.8814  0.5283
  686MPD2    H210203   1.534   3.840  15.830  0.3457 -0.1933  0.5268
  686MPD2    H310204   1.696   3.954  15.696  0.5797  0.1759 -0.3169
  686MPD2     N10205   1.944   3.587  15.642 -0.1819 -0.1985  0.1867
  686MPD2    H510206   2.005   3.645  15.586 -2.2809  0.9854 -0.8913
  686MPD2    N110207   1.565   3.597  15.948  0.2794  0.5406  0.5906
  686MPD2    H710208   1.479   3.649  15.961  0.1893  0.4073  0.5273
  687TMC3    C110209   1.859   3.361  15.643  0.0209 -0.4590 -0.2529
  687TMC3    C210210   1.737   3.385  15.585 -0.5359 -0.2366  0.2607
  687TMC3    C310211   1.623   3.331  15.648 -0.0233  0.3699 -0.3479
  687TMC3    C410212   1.888   3.267  15.738  0.0328  0.3028  0.2964
  687TMC3    C510213   1.777   3.215  15.793 -0.6473 -0.6685  0.8254
  687TMC3    C610214   1.647   3.242  15.751 -0.7823 -0.0163 -0.3308
  687TMC3     C10215   1.971   3.451  15.632  0.1938 -0.1346  1.0069
  687TMC3     O10216   2.077   3.398  15.597 -0.7848  0.0347 -0.5722
  687TMC3     H10217   1.723   3.440  15.493 -2.5627 -1.6345 -0.2739
  687TMC3    H110218   1.986   3.262  15.782  0.3146 -0.1463 -0.3865
  687TMC3    H210219   1.564   3.198  15.806  0.3320  0.7666  1.9622
  687TMC3    C710220   1.791   3.138  15.913  0.4417 -0.9642  0.4290
  687TMC3    C810221   1.497   3.392  15.638 -0.7604  0.1541 -0.2288
  687TMC3    O110222   1.685   3.120  15.976  0.6476  0.0973  0.6190
  687TMC3    O210223   1.391   3.342  15.681  0.0856 -0.1636 -0.1256
  688MPD2     C10224   0.908   2.077  17.357  0.0546  0.0302  0.1031
  688MPD2    C110225   0.974   1.993  17.441  0.0854 -0.0564  0.1883
  688MPD2    C210226   1.111   1.995  17.434  0.6217  1.1193  0.1953
  688MPD2    C310227   1.179   2.073  17.341  0.4161 -0.4308  0.1007
  688MPD2    C410228   1.108   2.152  17.255 -0.3640  1.0664 -0.0136
  688MPD2    C510229   0.973   2.149  17.260  0.4058 -0.6831  0.8276
  688MPD2     H10230   1.169   1.930  17.498 -2.3310  0.4629  2.2235
  688MPD2    H110231   1.155   2.203  17.172  1.7230 -0.3512  0.3182
  688MPD2    H210232   0.800   2.086  17.356  0.0781  0.6995  3.1771
  688MPD2    H310233   0.914   2.198  17.184  1.7642  2.1862  1.6098
  688MPD2     N10234   1.315   2.062  17.318  0.3631 -1.2500  0.1200
  688MPD2    H510235   1.340   2.114  17.235  0.2244 -0.3098  0.6742
  688MPD2    N110236   0.909   1.906  17.534  0.3957 -0.0970  0.1565
  688MPD2    H710237   0.974   1.838  17.572  0.7802  0.7612  1.0459
  689TMC3    C110238   0.734   1.825  17.684 -0.2601  0.0538  0.1513
  689TMC3    C210239   0.618   1.871  17.741 -0.0365 -0.0616 -0.6176
  689TMC3    C310240   0.544   1.783   0.074 -0.4124 -0.7364  0.0480
  689TMC3    C410241   0.774   1.691  17.685 -0.4883 -0.2046  0.0435
  689TMC3    C510242   0.689   1.604   0.016  0.1106  0.5087 -0.5956
  689TMC3    C610243   0.581   1.654   0.090  0.1448 -0.6601  0.2389
  689TMC3     C10244   0.771   1.909  17.570 -0.2723 -0.2677  0.1503
  689TMC3     O10245   0.686   1.986  17.536 -0.1439  0.0173  0.2422
  689TMC3     H10246   0.597   1.977   0.006 -2.0084 -0.4778 -0.0697
  689TMC3    H110247   0.849   1.649  17.619 -0.9617 -0.7528 -0.1494
  689TMC3    H210248   0.508   1.591   0.141 -0.3110 -1.0159 -0.8426
  689TMC3    C710249   0.747   1.482   0.066 -0.3974  0.2870 -0.4598
  689TMC3    C810250   0.466   1.825   0.186  0.2227  0.8810  0.2627
  689TMC3    O110251   0.730   1.457   0.185  0.6173 -0.4667 -0.6154
  689TMC3    O210252   0.458   1.759   0.287  0.1222 -0.2877  0.0736
  690MPD2     C10253   3.839   4.124  16.323  0.4137 -0.2556 -0.6400
  690MPD2    C110254   3.728   4.201  16.279  0.0184 -0.5200 -0.1011
  690MPD2    C210255   3.738   4.334  16.253  0.3366 -0.0858  0.1142
  690MPD2    C310256   3.857   4.392  16.267 -0.5438 -0.7183  0.2408
  690MPD2    C410257   3.965   4.318  16.314  0.1994  0.3175 -0.0804
  690MPD2    C510258   3.960   4.188  16.348  0.2280  0.2789  0.3421
  690MPD2     H10259   3.652   4.388  16.215 -1.1358 -1.8274  0.9911
  690MPD2    H110260   4.064   4.362  16.315  0.1731  0.3679  1.6924
  690MPD2    H210261   3.835   4.017  16.336 -0.7836 -0.4009 -2.2752
  690MPD2    H310262   4.046   4.131  16.382 -0.8789  1.0939  4.5337
  690MPD2     N10263   3.866   4.517  16.216 -0.0145 -0.6460  0.3340
  690MPD2    H510264   3.787   4.555  16.165  0.5380  0.3014  0.1827
  690MPD2    N110265   3.602   4.143  16.244  0.5831 -0.2309 -0.7091
  690MPD2    H710266   3.537   4.213  16.208  1.2793 -0.1523 -1.8018
  691TMC3    C110267   3.411   4.002  16.241  0.4488 -0.2825  0.7636
  691TMC3    C210268   3.360   4.092  16.155 -0.5022 -0.2611  0.1674
  691TMC3    C310269   3.240   4.060  16.091 -0.1785 -0.3446 -0.1407
  691TMC3    C410270   3.370   3.874  16.244 -0.2495  0.4203  0.7328
  691TMC3    C510271   3.258   3.844  16.168 -0.3228 -0.2688  0.5858
  691TMC3    C610272   3.195   3.935  16.093 -0.6788 -0.6504  0.3338
  691TMC3     C10273   3.545   4.026  16.293 -0.5022  0.0774 -0.1649
  691TMC3     O10274   3.594   3.940  16.365 -0.1799  0.0882 -0.2947
  691TMC3     H10275   3.381   4.198  16.155 -1.5438 -0.0509  0.2201
  691TMC3    H110276   3.425   3.797  16.296 -0.7685  0.8731  1.9627
  691TMC3    H210277   3.109   3.916  16.032 -1.2982  0.9823  0.6860
  691TMC3    C710278   3.228   3.704  16.149  0.4929 -0.5286 -0.3501
  691TMC3    C810279   3.240   4.134  15.963  0.8835  0.1596 -0.4509
  691TMC3    O110280   3.318   3.625  16.159 -0.1231  0.6667 -0.0306
  691TMC3    O210281   3.340   4.112  15.892  0.4200 -0.0506  0.6768
  692TMC3    C110282   4.716   0.579  15.865 -0.0985 -0.1892 -0.4830
  692TMC3    C210283   0.064   0.641  15.949 -0.0667 -0.0429 -0.0150
  692TMC3    C310284   0.184   0.586  15.980  0.6643  0.1226 -0.5295
  692TMC3    C410285   0.010   0.463  15.801 -0.1681  0.1466  0.2648
  692TMC3    C510286   0.130   0.407  15.836  0.2089  0.3279 -0.1293
  692TMC3    C610287   0.210   0.461  15.933 -0.0260  0.2731  0.1524
  692TMC3     C10288   4.583   0.611  15.879  0.6451  0.6724 -0.4610
  692TMC3     O10289   4.507   0.528  15.933  0.6398 -0.1052  0.7968
  692TMC3     H10290   0.033   0.742  15.971 -1.2302 -0.0496 -1.6207
  692TMC3    H110291   4.677   0.407  15.737  0.6665  0.7271 -1.1488
  692TMC3    H210292   0.305   0.412  15.951 -1.0681 -1.4809  0.9355
  692TMC3    C710293   0.165   0.280  15.777  0.1495  0.3951  0.3062
  692TMC3    C810294   0.212   0.593  16.125  0.2821 -1.1213 -0.9929
  692TMC3    O110295   0.143   0.261  15.656  0.1788 -0.3633 -0.4573
  692TMC3    O210296   0.306   0.531  16.169  0.2501 -0.3905  0.6705
  693MPD2     C10297   4.265   3.326  10.945 -0.6434 -0.1437  0.2485
  693MPD2    C110298   4.235   3.240  11.047  0.3586 -0.6353  0.2363
  693MPD2    C210299   4.346   3.189  11.114 -0.5271  0.8552 -0.0300
  693MPD2    C310300   4.472   3.229  11.076  0.2840  0.4059 -0.7893
  693MPD2    C410301   4.493   3.315  10.966 -0.3389 -0.9652 -0.5099
  693MPD2    C510302   4.387   3.368  10.896 -0.3281  0.0375  1.3536
  693MPD2     H10303   4.336   3.131  11.205 -1.5704 -0.1025 -0.7598
  693MPD2    H110304   4.594   3.344  10.941 -0.7083 -0.6174 -1.5987
  693MPD2    H210305   4.182   3.371  10.893 -0.0535  0.0797 -0.4959
  693MPD2    H310306   4.392   3.444  10.819 -0.8263  1.1682  2.4333
  693MPD2     N10307   4.589   3.179  11.138 -0.2747  0.2156 -0.6553
  693MPD2    H510308   4.680   3.205  11.102 -0.0376 -1.1024 -1.0149
  693MPD2    N110309   4.096   3.226  11.081 -0.2945 -0.1502 -0.0526
  693MPD2    H710310   4.019   3.256  11.022  0.4327  0.0703 -0.8856
  694TMC3    C110311   3.918   3.194  11.215 -0.0471 -0.4216 -0.6451
  694TMC3    C210312   3.839   3.188  11.102  0.2022  0.5243  0.1517
  694TMC3    C310313   3.710   3.240  11.115 -0.0177  0.8871  0.1490
  694TMC3    C410314   3.868   3.229  11.338 -0.5879 -0.0813  0.4559
  694TMC3    C510315   3.747   3.279  11.349  0.1122  0.1121  0.4900
  694TMC3    C610316   3.664   3.285  11.241  0.1931  0.0166  0.0712
  694TMC3     C10317   4.060   3.181  11.206  0.2525 -0.0451  0.5402
  694TMC3     O10318   4.128   3.160  11.301  0.1259  0.1025 -0.2321
  694TMC3     H10319   3.862   3.131  11.013  0.6870  1.2392 -0.1828
  694TMC3    H110320   3.924   3.222  11.431 -0.3716  0.3030  0.3543
  694TMC3    H210321   3.560   3.313  11.255 -0.0385 -0.6036 -0.4463
  694TMC3    C710322   3.686   3.301  11.479 -0.2272 -0.2163 -0.1238
  694TMC3    C810323   3.613   3.214  11.006 -1.1033  0.2173 -0.1532
  694TMC3    O110324   3.719   3.402  11.536 -0.5641 -0.1592  0.3171
  694TMC3    O210325   3.615   3.108  10.944 -0.5959 -0.4600  0.4184
  695MPD2     C10326   0.713   0.873  13.652 -0.2752 -0.3231 -0.0754
  695MPD2    C110327   0.679   0.832  13.782  0.5883  0.8050 -0.4836
  695MPD2    C210328   0.548   0.808  13.819  0.0862 -0.4073 -0.4697
  695MPD2    C310329   0.443   0.843  13.730 -0.6474 -0.4128  0.0904
  695MPD2    C410330   0.479   0.890  13.604  1.1689  0.3760 -0.3140
  695MPD2    C510331   0.616   0.902  13.565  0.8228 -0.4130  0.1606
  695MPD2     H10332   0.518   0.778  13.919  0.5609  1.0439  0.1029
  695MPD2    H110333   0.405   0.932  13.537  1.0787 -1.9625 -1.6932
  695MPD2    H210334   0.816   0.878  13.618 -0.4635 -0.0721 -0.6094
  695MPD2    H310335   0.630   0.940  13.464  1.0731 -1.2566 -0.1208
  695MPD2     N10336   0.315   0.837  13.782  0.3015  0.5937 -0.1453
  695MPD2    H510337   0.306   0.815  13.881 -1.7072 -0.9679 -0.6794
  695MPD2    N110338   0.773   0.813  13.882 -0.4247 -0.3361  0.3116
  695MPD2    H710339   0.737   0.777  13.970 -2.0711  0.4338 -0.0430
  696TMC3    C110340   0.081   0.844  13.778  0.0408 -0.4911 -0.2965
  696TMC3    C210341   0.091   0.746  13.875 -0.0204  0.1707  0.1103
  696TMC3    C310342   4.710   0.727  13.948 -0.9754 -0.2707  0.2719
  696TMC3    C410343   4.701   0.913  13.750 -0.0014 -0.0479 -0.4980
  696TMC3    C510344   4.591   0.886  13.826 -0.3495 -0.3762  0.6902
  696TMC3    C610345   4.594   0.798  13.928 -0.9009 -0.2021 -0.6526
  696TMC3     C10346   0.205   0.885  13.709  0.4349  0.0635 -0.1239
  696TMC3     O10347   0.201   0.964  13.617 -0.0296  0.5157 -0.4832
  696TMC3     H10348   0.176   0.679  13.886  0.7640  0.9666 -1.1587
  696TMC3    H110349   4.701   0.993  13.677 -0.5150 -0.3583 -0.8429
  696TMC3    H210350   4.506   0.772  13.985 -0.6306 -0.1806 -0.2233
  696TMC3    C710351   4.505   1.003  13.838 -0.4836  0.7818 -0.7223
  696TMC3    C810352   4.732   0.682  14.082 -0.2285  0.2221 -0.0160
  696TMC3    O110353   4.491   1.072  13.736 -0.5855 -0.1502  0.2744
  696TMC3    O210354   0.058   0.755  14.156 -0.0166 -0.0210  0.1845
  697MPD2     C10355   4.733   2.674  15.570 -0.6271 -0.5029  0.7025
  697MPD2    C110356   4.640   2.612  15.488  0.4801 -0.0325  0.1451
  697MPD2    C210357   4.559   2.687  15.410  0.2637  0.3396 -0.1301
  697MPD2    C310358   4.584   2.821  15.388 -0.1140 -0.0263 -0.0225
  697MPD2    C410359   4.691   2.881  15.451  0.1391  0.4782 -0.3006
  697MPD2    C510360   0.022   2.811  15.547 -1.2034  0.3100  0.0740
  697MPD2     H10361   4.477   2.640  15.357 -1.0423  1.7862  0.5986
  697MPD2    H110362   4.736   2.976  15.423  0.1483 -0.2413 -2.7166
  697MPD2    H210363   0.066   2.615  15.629 -1.3872 -1.9079  0.1909
  697MPD2    H310364   0.104   2.863  15.595 -0.7452 -1.1097  0.8256
  697MPD2     N10365   4.499   2.898  15.296  0.5538 -0.0347  0.6988
  697MPD2    H510366   4.423   2.846  15.253  0.9028 -0.8739  1.0944
  697MPD2    N110367   4.616   2.471  15.502  0.0032 -0.1462 -0.5276
  697MPD2    H710368   4.542   2.423  15.451 -0.8979  1.1756 -0.4352
  698TMC3    C110369   4.415   3.075  15.166 -0.1285  0.1856  0.0130
  698TMC3    C210370   4.396   3.209  15.147 -0.1998  0.4549 -0.9846
  698TMC3    C310371   4.323   3.248  15.042  0.1916 -0.7851 -0.4892
  698TMC3    C410372   4.379   2.984  15.067 -0.0605  0.2503  0.3482
  698TMC3    C510373   4.291   3.032  14.968  0.7169  0.3389 -0.0865
  698TMC3    C610374   4.260   3.161  14.955 -0.1842 -0.3588  0.1483
  698TMC3     C10375   4.500   3.032  15.276 -0.9782  0.2607 -0.3052
  698TMC3     O10376   4.570   3.122  15.327 -0.0743  0.1060 -0.0108
  698TMC3     H10377   4.420   3.279  15.227 -1.3124 -0.0822 -0.1835
  698TMC3    H110378   4.419   2.883  15.068  0.9255  0.6153 -2.4315
  698TMC3    H210379   4.196   3.181  14.870  0.4814 -0.5647 -0.4084
  698TMC3    C710380   4.298   2.964  14.835 -0.6709  0.3829  0.0877
  698TMC3    C810381   4.352   3.373  14.977 -0.1751 -0.4263  0.2641
  698TMC3    O110382   4.194   2.929  14.779 -0.2101  0.4988 -0.1766
  698TMC3    O210383   4.274   3.391  14.884  0.3095  0.5077  0.7761
  699TMC3    C110384   4.276   0.682  13.516  0.0147  0.0739 -0.5351
  699TMC3    C210385   4.207   0.559  13.510  0.1262  0.2976  0.8546
  699TMC3    C310386   4.136   0.532  13.622  0.4641  0.4875  0.1910
  699TMC3    C410387   4.270   0.767  13.624  0.6421 -0.5683 -0.4775
  699TMC3    C510388   4.206   0.726  13.736  0.4801  0.6453 -0.0712
  699TMC3    C610389   4.136   0.610  13.734 -1.0717 -0.9210 -0.2115
  699TMC3     C10390   4.316   0.750  13.390  0.0133  0.0427 -0.3029
  699TMC3     O10391   4.237   0.729  13.295 -0.1253 -0.0262  0.7631
  699TMC3     H10392   4.171   0.518  13.416  2.2800  0.7218 -0.1603
  699TMC3    H110393   4.315   0.865  13.627 -2.3143  0.8485 -2.4021
  699TMC3    H210394   4.097   0.586  13.833 -3.8435  1.3859 -0.7292
  699TMC3    C710395   4.175   0.823  13.837 -0.0244 -0.2409 -0.6150
  699TMC3    C810396   4.048   0.415  13.616 -0.4279  0.4067 -0.2916
  699TMC3    O110397   4.162   0.781  13.950  0.1696  0.3887 -0.3710
  699TMC3    O210398   4.045   0.362  13.506 -0.0836  0.0368 -0.1753
  700TMC3    C110399   3.721   2.199  17.342  0.2696  0.4565 -0.7343
  700TMC3    C210400   3.786   2.071  17.344  0.0607 -0.2370  0.6018
  700TMC3    C310401   3.865   2.030  17.448 -0.2362  0.2365 -0.2251
  700TMC3    C410402   3.728   2.277  17.457 -0.1674  0.2010  0.3055
  700TMC3    C510403   3.808   2.235  17.557  0.6685 -0.0809 -0.1799
  700TMC3    C610404   3.877   2.113  17.559  0.1644  0.6570 -0.6009
  700TMC3     C10405   3.649   2.253  17.231 -0.3810 -0.4438 -0.1328
  700TMC3     O10406   3.621   2.179  17.135  0.4747 -0.0786  0.2087
  700TMC3     H10407   3.791   2.017  17.251  1.2720 -1.8550  1.6128
  700TMC3    H110408   3.701   2.381  17.448  0.3068  0.3043  0.0654
  700TMC3    H210409   3.921   2.079  17.652  0.1369  0.1146 -0.7890
  700TMC3    C710410   3.825   2.312  17.674 -0.4597 -0.4575 -0.3560
  700TMC3    C810411   3.956   1.919  17.428 -0.2235  0.7890  0.9484
  700TMC3    O110412   3.930   2.324  17.734 -0.2240  0.3961 -0.9297
  700TMC3    O210413   3.959   1.889  17.311  0.4168 -0.6466  0.6672
  701TMC3    C110414   3.936   1.387  15.567 -0.2389 -0.0827 -0.5953
  701TMC3    C210415   3.970   1.334  15.445  0.3932 -0.0740 -1.0545
  701TMC3    C310416   4.010   1.424  15.346  0.2573  0.5388 -0.1601
  701TMC3    C410417   3.947   1.523  15.587 -0.7700 -0.6108 -0.0993
  701TMC3    C510418   3.989   1.615  15.496  0.1334  0.5860  0.0996
  701TMC3    C610419   4.019   1.562  15.372  0.2838 -0.2186 -0.3772
  701TMC3     C10420   3.833   1.316  15.638 -0.1089  0.3391  0.0699
  701TMC3     O10421   3.751   1.388  15.692 -0.3951 -0.1224  0.3701
  701TMC3     H10422   3.963   1.228  15.422 -0.0810  0.0231 -1.3602
  701TMC3    H110423   3.908   1.555  15.683  1.7284 -0.3576  0.8403
  701TMC3    H210424   4.054   1.636  15.301 -1.2292 -1.2729 -2.2389
  701TMC3    C710425   3.965   1.761  15.510  0.0811  0.0144 -0.5249
  701TMC3    C810426   4.005   1.386  15.210 -0.2607  0.5981 -0.3122
  701TMC3    O110427   3.997   1.830  15.411 -0.9964 -0.1679 -0.2114
  701TMC3    O210428   4.039   1.273  15.176  0.3071 -0.1009 -0.3538
  702MPD2     C10429   3.607   3.955  10.895 -0.9661  0.5860 -0.1662
  702MPD2    C110430   3.473   3.926  10.902  0.0852 -0.1397 -0.3526
  702MPD2    C210431   3.390   3.931  10.786  0.2937  0.0069 -0.7631
  702MPD2    C310432   3.445   3.962  10.669 -0.2748  0.0010  0.7741
  702MPD2    C410433   3.576   3.995  10.665  0.4355  0.3412 -0.4842
  702MPD2    C510434   3.660   3.993  10.774 -0.2540  0.1710  0.2114
  702MPD2     H10435   3.282   3.928  10.789  0.3279  0.1165  0.5170
  702MPD2    H110436   3.632   4.011  10.573  3.4575  0.8012  1.4318
  702MPD2    H210437   3.672   3.947  10.982 -1.0137 -2.4827 -0.4169
  702MPD2    H310438   3.766   4.010  10.763  0.1061 -1.1996  1.5090
  702MPD2     N10439   3.348   3.988  10.567  0.5630 -0.2556  0.2532
  702MPD2    H510440   3.252   3.958  10.580  0.6869 -0.3195  1.0204
  702MPD2    N110441   3.425   3.907  11.036  0.4038 -0.6491  0.4905
  702MPD2    H710442   3.484   3.936  11.114  0.4338  0.2581  0.1296
  703TMC3    C110443   3.245   4.116  10.394 -0.6686  0.8758  0.0549
  703TMC3    C210444   3.118   4.064  10.425 -0.8222  0.0550 -0.0267
  703TMC3    C310445   3.010   4.147  10.403  0.2725 -0.1423  0.0960
  703TMC3    C410446   3.265   4.250  10.366 -0.3531 -0.3540  0.6645
  703TMC3    C510447   3.151   4.326  10.348  0.3777 -0.5248  0.1379
  703TMC3    C610448   3.024   4.275  10.350  0.1641  0.2294  0.1549
  703TMC3     C10449   3.364   4.051  10.449  0.3067 -0.2327 -0.2564
  703TMC3     O10450   3.471   4.101  10.414 -0.3491 -0.3202  0.0890
  703TMC3     H10451   3.097   3.963  10.460  2.2167 -1.3114 -2.0956
  703TMC3    H110452   3.365   4.291  10.374 -0.2378 -0.4393 -0.4128
  703TMC3    H210453   2.935   4.328  10.320 -0.1760 -1.0743 -1.1413
  703TMC3    C710454   3.177   4.461  10.314 -0.1461  0.4337  0.0799
  703TMC3    C810455   2.877   4.095  10.403  0.2996  0.0094 -0.2235
  703TMC3    O110456   3.290   4.491  10.294  0.5927 -0.2326  0.0894
  703TMC3    O210457   2.868   3.975  10.367 -0.4346  0.6981  0.3440
  704TMC3    C110458   0.459   2.409  12.942  0.3966  0.1549  0.6231
  704TMC3    C210459   0.585   2.471  12.934  0.3735  0.5105 -0.0546
  704TMC3    C310460   0.691   2.432  13.008 -0.4216  0.5710 -0.0473
  704TMC3    C410461   0.444   2.296  13.022 -0.0742  1.1434 -0.3017
  704TMC3    C510462   0.558   2.256  13.095 -0.6650  0.6334  0.0288
  704TMC3    C610463   0.676   2.326  13.093  1.1534  1.2164  0.0383
  704TMC3     C10464   0.370   2.424  12.828 -0.4660 -0.6562  1.1105
  704TMC3     O10465   0.254   2.388  12.832  0.0680 -0.0592  0.3719
  704TMC3     H10466   0.602   2.558  12.871 -1.1550  2.0742  1.6934
  704TMC3    H110467   0.354   2.239  13.000  1.0187 -0.4798 -0.5433
  704TMC3    H210468   0.763   2.279  13.137 -0.3851 -0.3396  1.3946
  704TMC3    C710469   0.593   2.116  13.057  0.2999 -0.6501 -0.3388
  704TMC3    C810470   0.821   2.480  12.975 -0.0373 -0.7019  0.1442
  704TMC3    O110471   0.703   2.107  13.000 -0.5433 -0.3144  0.1394
  704TMC3    O210472   0.825   2.557  12.885 -0.4480  0.4974 -0.2466
  705MPD2     C10473   0.254   4.707  17.065  0.0186  0.1447  0.1833
  705MPD2    C110474   0.207   0.069  16.978  0.2213 -0.3229  0.1008
  705MPD2    C210475   0.082   0.122  16.990  0.8290  0.0730  0.4653
  705MPD2    C310476   4.731   0.072  17.089 -0.1023  0.1422 -0.2471
  705MPD2    C410477   0.042   4.711  17.176  0.0853 -0.5365 -0.0888
  705MPD2    C510478   0.164   4.653  17.156  0.1333 -0.1669  0.5521
  705MPD2     H10479   0.057   0.203  16.923 -1.4720  0.5072  1.8569
  705MPD2    H110480   4.716   4.684  17.261  0.9012  0.1286  0.7205
  705MPD2    H210481   0.347   4.654  17.045 -0.2192  0.9019 -2.8971
  705MPD2    H310482   0.202   4.589  17.235  1.2867 -0.0734  0.0682
  705MPD2     N10483   4.599   0.119  17.116  0.4378 -0.1151  0.0115
  705MPD2    H510484   4.556   0.092  17.204  0.1909  1.8872  0.5103
  705MPD2    N110485   0.297   0.124  16.880 -0.6874 -0.4194  0.8511
  705MPD2    H710486   0.261   0.205  16.831  3.0831  0.6022 -0.2355
  706TMC3    C110487   0.562   0.183  16.532 -0.1892 -0.4524 -0.5464
  706TMC3    C210488   0.522   0.315  16.520 -0.0636 -0.2359  0.2526
  706TMC3    C310489   0.455   0.376  16.620 -0.1934 -0.9945  0.2186
  706TMC3    C410490   0.550   0.110  16.651 -0.2805 -0.2303  0.6026
  706TMC3    C510491   0.476   0.174  16.747  0.1608 -0.2508  0.2507
  706TMC3    C610492   0.431   0.308  16.731  0.3419  0.2477  0.7154
  706TMC3     C10493   0.673   0.151  16.453 -0.3449 -0.0047  0.1871
  706TMC3     O10494   0.761   0.088  16.516  0.2407 -0.2740 -0.2296
  706TMC3     H10495   0.551   0.382  16.440  1.0846  0.3487  1.1788
  706TMC3    H110496   0.568   0.003  16.653 -0.9345 -0.4088 -3.0281
  706TMC3    H210497   0.363   0.359  16.799  0.8897 -0.2142  1.6197
  706TMC3    C710498   0.425   0.089  16.850  0.0977 -0.0909 -0.3480
  706TMC3    C810499   0.480   0.519  16.633 -0.3433 -0.6221 -0.0546
  706TMC3    O110500   0.496   0.003  16.900 -0.5798 -0.1901 -0.3281
  706TMC3    O210501   0.467   0.588  16.535  0.0519 -0.4415  0.7905
  707TMC3    C110502   1.790   3.264   1.450  0.0377 -0.3182  0.7473
  707TMC3    C210503   1.790   3.130   1.477  0.1454 -0.4276  0.3995
  707TMC3    C310504   1.669   3.067   1.453 -0.8494 -0.1982 -0.0613
  707TMC3    C410505   1.682   3.342   1.436  0.5398 -0.0455  0.8538
  707TMC3    C510506   1.562   3.276   1.436 -0.4033  0.1690 -0.2064
  707TMC3    C610507   1.556   3.140   1.432  0.5389  0.0279 -0.3123
  707TMC3     C10508   1.919   3.331   1.440 -0.1839  0.4308 -0.2147
  707TMC3     O10509   1.928   3.451   1.445 -0.3893 -0.2838 -0.3039
  707TMC3     H10510   1.871   3.083   1.531  2.7647  0.0009 -3.2065
  707TMC3    H110511   1.690   3.449   1.425 -0.1381 -0.1920 -1.0086
  707TMC3    H210512   1.461   3.090   1.441  0.6964 -0.1194  0.5823
  707TMC3    C710513   1.442   3.349   1.416 -0.0809  0.1625  0.0790
  707TMC3    C810514   1.658   2.949   1.533 -0.1391  0.2206  0.0307
  707TMC3    O110515   1.352   3.285   1.366 -0.3937  0.2227  0.1445
  707TMC3    O210516   1.557   2.929   1.598 -0.0537  0.3142  0.1303
  708MPD2     C10517   4.098   3.763  13.607  0.4882 -0.0566 -0.2213
  708MPD2    C110518   4.064   3.881  13.546  0.0072  0.2580  0.0448
  708MPD2    C210519   3.976   3.966  13.606 -0.0870  0.3675  0.4104
  708MPD2    C310520   3.895   3.929  13.714  0.1836  0.1410  0.1918
  708MPD2    C410521   3.923   3.808  13.769 -0.7790  0.4383 -0.1812
  708MPD2    C510522   4.029   3.728  13.719  0.0626 -0.2775 -0.1588
  708MPD2     H10523   3.962   4.062  13.558  0.3191  0.8481  1.2634
  708MPD2    H110524   3.870   3.761  13.851  0.1183 -0.3691 -0.0677
  708MPD2    H210525   4.182   3.698  13.584  0.5003 -0.2383  0.3409
  708MPD2    H310526   4.044   3.631  13.764 -3.5393 -1.1566 -0.8015
  708MPD2     N10527   3.787   4.011  13.759  0.3130  0.9092  0.6196
  708MPD2    H510528   3.788   4.108  13.732  0.4527  0.6997 -0.1153
  708MPD2    N110529   4.139   3.929  13.429 -0.2918  0.4708 -0.7094
  708MPD2    H710530   4.121   4.023  13.397 -1.5759  0.6189  0.4455
  709TMC3    C110531   4.290   3.951  13.262 -0.4708  0.3159 -0.3591
  709TMC3    C210532   4.250   3.910  13.137  0.2043  0.0046 -0.5453
  709TMC3    C310533   4.180   3.996  13.065 -0.3566  0.0760  0.6104
  709TMC3    C410534   4.275   4.081  13.309  0.0764  0.2634  0.1557
  709TMC3    C510535   4.207   4.171  13.226 -0.4389 -0.8625  0.0907
  709TMC3    C610536   4.152   4.120  13.111  1.2742  0.1305 -1.0286
  709TMC3     C10537   4.242   3.863  13.367  0.2489  0.1010 -0.1976
  709TMC3     O10538   4.255   3.746  13.349  0.5704 -0.0048 -0.0432
  709TMC3     H10539   4.253   3.802  13.125 -0.3244  0.1499 -1.9154
  709TMC3    H110540   4.304   4.107  13.410 -0.6055  0.6041  0.2599
  709TMC3    H210541   4.093   4.193  13.058 -1.8650 -0.7256  1.2605
  709TMC3    C710542   4.114   4.244  13.303  0.0889  0.2801 -0.4196
  709TMC3    C810543   4.120   3.949  12.944 -0.2116  0.0775  0.2342
  709TMC3    O110544   4.008   4.186  13.322  0.9282  0.0627  0.1473
  709TMC3    O210545   4.191   3.865  12.885 -0.2204 -0.0303  0.2183
  710TMC3    C110546   0.105   3.531   0.459 -0.3092  0.1222 -0.6088
  710TMC3    C210547   0.148   3.602   0.349  0.4647  0.3045  0.3558
  710TMC3    C310548   0.207   3.531   0.247 -0.4387  0.2619 -0.9355
  710TMC3    C410549   0.131   3.401   0.459  0.7916  0.0043 -0.4469
  710TMC3    C510550   0.187   3.331   0.355 -0.2121  0.1684 -0.1212
  710TMC3    C610551   0.222   3.396   0.244  0.0947 -0.2764 -0.2673
  710TMC3     C10552   4.722   3.568   0.533  0.4890 -0.0248  0.9403
  710TMC3     O10553   4.665   3.484   0.599  0.1969  0.3003 -0.0755
  710TMC3     H10554   0.120   3.704   0.326 -1.2428 -0.2589 -0.0392
  710TMC3    H110555   0.114   3.342   0.548  1.6439  2.7735  1.5365
  710TMC3    H210556   0.287   3.357   0.167 -1.2609  0.7304 -1.9165
  710TMC3    C710557   0.178   3.192   0.367 -0.2130  0.2373 -0.1760
  710TMC3    C810558   0.311   3.608   0.178  0.0847 -0.3852 -0.2079
  710TMC3    O110559   0.089   3.145   0.439 -0.1076 -0.0315  0.2706
  710TMC3    O210560   0.376   3.547   0.093  0.0185 -0.2116  0.0193
  711TMC3    C110561   4.249   1.382  15.657 -0.1045  0.5234 -0.3074
  711TMC3    C210562   4.225   1.363  15.789 -0.1904 -0.2026  0.0835
  711TMC3    C310563   4.317   1.422  15.873 -0.1593 -0.6915  0.9399
  711TMC3    C410564   4.331   1.478  15.613  0.2767  0.4079 -0.4660
  711TMC3    C510565   4.432   1.519  15.689  0.0460  0.2973 -0.1723
  711TMC3    C610566   4.428   1.495  15.823  0.1383 -0.2666 -0.5279
  711TMC3     C10567   4.241   1.269  15.566  0.1157  0.7329  0.1700
  711TMC3     O10568   4.159   1.180  15.598  0.3847 -0.4854  0.5975
  711TMC3     H10569   4.175   1.271  15.817  1.2892 -0.7658  0.8991
  711TMC3    H110570   4.339   1.500  15.507 -0.2012 -0.6490 -0.7126
  711TMC3    H210571   4.508   1.526  15.890 -0.1563 -2.0330  0.6505
  711TMC3    C710572   4.559   1.503  15.633  0.1668  0.6041 -0.3068
  711TMC3    C810573   4.325   1.348  15.991 -0.3176 -0.5946  0.1329
  711TMC3    O110574   4.569   1.422  15.543  0.6320 -0.1102  0.3870
  711TMC3    O210575   4.223   1.290  16.023  0.3924 -0.5388  0.0158
  712MPD2     C10576   0.780   2.107  14.331  0.7583  0.1291  0.5082
  712MPD2    C110577   0.690   2.205  14.313  0.3064  0.2543  0.3333
  712MPD2    C210578   0.724   2.339  14.283  0.0681 -0.6950  0.5549
  712MPD2    C310579   0.859   2.368  14.270  0.2464 -0.2692  0.3337
  712MPD2    C410580   0.953   2.269  14.290  0.2857  0.3587  0.1484
  712MPD2    C510581   0.915   2.141  14.328 -1.2218 -0.2643  0.2935
  712MPD2     H10582   0.643   2.408  14.259  1.5668  0.9407  0.2374
  712MPD2    H110583   1.060   2.281  14.273  0.2467  0.6651  0.1192
  712MPD2    H210584   0.753   2.007  14.361  1.4984 -0.1926  0.0850
  712MPD2    H310585   0.981   2.059  14.354 -0.5381  1.2067  3.2358
  712MPD2     N10586   0.905   2.500  14.244 -0.2419  0.1192 -0.4489
  712MPD2    H510587   1.001   2.511  14.214  0.1602 -3.2954 -0.4217
  712MPD2    N110588   0.552   2.170  14.295  0.4647  0.0279 -0.3461
  712MPD2    H710589   0.486   2.243  14.270  0.2681  0.1418  0.5256
  713TMC3    C110590   0.878   2.741  14.196  0.2333  0.2038 -0.2737
  713TMC3    C210591   1.015   2.763  14.185 -0.1300  0.4612 -0.1258
  713TMC3    C310592   1.054   2.881  14.141 -0.2990 -0.6884  0.0327
  713TMC3    C410593   0.783   2.831  14.159  0.4206  0.0233 -0.0411
  713TMC3    C510594   0.833   2.953  14.117  0.2033  0.2943  0.6168
  713TMC3    C610595   0.965   2.982  14.109 -0.0647  0.5963 -0.0279
  713TMC3     C10596   0.821   2.610  14.245  0.1238 -0.2441  0.2054
  713TMC3     O10597   0.707   2.627  14.287 -0.7507  0.3953 -0.0127
  713TMC3     H10598   1.086   2.683  14.200 -2.2605 -1.7581 -1.7657
  713TMC3    H110599   0.679   2.808  14.181  0.9886 -0.3587  2.2829
  713TMC3    H210600   0.983   3.079  14.066 -1.8293  0.1361 -1.7991
  713TMC3    C710601   0.747   3.058  14.165 -0.0533 -0.2542 -0.4364
  713TMC3    C810602   1.195   2.896  14.095  0.7901 -0.2822 -0.1329
  713TMC3    O110603   0.675   3.031  14.264  0.6593 -0.2994  0.3999
  713TMC3    O210604   1.208   2.956  13.992  0.2643 -0.0748 -0.3978
  714MPD2     C10605   3.139   0.509   1.610  0.5378 -0.0848  0.3150
  714MPD2    C110606   3.144   0.388   1.541  0.2586  0.2950 -0.5245
  714MPD2    C210607   3.016   0.333   1.518  0.2519  0.9746 -0.0441
  714MPD2    C310608   2.894   0.397   1.550 -0.0885 -0.2485  0.1057
  714MPD2    C410609   2.897   0.516   1.619  0.0607  0.9303 -0.3592
  714MPD2    C510610   3.025   0.567   1.652 -0.5584  0.0438 -0.3491
  714MPD2     H10611   3.001   0.238   1.469 -3.6260  2.2241 -1.3045
  714MPD2    H110612   2.818   0.579   1.658  2.3948  2.4343  1.9254
  714MPD2    H210613   3.228   0.562   1.641 -0.2717  1.2944  0.2788
  714MPD2    H310614   3.030   0.664   1.699 -0.0402 -0.4216  0.5464
  714MPD2     N10615   2.783   0.330   1.503 -0.7261  0.0239 -0.4291
  714MPD2    H510616   2.803   0.255   1.438  0.9165  1.0366 -1.1048
  714MPD2    N110617   3.270   0.334   1.502  0.5063  0.1201  0.0127
  714MPD2    H710618   3.356   0.380   1.531  0.0105 -0.9256  3.1484
  715TMC3    C110619   3.424   0.202   1.381 -0.9160 -0.0931 -0.2576
  715TMC3    C210620   3.445   0.082   1.329  1.3037 -0.9130  0.8187
  715TMC3    C310621   3.580   0.053   1.306  0.4046  0.5544  0.0305
  715TMC3    C410622   3.518   0.298   1.386 -0.3375  0.5188 -0.3712
  715TMC3    C510623   3.641   0.282   1.333  0.0355 -0.7444  0.1867
  715TMC3    C610624   3.670   0.155   1.282  0.4474  0.0170  0.2467
  715TMC3     C10625   3.287   0.225   1.418 -0.0810  0.2429  0.2389
  715TMC3     O10626   3.196   0.150   1.378 -0.7781  0.9954  0.0593
  715TMC3     H10627   3.362   0.012   1.333 -0.5492  1.1681 -1.5795
  715TMC3    H110628   3.505   0.391   1.441  0.1045  0.0881  0.4561
  715TMC3    H210629   3.776   0.143   1.266  0.5850 -1.6421  2.3134
  715TMC3    C710630   3.749   0.379   1.344  0.1209  0.0115 -0.6203
  715TMC3    C810631   3.609   4.659   1.250 -0.5382 -0.4509  0.0639
  715TMC3    O110632   3.866   0.340   1.323 -0.1957  0.1268 -0.3180
  715TMC3    O210633   3.521   4.601   1.188 -0.4424 -0.2171 -0.3145
  716MPD2     C10634   2.412   4.000   9.674  0.2547  0.2173  0.3281
  716MPD2    C110635   2.314   4.004   9.576  0.1838  0.5456  0.6808
  716MPD2    C210636   2.358   3.963   9.453  0.0665  0.5614 -0.8897
  716MPD2    C310637   2.486   3.908   9.433 -1.3022 -0.5314 -0.5702
  716MPD2    C410638   2.575   3.890   9.541 -0.0630  0.3695 -0.5492
  716MPD2    C510639   2.540   3.952   9.655 -0.4279  0.0627 -0.1117
  716MPD2     H10640   2.295   3.966   9.365 -1.6709 -0.0287  0.3408
  716MPD2    H110641   2.671   3.839   9.540  0.7047  1.8166  0.3885
  716MPD2    H210642   2.399   4.045   9.772 -1.8471  2.4999 -0.9885
  716MPD2    H310643   2.612   3.959   9.735  1.4602 -0.7799 -1.7459
  716MPD2     N10644   2.501   3.850   9.308 -0.4841  0.7308  0.1192
  716MPD2    H510645   2.419   3.862   9.250 -1.2834  0.2507  1.1616
  716MPD2    N110646   2.193   4.064   9.606 -0.1677 -0.5532 -0.5613
  716MPD2    H710647   2.170   4.093   9.700  0.0943  0.2053 -0.7284
  717TMC3    C110648   2.564   3.672   9.148 -0.7418 -0.1811  0.3521
  717TMC3    C210649   2.436   3.663   9.099 -0.3619 -0.4326  0.5506
  717TMC3    C310650   2.403   3.564   9.019 -0.1927  0.2456 -0.4931
  717TMC3    C410651   2.662   3.591   9.105 -0.7235 -0.1034 -0.1551
  717TMC3    C510652   2.632   3.502   9.004 -1.0827 -0.7320  0.3368
  717TMC3    C610653   2.503   3.490   8.965 -0.3745  0.0831  0.5666
  717TMC3     C10654   2.600   3.763   9.263  0.3974  0.5263 -0.0256
  717TMC3     O10655   2.719   3.742   9.297 -0.7998 -0.7703 -0.0141
  717TMC3     H10656   2.356   3.719   9.145 -1.2915 -2.1774  1.0825
  717TMC3    H110657   2.758   3.577   9.151 -0.7261 -0.9733 -0.4025
  717TMC3    H210658   2.484   3.400   8.907  0.7108  0.5418 -0.5035
  717TMC3    C710659   2.738   3.424   8.941 -0.2701 -0.2137  0.4323
  717TMC3    C810660   2.261   3.534   9.001 -0.3415 -0.1054 -0.2522
  717TMC3    O110661   2.847   3.443   8.991  0.1733 -0.1188 -0.0912
  717TMC3    O210662   2.188   3.587   9.080 -0.5589 -0.2430  0.4124
  718MPD2     C10663   2.436   2.644  13.518  0.1268  0.1039  0.2533
  718MPD2    C110664   2.334   2.686  13.437  0.3593 -0.2383 -0.5037
  718MPD2    C210665   2.222   2.608  13.419 -0.2688 -1.0540 -0.3589
  718MPD2    C310666   2.212   2.482  13.480  0.4657  0.3783 -0.3298
  718MPD2    C410667   2.317   2.442  13.559  0.7072  0.6412 -0.3355
  718MPD2    C510668   2.429   2.518  13.577  0.2388  0.2079  1.1003
  718MPD2     H10669   2.139   2.639  13.357  1.3448  3.1451 -0.4098
  718MPD2    H110670   2.311   2.356  13.624  1.4497  1.4600  0.8047
  718MPD2    H210671   2.520   2.709  13.538  0.8133 -0.3778 -1.0234
  718MPD2    H310672   2.505   2.487  13.648 -0.3075  1.2648  2.1413
  718MPD2     N10673   2.086   2.420  13.456 -0.2032  0.0055 -0.1935
  718MPD2    H510674   2.017   2.472  13.401 -0.0691 -0.2133 -0.5729
  718MPD2    N110675   2.342   2.805  13.359  0.0391  0.0882  0.0827
  718MPD2    H710676   2.266   2.817  13.293  0.6544 -0.0815 -0.6455
  719TMC3    C110677   2.401   2.991  13.236 -0.7592 -1.1010 -0.2055
  719TMC3    C210678   2.270   3.004  13.222 -0.0407  0.1580 -0.5733
  719TMC3    C310679   2.209   2.996  13.093  0.2013  0.8309 -0.1710
  719TMC3    C410680   2.480   2.978  13.133 -0.5233  0.7207 -0.7482
  719TMC3    C510681   2.429   2.969  13.004  0.6996 -0.0129 -0.1221
  719TMC3    C610682   2.289   2.979  12.983 -0.2059  0.5859 -0.4763
  719TMC3     C10683   2.441   2.900  13.344 -0.0984  0.1085 -0.0157
  719TMC3     O10684   2.560   2.895  13.379  0.7664  0.6699 -0.2460
  719TMC3     H10685   2.210   3.018  13.311 -1.3843 -0.9735 -1.2840
  719TMC3    H110686   2.584   2.954  13.151 -1.2870 -1.4782  0.6687
  719TMC3    H210687   2.237   2.958  12.891 -2.9519 -1.4220  1.5124
  719TMC3    C710688   2.517   3.000  12.892 -0.4150  0.1402  0.1963
  719TMC3    C810689   2.103   2.896  13.098  0.4125  0.1218  0.9058
  719TMC3    O110690   2.640   2.989  12.912 -0.0315  0.8135  0.7074
  719TMC3    O210691   2.115   2.824  13.197  0.2251 -0.1358 -0.2592
  720MPD2     C10692   0.995   4.390  13.968  0.5744 -0.0978  0.2499
  720MPD2    C110693   1.081   4.485  13.917 -0.5145  0.1321  0.0798
  720MPD2    C210694   1.208   4.508  13.983  0.8219 -0.4416 -0.2542
  720MPD2    C310695   1.248   4.431  14.086 -0.1338 -0.2095  0.3327
  720MPD2    C410696   1.155   4.354  14.146  0.3873 -0.6141 -0.5461
  720MPD2    C510697   1.036   4.326  14.081 -0.0361  0.3716  0.4919
  720MPD2     H10698   1.274   4.564  13.918 -1.6216  0.3654 -2.0225
  720MPD2    H110699   1.178   4.307  14.240 -1.3387 -2.0798 -0.8484
  720MPD2    H210700   0.897   4.369  13.926  1.1600 -0.3835 -0.9744
  720MPD2    H310701   0.969   4.250  14.123  1.9224 -0.7129  1.6663
  720MPD2     N10702   1.381   4.448  14.128 -0.8826  0.2434 -0.1054
  720MPD2    H510703   1.432   4.512  14.068 -3.7038  0.2775 -2.4786
  720MPD2    N110704   1.045   4.549  13.798 -0.6213  0.1787  0.0973
  720MPD2    H710705   0.973   4.504  13.742  0.3550 -2.0752  0.6921
  721TMC3    C110706   1.596   4.371  14.218 -0.4900  0.5913 -0.2850
  721TMC3    C210707   1.669   4.313  14.321 -0.6332  0.6126 -0.1586
  721TMC3    C310708   1.800   4.340  14.329  0.9671  0.1941  0.3231
  721TMC3    C410709   1.661   4.464  14.136  0.6921  0.1833 -0.6888
  721TMC3    C510710   1.793   4.479  14.146 -0.6155 -0.1038 -0.2584
  721TMC3    C610711   1.867   4.413  14.235  0.0405 -0.1388 -0.3062
  721TMC3     C10712   1.449   4.364  14.220 -0.4752  0.4208 -0.1135
  721TMC3     O10713   1.406   4.277  14.290  0.2307 -0.6321  0.2140
  721TMC3     H10714   1.623   4.239  14.385 -2.2764  1.7280 -0.0316
  721TMC3    H110715   1.610   4.500  14.048 -0.2758  1.6407  0.4582
  721TMC3    H210716   1.974   4.422  14.248 -0.0272 -1.0938  0.9449
  721TMC3    C710717   1.868   4.542  14.038  0.0662  0.6410 -0.0620
  721TMC3    C810718   1.885   4.266  14.423 -0.8873 -0.4506 -0.2558
  721TMC3    O110719   1.983   4.504  14.020 -0.0721 -0.9127 -0.0589
  721TMC3    O210720   1.992   4.239  14.372 -0.0722  0.3230  0.7663
  722MPD2     C10721   0.077   3.245  13.281  0.1630  0.8211  0.8895
  722MPD2    C110722   4.712   3.324  13.334  0.1783 -0.0584  0.7686
  722MPD2    C210723   4.589   3.322  13.276  0.1242  0.4000 -0.6702
  722MPD2    C310724   4.559   3.225  13.182 -1.4621  1.2443  0.4857
  722MPD2    C410725   4.654   3.140  13.143  0.2739  0.0274 -0.6473
  722MPD2    C510726   0.049   3.153  13.188  0.3525  0.7318 -0.5236
  722MPD2     H10727   4.517   3.396  13.310 -1.2215 -1.8579  1.3851
  722MPD2    H110728   4.641   3.060  13.071 -0.4160  1.3815 -2.0187
  722MPD2    H210729   0.182   3.260  13.304  1.6073 -2.3155 -3.7854
  722MPD2    H310730   0.124   3.094  13.137 -0.0439  1.1465 -1.5758
  722MPD2     N10731   4.428   3.228  13.119  0.1089  0.0559 -0.5138
  722MPD2    H510732   4.367   3.305  13.146  0.9212  0.4642  0.1417
  722MPD2    N110733   0.005   3.407  13.446  0.0141 -0.2190 -0.5056
  722MPD2    H710734   4.662   3.466  13.471 -0.2525 -1.2718  1.1820
  723TMC3    C110735   4.268   3.172  12.956 -0.0790  0.0240  0.3717
  723TMC3    C210736   4.172   3.077  12.934  0.7629 -0.0726 -0.7653
  723TMC3    C310737   4.070   3.121  12.854 -0.1470  0.1964 -0.1285
  723TMC3    C410738   4.253   3.304  12.915  0.5153 -0.2469 -0.0547
  723TMC3    C510739   4.153   3.330  12.833  0.0548  0.4992 -0.2516
  723TMC3    C610740   4.059   3.241  12.799  0.2763 -0.0741 -0.2740
  723TMC3     C10741   4.386   3.136  13.032  0.7123  0.9683  0.2355
  723TMC3     O10742   4.426   3.024  13.019 -0.1481  0.7425  0.0035
  723TMC3     H10743   4.178   2.986  12.992 -0.6104  0.9532  0.9779
  723TMC3    H110744   4.338   3.370  12.927  0.3846 -0.0800 -0.0510
  723TMC3    H210745   3.991   3.275  12.722 -0.2437  0.9301  0.6199
  723TMC3    C710746   4.178   3.417  12.723  0.0808 -0.4401  0.4148
  723TMC3    C810747   3.956   3.035  12.824 -0.2523 -0.0821  0.5928
  723TMC3    O110748   4.215   3.531  12.743  0.3576 -0.0419 -0.3045
  723TMC3    O210749   3.866   3.079  12.759  0.1296  0.4110 -0.5013
  724TMC3    C110750   0.010   1.008  10.306  0.0881  0.3866  0.1066
  724TMC3    C210751   0.048   0.996  10.175 -0.0834  0.5354  0.3904
  724TMC3    C310752   0.175   1.013  10.138  0.1396 -0.5147  0.3178
  724TMC3    C410753   0.103   1.048  10.399 -0.3653 -0.7576 -0.8154
  724TMC3    C510754   0.235   1.060  10.355 -0.4466  0.0074  0.0355
  724TMC3    C610755   0.278   1.042  10.225 -0.2241  0.4641  0.8765
  724TMC3     C10756   4.619   0.968  10.352 -0.1305 -0.1783 -0.1900
  724TMC3     O10757   4.614   0.916  10.463  0.0866 -0.2266 -0.2816
  724TMC3     H10758   4.710   0.947  10.112 -0.0686  2.0927 -0.8542
  724TMC3    H110759   0.077   1.074  10.501  2.2764  3.8701 -1.3255
  724TMC3    H210760   0.383   1.043  10.199  0.1567 -2.6934  2.1706
  724TMC3    C710761   0.340   1.129  10.438 -0.2863  0.9181 -0.1455
  724TMC3    C810762   0.198   1.038   9.997 -0.6762 -0.2458 -0.1546
  724TMC3    O110763   0.442   1.154  10.378 -0.5095  0.0106  0.6800
  724TMC3    O210764   0.124   0.988   9.913 -0.1919  0.1711 -0.5471
  725TMC3    C110765   1.632   0.236  12.553 -0.1223 -0.2819  0.7630
  725TMC3    C210766   1.540   0.269  12.455 -0.3618 -0.1734  0.0556
  725TMC3    C310767   1.430   0.194  12.450  0.3791  0.5364 -0.1731
  725TMC3    C410768   1.601   0.149  12.656 -0.5057  0.2148 -0.2045
  725TMC3    C510769   1.482   0.096  12.661  0.2974  0.1024  0.3002
  725TMC3    C610770   1.395   0.114  12.557  0.0375 -0.3952 -0.3347
  725TMC3     C10771   1.768   0.287  12.541  0.1901  0.4370  0.1426
  725TMC3     O10772   1.782   0.375  12.455  0.2483  0.1227 -0.0972
  725TMC3     H10773   1.576   0.320  12.366 -0.3261 -0.7964 -0.2833
  725TMC3    H110774   1.672   0.122  12.734  0.4738 -0.7854 -1.4546
  725TMC3    H210775   1.302   0.060  12.557 -0.6859  0.8380 -0.6485
  725TMC3    C710776   1.461   4.704  12.735 -0.6024  0.5121  0.1355
  725TMC3    C810777   1.344   0.178  12.334  0.1677  0.5280 -0.4569
  725TMC3    O110778   1.399   4.613  12.680  0.1306 -0.5087  0.0525
  725TMC3    O210779   1.266   0.086  12.339 -0.4882 -0.3867 -0.6002
  726MPD2     C10780   4.142   1.428  10.365 -0.4159  0.2246  0.3699
  726MPD2    C110781   4.135   1.501  10.480 -0.4037 -0.0345  0.3752
  726MPD2    C210782   4.125   1.442  10.602 -0.0505 -0.6931 -0.1586
  726MPD2    C310783   4.120   1.304  10.607  0.5781 -0.2362 -0.4511
  726MPD2    C410784   4.114   1.232  10.490 -0.3361  0.4403 -0.1019
  726MPD2    C510785   4.135   1.292  10.373 -0.2322 -0.3255 -0.6074
  726MPD2     H10786   4.125   1.503  10.692  0.6284 -0.3393 -0.4035
  726MPD2    H110787   4.111   1.124  10.491  0.8454  0.3800 -1.9447
  726MPD2    H210788   4.132   1.480  10.270 -1.5118  0.2919  0.5228
  726MPD2    H310789   4.132   1.248  10.274 -0.1562  0.3550 -0.9115
  726MPD2     N10790   4.096   1.229  10.728  0.2745  0.1928  0.4232
  726MPD2    H510791   4.095   1.128  10.717  0.0707 -0.1063  3.1756
  726MPD2    N110792   4.139   1.636  10.463  0.8916 -0.0890  0.0316
  726MPD2    H710793   4.162   1.689  10.546  1.9512  0.0426 -0.3489
  727TMC3    C110794   4.070   1.850  10.360  0.6589 -0.4638 -0.1638
  727TMC3    C210795   4.144   1.915  10.451 -0.7606 -0.0877 -0.3518
  727TMC3    C310796   4.130   2.048  10.469  0.4448 -0.3100  0.0945
  727TMC3    C410797   3.958   1.908  10.302  0.3200 -0.2908 -0.2966
  727TMC3    C510798   3.942   2.044  10.328 -0.3825 -0.1813 -0.0645
  727TMC3    C610799   4.026   2.118  10.408  0.3182  0.5611  0.3298
  727TMC3     C10800   4.085   1.701  10.347  0.0992 -1.0443 -0.5457
  727TMC3     O10801   4.006   1.661  10.265 -0.1452 -0.1320 -0.2234
  727TMC3     H10802   4.234   1.864  10.484 -2.4676 -0.9867  2.9728
  727TMC3    H110803   3.889   1.857  10.236 -1.7655  1.4787  0.4915
  727TMC3    H210804   4.009   2.223  10.429  1.1899  1.1521 -2.0243
  727TMC3    C710805   3.816   2.098  10.282  0.0362 -0.2209  0.7794
  727TMC3    C810806   4.228   2.116  10.555  0.5170  0.1800 -0.4222
  727TMC3    O110807   3.796   2.217  10.279 -0.1125  0.3989 -0.2534
  727TMC3    O210808   4.314   2.049  10.610 -0.3212  0.5919  0.4223
  728TMC3    C110809   3.978   4.701  16.108  0.3329 -0.4095 -0.4766
  728TMC3    C210810   4.082   4.698  16.024 -0.4520  0.6270 -0.4568
  728TMC3    C310811   4.065   4.731  15.890  0.8688  0.0359 -0.5522
  728TMC3    C410812   3.853   0.011  16.063  0.0896  0.6167 -0.9372
  728TMC3    C510813   3.852   0.062  15.936 -0.5886 -0.6746 -0.1619
  728TMC3    C610814   3.950   0.038  15.840  0.3267  0.5525  0.3223
  728TMC3     C10815   3.980   4.598  16.209 -0.5713  0.2497  0.1166
  728TMC3     O10816   4.087   4.592  16.268 -0.3186  0.5367 -0.0909
  728TMC3     H10817   4.183   4.669  16.052 -0.6097 -1.0715 -1.6421
  728TMC3    H110818   3.765   0.019  16.126  0.6297  0.5312 -0.1630
  728TMC3    H210819   3.947   0.075  15.738  1.6586 -3.1610 -1.0440
  728TMC3    C710820   3.725   0.103  15.882  0.6314 -0.0210  0.3434
  728TMC3    C810821   4.171   4.676  15.809 -0.0942 -0.1435  0.2505
  728TMC3    O110822   3.630   0.104  15.959 -0.2033  0.2295  0.0832
  728TMC3    O210823   4.258   4.602  15.858 -0.4423 -0.0395  0.0254
  729MPD2     C10824   1.109   0.874  17.117  0.1693  0.0712 -0.6484
  729MPD2    C110825   1.203   0.814  17.197 -0.7317 -0.0255  0.4022
  729MPD2    C210826   1.170   0.767  17.324 -0.2342  0.2879 -0.2356
  729MPD2    C310827   1.041   0.797  17.372  0.0315  0.0751 -0.5003
  729MPD2    C410828   0.942   0.856  17.297  0.6229 -0.0621  0.1387
  729MPD2    C510829   0.983   0.892  17.170 -0.0460 -0.7246  0.4196
  729MPD2     H10830   1.246   0.719  17.384 -0.9121  0.3948  0.7210
  729MPD2    H110831   0.842   0.879  17.330 -0.8559 -2.5684 -2.5345
  729MPD2    H210832   1.129   0.916  17.019 -0.6507 -3.2197 -2.2343
  729MPD2    H310833   0.917   0.955  17.111 -0.1494  0.1040  1.4165
  729MPD2     N10834   1.017   0.775  17.514  0.0107  0.5301 -0.8895
  729MPD2    H510835   0.921   0.787  17.545  0.2120 -1.6623  0.5218
  729MPD2    N110836   1.329   0.799  17.134 -0.7389  0.3225 -0.6451
  729MPD2    H710837   1.341   0.843  17.044 -0.7393  1.7054  0.0216
  730TMC3    C110838   1.091   0.719  17.729 -0.0122  0.8607 -0.1796
  730TMC3    C210839   1.178   0.635   0.061 -0.0095 -0.1916 -0.0013
  730TMC3    C310840   1.245   0.689   0.167 -0.9466  0.6369  0.3359
  730TMC3    C410841   1.072   0.847   0.030  0.1313 -0.8128  0.1550
  730TMC3    C510842   1.127   0.890   0.147 -0.2287  0.2207  0.2677
  730TMC3    C610843   1.213   0.811   0.217  0.2025  0.1952  0.2951
  730TMC3     C10844   1.090   0.690  17.589 -0.5148  0.2613 -0.2061
  730TMC3     O10845   1.164   0.596  17.558 -0.0364 -0.4148  0.2501
  730TMC3     H10846   1.197   0.533   0.027  0.0220 -0.0562 -0.3929
  730TMC3    H110847   1.013   0.912  17.709  0.9715 -1.8043 -1.6712
  730TMC3    H210848   1.265   0.857   0.300 -2.1452  1.2134  1.2226
  730TMC3    C710849   1.110   1.031   0.186  0.4411  0.5026 -0.0978
  730TMC3    C810850   1.381   0.650   0.169 -0.1347  0.1054 -0.5984
  730TMC3    O110851   1.096   1.067   0.303 -0.1315 -0.5370  0.0330
  730TMC3    O210852   1.406   0.560   0.096  0.2670 -0.3321 -0.2671
  731MPD2     C10853   0.684   4.284  12.453 -1.3548  0.1379  0.5949
  731MPD2    C110854   0.818   4.290  12.494 -0.4853  0.1741  0.2777
  731MPD2    C210855   0.851   4.246  12.619 -0.5033 -0.4199 -0.0980
  731MPD2    C310856   0.759   4.205  12.715  0.3178  0.2063 -0.5441
  731MPD2    C410857   0.631   4.195  12.674  0.3503  0.1938 -0.2003
  731MPD2    C510858   0.596   4.234  12.543  0.2006  0.7982  0.5164
  731MPD2     H10859   0.954   4.263  12.650 -0.6006  0.0263 -0.0213
  731MPD2    H110860   0.553   4.154  12.736 -0.2180 -0.3231 -1.2667
  731MPD2    H210861   0.646   4.316  12.357 -1.1074 -0.5949  0.2539
  731MPD2    H310862   0.492   4.230  12.512  0.3503 -2.1790  0.4221
  731MPD2     N10863   0.808   4.164  12.842  0.2895  0.1650  0.1192
  731MPD2    H510864   0.909   4.169  12.854  0.1519  2.9561  0.1971
  731MPD2    N110865   0.908   4.351  12.404  0.0732 -0.4676 -0.3071
  731MPD2    H710866   0.869   4.396  12.321  1.3079 -0.0850 -0.6801
  732TMC3    C110867   1.109   4.463  12.324  0.3701 -0.5644  0.5186
  732TMC3    C210868   1.059   4.460  12.200 -0.3104  0.3602 -0.2127
  732TMC3    C310869   1.133   4.526  12.107 -0.2785  0.1223  0.2300
  732TMC3    C410870   1.239   4.510  12.351  0.0771 -0.1914  0.0454
  732TMC3    C510871   1.311   4.563  12.251 -0.3273 -0.2104  0.6730
  732TMC3    C610872   1.263   4.572  12.123  0.1151 -0.1526 -0.0666
  732TMC3     C10873   1.043   4.394  12.429  0.3695  0.2180 -0.8790
  732TMC3     O10874   1.105   4.387  12.536 -0.0225  0.2524  0.5904
  732TMC3     H10875   0.966   4.407  12.178  0.5016 -0.3492 -1.9696
  732TMC3    H110876   1.273   4.506  12.454 -1.4322 -3.2180  0.4373
  732TMC3    H210877   1.322   4.628  12.051 -1.7084  1.5522 -0.2600
  732TMC3    C710878   1.457   4.562  12.265  0.5974 -0.2584 -0.1123
  732TMC3    C810879   1.089   4.527  11.967 -0.0071  0.0244 -0.5358
  732TMC3    O110880   1.536   4.640  12.209 -0.3856 -0.0367  0.3454
  732TMC3    O210881   1.170   4.535  11.879  0.5578 -0.2330 -0.3577
  733TMC3    C110882   1.700   2.192  13.477 -0.1899  0.0085  0.0343
  733TMC3    C210883   1.818   2.209  13.530  0.9940 -0.0370 -0.6449
  733TMC3    C310884   1.919   2.266  13.452 -0.1929  0.3069 -0.4455
  733TMC3    C410885   1.663   2.246  13.354  0.9945  0.6288  0.0505
  733TMC3    C510886   1.769   2.297  13.285 -0.5567 -0.5508 -0.1243
  733TMC3    C610887   1.896   2.306  13.328 -0.0619 -0.1209 -0.4734
  733TMC3     C10888   1.589   2.146  13.563  0.1041 -0.0695  0.1695
  733TMC3     O10889   1.592   2.032  13.613  0.0321  0.0538 -0.4296
  733TMC3     H10890   1.828   2.208  13.638 -1.3265 -0.8095 -0.4532
  733TMC3    H110891   1.563   2.244  13.313  1.5059  2.2890 -1.2648
  733TMC3    H210892   1.971   2.330  13.254  0.1536  0.3202 -0.1075
  733TMC3    C710893   1.726   2.378  13.173  0.0701  0.4745 -1.0031
  733TMC3    C810894   2.052   2.296  13.507  0.5149 -0.6578  0.2704
  733TMC3    O110895   1.618   2.360  13.126 -0.0342  0.0182 -0.4470
  733TMC3    O210896   2.112   2.220  13.582 -0.1440  0.0218  0.4209
  734MPD2     C10897   4.321   0.545  12.224  0.7420 -0.3454  0.0826
  734MPD2    C110898   4.241   0.435  12.231 -0.0280  0.4182  0.6171
  734MPD2    C210899   4.214   0.357  12.117  0.4284 -0.2911 -0.4115
  734MPD2    C310900   4.241   0.400  11.995 -0.3281  0.5322  0.9722
  734MPD2    C410901   4.314   0.517  11.982 -0.2093 -0.0890 -0.0152
  734MPD2    C510902   4.349   0.589  12.098  1.0005  0.7174 -0.4632
  734MPD2     H10903   4.164   0.262  12.135  2.1824 -1.3497 -1.1704
  734MPD2    H110904   4.325   0.563  11.884  0.9652 -0.4068 -0.0310
  734MPD2    H210905   4.342   0.610  12.308 -2.2874  1.2628 -0.4020
  734MPD2    H310906   4.401   0.684  12.095 -0.6482  1.6026 -0.6408
  734MPD2     N10907   4.195   0.322  11.887  0.6027 -0.1104  0.1444
  734MPD2    H510908   4.173   0.226  11.911 -1.4896  0.6924  1.3953
  734MPD2    N110909   4.211   0.387  12.367  0.7546  0.0495 -0.7757
  734MPD2    H710910   4.252   0.438  12.444  0.2784 -1.2995  0.3785
  735TMC3    C110911   4.114   0.243  12.525 -0.0197 -0.0986  0.3814
  735TMC3    C210912   3.994   0.182  12.550  0.0119  0.3452  0.2782
  735TMC3    C310913   3.982   0.047  12.592 -0.0546  0.0106 -0.8919
  735TMC3    C410914   4.224   0.173  12.541  0.5354  0.0855 -0.6578
  735TMC3    C510915   4.220   0.041  12.581  0.1912  0.3963  0.0593
  735TMC3    C610916   4.099   4.712  12.611 -0.9921  0.0701 -0.1451
  735TMC3     C10917   4.112   0.299  12.398 -0.4936 -0.9490  0.1089
  735TMC3     O10918   4.023   0.257  12.325 -0.2462  0.5108  0.4951
  735TMC3     H10919   3.910   0.248  12.536  0.7675  1.4392  0.8413
  735TMC3    H110920   4.320   0.218  12.523  1.4999 -2.2309 -1.2763
  735TMC3    H210921   4.097   4.605  12.628  1.2409  0.2424  1.2413
  735TMC3    C710922   4.320   4.703  12.513  0.7744  0.0993 -0.2074
  735TMC3    C810923   3.888   4.704  12.511 -0.2961 -0.4866 -0.5132
  735TMC3    O110924   4.348   0.010  12.405  0.6442 -0.0874 -0.1746
  735TMC3    O210925   3.891   4.583  12.530 -0.9130  0.1718 -0.1746
  736MPD2     C10926   4.476   4.375  12.597 -0.6650 -0.1305 -0.1648
  736MPD2    C110927   4.434   4.480  12.519 -0.0909  0.3396 -0.7342
  736MPD2    C210928   4.477   4.475  12.388 -0.1829  0.3837 -0.7333
  736MPD2    C310929   4.547   4.367  12.340  0.3933 -0.3183 -0.0464
  736MPD2    C410930   4.599   4.270  12.421  0.6060  0.5397 -0.3709
  736MPD2    C510931   4.554   4.271  12.549 -0.1249  0.2980 -0.7475
  736MPD2     H10932   4.455   4.557  12.320  2.6072  1.6027 -0.1755
  736MPD2    H110933   4.656   4.187  12.381  0.1970  1.1932 -2.3013
  736MPD2    H210934   4.453   4.376  12.703  3.2633 -0.2526  0.6698
  736MPD2    H310935   4.572   4.186  12.614 -2.1190 -1.5897 -2.6990
  736MPD2     N10936   4.571   4.361  12.199 -0.3200  0.1085 -0.1359
  736MPD2    H510937   4.615   4.276  12.165  0.7106  0.3394  0.6403
  736MPD2    N110938   4.353   4.583  12.579 -0.1587 -0.6321  0.4136
  736MPD2    H710939   4.331   4.579  12.678  0.1034 -1.6175  0.4299
  737TMC3    C110940   4.551   4.435  11.970  0.4941 -0.0021 -0.2453
  737TMC3    C210941   4.574   4.539  11.886  0.6362 -0.6620  0.3279
  737TMC3    C310942   4.611   4.514  11.755 -0.4327 -0.1477  0.1513
  737TMC3    C410943   4.564   4.308  11.921  0.3226  0.3819 -0.1552
  737TMC3    C510944   4.607   4.287  11.792 -0.0423 -0.0041 -0.4307
  737TMC3    C610945   4.625   4.394  11.701  0.4479 -0.4004 -0.3960
  737TMC3     C10946   4.549   4.464  12.112  0.3157 -0.9031  0.3123
  737TMC3     O10947   4.560   4.581  12.144 -0.2119 -0.1337 -0.3396
  737TMC3     H10948   4.582   4.642  11.918 -2.1489 -1.2297  2.7702
  737TMC3    H110949   4.576   4.224  11.990 -1.0456  3.1514  3.4705
  737TMC3    H210950   4.663   4.371  11.602 -0.5331 -1.1467 -0.5968
  737TMC3    C710951   4.657   4.149  11.757 -0.2314 -0.1911  0.2811
  737TMC3    C810952   4.657   4.624  11.677  0.5645 -0.3722 -0.2469
  737TMC3    O110953   4.607   4.049  11.802 -0.2357 -0.6603 -0.5429
  737TMC3    O210954   4.726   4.712  11.728 -0.0907 -0.2366 -0.3274
  738MPD2     C10955   4.504   3.565  14.815 -0.6559 -0.8577 -0.2291
  738MPD2    C110956   4.558   3.513  14.933 -0.8102 -0.1759  0.1306
  738MPD2    C210957   4.685   3.540  14.971 -0.7928  0.7346  0.0622
  738MPD2    C310958   0.024   3.625  14.891 -0.6072  0.4050 -0.4444
  738MPD2    C410959   4.703   3.684  14.780 -0.6986 -0.8896 -0.0695
  738MPD2    C510960   4.573   3.652  14.735 -0.1116 -0.5812 -0.2450
  738MPD2     H10961   4.724   3.493  15.060 -0.4140 -0.5754 -0.7892
  738MPD2    H110962   0.029   3.750  14.720 -0.2194  0.4364  1.8732
  738MPD2    H210963   4.409   3.536  14.771 -2.2741  1.7303  1.5465
  738MPD2    H310964   4.544   3.680  14.634  0.0852 -1.6626 -0.6031
  738MPD2     N10965   0.164   3.647  14.918 -0.2976 -0.1318  0.5732
  738MPD2    H510966   0.219   3.690  14.845 -1.7819 -0.9088 -1.0177
  738MPD2    N110967   4.476   3.426  15.014  0.3421 -0.0005  0.0065
  738MPD2    H710968   4.521   3.379  15.093  0.5360 -0.7926 -0.5766
  739TMC3    C110969   0.366   3.660  15.016  1.6185 -0.4694  1.2913
  739TMC3    C210970   0.425   3.619  14.903 -0.3267 -0.0101 -0.1028
  739TMC3    C310971   0.549   3.667  14.872 -0.3317 -0.2479  0.6587
  739TMC3    C410972   0.426   3.733  15.111 -0.3542  0.1508 -0.0134
  739TMC3    C510973   0.561   3.759  15.085 -0.1405  0.0844 -0.3612
  739TMC3    C610974   0.624   3.736  14.963  0.0296  0.2274  0.7210
  739TMC3     C10975   0.234   3.631  15.036 -0.1106 -0.1717 -0.0218
  739TMC3     O10976   0.196   3.614  15.155  0.3690 -0.3647 -0.6040
  739TMC3     H10977   0.372   3.555  14.832  1.0310  0.1035 -1.2075
  739TMC3    H110978   0.368   3.766  15.197  0.2489  0.0563  0.4297
  739TMC3    H210979   0.724   3.772  14.943 -0.7524  1.0585 -1.6735
  739TMC3    C710980   0.634   3.834  15.185 -0.0521 -0.0940  0.0475
  739TMC3    C810981   0.596   3.651  14.734  0.6342  0.0307 -0.3652
  739TMC3    O110982   0.707   3.927  15.145  0.1843  0.6169 -0.1393
  739TMC3    O210983   0.534   3.574  14.659  0.1011  0.2620  0.4011
  740TMC3    C110984   1.169   0.172  14.266  0.1507  0.0514 -0.6240
  740TMC3    C210985   1.202   0.100  14.378  0.7548  0.3681  0.4124
  740TMC3    C310986   1.320   0.023  14.374 -0.0562  0.7557 -0.4854
  740TMC3    C410987   1.246   0.181  14.154  0.9202  0.4888 -0.1330
  740TMC3    C510988   1.361   0.105  14.151  1.3044  0.2197  0.1509
  740TMC3    C610989   1.394   0.028  14.261  0.0481  0.6743  0.2268
  740TMC3     C10990   1.051   0.253  14.270  0.0491 -0.5055 -0.4908
  740TMC3     O10991   1.035   0.339  14.181 -0.3453 -0.0779  0.9561
  740TMC3     H10992   1.149   0.090  14.473  1.8955  1.0872  1.1188
  740TMC3    H110993   1.214   0.232  14.064  0.1920 -1.9954 -1.2923
  740TMC3    H210994   1.482   4.701  14.266 -1.2076 -1.0315  1.0024
  740TMC3    C710995   1.439   0.081  14.032  0.6778  0.1282  0.0130
  740TMC3    C810996   1.386   4.733  14.499 -0.8606 -0.2783  0.0458
  740TMC3    O110997   1.516   4.728  14.029 -0.0439  0.1531 -0.1072
  740TMC3    O210998   1.482   4.656  14.496 -0.4661 -0.0962 -0.3473
  741TMC3    C110999   0.476   4.391  14.324  0.3328  0.0665  0.2682
  741TMC3    C211000   0.347   4.347  14.299 -0.6683 -0.5894  0.1300
  741TMC3    C311001   0.294   4.272  14.397 -0.2041  0.1592 -0.3176
  741TMC3    C411002   0.543   4.369  14.439  0.4385  0.0096  0.2984
  741TMC3    C511003   0.481   4.294  14.537  0.4098 -0.0092 -0.1555
  741TMC3    C611004   0.354   4.240  14.511  0.4820 -0.4998 -0.1314
  741TMC3     C11005   0.514   4.506  14.266  0.3663  0.0684  0.2279
  741TMC3     O11006   0.630   4.515  14.236  0.3463 -0.2977 -0.6548
  741TMC3     H11007   0.319   4.367  14.196  0.5409 -1.5755 -0.3849
  741TMC3    H111008   0.643   4.412  14.441  1.0375 -1.2600 -2.5417
  741TMC3    H211009   0.306   4.182  14.590  2.1212 -1.1236  0.4128
  741TMC3    C711010   0.508   4.324  14.678 -0.5518  0.0109  0.3303
  741TMC3    C811011   0.187   4.187  14.341  0.5471 -0.1693  0.4997
  741TMC3    O111012   0.414   4.303  14.755  0.0726  0.9510  0.0583
  741TMC3    O211013   0.121   4.244  14.250 -0.0827  0.5630  0.1295
  742TMC3    C111014   0.338   2.443  15.852  0.3418 -0.5083 -0.5218
  742TMC3    C211015   0.313   2.429  15.715  0.7136  1.0042 -0.3568
  742TMC3    C311016   0.377   2.329  15.646 -0.5417  0.0141 -0.1765
  742TMC3    C411017   0.436   2.363  15.914 -0.6667  0.2406 -0.8452
  742TMC3    C511018   0.500   2.278  15.838  0.1357  0.0908  0.0848
  742TMC3    C611019   0.481   2.257  15.706 -0.0684  0.6276  0.6230
  742TMC3     C11020   0.278   2.547  15.937  0.0963 -0.5508  0.7439
  742TMC3     O11021   0.356   2.599  16.019  0.2553 -0.6294 -0.5335
  742TMC3     H11022   0.220   2.470  15.677  0.3309  0.1199 -0.3724
  742TMC3    H111023   0.476   2.390  16.011 -0.3347  1.0525 -1.2031
  742TMC3    H211024   0.539   2.183  15.652 -0.8242  0.4117  0.1193
  742TMC3    C711025   0.611   2.201  15.892 -0.2829  0.1434 -0.0115
  742TMC3    C811026   0.330   2.298  15.510  0.1399  0.2328  0.2873
  742TMC3    O111027   0.689   2.142  15.814 -0.4896  0.4372 -0.3958
  742TMC3    O211028   0.327   2.182  15.472  0.1892  0.5269  0.1125
  743MPD2     C11029   2.165   1.905   1.578  0.0426 -0.4203  0.2444
  743MPD2    C111030   2.230   1.926   1.459 -0.1468 -0.0840  0.5493
  743MPD2    C211031   2.344   1.853   1.432  0.2049 -0.1381  0.1382
  743MPD2    C311032   2.380   1.740   1.511  0.2562  0.3758 -0.1347
  743MPD2    C411033   2.315   1.721   1.627  0.3083 -0.3214 -0.5146
  743MPD2    C511034   2.204   1.804   1.660  0.3220  0.2664  0.1666
  743MPD2     H11035   2.411   1.874   1.349 -0.4252  1.1367 -0.0409
  743MPD2    H111036   2.339   1.643   1.698  0.4035  0.8765  0.7634
  743MPD2    H211037   2.085   1.970   1.609  1.2346  1.4792 -0.6715
  743MPD2    H311038   2.155   1.779   1.753  0.8711 -1.3935  0.0057
  743MPD2     N11039   2.486   1.658   1.465  0.8921 -0.0944 -0.0158
  743MPD2    H511040   2.527   1.677   1.374  2.0763 -0.5723  0.4264
  743MPD2    N111041   2.188   2.037   1.383  0.3643  0.0365  0.4582
  743MPD2    H711042   2.111   2.092   1.419 -0.6709  0.3276 -2.2600
  744TMC3    C111043   2.171   2.181   1.194  0.2698 -0.3327  0.0356
  744TMC3    C211044   2.106   2.279   1.267  0.2175 -0.5878  0.5914
  744TMC3    C311045   2.025   2.364   1.204 -0.1738 -0.1447  0.6094
  744TMC3    C411046   2.163   2.182   1.055  0.9001  0.1623  0.0733
  744TMC3    C511047   2.083   2.270   1.000  0.2428  0.0539 -0.4289
  744TMC3    C611048   2.016   2.364   1.071 -0.7147 -0.1094 -0.5452
  744TMC3     C11049   2.231   2.056   1.254  0.1016 -0.7198 -0.1730
  744TMC3     O11050   2.290   1.980   1.183  0.1036 -0.2701 -0.0389
  744TMC3     H11051   2.125   2.292   1.373 -2.3596 -0.8604  1.0926
  744TMC3    H111052   2.225   2.109   1.005  1.7918 -0.0698  1.5262
  744TMC3    H211053   1.964   2.449   1.029  0.0128 -0.0847 -1.3860
  744TMC3    C711054   2.080   2.257   0.854  0.2909 -0.1093 -0.1791
  744TMC3    C811055   1.965   2.474   1.268 -0.2914 -0.1688  0.1655
  744TMC3    O111056   2.161   2.186   0.796 -0.5430  0.6131 -0.2303
  744TMC3    O211057   1.939   2.580   1.205 -0.2884  0.4887 -0.2109
  745TMC3    C111058   0.358   2.054  14.310 -0.1243  0.3418  0.3300
  745TMC3    C211059   0.286   2.053  14.428  0.6696  0.9327  0.0435
  745TMC3    C311060   0.181   2.141  14.445 -0.7526  0.1369 -0.2163
  745TMC3    C411061   0.325   2.141  14.209  0.0673  0.2171  0.1629
  745TMC3    C511062   0.215   2.217  14.223 -0.3517 -0.1054  0.1957
  745TMC3    C611063   0.144   2.222  14.336  0.6322  0.5577 -0.3099
  745TMC3     C11064   0.498   2.048  14.316  0.9123 -0.2614  0.6390
  745TMC3     O11065   0.535   1.952  14.389  0.0493  0.5400  0.3838
  745TMC3     H11066   0.320   1.988  14.508  0.9562  0.5861 -0.3590
  745TMC3    H111067   0.368   2.124  14.111  0.3268  0.0978  0.2994
  745TMC3    H211068   0.050   2.275  14.329 -0.5560 -1.3606  1.1434
  745TMC3    C711069   0.184   2.323  14.132 -0.4141 -0.3698 -0.9022
  745TMC3    C811070   0.190   2.227  14.554  0.4014  0.1509 -0.0562
  745TMC3    O111071   0.069   2.369  14.125  0.0870 -0.8950  0.1074
  745TMC3    O211072   0.092   2.292  14.574 -0.0364 -0.2502 -0.0266
  746TMC3    C111073   3.235   4.039  11.377 -0.6393  0.6242  0.1327
  746TMC3    C211074   3.297   4.006  11.257 -0.4937  0.9285 -0.0307
  746TMC3    C311075   3.273   3.875  11.211  0.2823  0.9111  0.2652
  746TMC3    C411076   3.149   3.955  11.447 -0.4758  0.6981  0.8380
  746TMC3    C511077   3.114   3.836  11.380  0.1560 -0.0133  0.6394
  746TMC3    C611078   3.174   3.794  11.265  0.5140  0.2587 -0.6390
  746TMC3     C11079   3.210   4.184  11.396  0.1780  0.3346  0.7098
  746TMC3     O11080   3.120   4.212  11.478 -0.0328  0.0563  0.4047
  746TMC3     H11081   3.375   4.069  11.217  0.2069 -0.6467 -1.1402
  746TMC3    H111082   3.092   3.991  11.532 -0.1955  0.3507  1.1778
  746TMC3    H211083   3.158   3.701  11.212 -0.3880  0.0831 -0.0605
  746TMC3    C711084   2.993   3.761  11.411 -0.2487 -0.3817  0.6707
  746TMC3    C811085   3.306   3.852  11.070  0.3284 -0.4019  0.7430
  746TMC3    O111086   2.954   3.683  11.326  0.4194  0.7980  0.1442
  746TMC3    O211087   3.219   3.800  11.003 -0.1456 -0.5779  0.2098
  747TMC3    C111088   0.813   3.912  11.169  0.3747  0.8691 -1.1129
  747TMC3    C211089   0.690   3.879  11.206 -0.1308 -0.5921 -0.0459
  747TMC3    C311090   0.619   3.956  11.297 -1.2392  0.4256  0.2104
  747TMC3    C411091   0.881   4.015  11.231 -0.6729 -0.0243  0.6712
  747TMC3    C511092   0.811   4.094  11.320 -0.0638  0.7091  0.1487
  747TMC3    C611093   0.682   4.065  11.350 -0.2373 -0.3137  0.3916
  747TMC3     C11094   0.873   3.900  11.034  0.4852  0.3918 -0.5202
  747TMC3     O11095   0.955   3.990  11.013 -0.3941 -0.0341  0.0666
  747TMC3     H11096   0.649   3.792  11.157  0.5221 -1.3078  0.6762
  747TMC3    H111097   0.988   4.030  11.233 -0.7885  0.8942 -0.4502
  747TMC3    H211098   0.640   4.126  11.429 -0.2908  0.4703 -0.2494
  747TMC3    C711099   0.820   4.234  11.284  1.2048 -0.5790  0.2562
  747TMC3    C811100   0.497   3.899  11.365  0.5626  0.2282  0.2020
  747TMC3    O111101   0.755   4.320  11.346  0.7854 -0.0427 -0.3990
  747TMC3    O211102   0.492   3.778  11.345 -0.3286  0.5794  0.1919
  748MPD2     C11103   1.992   4.375   1.897 -0.7446  0.4978  0.5217
  748MPD2    C111104   2.004   4.241   1.897  0.3026  0.3972  0.5724
  748MPD2    C211105   2.092   4.176   1.812 -0.5627  0.5279  0.3421
  748MPD2    C311106   2.177   4.253   1.731  1.0909 -0.3186  0.0347
  748MPD2    C411107   2.170   4.391   1.733  0.4196 -0.4533  0.3052
  748MPD2    C511108   2.072   4.445   1.816  0.4486  0.5247 -0.2336
  748MPD2     H11109   2.108   4.069   1.821 -2.4278  0.0551 -2.2843
  748MPD2    H111110   2.226   4.456   1.666 -0.1736 -0.8552 -0.5883
  748MPD2    H211111   1.926   4.433   1.959  1.5309  0.1683  3.2494
  748MPD2    H311112   2.063   4.553   1.816  0.4712  0.5279  1.8713
  748MPD2     N11113   2.268   4.177   1.649  0.3957 -0.5852  0.7015
  748MPD2    H511114   2.260   4.077   1.637 -0.9145 -0.4390  0.4113
  748MPD2    N111115   1.915   4.165   1.979 -0.3677 -0.4886 -0.4073
  748MPD2    H711116   1.833   4.206   2.024 -0.2061 -0.8085  0.1827
  749TMC3    C111117   2.450   4.141   1.499 -0.8044  0.4923 -0.3069
  749TMC3    C211118   2.402   4.019   1.454  0.4638  0.0853  0.4244
  749TMC3    C311119   2.484   3.948   1.368  0.1205  0.1881  0.4367
  749TMC3    C411120   2.574   4.190   1.454  0.3963  0.2004 -0.2663
  749TMC3    C511121   2.655   4.118   1.369 -0.8111  0.2722 -0.2578
  749TMC3    C611122   2.609   3.995   1.325 -0.0130  0.4277 -0.2412
  749TMC3     C11123   2.378   4.234   1.585  0.2076 -0.1084 -0.4252
  749TMC3     O11124   2.424   4.347   1.606 -0.3770  0.6260  0.0762
  749TMC3     H11125   2.311   3.970   1.486  0.1402  0.3269 -0.1246
  749TMC3    H111126   2.607   4.291   1.478 -0.0263  0.4043 -0.5382
  749TMC3    H211127   2.671   3.947   1.250 -0.1114 -0.0625 -0.0042
  749TMC3    C711128   2.781   4.175   1.327  0.5968  0.1489 -0.1925
  749TMC3    C811129   2.421   3.830   1.296  0.1667  0.6536  0.4212
  749TMC3    O111130   2.783   4.296   1.354  0.0376  0.2456 -0.2279
  749TMC3    O211131   2.301   3.819   1.307  0.1202  0.6582  0.0834
  750MPD2     C11132   2.964   1.174  11.498 -0.1282 -0.0915 -0.5419
  750MPD2    C111133   2.879   1.209  11.391 -0.2065  0.4062 -0.4616
  750MPD2    C211134   2.844   1.121  11.292 -0.0361 -0.1574 -0.3787
  750MPD2    C311135   2.917   1.001  11.287  0.7664 -0.4403  0.2148
  750MPD2    C411136   2.993   0.964  11.397  0.5778  0.3592 -0.1401
  750MPD2    C511137   3.014   1.045  11.506  0.4811 -0.0826 -0.1396
  750MPD2     H11138   2.779   1.147  11.210 -1.3485  0.4780  0.8637
  750MPD2    H111139   3.037   0.865  11.404 -0.0979  0.0176 -0.5962
  750MPD2    H211140   2.983   1.243  11.579 -0.3602  0.5839 -1.0688
  750MPD2    H311141   3.068   1.004  11.591  1.3640 -1.2480 -1.2619
  750MPD2     N11142   2.905   0.907  11.188  0.1244 -0.2756  0.0940
  750MPD2    H511143   2.940   0.817  11.219 -1.2314 -2.0818 -3.6026
  750MPD2    N111144   2.837   1.350  11.387 -0.2988 -0.7146 -0.3678
  750MPD2    H711145   2.876   1.410  11.459 -0.2461 -1.9325  0.6221
  751TMC3    C111146   2.887   0.799  10.989  0.2117  0.1917  0.2292
  751TMC3    C211147   2.845   0.686  11.045  0.6530  0.2081 -0.0566
  751TMC3    C311148   2.850   0.569  10.971 -0.6222 -0.1779  0.8159
  751TMC3    C411149   2.915   0.801  10.854  0.3579  0.0583  0.2605
  751TMC3    C511150   2.917   0.687  10.787  0.0932  0.4449 -0.6179
  751TMC3    C611151   2.895   0.561  10.845 -0.3671 -0.5928 -0.7503
  751TMC3     C11152   2.871   0.920  11.057  0.0429 -0.2272  0.3744
  751TMC3     O11153   2.867   1.024  10.991 -0.3408  0.5119  0.7176
  751TMC3     H11154   2.787   0.695  11.135 -0.0954 -1.8503 -0.3449
  751TMC3    H111155   2.944   0.893  10.804 -2.2353  0.3567 -0.6769
  751TMC3    H211156   2.905   0.466  10.795  0.2292 -1.6087  1.3070
  751TMC3    C711157   2.938   0.701  10.642 -0.3980  0.5861  0.0478
  751TMC3    C811158   2.782   0.448  11.018 -0.3669 -0.0391  0.1784
  751TMC3    O111159   2.986   0.808  10.602 -0.2149  0.3394  0.1738
  751TMC3    O211160   2.767   0.350  10.945 -0.1432  0.3035  0.1755
  752TMC3    C111161   2.020   0.079   0.047  0.2070 -0.4866 -0.6534
  752TMC3    C211162   1.981   4.690   0.081 -0.2559  0.5692 -0.0820
  752TMC3    C311163   1.947   4.665   0.213 -0.0767  0.5568 -0.2107
  752TMC3    C411164   2.048   0.179   0.140 -0.0509 -0.5264  0.3283
  752TMC3    C511165   2.020   0.148   0.269  1.2324  0.0735  0.0826
  752TMC3    C611166   1.968   0.030   0.307 -0.3071 -0.7744 -0.3734
  752TMC3     C11167   2.066   0.103  17.657 -0.7147  0.2481  0.4604
  752TMC3     O11168   2.130   0.013  17.603 -0.3002  0.7561 -0.4617
  752TMC3     H11169   1.974   4.622  17.739  0.2939  1.2846 -0.7101
  752TMC3    H111170   2.096   0.272   0.111  0.9493 -1.2179 -0.2714
  752TMC3    H211171   1.938   0.011   0.409 -3.6243 -1.2019 -1.4093
  752TMC3    C711172   2.029   0.247   0.372 -0.1775  0.4691  0.4779
  752TMC3    C811173   1.873   4.541   0.234 -0.2908 -0.0235 -0.7585
  752TMC3    O111174   2.054   0.213   0.489 -0.5858 -0.7153 -0.0833
  752TMC3    O211175   1.855   4.477   0.132  0.6448 -0.6023  0.5745
  753TMC3    C111176   3.534   2.207  13.442 -0.2141 -0.0693 -0.2184
  753TMC3    C211177   3.615   2.160  13.544  0.3683  0.3151 -0.5883
  753TMC3    C311178   3.570   2.064  13.633 -0.6233 -0.3772 -0.5752
  753TMC3    C411179   3.408   2.149  13.434  0.0223  0.1886 -0.0682
  753TMC3    C511180   3.363   2.054  13.523 -0.1291 -0.2199 -0.0755
  753TMC3    C611181   3.439   2.013  13.625  0.4470 -0.2572  0.5440
  753TMC3     C11182   3.561   2.323  13.362  0.4702  0.0478 -0.3280
  753TMC3     O11183   3.466   2.378  13.306  0.3769 -0.0545  0.0143
  753TMC3     H11184   3.713   2.206  13.554  0.6001 -0.0483 -1.2100
  753TMC3    H111185   3.341   2.194  13.362  0.8185  2.2767  0.4757
  753TMC3    H211186   3.400   1.942  13.698  0.7270  0.2158  1.1534
  753TMC3    C711187   3.225   2.007  13.506  0.4253 -0.2969  0.0674
  753TMC3    C811188   3.626   2.065  13.761 -0.3812  0.0791 -0.3189
  753TMC3    O111189   3.148   2.081  13.440  0.3854 -0.2777 -0.4016
  753TMC3    O211190   3.627   1.967  13.833 -0.1943  0.9342  0.4271
  754MPD2     C11191   2.847   1.266  12.953  0.0090  0.6326 -0.8615
  754MPD2    C111192   2.842   1.128  12.943  0.0134  0.5249 -0.9542
  754MPD2    C211193   2.732   1.064  12.898  0.0246  0.4838 -0.5626
  754MPD2    C311194   2.619   1.142  12.876 -1.0098 -0.6832 -0.4106
  754MPD2    C411195   2.621   1.276  12.898 -0.1717 -0.7338 -0.5271
  754MPD2    C511196   2.735   1.338  12.930  0.6045 -0.5714 -0.5402
  754MPD2     H11197   2.729   0.955  12.897 -2.0568  0.5326 -0.7984
  754MPD2    H111198   2.527   1.329  12.887  0.9184  1.7751  2.3606
  754MPD2    H211199   2.934   1.315  12.995  0.3328 -1.5161  0.9986
  754MPD2    H311200   2.738   1.446  12.943 -1.6802 -0.7963  1.7778
  754MPD2     N11201   2.493   1.094  12.833  0.4022  0.0366  0.6482
  754MPD2    H511202   2.418   1.161  12.830  0.4970  0.1839  1.6807
  754MPD2    N111203   2.963   1.050  12.982 -0.1286  0.3583  0.0890
  754MPD2    H711204   3.039   1.100  13.028  0.7584 -2.4957  1.7194
  755MPD2     C11205   1.823   1.511  13.115 -0.2838  0.1320  0.2776
  755MPD2    C111206   1.758   1.397  13.072 -0.1439 -0.5139 -0.9264
  755MPD2    C211207   1.838   1.296  13.008  0.0601 -0.3992  0.2127
  755MPD2    C311208   1.972   1.316  12.988 -0.0465  0.0195  0.0916
  755MPD2    C411209   2.029   1.432  13.032 -0.3636  0.4668 -0.8045
  755MPD2    C511210   1.955   1.530  13.093 -0.0098 -0.4036 -0.0558
  755MPD2     H11211   1.785   1.210  12.970  0.8519  0.8002 -3.6428
  755MPD2    H111212   2.135   1.449  13.024  0.3395 -3.0415  1.1055
  755MPD2    H211213   1.770   1.591  13.164  0.1863  0.5923  0.0345
  755MPD2    H311214   1.997   1.628  13.113  2.6191 -1.6655  0.5475
  755MPD2     N11215   2.047   1.225  12.915 -0.2715 -0.2463 -0.2864
  755MPD2    H511216   2.144   1.250  12.896 -0.7468  2.0999  0.3563
  755MPD2    N111217   1.616   1.373  13.082 -0.2383 -0.1612 -0.4455
  755MPD2    H711218   1.577   1.281  13.067 -1.2248 -0.1007  1.8384
  756MPD2     C11219   2.946   2.390   9.775 -0.3919  0.1767  0.1554
  756MPD2    C111220   2.869   2.314   9.853 -0.2204 -0.0092  0.0801
  756MPD2    C211221   2.757   2.247   9.807  0.2091 -0.2575  0.3625
  756MPD2    C311222   2.726   2.246   9.676  0.3572 -0.2518  1.0016
  756MPD2    C411223   2.799   2.329   9.591 -0.5279  0.0274  0.0116
  756MPD2    C511224   2.910   2.399   9.642 -0.3021 -0.1267  0.3712
  756MPD2     H11225   2.693   2.192   9.875 -1.2403  1.0560  0.0621
  756MPD2    H111226   2.779   2.346   9.486 -0.9105  1.0581  0.2448
  756MPD2    H211227   3.032   2.440   9.817 -0.8903  1.5683 -0.4923
  756MPD2    H311228   2.972   2.455   9.573 -1.5513 -2.0945 -2.3558
  756MPD2     N11229   2.609   2.175   9.634 -0.7609 -0.3162 -0.0492
  756MPD2    H511230   2.561   2.130   9.712 -0.3230 -0.4498  0.1420
  756MPD2    N111231   2.888   2.322   9.994 -0.5585  0.3220 -0.3993
  756MPD2    H711232   2.813   2.284  10.052 -0.5525  0.6232 -0.1970
  757MPD2     C11233   1.730   1.657   9.759  0.2670 -0.3800 -0.1403
  757MPD2    C111234   1.828   1.560   9.754 -0.3309  0.4498  1.1205
  757MPD2    C211235   1.958   1.595   9.720  0.0014  0.1373 -0.4722
  757MPD2    C311236   1.989   1.725   9.684 -0.0859 -1.0462  0.6331
  757MPD2    C411237   1.884   1.819   9.676  0.1153 -0.3543 -0.3805
  757MPD2    C511238   1.760   1.784   9.721  0.2262  0.3865  0.3024
  757MPD2     H11239   2.041   1.527   9.732 -0.6547 -0.4415  0.7461
  757MPD2    H111240   1.900   1.918   9.636  0.9710 -0.0514  0.7397
  757MPD2    H211241   1.629   1.621   9.775  1.0011 -2.1184  0.5789
  757MPD2    H311242   1.688   1.865   9.728  0.2102  0.5396 -1.5738
  757MPD2     N11243   2.118   1.761   9.658 -0.0729  0.5998 -0.2103
  757MPD2    H511244   2.181   1.683   9.646 -2.1970 -0.8771 -1.8188
  757MPD2    N111245   1.790   1.425   9.776 -0.1866  0.3482 -0.5430
  757MPD2    H711246   1.699   1.408   9.819  0.1934  1.5256  0.7592
  758MPD2     C11247   2.595   0.756  16.086 -0.2827  0.5702 -0.7982
  758MPD2    C111248   2.628   0.645  16.160 -0.2754  0.5141  0.0390
  758MPD2    C211249   2.565   0.622  16.285 -0.2624  0.2303 -0.9284
  758MPD2    C311250   2.459   0.700  16.325  0.6654 -0.3305 -0.2739
  758MPD2    C411251   2.426   0.810  16.245  0.2749 -0.5521 -0.4998
  758MPD2    C511252   2.494   0.838  16.133 -0.7810 -0.0297  0.3157
  758MPD2     H11253   2.609   0.545  16.348 -0.6555  0.6053 -0.1901
  758MPD2    H111254   2.343   0.872  16.275  0.2490 -0.9770  0.3035
  758MPD2    H211255   2.641   0.772  15.989 -0.2883 -0.9972 -1.0503
  758MPD2    H311256   2.464   0.920  16.067  0.1303  0.0024 -0.0566
  758MPD2     N11257   2.394   0.684  16.448 -0.8695 -0.1263 -0.2768
  758MPD2    H511258   2.309   0.736  16.466 -1.1978 -0.6054 -0.4531
  758MPD2    N111259   2.735   0.565  16.108 -0.0628  0.3463  0.1462
  758MPD2    H711260   2.779   0.587  16.019  3.6293 -0.7770  1.6912
  759MPD2     C11261   1.041   3.338  10.952  0.6905 -0.5005 -0.8415
  759MPD2    C111262   1.090   3.220  10.893 -0.3003 -0.1670  0.2209
  759MPD2    C211263   1.175   3.243  10.793 -0.4126  0.1683 -0.5862
  759MPD2    C311264   1.225   3.366  10.754 -0.1873  0.2368  0.0800
  759MPD2    C411265   1.191   3.474  10.821 -0.4736 -0.2980  0.6747
  759MPD2    C511266   1.104   3.452  10.924 -0.2130 -0.0872  0.3610
  759MPD2     H11267   1.221   3.160  10.741 -0.7060 -0.1863 -0.2708
  759MPD2    H111268   1.229   3.574  10.803 -4.0234  1.3232  2.0261
  759MPD2    H211269   0.981   3.324  11.042  0.5610 -0.0984 -0.8699
  759MPD2    H311270   1.085   3.541  10.982 -0.8048 -1.0826  1.6960
  759MPD2     N11271   1.299   3.357  10.639 -0.1412  0.3040 -0.6229
  759MPD2    H511272   1.325   3.266  10.604  1.2160  0.7541 -0.8031
  759MPD2    N111273   1.039   3.089  10.911  0.2900 -0.3170  0.2218
  759MPD2    H711274   1.089   3.011  10.868 -0.7489 -0.7978 -0.1096
  760MPD2     C11275   0.939   1.218  12.062  0.2707  0.5041  0.6749
  760MPD2    C111276   0.999   1.254  11.939  0.2369  0.0586 -0.2158
  760MPD2    C211277   1.035   1.152  11.856 -0.3542  0.1037  0.5214
  760MPD2    C311278   1.008   1.022  11.888 -0.4297  0.7860  0.3097
  760MPD2    C411279   0.947   0.987  12.007  0.6719  0.4253 -0.0165
  760MPD2    C511280   0.912   1.092  12.091  1.1821 -0.1759 -0.4499
  760MPD2     H11281   1.072   1.175  11.757 -0.8059 -0.9775  0.0981
  760MPD2    H111282   0.942   0.884  12.042  2.7926  0.1186 -0.6125
  760MPD2    H211283   0.916   1.289  12.141 -1.3536 -0.2637  0.8927
  760MPD2    H311284   0.861   1.063  12.182  1.6297  0.0278 -0.1328
  760MPD2     N11285   1.040   0.924  11.796  0.4056 -0.1669 -0.2399
  760MPD2    H511286   0.998   0.836  11.825 -0.2591  0.9380  2.1896
  760MPD2    N111287   1.042   1.384  11.908 -0.1257  0.2385 -0.3860
  760MPD2    H711288   1.110   1.394  11.833 -0.3868 -1.8445 -0.8958
  761MPD2     C11289   2.488   0.230  11.388 -0.0436 -0.2980  0.0068
  761MPD2    C111290   2.511   0.197  11.258  0.6383  0.1463  0.2398
  761MPD2    C211291   2.601   0.266  11.181  0.0950  0.9399 -0.3351
  761MPD2    C311292   2.667   0.382  11.232  0.3955 -0.0978 -0.3369
  761MPD2    C411293   2.643   0.413  11.366 -0.3005  0.3152  0.3156
  761MPD2    C511294   2.545   0.345  11.435 -0.5812  0.4569  0.3815
  761MPD2     H11295   2.624   0.237  11.079 -0.6684 -0.9858  0.0320
  761MPD2    H111296   2.697   0.490  11.419 -2.6845  2.6484 -0.6010
  761MPD2    H211297   2.425   0.179  11.460  0.1093 -0.0067  0.3440
  761MPD2    H311298   2.518   0.388  11.531  1.0109 -1.8616  1.8558
  761MPD2     N11299   2.751   0.466  11.155 -0.1691  0.7471 -0.2139
  761MPD2    H511300   2.804   0.539  11.202 -2.9024  2.1959  0.6048
  761MPD2    N111301   2.470   0.064  11.215  0.0977  0.4553  0.1330
  761MPD2    H711302   2.415   0.014  11.284 -1.6785 -0.0830 -1.6882
  762MPD2     C11303   2.420   4.067  10.638 -0.2365  0.4306 -0.3252
  762MPD2    C111304   2.470   4.192  10.670  0.0481 -0.3854 -0.4437
  762MPD2    C211305   2.596   4.221  10.616  0.3276  0.0819  0.5610
  762MPD2    C311306   2.665   4.136  10.532  0.4739 -0.5424 -0.0202
  762MPD2    C411307   2.610   4.014  10.500 -0.5079  0.2778 -0.4456
  762MPD2    C511308   2.493   3.976  10.553 -0.2256  0.6774 -0.4906
  762MPD2     H11309   2.646   4.309  10.655 -1.4496  1.7994 -1.0023
  762MPD2    H111310   2.652   3.948  10.425 -0.6661  0.5698 -0.7906
  762MPD2    H211311   2.324   4.034  10.677 -0.3257 -0.8446 -1.6091
  762MPD2    H311312   2.448   3.880  10.531 -0.5223  0.5768  0.5480
  762MPD2     N11313   2.791   4.178  10.482  0.1787 -0.2177 -0.5111
  762MPD2    H511314   2.831   4.269  10.504  1.5465 -0.8574 -0.3378
  762MPD2    N111315   2.405   4.272  10.766 -0.0360 -0.1828  0.3026
  762MPD2    H711316   2.332   4.239  10.828  0.5687 -0.2486  0.9771
  763MPD2     C11317   4.354   0.059  16.341  0.7745  0.3792 -0.2697
  763MPD2    C111318   4.310   0.158  16.258  0.6084 -0.0787 -0.4561
  763MPD2    C211319   4.232   0.256  16.311  0.7301 -0.3350 -0.0723
  763MPD2    C311320   4.208   0.270  16.449 -0.3665 -0.2411 -0.4458
  763MPD2    C411321   4.251   0.174  16.533  0.1650  0.1595  0.1056
  763MPD2    C511322   4.321   0.073  16.476 -0.4578 -0.1032  0.0110
  763MPD2     H11323   4.200   0.332  16.240  0.1017 -2.1155 -1.6972
  763MPD2    H111324   4.230   0.170  16.639 -1.3488  2.2885 -0.1216
  763MPD2    H211325   4.409   4.709  16.304 -0.8038 -1.4690  1.6708
  763MPD2    H311326   4.346   4.725  16.540 -2.0876  0.8641  1.8834
  763MPD2     N11327   4.144   0.382  16.503  0.5635 -0.4630 -0.0907
  763MPD2    H511328   4.162   0.396  16.602 -2.9885  1.7713  0.2086
  763MPD2    N111329   4.352   0.174  16.129 -1.1040 -0.0143  0.4011
  763MPD2    H711330   4.323   0.262  16.089 -0.4372  0.3900  0.8009
  764MPD2     C11331   3.057   1.609   0.889 -0.2387 -0.2577 -0.1080
  764MPD2    C111332   2.945   1.657   0.825 -0.2587  0.2591  0.2251
  764MPD2    C211333   2.824   1.595   0.863 -0.1324  0.3147 -0.4908
  764MPD2    C311334   2.814   1.499   0.959 -0.4042  0.0813  0.6842
  764MPD2    C411335   2.931   1.434   1.006 -0.2154  0.5262  0.1280
  764MPD2    C511336   3.047   1.493   0.963 -0.3366  0.6451  0.7746
  764MPD2     H11337   2.738   1.640   0.813 -1.9103 -2.8465 -0.2327
  764MPD2    H111338   2.937   1.356   1.081 -1.4955 -1.2726 -1.6243
  764MPD2    H211339   3.156   1.641   0.858 -0.6102  0.7569 -0.2425
  764MPD2    H311340   3.135   1.449   1.007 -0.7349  0.0218  0.9436
  764MPD2     N11341   2.683   1.457   0.997  0.7081  0.4069 -0.2654
  764MPD2    H511342   2.602   1.504   0.959 -1.9395 -2.5049  1.8170
  764MPD2    N111343   2.942   1.764   0.735  0.2826 -0.0734  0.8160
  764MPD2    H711344   2.855   1.788   0.689  0.0836 -0.9546  0.7291
  765MPD2     C11345   3.104   4.538  15.687  0.2998  0.6298  0.1109
  765MPD2    C111346   3.000   4.511  15.779  0.4858  0.4504 -0.4397
  765MPD2    C211347   3.011   4.401  15.857  0.6595  0.5871 -0.5618
  765MPD2    C311348   3.121   4.318  15.849 -0.7299 -0.2828  0.3229
  765MPD2    C411349   3.222   4.337  15.750 -0.3670  0.5250 -0.0410
  765MPD2    C511350   3.204   4.444  15.665  0.7544  0.6861  0.6289
  765MPD2     H11351   2.939   4.385  15.936  1.5812 -1.0021 -0.0285
  765MPD2    H111352   3.311   4.279  15.730 -1.5216 -0.9831 -0.7439
  765MPD2    H211353   3.103   4.621  15.618  1.4566  0.3112 -0.2837
  765MPD2    H311354   3.278   4.452  15.587  0.4325  0.3767  0.2909
  765MPD2     N11355   3.125   4.210  15.943 -0.1192 -0.2947  0.3427
  765MPD2    H511356   3.043   4.201  16.001 -0.3198  0.6915  0.2190
  765MPD2    N111357   2.892   4.598  15.780  0.3820 -0.6327 -0.8890
  765MPD2    H711358   2.892   4.668  15.706  1.6977 -1.0975 -1.3186
  766MPD2     C11359   2.077   0.134  15.607  0.8412 -0.3525 -0.8808
  766MPD2    C111360   2.204   0.087  15.592 -0.3132  0.4148 -0.2021
  766MPD2    C211361   2.247   0.041  15.465  0.0939 -0.0125  0.0573
  766MPD2    C311362   2.166   0.046  15.359  0.2607  0.0655 -0.0041
  766MPD2    C411363   2.045   0.104  15.365  0.2807  0.1042  0.2077
  766MPD2    C511364   2.004   0.145  15.488  0.0789 -1.0399  0.2247
  766MPD2     H11365   2.344   4.733  15.449  0.7287  1.4761 -0.1535
  766MPD2    H111366   1.978   0.105  15.280 -1.1855 -1.2766  1.3340
  766MPD2    H211367   2.038   0.179  15.698 -1.3522 -2.9311 -0.5490
  766MPD2    H311368   1.907   0.193  15.492 -0.3881 -2.1293  2.3636
  766MPD2     N11369   2.192   4.734  15.234  0.4984  0.2729  0.0640
  766MPD2    H511370   2.118   0.004  15.165  2.2131  2.1556 -1.6283
  766MPD2    N111371   2.287   0.091  15.703  0.2512 -0.2238 -0.6288
  766MPD2    H711372   2.258   0.141  15.786 -0.7015 -1.3715 -0.2728
  767MPD2     C11373   1.836   0.436  15.198 -0.7775 -0.0394 -0.7919
  767MPD2    C111374   1.956   0.406  15.135  0.3444 -0.5199  0.0843
  767MPD2    C211375   1.954   0.344  15.008 -0.6465  0.1282  0.0569
  767MPD2    C311376   1.834   0.333  14.938  0.5592 -0.2234 -0.4515
  767MPD2    C411377   1.713   0.374  14.996  0.5605  0.5723 -0.0049
  767MPD2    C511378   1.720   0.426  15.125 -0.5529 -0.3521  0.8347
  767MPD2     H11379   2.046   0.302  14.969 -0.2541  0.8089  0.2647
  767MPD2    H111380   1.614   0.368  14.951  1.5683  0.1866 -2.1775
  767MPD2    H211381   1.842   0.466  15.302 -1.5853 -0.2576 -0.6778
  767MPD2    H311382   1.628   0.451  15.176  0.0061  2.1813  0.6497
  767MPD2     N11383   1.845   0.280  14.809 -0.2539 -0.1956 -0.5228
  767MPD2    H511384   1.937   0.248  14.782 -1.2811 -1.1143 -2.9824
  767MPD2    N111385   2.067   0.414  15.219  0.7408  0.2383  0.7747
  767MPD2    H711386   2.047   0.453  15.310 -2.6830  0.4358 -0.0752
  768MPD2     C11387   2.599   3.095  11.002  0.2425 -0.9412  0.1344
  768MPD2    C111388   2.627   3.206  11.074 -0.3306 -0.0574 -0.3119
  768MPD2    C211389   2.759   3.237  11.103  0.0046  0.2148  0.3094
  768MPD2    C311390   2.869   3.154  11.070 -1.0475  0.0515 -0.3572
  768MPD2    C411391   2.829   3.036  11.012 -0.1998 -0.8143 -0.0717
  768MPD2    C511392   2.700   3.013  10.967  0.3176 -0.0041  0.1874
  768MPD2     H11393   2.775   3.325  11.165 -0.7507 -0.6424  1.7110
  768MPD2    H111394   2.902   2.961  10.982 -0.1085 -0.1758 -1.4565
  768MPD2    H211395   2.500   3.062  10.972 -0.3988  2.6462 -1.6118
  768MPD2    H311396   2.666   2.919  10.927 -1.5394  1.2797 -1.2471
  768MPD2     N11397   3.004   3.182  11.104 -0.3398  0.3284  0.9774
  768MPD2    H511398   3.063   3.099  11.111  0.9447  1.0412 -1.5632
  768MPD2    N111399   2.533   3.309  11.104  0.7344  0.3206 -0.4126
  768MPD2    H711400   2.576   3.392  11.143  0.8606 -0.2167  0.5619
  769MPD2     C11401   3.739   1.476  14.768 -0.3852  0.0869 -0.1256
  769MPD2    C111402   3.713   1.577  14.864  0.0602 -0.3660  0.2414
  769MPD2    C211403   3.775   1.571  14.987  0.5719 -0.2186  0.0096
  769MPD2    C311404   3.859   1.469  15.019  0.3945  0.8806  0.6231
  769MPD2    C411405   3.892   1.373  14.929 -0.3220 -0.5333 -0.0804
  769MPD2    C511406   3.827   1.374  14.807  0.3450  0.1020  1.1162
  769MPD2     H11407   3.761   1.654  15.056  2.3917 -0.5296  0.7605
  769MPD2    H111408   3.947   1.284  14.955 -1.9416 -1.6192 -0.3749
  769MPD2    H211409   3.685   1.471  14.674 -1.7869  2.1025  0.5598
  769MPD2    H311410   3.847   1.286  14.746  0.9634  0.6550  0.5129
  769MPD2     N11411   3.924   1.477  15.145  0.1251 -0.0805  0.5453
  769MPD2    H511412   3.887   1.550  15.205  0.2503  0.3855  0.0539
  769MPD2    N111413   3.614   1.669  14.826  0.1765  0.0248  0.2092
  769MPD2    H711414   3.578   1.651  14.733  0.3694 -1.6932  0.4642
  770MPD2     C11415   3.085   1.415  15.462  0.0008  0.1051  0.1422
  770MPD2    C111416   3.106   1.340  15.349  0.4691  0.7700 -0.3237
  770MPD2    C211417   3.130   1.410  15.229 -0.6660 -0.4067 -0.1152
  770MPD2    C311418   3.105   1.548  15.227 -0.8887  0.0996 -0.3816
  770MPD2    C411419   3.077   1.610  15.343  0.2597  0.4213  0.1866
  770MPD2    C511420   3.073   1.551  15.463  0.3425 -0.1078  0.3489
  770MPD2     H11421   3.179   1.360  15.146 -1.6748 -0.5003 -0.6599
  770MPD2    H111422   3.053   1.715  15.354 -1.1740  0.2868 -1.6141
  770MPD2    H211423   3.084   1.367  15.559 -1.6433  2.3269  1.2276
  770MPD2    H311424   3.033   1.592  15.555  1.2318  2.2282 -0.3057
  770MPD2     N11425   3.125   1.618  15.102 -0.3151  0.3537 -0.1836
  770MPD2    H511426   3.135   1.561  15.018 -0.5927  0.7332 -0.4733
  770MPD2    N111427   3.132   1.200  15.367  0.2383  0.0952 -0.2020
  770MPD2    H711428   3.133   1.165  15.462  1.4666  1.5636  0.3197
  771MPD2     C11429   4.111   4.433  12.996  0.2363  0.2697  0.3704
  771MPD2    C111430   3.979   4.425  12.955 -0.0872  0.4061  0.3843
  771MPD2    C211431   3.946   4.350  12.847  0.1851  0.0702 -0.4994
  771MPD2    C311432   4.041   4.295  12.766  0.0927 -0.5306  0.6201
  771MPD2    C411433   4.179   4.307  12.804 -0.0953  0.3193  0.1058
  771MPD2    C511434   4.208   4.371  12.923 -0.0381 -0.4515  0.6684
  771MPD2     H11435   3.844   4.340  12.812 -0.6639  2.0232  1.4059
  771MPD2    H111436   4.267   4.273  12.752 -0.1857  0.7611 -0.3401
  771MPD2    H211437   4.145   4.489  13.083 -1.2317  0.0043  1.1300
  771MPD2    H311438   4.312   4.371  12.955  0.9217 -2.1156 -2.5086
  771MPD2     N11439   3.996   4.220  12.652  0.4244  0.8217 -0.2097
  771MPD2    H511440   3.897   4.201  12.638  0.2810 -0.9766  3.1753
  771MPD2    N111441   3.870   4.473  13.031 -0.3631 -0.7057 -0.2750
  771MPD2    H711442   3.775   4.465  12.998 -0.9048 -1.1684  1.3817
  772MPD2     C11443   3.537   4.014  13.049  0.3797 -0.2349  0.6250
  772MPD2    C111444   3.471   4.093  13.146  0.1769 -0.1698  0.7851
  772MPD2    C211445   3.349   4.035  13.192 -1.1993 -0.6393  0.5163
  772MPD2    C311446   3.311   3.908  13.159 -0.9319 -0.6415  0.1444
  772MPD2    C411447   3.382   3.833  13.078 -0.8447 -0.1869  0.6513
  772MPD2    C511448   3.501   3.886  13.024  1.4155  0.1339 -0.3543
  772MPD2     H11449   3.297   4.093  13.267 -0.1160  2.2308 -0.9201
  772MPD2    H111450   3.367   3.728  13.057 -0.9423 -0.5502  2.6090
  772MPD2    H211451   3.616   4.061  12.991 -0.0480 -1.9507 -1.3557
  772MPD2    H311452   3.560   3.826  12.956 -0.9878 -1.1282 -1.3178
  772MPD2     N11453   3.201   3.838  13.202  0.1906 -0.4131 -0.2355
  772MPD2    H511454   3.214   3.737  13.201 -0.7510 -0.5314  0.0947
  772MPD2    N111455   3.525   4.216  13.191 -0.6562  0.2461  1.0190
  772MPD2    H711456   3.616   4.232  13.150  1.4065 -3.1255  4.3617
  773MPD2     C11457   3.333   4.704   0.558 -0.4029  0.0888 -0.6033
  773MPD2    C111458   3.230   4.645   0.487 -0.1467 -0.2159 -0.1300
  773MPD2    C211459   3.250   4.515   0.435 -0.4042  0.1966 -0.6573
  773MPD2    C311460   3.373   4.453   0.458 -1.2959  0.6276 -0.8893
  773MPD2    C411461   3.465   4.513   0.540  0.6090 -0.8084 -0.7433
  773MPD2    C511462   3.448   4.639   0.585 -0.9615 -0.1320 -0.5372
  773MPD2     H11463   3.165   4.454   0.405  0.6318 -1.7577  0.3634
  773MPD2    H111464   3.549   4.458   0.580  0.6346 -0.6603 -0.5909
  773MPD2    H211465   3.316   0.064   0.606 -2.2647 -0.6491  0.1876
  773MPD2    H311466   3.523   4.686   0.648  0.6182 -0.7050 -2.0017
  773MPD2     N11467   3.383   4.323   0.417  0.4381  0.5214  0.1820
  773MPD2    H511468   3.299   4.283   0.375  1.2345 -1.0528  0.1102
  773MPD2    N111469   3.111   4.714   0.448 -0.2892 -0.7549 -0.3080
  773MPD2    H711470   3.057   4.668   0.375  0.1518 -0.3684 -0.8834
  774MPD2     C11471   2.936   0.033  13.077  0.1671 -0.3773 -0.0608
  774MPD2    C111472   2.875   0.108  13.178  0.2265  0.2103  0.5561
  774MPD2    C211473   2.925   0.234  13.200 -0.6213 -0.5010 -1.2050
  774MPD2    C311474   3.023   0.290  13.121  0.1885  0.0322  0.8344
  774MPD2    C411475   3.094   0.208  13.037 -0.1682  0.3361  0.7405
  774MPD2    C511476   3.056   0.079  13.010  0.3274  0.4413  0.2178
  774MPD2     H11477   2.866   0.311  13.249  1.3651 -0.5832  1.3467
  774MPD2    H111478   3.183   0.236  12.982 -0.8970  1.1549 -0.0121
  774MPD2    H211479   2.900   4.671  13.050 -0.2339 -1.1342  3.2340
  774MPD2    H311480   3.113   0.024  12.937 -1.1550 -1.6618  0.6489
  774MPD2     N11481   3.047   0.427  13.137  0.2786  0.1112 -0.2450
  774MPD2    H511482   2.989   0.478  13.203  1.2852  0.2251  0.5392
  774MPD2    N111483   2.753   0.054  13.239  0.5388 -0.1015 -0.4196
  774MPD2    H711484   2.714   4.701  13.209 -3.4352  1.1341  0.9715
  775MPD2     C11485   0.022   1.754  16.242 -0.3121  0.2112 -0.1348
  775MPD2    C111486   4.640   1.739  16.168 -0.0866  0.0526 -0.0180
  775MPD2    C211487   4.626   1.808  16.052  0.1623  0.6530  0.3325
  775MPD2    C311488   4.726   1.890  16.000  0.2712 -0.8125 -0.4169
  775MPD2    C411489   0.109   1.902  16.077  0.5009 -0.8161 -0.0237
  775MPD2    C511490   0.120   1.836  16.197  0.0225 -0.4008 -0.2555
  775MPD2     H11491   4.529   1.810  16.003  0.7687  1.3406 -0.8466
  775MPD2    H111492   0.179   1.977  16.042  1.4593 -0.9347  1.6449
  775MPD2    H211493   0.021   1.701  16.336 -1.5089  0.5929  0.0648
  775MPD2    H311494   0.203   1.842  16.266  0.3478  2.7240 -0.9426
  775MPD2     N11495   4.701   1.971  15.882  0.4702 -0.1567  0.6622
  775MPD2    H511496   0.035   2.042  15.862 -0.9739  0.9821 -0.2860
  775MPD2    N111497   4.531   1.683  16.238  0.0486 -0.0708 -0.1171
  775MPD2    H711498   4.539   1.646  16.332 -1.5293 -1.2877 -0.4502
  776MPD2     C11499   2.774   2.147  11.136 -0.1618  0.2638 -0.4501
  776MPD2    C111500   2.859   2.079  11.223  0.0463 -0.2445 -0.7266
  776MPD2    C211501   2.976   2.141  11.265  0.0267 -0.0517  0.0930
  776MPD2    C311502   3.008   2.273  11.226 -0.6600 -0.1688 -0.0782
  776MPD2    C411503   2.930   2.331  11.129  0.4336  0.2904  0.0703
  776MPD2    C511504   2.811   2.278  11.092 -0.0192  0.4227 -0.2832
  776MPD2     H11505   3.043   2.092  11.335 -1.2994 -1.2814  0.5026
  776MPD2    H111506   2.962   2.418  11.073  0.7056  0.3853  0.3692
  776MPD2    H211507   2.699   2.097  11.076  0.5852 -0.4309 -0.8138
  776MPD2    H311508   2.769   2.321  11.002  0.4551  1.1321 -0.1631
  776MPD2     N11509   3.127   2.344  11.264 -0.0156  0.0864 -0.2117
  776MPD2    H511510   3.139   2.437  11.227  0.4592  0.4785  0.9403
  776MPD2    N111511   2.827   1.943  11.258  0.3790 -0.4134 -0.6834
  776MPD2    H711512   2.753   1.901  11.203 -1.3462  1.3105  0.3385
  777MPD2     C11513   3.084   2.726   0.630 -0.3569  1.4219 -0.2632
  777MPD2    C111514   2.983   2.827   0.632  0.0292  0.3287  0.0041
  777MPD2    C211515   2.873   2.818   0.547  0.2182  0.8145  0.1420
  777MPD2    C311516   2.859   2.713   0.460 -0.7544 -0.7647 -0.5013
  777MPD2    C411517   2.960   2.618   0.449  0.7043  0.6750  0.1045
  777MPD2    C511518   3.071   2.631   0.532  0.0158  0.2790 -0.1730
  777MPD2     H11519   2.792   2.889   0.557 -1.0824 -0.2642 -2.5000
  777MPD2    H111520   2.960   2.549   0.365 -0.7494  2.8834 -1.7336
  777MPD2    H211521   3.161   2.722   0.706 -2.0246 -0.9718  1.2849
  777MPD2    H311522   3.157   2.566   0.529  0.6858  1.0504  2.2354
  777MPD2     N11523   2.743   2.705   0.387 -0.2179 -0.3347  0.4143
  777MPD2    H511524   2.679   2.784   0.391  2.7991  2.1538 -0.6748
  777MPD2    N111525   3.004   2.925   0.720  0.4559  0.3632  0.4283
  777MPD2    H711526   3.080   2.910   0.786  0.8415 -0.9316 -0.3322
  778MPD2     C11527   4.572   4.685  14.878  0.2490 -0.0284 -0.6923
  778MPD2    C111528   4.520   4.577  14.804 -0.2392 -0.7191 -0.2835
  778MPD2    C211529   4.516   4.592  14.668  0.5072 -0.8203 -0.6040
  778MPD2    C311530   4.577   4.696  14.609 -0.2431 -0.1924 -0.3219
  778MPD2    C411531   4.639   0.062  14.682 -0.1564 -0.1553  0.5689
  778MPD2    C511532   4.632   0.052  14.815  0.6182 -0.0822  0.1903
  778MPD2     H11533   4.462   4.514  14.615 -2.3139  1.6871 -1.4224
  778MPD2    H111534   4.683   0.150  14.635 -1.7657  0.7210  0.6946
  778MPD2    H211535   4.571   4.694  14.986  2.4830  1.0718 -0.7502
  778MPD2    H311536   4.672   0.133  14.876  2.4866 -2.0878  1.6256
  778MPD2     N11537   4.563   4.704  14.467 -0.2927  0.0486  0.2181
  778MPD2    H511538   4.505   4.630  14.428 -1.1166 -0.0491  1.6388
  778MPD2    N111539   4.449   4.468  14.858 -0.0663 -0.5173 -0.4497
  778MPD2    H711540   4.405   4.403  14.793  0.0068 -0.7753 -0.2428
  779MPD2     C11541   3.847   3.287  14.118 -0.6699 -0.1934 -0.3589
  779MPD2    C111542   3.985   3.285  14.099 -0.7867 -0.3820 -0.9874
  779MPD2    C211543   4.063   3.396  14.107 -0.0561  0.1906 -0.3101
  779MPD2    C311544   3.986   3.515  14.131  0.7008 -0.8756 -0.1966
  779MPD2    C411545   3.848   3.520  14.129  0.5882  0.4390 -0.6408
  779MPD2    C511546   3.790   3.403  14.133  0.0282  0.5499  0.0832
  779MPD2     H11547   4.171   3.399  14.099  0.0753  0.6823  1.7032
  779MPD2    H111548   3.792   3.613  14.135 -1.3847 -0.8357  0.6602
  779MPD2    H211549   3.800   3.189  14.118 -1.5886  0.2554 -0.4113
  779MPD2    H311550   3.682   3.405  14.140  0.1940  2.1010  2.0817
  779MPD2     N11551   4.069   3.636  14.145 -0.2059 -0.4265 -0.2691
  779MPD2    H511552   4.168   3.631  14.128 -0.1252  1.7844 -0.3805
  779MPD2    N111553   4.058   3.167  14.068  0.1780 -0.2764 -0.2402
  779MPD2    H711554   4.158   3.160  14.083  0.1931  2.7691  1.1125
  780MPD2     C11555   3.880   2.059   0.993 -0.5239 -0.4423 -0.3269
  780MPD2    C111556   3.838   2.037   0.864  0.3458 -0.0892 -0.1324
  780MPD2    C211557   3.891   2.116   0.760  0.3446  0.0241 -0.5841
  780MPD2    C311558   3.989   2.207   0.786  0.2095 -0.0358  0.0286
  780MPD2    C411559   4.026   2.231   0.917 -0.2365 -0.0920 -0.2757
  780MPD2    C511560   3.972   2.155   1.020  0.5493  0.0771  0.5116
  780MPD2     H11561   3.844   2.117   0.663  0.7552  0.1301 -0.7828
  780MPD2    H111562   4.088   2.314   0.949  0.0652 -0.0538 -0.9552
  780MPD2    H211563   3.854   2.001   1.081 -1.9611  1.6351  0.6177
  780MPD2    H311564   4.011   2.169   1.120  2.1218 -0.6788 -0.0009
  780MPD2     N11565   4.034   2.292   0.676 -0.6110  0.1332 -0.8465
  780MPD2    H511566   3.996   2.269   0.585 -1.3792 -1.9366 -0.0008
  780MPD2    N111567   3.750   1.926   0.839 -0.4906  0.1616  1.6560
  780MPD2    H711568   3.705   1.886   0.920 -1.6327 -0.4264  0.7307
  781MPD2     C11569   0.818   0.661  11.882  0.7808  0.1105 -0.1320
  781MPD2    C111570   0.849   0.527  11.877 -0.7679 -0.4645 -0.0842
  781MPD2    C211571   0.829   0.466  11.754 -0.9484 -0.1680  0.0249
  781MPD2    C311572   0.780   0.538  11.646 -0.1969 -0.5320  0.0733
  781MPD2    C411573   0.738   0.665  11.662  0.0089 -0.1589 -0.3767
  781MPD2    C511574   0.753   0.726  11.781  0.9296  0.4500 -0.0527
  781MPD2     H11575   0.853   0.361  11.739  2.6489  0.4273  1.7424
  781MPD2    H111576   0.690   0.709  11.576  0.6031 -0.5928 -0.9250
  781MPD2    H211577   0.833   0.711  11.977  0.7189 -1.2308  0.5881
  781MPD2    H311578   0.716   0.827  11.797  0.9447  0.3636  0.5514
  781MPD2     N11579   0.768   0.487  11.511  0.2861 -0.1730 -0.1726
  781MPD2    H511580   0.728   0.554  11.446 -1.9217 -1.8462 -0.5547
  781MPD2    N111581   0.912   0.457  11.985 -0.1813  0.4975  0.9520
  781MPD2    H711582   0.934   0.358  11.980  1.9542  0.8890  2.6715
  782MPD2     C11583   3.304   0.849  10.537  0.0063 -0.4185 -0.6973
  782MPD2    C111584   3.390   0.939  10.478 -0.6005 -0.1271  0.4014
  782MPD2    C211585   3.505   0.972  10.544  0.6410  0.0397  0.0391
  782MPD2    C311586   3.543   0.918  10.661 -0.1660 -0.3753  0.3939
  782MPD2    C411587   3.468   0.817  10.713  0.5489 -0.2095  0.0243
  782MPD2    C511588   3.349   0.786  10.652  0.4014  0.3515 -0.0970
  782MPD2     H11589   3.564   1.051  10.498  1.6451  0.1362  1.4918
  782MPD2    H111590   3.504   0.764  10.801  0.2500 -1.0109 -0.3302
  782MPD2    H211591   3.216   0.816  10.483 -0.0584  2.0679 -2.1376
  782MPD2    H311592   3.285   0.711  10.697  0.5835 -0.9396 -1.9519
  782MPD2     N11593   3.665   0.970  10.727  0.2463  0.6165  0.5682
  782MPD2    H511594   3.715   1.049  10.687 -0.3731 -0.0674 -1.5543
  782MPD2    N111595   3.364   1.002  10.348 -0.5910  0.0275 -0.4986
  782MPD2    H711596   3.440   1.061  10.316  0.0668 -0.8845 -0.6020
  783MPD2     C11597   2.894   0.452  10.376  0.9331  0.5556 -0.6068
  783MPD2    C111598   2.923   0.573  10.432 -0.2883  0.1338  0.5644
  783MPD2    C211599   2.967   0.671  10.351 -0.2653 -0.3508  0.1025
  783MPD2    C311600   2.975   0.649  10.212 -0.5846  0.6959 -0.8582
  783MPD2    C411601   2.939   0.527  10.159  0.5187 -0.0964  0.3893
  783MPD2    C511602   2.901   0.431  10.249  0.3350 -0.7684  0.2215
  783MPD2     H11603   3.018   0.757  10.393 -1.5268 -0.1047  1.1297
  783MPD2    H111604   2.949   0.499  10.055 -1.4651 -2.1180  0.7526
  783MPD2    H211605   2.856   0.367  10.431  2.0800  0.8441  0.6381
  783MPD2    H311606   2.878   0.334  10.205  0.2632 -0.4022 -0.5527
  783MPD2     N11607   3.050   0.745  10.146 -0.4240  0.1430 -0.3833
  783MPD2    H511608   3.096   0.821  10.195  0.0712  0.2410 -0.9859
  783MPD2    N111609   2.905   0.588  10.574 -0.4684 -0.0932  0.1554
  783MPD2    H711610   2.879   0.508  10.631 -1.0759 -0.6039 -0.8478
  784MPD2     C11611   1.149   0.069   0.545 -0.3225 -0.5956 -0.2537
  784MPD2    C111612   1.122   0.180   0.627  0.3370  0.4331 -0.8915
  784MPD2    C211613   0.990   0.238   0.626 -0.0421 -0.2738  0.1216
  784MPD2    C311614   0.900   0.194   0.535  0.2976  0.9375 -0.4417
  784MPD2    C411615   0.929   0.089   0.449 -0.7347 -0.7722  0.5969
  784MPD2    C511616   1.054   0.030   0.450 -0.9404 -0.3989  0.5324
  784MPD2     H11617   0.970   0.325   0.687  0.2417 -1.2908  1.6611
  784MPD2    H111618   0.862   0.056   0.371  0.1111 -2.0674  0.4358
  784MPD2    H211619   1.247   0.023   0.537 -1.1593 -2.4640  0.2101
  784MPD2    H311620   1.089   4.691   0.380 -0.4587 -1.1539  1.5771
  784MPD2     N11621   0.777   0.265   0.523  0.7122 -0.5804  0.0904
  784MPD2    H511622   0.753   0.334   0.594  2.4230 -1.0448  1.1367
  784MPD2    N111623   1.206   0.240   0.722  0.4721  0.1983  0.2755
  784MPD2    H711624   1.174   0.322   0.772 -0.1160  1.2921 -1.8925
  785MPD2     C11625   1.397   3.864   9.876 -0.5380 -0.0669  0.1386
  785MPD2    C111626   1.401   3.887  10.009  0.3902  0.4853 -0.4412
  785MPD2    C211627   1.289   3.854  10.081 -0.6575 -0.1149  0.7496
  785MPD2    C311628   1.171   3.806  10.021  0.4492  0.3097 -0.1574
  785MPD2    C411629   1.173   3.796   9.877  0.9019  0.1597  0.2809
  785MPD2    C511630   1.287   3.819   9.805  0.3348 -0.6651 -0.5795
  785MPD2     H11631   1.299   3.862  10.189  5.7521  1.1185  0.0600
  785MPD2    H111632   1.081   3.774   9.823  0.1326  0.6078  1.4103
  785MPD2    H211633   1.489   3.880   9.821 -0.2240 -0.2628  0.6119
  785MPD2    H311634   1.292   3.829   9.697 -2.7416  1.4606 -0.5198
  785MPD2     N11635   1.060   3.795  10.103 -0.3601  0.3509 -0.3525
  785MPD2    H511636   1.070   3.829  10.198  1.5153 -0.8132 -0.1380
  785MPD2    N111637   1.515   3.932  10.081  0.3718  0.1887  0.3403
  785MPD2    H711638   1.506   3.922  10.182 -2.4026 -1.3449 -0.0363
  786MPD2     C11639   0.071   2.436  15.090 -0.0825  0.4482  0.6855
  786MPD2    C111640   0.110   2.308  15.130 -0.4141 -0.2807  0.3953
  786MPD2    C211641   0.171   2.300  15.251 -0.2441  0.4093 -0.8587
  786MPD2    C311642   0.193   2.409  15.332  0.0377 -0.1167  0.1246
  786MPD2    C411643   0.154   2.536  15.291 -0.3534 -0.4652  0.3643
  786MPD2    C511644   0.092   2.551  15.168 -0.5398  0.6631  0.6106
  786MPD2     H11645   0.206   2.204  15.287  1.9452 -0.2261 -4.7081
  786MPD2    H111646   0.173   2.623  15.351  0.2334 -0.1070 -0.3294
  786MPD2    H211647   0.022   2.452  14.995  0.4661  3.0505  0.8594
  786MPD2    H311648   0.063   2.649  15.132 -0.0495  0.1529 -1.1725
  786MPD2     N11649   0.249   2.400  15.463 -0.2080  0.5729  0.5771
  786MPD2    H511650   0.260   2.490  15.507  0.2802  0.4591  0.6869
  786MPD2    N111651   0.106   2.195  15.044  0.2398 -0.4015  0.2338
  786MPD2    H711652   0.148   2.108  15.073  1.1841 -0.3487 -0.9511
  787MPD2     C11653   0.574   1.785  14.981  0.0689  0.4523  0.1293
  787MPD2    C111654   0.499   1.765  14.868  0.0473 -0.1968  0.0283
  787MPD2    C211655   0.555   1.689  14.768 -0.1834 -0.2355  0.3873
  787MPD2    C311656   0.679   1.631  14.784 -0.3093  1.2700  0.0598
  787MPD2    C411657   0.751   1.646  14.901  0.1229  0.5455 -0.4433
  787MPD2    C511658   0.690   1.719  14.996 -1.0398 -0.0422  0.0132
  787MPD2     H11659   0.516   1.685  14.668  0.8086  1.5008 -0.0691
  787MPD2    H111660   0.854   1.615  14.917  0.0616  0.7524  0.3775
  787MPD2    H211661   0.539   1.852  15.059 -1.3430  1.6169 -1.4963
  787MPD2    H311662   0.754   1.739  15.081  0.7469  1.2064 -1.6060
  787MPD2     N11663   0.733   1.560  14.676 -0.5581 -0.5303  0.4543
  787MPD2    H511664   0.686   1.554  14.586 -0.3963 -0.6855  0.3820
  787MPD2    N111665   0.382   1.835  14.863 -0.4272 -0.0658  0.3419
  787MPD2    H711666   0.352   1.871  14.953 -0.9328  1.6072 -0.4880
  788MPD2     C11667   1.632   4.228   1.227  0.2132  0.0835 -0.6159
  788MPD2    C111668   1.737   4.236   1.136  0.2111  0.3867  0.1964
  788MPD2    C211669   1.759   4.355   1.063  0.2751 -0.2318 -0.3565
  788MPD2    C311670   1.687   4.468   1.087 -0.0829  0.2422  0.6587
  788MPD2    C411671   1.589   4.459   1.181  0.3910  0.2488  0.6267
  788MPD2    C511672   1.560   4.340   1.246 -0.0552 -0.5780 -0.2443
  788MPD2     H11673   1.841   4.350   0.992  2.0708 -1.0231  1.7461
  788MPD2    H111674   1.536   4.546   1.216  0.8743  1.3869 -1.5246
  788MPD2    H211675   1.604   4.133   1.270  0.1713 -0.4593 -1.8296
  788MPD2    H311676   1.468   4.336   1.304  0.3440  2.0737  0.5818
  788MPD2     N11677   1.701   4.591   1.021 -0.0090 -1.1166  0.1737
  788MPD2    H511678   1.644   4.670   1.051 -0.5753 -1.8226  0.9603
  788MPD2    N111679   1.814   4.118   1.116  0.3720 -0.1355 -0.1084
  788MPD2    H711680   1.779   4.031   1.157  0.8218 -0.2063  0.1295
  789MPD2     C11681   2.127   0.486  16.210  0.0437 -0.1630  0.1177
  789MPD2    C111682   2.161   0.366  16.280 -0.8058 -0.6330  0.1278
  789MPD2    C211683   2.135   0.357  16.416 -0.3836  0.3475 -0.3375
  789MPD2    C311684   2.067   0.468  16.476  0.3848 -0.0195 -0.0657
  789MPD2    C411685   2.046   0.589  16.410  0.2918 -0.0597  0.5689
  789MPD2    C511686   2.082   0.600  16.280  0.3164 -0.4572 -0.5713
  789MPD2     H11687   2.146   0.266  16.473  0.9890  0.2656 -0.7170
  789MPD2    H111688   1.992   0.672  16.455 -0.2576  0.3396 -0.8413
  789MPD2    H211689   2.135   0.499  16.103 -2.3240  1.9036  0.1812
  789MPD2    H311690   2.062   0.694  16.230 -3.2784 -0.2818  1.1994
  789MPD2     N11691   2.015   0.456  16.608 -0.2835  0.5292 -0.0709
  789MPD2    H511692   1.952   0.528  16.640 -3.4268 -1.4715 -1.7470
  789MPD2    N111693   2.202   0.255  16.202 -0.2743 -0.0422  0.4900
  789MPD2    H711694   2.214   0.262  16.101 -0.3560 -0.4379  0.4498
  790MPD2     C11695   2.854   2.341  13.843  0.0674 -0.4609  0.1328
  790MPD2    C111696   2.938   2.239  13.813 -0.1884  1.0700  0.7851
  790MPD2    C211697   2.950   2.201  13.678  0.4032 -0.1312 -0.3057
  790MPD2    C311698   2.892   2.272  13.574  0.6235  0.3291  0.1022
  790MPD2    C411699   2.813   2.382  13.608  0.8924 -0.6398 -0.6141
  790MPD2    C511700   2.785   2.404  13.744  0.2158  0.3025  0.0168
  790MPD2     H11701   2.999   2.107  13.657 -1.7901 -1.3164 -0.1093
  790MPD2    H111702   2.755   2.442  13.539 -0.4580 -0.9219  0.2754
  790MPD2    H211703   2.838   2.369  13.947  0.6408  0.7238 -0.0870
  790MPD2    H311704   2.725   2.489  13.776 -1.7921 -1.9569  2.2814
  790MPD2     N11705   2.905   2.230  13.438  0.4545 -0.2795 -0.5010
  790MPD2    H511706   2.976   2.159  13.420  0.0466 -1.4672  2.4706
  790MPD2    N111707   3.001   2.169  13.926 -0.3576  0.0980  0.2150
  790MPD2    H711708   2.973   2.200  14.018  3.3763  0.6194  1.1731
  791MPD2     C11709   2.417   2.202  12.758 -0.6923  0.2765 -0.2989
  791MPD2    C111710   2.458   2.097  12.844 -0.6087  0.1193 -0.4830
  791MPD2    C211711   2.379   1.986  12.843 -0.0226 -0.2522 -0.3413
  791MPD2    C311712   2.268   1.973  12.766  0.3357 -0.4615  0.0187
  791MPD2    C411713   2.224   2.083  12.690 -0.4822  0.4596  0.1295
  791MPD2    C511714   2.307   2.194  12.682  0.0535  0.1180 -0.2195
  791MPD2     H11715   2.413   1.905  12.905  0.5906  0.5228  0.3340
  791MPD2    H111716   2.129   2.086  12.638 -0.5038 -2.2528 -0.0120
  791MPD2    H211717   2.475   2.293  12.747 -0.4125  0.1172 -0.1167
  791MPD2    H311718   2.295   2.279  12.617  3.4676 -0.4996 -1.6107
  791MPD2     N11719   2.203   1.852  12.775 -0.2284 -0.4272 -0.0798
  791MPD2    H511720   2.249   1.777  12.826  2.1228  0.3631 -1.0176
  791MPD2    N111721   2.575   2.118  12.929  0.5915  0.2660  0.0984
  791MPD2    H711722   2.606   2.214  12.938  1.2148  0.0970 -0.2755
  792MPD2     C11723   3.248   1.432  11.191  0.0719 -0.2390 -0.3192
  792MPD2    C111724   3.177   1.543  11.147  0.1052 -0.0820  0.1018
  792MPD2    C211725   3.057   1.508  11.085 -0.0043 -0.1208 -0.0805
  792MPD2    C311726   3.013   1.382  11.055 -0.2153 -0.8191  0.0301
  792MPD2    C411727   3.099   1.283  11.082 -0.0388  0.3657 -0.1548
  792MPD2    C511728   3.214   1.304  11.155 -0.2169  0.1972 -0.0856
  792MPD2     H11729   2.988   1.590  11.070 -1.7330 -1.9751 -2.4354
  792MPD2    H111730   3.067   1.181  11.063 -1.2792  0.8307 -0.5395
  792MPD2    H211731   3.329   1.445  11.262 -0.3587 -1.1700  0.3371
  792MPD2    H311732   3.267   1.219  11.196 -0.0785  0.9478  1.3193
  792MPD2     N11733   2.883   1.350  11.004 -0.0339  0.0537 -0.0382
  792MPD2    H511734   2.875   1.251  10.981 -0.8687  0.4637 -1.4960
  792MPD2    N111735   3.210   1.680  11.181  0.2004 -0.1067  0.2174
  792MPD2    H711736   3.292   1.692  11.239  1.4889  1.3199 -1.8686
  793MPD2     C11737   2.516   1.991  10.431 -0.1537 -0.0253  0.1399
  793MPD2    C111738   2.649   1.947  10.458  0.0604 -0.2313  0.0879
  793MPD2    C211739   2.651   1.822  10.517  0.5535  0.0549 -0.1480
  793MPD2    C311740   2.544   1.742  10.542 -0.6143  0.4260 -0.4294
  793MPD2    C411741   2.414   1.790  10.514  0.3453 -0.5405 -0.8410
  793MPD2    C511742   2.406   1.918  10.463 -0.0840 -0.2062 -0.3015
  793MPD2     H11743   2.753   1.794  10.539  0.4437  0.6423  1.1374
  793MPD2    H111744   2.322   1.744  10.548 -0.2296 -0.2044 -1.9507
  793MPD2    H211745   2.497   2.082  10.376 -0.9998  0.1260  0.6865
  793MPD2    H311746   2.307   1.960  10.452 -0.6645 -1.6257 -0.4812
  793MPD2     N11747   2.576   1.612  10.584 -0.1345 -0.2564  0.0138
  793MPD2    H511748   2.675   1.604  10.609  0.3330  1.1579 -1.3962
  793MPD2    N111749   2.763   2.027  10.440  0.4266 -0.3472 -0.3403
  793MPD2    H711750   2.852   1.979  10.446  0.6167  0.1207  0.4802
  794MPD2     C11751   2.670   0.717   0.414 -0.0981 -0.1464 -0.2433
  794MPD2    C111752   2.703   0.662   0.286 -0.3527 -0.1415  0.5282
  794MPD2    C211753   2.679   0.745   0.176  0.9909 -0.4458 -0.5083
  794MPD2    C311754   2.634   0.881   0.197  0.7603  0.2046  0.8627
  794MPD2    C411755   2.609   0.921   0.325 -0.8166  0.0981  0.5116
  794MPD2    C511756   2.626   0.842   0.438  0.2274 -0.0203 -0.3476
  794MPD2     H11757   2.697   0.709   0.075 -2.3287 -5.4240  0.7107
  794MPD2    H111758   2.572   1.022   0.338  1.7826  1.1038  0.2773
  794MPD2    H211759   2.677   0.652   0.500  1.6319  1.8494  1.1317
  794MPD2    H311760   2.598   0.877   0.537 -1.0798 -3.7442  0.5712
  794MPD2     N11761   2.614   0.974   0.094 -0.1703  0.3095  0.7471
  794MPD2    H511762   2.567   1.060   0.118 -2.1379 -1.0242  1.6864
  794MPD2    N111763   2.742   0.536   0.263 -0.1309 -0.4243 -0.0315
  794MPD2    H711764   2.724   0.496   0.171  0.2822 -2.5527  0.8252
  795MPD2     C11765   0.536   3.509  14.081 -0.2741 -0.1581 -0.9680
  795MPD2    C111766   0.556   3.453  13.960 -0.1853 -0.3640  0.2023
  795MPD2    C211767   0.617   3.330  13.961  0.3858  0.0078 -0.4714
  795MPD2    C311768   0.659   3.268  14.071 -0.5874 -0.2934  0.1116
  795MPD2    C411769   0.628   3.319  14.198 -0.7727 -0.1882  0.1558
  795MPD2    C511770   0.562   3.437  14.195  0.2884 -0.3348 -0.2148
  795MPD2     H11771   0.639   3.278  13.868 -1.0480 -0.7129 -0.4060
  795MPD2    H111772   0.659   3.280  14.294  0.9433  1.7437  0.3726
  795MPD2    H211773   0.476   3.599  14.091  1.8354  1.3980 -2.3890
  795MPD2    H311774   0.543   3.484  14.291 -3.5457  0.7723 -1.5487
  795MPD2     N11775   0.732   3.149  14.061  0.3150  0.6074 -0.6203
  795MPD2    H511776   0.784   3.141  13.974 -0.6723 -0.1999 -1.1317
  795MPD2    N111777   0.507   3.500  13.836 -0.4009  0.3891  0.0788
  795MPD2    H711778   0.518   3.440  13.755 -2.5756 -1.4995  1.2017
  796MPD2     C11779   0.486   4.630  15.766 -0.0447  0.2784  0.0919
  796MPD2    C111780   0.470   4.672  15.895 -0.0641 -0.8998 -0.3801
  796MPD2    C211781   0.371   0.028  15.921  0.6125  0.6493 -0.5486
  796MPD2    C311782   0.300   0.082  15.817 -1.3178  0.5916 -0.0922
  796MPD2    C411783   0.317   0.040  15.686 -0.7450  0.0858  0.1094
  796MPD2    C511784   0.414   4.681  15.661 -1.1103  1.0156  0.7153
  796MPD2     H11785   0.355   0.065  16.021  0.0274  0.9070 -0.7416
  796MPD2    H111786   0.269   0.091  15.603 -0.7783  1.1037  0.7664
  796MPD2    H211787   0.574   4.573  15.739 -2.3116 -2.6500 -1.1518
  796MPD2    H311788   0.435   4.655  15.558 -3.4023  0.1490  0.4557
  796MPD2     N11789   0.234   0.196  15.854  0.0864  0.2503  0.3640
  796MPD2    H511790   0.231   0.230  15.949  0.8903 -0.2224  0.5561
  796MPD2    N111791   0.566   4.635  15.991  0.4753  0.4035 -1.1641
  796MPD2    H711792   0.657   4.597  15.972  1.3433  0.8912  2.1003
  797MPD2     C11793   2.108   4.225  16.778  0.1607 -0.4411  0.6784
  797MPD2    C111794   2.017   4.300  16.847  0.7833  0.3126  0.3417
  797MPD2    C211795   1.975   4.416  16.785  0.0766 -1.4119 -0.5778
  797MPD2    C311796   2.010   4.461  16.657 -0.3416  0.7564  0.4354
  797MPD2    C411797   2.105   4.379  16.590 -0.8352 -0.6603  0.3333
  797MPD2    C511798   2.156   4.273  16.658 -0.4038 -0.0682  0.4105
  797MPD2     H11799   1.898   4.472  16.837  1.3964  0.2919 -0.4495
  797MPD2    H111800   2.152   4.404  16.496  0.7922 -4.2805  0.2218
  797MPD2    H211801   2.148   4.130  16.811 -0.0638 -0.9867 -0.6162
  797MPD2    H311802   2.220   4.211  16.596  0.6538 -0.4479  1.8684
  797MPD2     N11803   1.957   4.581  16.616 -0.4841 -0.1423 -0.0282
  797MPD2    H511804   1.892   4.632  16.676 -0.7783 -0.5178 -0.0304
  797MPD2    N111805   1.965   4.268  16.971 -0.1878 -0.2288  0.4093
  797MPD2    H711806   1.891   4.330  17.000  0.8370 -0.1588  2.9177
  798MPD2     C11807   1.356   4.645  16.929  0.4218 -0.4576 -0.0030
  798MPD2    C111808   1.487   4.675  16.917  0.5101 -0.3162 -0.0670
  798MPD2    C211809   1.576   4.609  17.003  0.6060 -0.1788 -0.1688
  798MPD2    C311810   1.529   4.531  17.102 -0.5263  0.4943 -0.3047
  798MPD2    C411811   1.396   4.515  17.125 -0.1732 -0.3962 -0.0865
  798MPD2    C511812   1.309   4.576  17.042 -0.2232 -0.8221  0.5416
  798MPD2     H11813   1.684   4.619  16.992  0.4034  1.1123 -0.9815
  798MPD2    H111814   1.355   4.446  17.198 -1.7682 -0.6031 -1.1999
  798MPD2    H211815   1.286   4.671  16.851  0.4267 -0.6027 -0.0556
  798MPD2    H311816   1.202   4.578  17.056  0.0904  2.3081  2.3287
  798MPD2     N11817   1.635   4.467  17.176  0.1927  0.3592  0.2663
  798MPD2    H511818   1.730   4.477  17.143 -0.1479 -0.5525 -0.9875
  798MPD2    N111819   1.532   0.010  16.805 -0.4720 -0.2371 -0.1814
  798MPD2    H711820   1.466   0.066  16.751 -0.4370 -0.7681 -0.7699
  799MPD2     C11821   0.497   1.196  14.913  0.1160 -0.0925  0.6072
  799MPD2    C111822   0.363   1.209  14.945  0.2178  0.3718  0.2712
  799MPD2    C211823   0.281   1.283  14.860 -0.2336 -0.0412 -0.1616
  799MPD2    C311824   0.326   1.340  14.740 -0.1994 -0.4897  0.4924
  799MPD2    C411825   0.456   1.331  14.713  0.3898 -0.8609 -0.1195
  799MPD2    C511826   0.539   1.263  14.799  1.1116  0.2007  0.2123
  799MPD2     H11827   0.173   1.280  14.875 -0.0881  0.1867  0.9098
  799MPD2    H111828   0.509   1.371  14.627 -1.2408  0.2543 -0.5877
  799MPD2    H211829   0.569   1.142  14.974  0.4047 -0.5334 -0.1217
  799MPD2    H311830   0.642   1.248  14.770  1.3240  4.1486 -1.1188
  799MPD2     N11831   0.250   1.421  14.648  0.0509 -0.3291 -0.2003
  799MPD2    H511832   0.293   1.444  14.559  0.2391  0.3493  0.0607
  799MPD2    N111833   0.298   1.130  15.045  0.0588 -0.1012 -0.0600
  799MPD2    H711834   0.197   1.133  15.038  0.1449  0.9853 -0.7254
  800MPD2     C11835   0.483   2.546  14.826 -0.7901 -0.4654  0.3087
  800MPD2    C111836   0.562   2.471  14.746 -0.1565  0.9932 -1.3799
  800MPD2    C211837   0.506   2.365  14.674  0.1833 -0.4362  0.1072
  800MPD2    C311838   0.375   2.340  14.676  1.0031 -0.0221  0.6217
  800MPD2    C411839   0.290   2.412  14.757  0.6304 -0.6133  0.0392
  800MPD2    C511840   0.346   2.519  14.824  0.1180 -0.6651 -0.2974
  800MPD2     H11841   0.566   2.301  14.611  1.0387 -0.5719  1.0663
  800MPD2    H111842   0.183   2.395  14.764  0.3913  0.2715 -1.4047
  800MPD2    H211843   0.523   2.626  14.887  1.4232 -0.6727 -0.8911
  800MPD2    H311844   0.279   2.570  14.892  1.0844 -0.3856  0.4507
  800MPD2     N11845   0.322   2.236  14.591 -0.0259  0.0881  0.2282
  800MPD2    H511846   0.393   2.185  14.540  0.0678  0.9889 -0.5364
  800MPD2    N111847   0.697   2.511  14.732  0.2334  0.6241  0.2318
  800MPD2    H711848   0.718   2.604  14.768  1.5022  0.8265 -1.0485
  801MPD2     C11849   0.925   3.119  14.462 -1.5388 -0.0499 -0.3045
  801MPD2    C111850   0.882   3.054  14.576  0.2935 -0.3153 -0.1140
  801MPD2    C211851   0.788   3.111  14.657 -0.4622 -0.7946  0.1649
  801MPD2    C311852   0.741   3.237  14.625  0.7377  0.9700  0.2910
  801MPD2    C411853   0.795   3.307  14.515  0.3844  0.5180  0.6125
  801MPD2    C511854   0.882   3.246  14.439 -0.1358  0.2600  0.0212
  801MPD2     H11855   0.745   3.060  14.742 -1.0382 -1.5470 -0.5740
  801MPD2    H111856   0.758   3.403  14.482  0.6679  0.9562  1.5612
  801MPD2    H211857   0.977   3.071  14.380  1.2550  0.2320  1.3079
  801MPD2    H311858   0.909   3.293  14.345  0.3045  1.0297  0.5344
  801MPD2     N11859   0.639   3.299  14.697 -0.9673 -0.4954 -0.1058
  801MPD2    H511860   0.589   3.374  14.650  0.5658  0.0971 -0.7857
  801MPD2    N111861   0.906   2.918  14.601  0.3316 -0.0274 -0.1397
  801MPD2    H711862   0.841   2.864  14.657  0.2215  0.6225  0.3597
  802MPD2     C11863   4.646   3.490   0.014 -0.0051 -0.3675 -0.3249
  802MPD2    C111864   4.625   3.402   0.118  0.0316  0.5176  0.5409
  802MPD2    C211865   4.681   3.274   0.114  0.3719 -0.5161  0.5298
  802MPD2    C311866   0.015   3.233   0.004  0.3138  0.1714  0.0598
  802MPD2    C411867   0.016   3.312  17.640  0.0741 -0.5956  0.3566
  802MPD2    C511868   4.702   3.443  17.645 -0.1323 -0.6708 -0.3463
  802MPD2     H11869   4.686   3.203   0.196 -0.9217 -0.8416  0.3381
  802MPD2    H111870   0.060   3.289  17.544  0.2274  0.6441  0.1271
  802MPD2    H211871   4.592   3.584   0.008  1.2862  0.4260  0.5540
  802MPD2    H311872   4.696   3.502  17.554 -0.9723 -3.3038 -1.9700
  802MPD2     N11873   0.060   3.096   0.003  0.1438  0.1611 -0.3741
  802MPD2    H511874   0.022   3.028   0.068 -0.7610  0.0523 -1.0163
  802MPD2    N111875   4.558   3.439   0.234  0.3728 -0.0641 -0.1970
  802MPD2    H711876   4.531   3.359   0.291 -1.8375  1.2266  0.5946
  803MPD2     C11877   0.981   2.105  12.197 -0.1993  0.1034  0.2951
  803MPD2    C111878   1.066   2.100  12.315 -0.3007  0.1235  0.2356
  803MPD2    C211879   1.050   2.002  12.407 -0.5211 -0.7295 -0.3064
  803MPD2    C311880   0.953   1.903  12.393  0.3178 -0.0416 -0.1872
  803MPD2    C411881   0.869   1.919  12.287 -1.1365  0.2101  0.1631
  803MPD2    C511882   0.882   2.007  12.187 -0.2374  0.1156  0.0832
  803MPD2     H11883   1.107   2.011  12.498  0.6124  0.6867 -1.1668
  803MPD2    H111884   0.790   1.844  12.277 -0.8098  0.0942 -1.5371
  803MPD2    H211885   0.995   2.186  12.126  0.0898  0.1170  0.3690
  803MPD2    H311886   0.810   2.006  12.106  3.4846  0.0242 -3.2164
  803MPD2     N11887   0.926   1.801  12.478 -0.1503  0.4138  0.1802
  803MPD2    H511888   0.843   1.745  12.462  0.1361 -0.1181  0.5730
  803MPD2    N111889   1.167   2.198  12.343  0.4851  0.3452 -0.2781
  803MPD2    H711890   1.217   2.183  12.430 -1.0692  4.1047  1.2267
  804MPD2     C11891   0.479   2.287  17.207  0.7315  0.4806 -0.1442
  804MPD2    C111892   0.520   2.221  17.320  0.5107 -0.4817 -0.1971
  804MPD2    C211893   0.631   2.269  17.395 -0.0263  0.5041  0.5909
  804MPD2    C311894   0.705   2.369  17.346  0.3571  0.0296  0.0021
  804MPD2    C411895   0.672   2.424  17.228  0.5839  0.7624 -0.6686
  804MPD2    C511896   0.560   2.385  17.157 -0.2383  0.2309  0.6540
  804MPD2     H11897   0.671   2.218  17.482  0.4356  0.0557  0.1216
  804MPD2    H111898   0.734   2.500  17.181  2.1225  1.2610  2.1874
  804MPD2    H211899   0.393   2.258  17.148  0.1299  1.5488  0.2088
  804MPD2    H311900   0.535   2.429  17.061  1.5080 -1.1908 -0.4571
  804MPD2     N11901   0.821   2.409  17.414  0.3883  0.0222 -0.0770
  804MPD2    H511902   0.841   2.358  17.499 -0.1408  0.2261  0.1747
  804MPD2    N111903   0.456   2.103  17.369 -0.4225  0.0649  0.0033
  804MPD2    H711904   0.472   2.072  17.464 -0.6095 -1.2443 -0.3988
  805MPD2     C11905   4.415   1.174  16.210 -0.6397 -0.3930  0.1208
  805MPD2    C111906   4.478   1.286  16.171  0.5880 -0.3712  0.4006
  805MPD2    C211907   4.601   1.316  16.227 -0.8521  1.0091 -0.3012
  805MPD2    C311908   4.658   1.236  16.317 -0.2549 -0.5656  0.1225
  805MPD2    C411909   4.585   1.124  16.371  0.0168  0.2297 -0.2604
  805MPD2    C511910   4.466   1.092  16.310 -0.2626 -0.0177  0.6054
  805MPD2     H11911   4.657   1.401  16.189  0.9988 -0.1045 -0.0439
  805MPD2    H111912   4.640   1.049  16.426 -2.1670 -0.9680  0.3066
  805MPD2    H211913   4.330   1.141  16.151  0.0174 -0.2610 -0.8925
  805MPD2    H311914   4.408   1.007  16.344  1.3903 -0.2900  2.7882
  805MPD2     N11915   0.051   1.264  16.359  0.8523 -0.3952  0.4766
  805MPD2    H511916   0.098   1.351  16.337 -1.2802  0.8048  0.6676
  805MPD2    N111917   4.445   1.357  16.059 -0.3819 -0.1791  0.4524
  805MPD2    H711918   4.515   1.422  16.024  0.8679  0.8149  4.9214
  806MPD2     C11919   0.670   4.394   0.493 -0.4604 -0.6747  0.8587
  806MPD2    C111920   0.640   4.529   0.510 -0.9107  0.0643 -0.0439
  806MPD2    C211921   0.640   4.605   0.399 -0.2956 -0.4911  0.6551
  806MPD2    C311922   0.676   4.563   0.271 -0.0114 -1.2587  0.4333
  806MPD2    C411923   0.701   4.430   0.259 -0.2450  0.0453  0.7560
  806MPD2    C511924   0.694   4.348   0.370  0.2599 -0.3742  0.5488
  806MPD2     H11925   0.608   4.707   0.417  2.4286  0.5532 -0.3352
  806MPD2    H111926   0.718   4.388   0.161  0.9010  0.3028  0.8399
  806MPD2    H211927   0.658   4.326   0.577 -2.2381 -0.3841  0.8488
  806MPD2    H311928   0.716   4.242   0.361 -0.5242 -0.4971  0.0528
  806MPD2     N11929   0.697   4.660   0.173 -0.1706  0.2072 -0.0911
  806MPD2    H511930   0.665   0.018   0.195  1.0373  0.7142 -0.4868
  806MPD2    N111931   0.618   4.573   0.643  0.2719  0.0379 -0.6429
  806MPD2    H711932   0.630   4.498   0.710  2.4920  1.0447  0.0732
  807MPD2     C11933   0.091   4.679   1.208 -0.4468  0.2751  0.0124
  807MPD2    C111934   0.186   4.594   1.152 -0.1535 -0.2179 -0.4692
  807MPD2    C211935   0.168   4.458   1.152 -0.3644  0.0823  0.1693
  807MPD2    C311936   0.043   4.405   1.178  0.4994 -0.1970 -0.4468
  807MPD2    C411937   4.693   4.485   1.242 -0.6920 -1.0508 -0.0903
  807MPD2    C511938   4.711   4.615   1.255  0.5594 -0.1001 -0.0679
  807MPD2     H11939   0.241   4.390   1.108 -0.2904  0.4315 -0.2536
  807MPD2    H111940   4.598   4.451   1.281 -1.2294  1.0847  0.4878
  807MPD2    H211941   0.105   0.050   1.206 -2.5311  0.5794  0.9455
  807MPD2    H311942   4.631   4.676   1.294  1.9455  0.8541  1.2855
  807MPD2     N11943   0.018   4.275   1.144 -0.4298 -0.6351 -0.5212
  807MPD2    H511944   0.099   4.226   1.108 -1.1644 -2.3934  0.2241
  807MPD2    N111945   0.311   4.634   1.099 -0.1035  0.0967  0.2256
  807MPD2    H711946   0.378   4.561   1.075 -0.7005 -0.8055  1.3061
  808MPD2     C11947   0.834   2.112  10.198  0.1657 -0.5025 -0.4611
  808MPD2    C111948   0.896   2.109  10.071 -0.5128  0.3601  0.1385
  808MPD2    C211949   0.929   2.228  10.011  0.4560  0.2579 -0.1425
  808MPD2    C311950   0.907   2.348  10.073 -0.2525  0.4952 -0.6078
  808MPD2    C411951   0.864   2.343  10.197  0.3780 -0.4845 -0.0340
  808MPD2    C511952   0.824   2.226  10.258 -0.0952  0.1442  0.0659
  808MPD2     H11953   0.977   2.223   9.914 -1.6009 -1.6452 -1.0625
  808MPD2    H111954   0.837   2.426  10.262  1.8163 -0.6297  0.7416
  808MPD2    H211955   0.816   2.025  10.260 -0.7960  1.1987  1.6596
  808MPD2    H311956   0.787   2.226  10.360 -0.9014  0.8489 -0.2286
  808MPD2     N11957   0.950   2.473  10.025 -0.0244 -0.5552  0.1113
  808MPD2    H511958   0.957   2.550  10.090  0.7114 -0.4808 -0.0606
  808MPD2    N111959   0.922   1.989  10.001  0.4814 -0.0715  0.5478
  808MPD2    H711960   0.954   1.996   9.905  1.6407 -2.5353  0.7521
  809MPD2     C11961   1.764   2.924   9.513 -0.0954 -0.0343 -0.0923
  809MPD2    C111962   1.726   2.793   9.544 -0.4395  0.1499  0.0382
  809MPD2    C211963   1.594   2.768   9.574 -0.4834  0.3364  0.1401
  809MPD2    C311964   1.505   2.876   9.591 -0.3809  0.4578  0.9599
  809MPD2    C411965   1.554   3.003   9.563 -0.7066  0.5339 -0.5167
  809MPD2    C511966   1.678   3.027   9.514  0.9217 -0.2391 -0.1569
  809MPD2     H11967   1.558   2.667   9.586 -0.7804  0.2411 -1.4840
  809MPD2    H111968   1.492   3.092   9.560 -0.2931  0.7971 -1.2398
  809MPD2    H211969   1.863   2.939   9.471  0.3819  1.5186  1.6202
  809MPD2    H311970   1.715   3.122   9.476  1.0877 -0.1679  0.1771
  809MPD2     N11971   1.373   2.862   9.633 -0.1430 -0.2634  0.3584
  809MPD2    H511972   1.306   2.938   9.621 -0.0118  0.4163  4.0722
  809MPD2    N111973   1.813   2.685   9.550  0.7507 -0.2489  0.2933
  809MPD2    H711974   1.774   2.597   9.584  2.2903 -0.8696  0.4541
  810MPD2     C11975   0.164   1.534  11.268  0.2319  0.8693 -0.1946
  810MPD2    C111976   0.125   1.584  11.148  0.1727 -0.4117 -0.3512
  810MPD2    C211977   0.115   1.721  11.129  0.1066  0.3039  0.5440
  810MPD2    C311978   0.152   1.808  11.231  0.4645  0.2201  0.3908
  810MPD2    C411979   0.197   1.757  11.347 -0.3835  0.6903 -0.1305
  810MPD2    C511980   0.198   1.622  11.367  0.8262 -0.3325 -0.2646
  810MPD2     H11981   0.074   1.767  11.040  0.5440 -1.8913 -0.7713
  810MPD2    H111982   0.232   1.822  11.427  0.2696 -0.2589  0.3571
  810MPD2    H211983   0.190   1.429  11.269  0.5859  0.9574 -0.2541
  810MPD2    H311984   0.241   1.584  11.459  0.8888  0.4572  0.0337
  810MPD2     N11985   0.134   1.949  11.223  0.6796  0.1544 -0.5186
  810MPD2    H511986   0.163   1.993  11.309 -3.6952 -0.4029  1.2080
  810MPD2    N111987   0.089   1.507  11.040 -0.0586 -0.0253  0.7566
  810MPD2    H711988   0.053   1.414  11.059 -2.7936  0.6104 -1.3542
  811MPD2     C11989   4.415   1.597  10.217 -0.8644  0.4865 -0.1101
  811MPD2    C111990   4.493   1.654  10.309 -0.3272 -0.3273  0.0771
  811MPD2    C211991   4.506   1.793  10.322 -0.6528  0.3509  0.1685
  811MPD2    C311992   4.436   1.878  10.233  0.4559 -0.4041  0.4696
  811MPD2    C411993   4.347   1.816  10.150  0.4772 -0.3818 -0.0031
  811MPD2    C511994   4.342   1.684  10.143 -0.2139  0.0030 -0.6204
  811MPD2     H11995   4.570   1.841  10.395  3.2067 -1.9705 -1.6759
  811MPD2    H111996   4.281   1.878  10.091  0.7945  2.0637  2.2140
  811MPD2    H211997   4.406   1.489  10.209 -1.2000  0.5396 -0.4579
  811MPD2    H311998   4.265   1.651  10.073 -1.0126 -0.5923  0.5366
  811MPD2     N11999   4.458   2.020  10.233 -0.1140 -0.2446  0.3006
  811MPD2    H512000   4.403   2.076  10.168  0.8086 -0.0786 -0.3326
  811MPD2    N112001   4.547   1.563  10.394  0.1872  0.2680 -0.4415
  811MPD2    H712002   4.522   1.466  10.377 -0.0204  0.2156  0.1653
  812MPD2     C12003   3.990   2.114  12.662 -0.0684 -0.2275  0.3350
  812MPD2    C112004   3.853   2.121  12.681  0.4097 -1.0238 -0.4350
  812MPD2    C212005   3.803   2.031  12.774  0.1130 -0.5044  0.1041
  812MPD2    C312006   3.873   1.928  12.831  0.0413 -0.2937  0.7311
  812MPD2    C412007   4.005   1.910  12.796 -0.0841 -0.0434 -0.2097
  812MPD2    C512008   4.061   2.011  12.721 -0.3125 -0.1647  0.1094
  812MPD2     H12009   3.702   2.032  12.814  0.3350 -0.1270  0.6468
  812MPD2    H112010   4.070   1.826  12.817 -1.0210 -0.6415  0.2481
  812MPD2    H212011   4.047   2.189  12.609 -1.0520 -2.1808 -3.4878
  812MPD2    H312012   4.166   1.990  12.704  0.0260  0.7984  0.9670
  812MPD2     N12013   3.809   1.842  12.919 -0.3961  0.1465 -0.5019
  812MPD2    H512014   3.708   1.847  12.926 -0.4280  0.7531 -1.3380
  812MPD2    N112015   3.783   2.216  12.607 -0.2153  0.0966 -0.6798
  812MPD2    H712016   3.827   2.263  12.529  0.5664  0.0487 -0.2636
  813MPD2     C12017   2.890   3.686  12.951 -0.8552 -0.2441 -0.4901
  813MPD2    C112018   2.900   3.818  12.996 -0.2147 -0.1567 -0.6082
  813MPD2    C212019   2.795   3.844  13.091 -0.2440  0.2895 -0.5610
  813MPD2    C312020   2.711   3.743  13.143 -0.0004 -0.3042  0.6260
  813MPD2    C412021   2.718   3.616  13.094  0.0995  0.3382 -0.9594
  813MPD2    C512022   2.809   3.583  13.001  0.4062  0.4667 -0.2344
  813MPD2     H12023   2.788   3.948  13.121  0.9292 -0.4018  2.0591
  813MPD2    H112024   2.658   3.536  13.136  1.3195 -0.6913 -1.1723
  813MPD2    H212025   2.956   3.649  12.874  0.3017 -0.9249  0.8291
  813MPD2    H312026   2.813   3.478  12.973  1.5651  0.4349  0.0739
  813MPD2     N12027   2.609   3.774  13.237  0.3744 -0.2412  0.2196
  813MPD2    H512028   2.580   3.871  13.243 -3.0193 -1.3879  1.9405
  813MPD2    N112029   2.989   3.919  12.951 -0.4858 -0.1713 -0.6463
  813MPD2    H712030   2.967   4.011  12.988  1.9851  0.4201 -0.6093
  814MPD2     C12031   3.469   4.677  12.440 -0.1491 -0.2580  0.3039
  814MPD2    C112032   3.469   0.056  12.362  0.1978  0.7987  0.6030
  814MPD2    C212033   3.500   0.176  12.421  0.0766  0.2439  0.5667
  814MPD2    C312034   3.542   0.193  12.547  0.3191  0.2334  0.0674
  814MPD2    C412035   3.558   0.078  12.620 -0.5448  0.7829  0.3678
  814MPD2    C512036   3.523   4.693  12.566  0.0503  0.0481 -0.4369
  814MPD2     H12037   3.487   0.263  12.358 -0.4633 -0.9688 -1.0022
  814MPD2    H112038   3.585   0.090  12.725  0.8180  0.3704  0.0591
  814MPD2    H212039   3.434   4.583  12.400  0.7282 -0.2706 -0.4527
  814MPD2    H312040   3.525   4.601  12.624 -1.8296  1.6349  2.1442
  814MPD2     N12041   3.552   0.317  12.609  0.2817  0.0642 -0.6409
  814MPD2    H512042   3.587   0.312  12.704  1.2454  1.1641 -0.9379
  814MPD2    N112043   3.414   0.052  12.235 -0.5746 -0.3204 -0.4364
  814MPD2    H712044   3.426   0.132  12.174  0.6542 -0.0060  0.1978
  815MPD2     C12045   3.797   2.758  12.274  0.1938  0.7085 -0.2371
  815MPD2    C112046   3.727   2.795  12.161  0.5223  0.4443  0.3504
  815MPD2    C212047   3.601   2.851  12.181 -0.1240  0.5287  0.3582
  815MPD2    C312048   3.545   2.865  12.302 -0.1087 -0.7783  0.6452
  815MPD2    C412049   3.625   2.839  12.418  0.8166 -0.4067 -0.2241
  815MPD2    C512050   3.752   2.790  12.399  0.0499  0.4968  0.3598
  815MPD2     H12051   3.553   2.896  12.094 -1.1023 -0.7149  0.2538
  815MPD2    H112052   3.585   2.852  12.518  1.5268  1.2970 -0.1669
  815MPD2    H212053   3.900   2.724  12.266  0.0373  0.1877 -0.0063
  815MPD2    H312054   3.806   2.759  12.488 -2.3386 -1.7453  1.0400
  815MPD2     N12055   3.409   2.901  12.297  0.3135  0.3283 -0.7421
  815MPD2    H512056   3.381   2.921  12.201  0.6249  0.8251 -0.7317
  815MPD2    N112057   3.777   2.774  12.033  0.6131  0.5584 -0.0685
  815MPD2    H712058   3.869   2.732  12.026 -0.6659 -2.4532  0.9365
  816MPD2     C12059   4.216   1.780  17.665 -0.7905 -0.4552 -0.8366
  816MPD2    C112060   4.156   1.809  17.544 -0.2147  0.1845  0.2571
  816MPD2    C212061   4.206   1.768  17.424 -0.2287 -0.9431 -0.4402
  816MPD2    C312062   4.328   1.709  17.420 -0.6304  0.1073 -0.2731
  816MPD2    C412063   4.397   1.683  17.537 -0.2143 -0.0613  0.0608
  816MPD2    C512064   4.334   1.706  17.654 -0.1215 -0.6309 -0.7327
  816MPD2     H12065   4.158   1.798  17.331 -0.0653  1.3387  0.2259
  816MPD2    H112066   4.502   1.654  17.532  0.6260  2.4954  2.8362
  816MPD2    H212067   4.181   1.817   0.019  1.9514  1.1810 -0.4708
  816MPD2    H312068   4.395   1.697   0.002 -0.1980  1.2703 -0.4908
  816MPD2     N12069   4.382   1.664  17.297  0.4161 -0.3578  0.1627
  816MPD2    H512070   4.347   1.701  17.209  1.8289  0.5734 -0.0135
  816MPD2    N112071   4.032   1.886  17.541 -0.0574  0.1258 -0.1151
  816MPD2    H712072   3.998   1.917  17.631  0.5940  0.9702 -0.1521
  817MPD2     C12073   3.002   4.180   9.990  0.0139  0.3525 -0.1768
  817MPD2    C112074   3.016   4.078   9.896  0.1849  0.0086 -0.0216
  817MPD2    C212075   2.943   4.080   9.780  0.1581  0.0379 -0.7067
  817MPD2    C312076   2.851   4.178   9.751 -0.2449  0.1189  0.7409
  817MPD2    C412077   2.825   4.275   9.851  0.3043  0.0839 -0.4462
  817MPD2    C512078   2.906   4.275   9.960 -0.2563 -0.1211 -0.6438
  817MPD2     H12079   2.953   3.999   9.708  1.1413 -1.0705  0.6933
  817MPD2    H112080   2.763   4.364   9.846  2.0894  1.2885 -1.0608
  817MPD2    H212081   3.066   4.190  10.077 -0.2484 -0.9438  0.1729
  817MPD2    H312082   2.884   4.344  10.041  0.1262 -1.4461  0.6008
  817MPD2     N12083   2.773   4.191   9.633 -0.1975  0.0144 -0.5511
  817MPD2    H512084   2.788   4.121   9.562 -1.0388 -0.4368 -0.2861
  817MPD2    N112085   3.110   3.969   9.906  0.1648  0.4956  0.0414
  817MPD2    H712086   3.114   3.902   9.830  0.9368  0.0360  0.4922
  818MPD2     C12087   2.077   3.824   9.892 -0.0854  0.0680 -0.3123
  818MPD2    C112088   2.039   3.784  10.016 -1.1060  0.5206  0.0969
  818MPD2    C212089   2.018   3.645  10.033  0.7382 -0.0106 -0.0317
  818MPD2    C312090   2.022   3.545   9.933 -0.2822  0.5873  0.0264
  818MPD2    C412091   2.064   3.586   9.808  0.3050 -0.2960 -0.2385
  818MPD2    C512092   2.092   3.725   9.796  0.3434  1.1547 -0.3703
  818MPD2     H12093   1.987   3.613  10.132  2.1486  0.3017  0.5092
  818MPD2    H112094   2.084   3.521   9.724  0.0218  0.5548 -0.9644
  818MPD2    H212095   2.114   3.924   9.870 -0.4834 -0.5539 -3.8674
  818MPD2    H312096   2.111   3.765   9.697  3.3762 -2.0074 -1.0675
  818MPD2     N12097   1.971   3.413   9.946 -0.1307 -0.4361  0.3600
  818MPD2    H512098   1.988   3.345   9.873 -2.8187 -2.6237  1.7512
  818MPD2    N112099   2.033   3.863  10.134 -0.2691  0.0746  0.0810
  818MPD2    H712100   1.995   3.809  10.211  0.5167  1.6166  1.5495
  819MPD2     C12101   0.506   1.255  16.167 -0.6063  0.0318  0.5553
  819MPD2    C112102   0.469   1.122  16.138  0.6601  0.0151  0.0694
  819MPD2    C212103   0.515   1.022  16.222 -0.1409  0.3139 -0.3032
  819MPD2    C312104   0.603   1.043  16.332 -0.0855  0.5545  0.2334
  819MPD2    C412105   0.644   1.174  16.355 -0.6715  0.7832 -0.0529
  819MPD2    C512106   0.597   1.276  16.272 -0.2940  0.0153  0.4307
  819MPD2     H12107   0.486   0.919  16.203  0.6490 -0.3867  2.2729
  819MPD2    H112108   0.718   1.203  16.428 -0.6058  1.3925 -0.3561
  819MPD2    H212109   0.473   1.344  16.115  3.4747  1.9196  1.1999
  819MPD2    H312110   0.636   1.375  16.293 -2.5667  1.3003 -1.3728
  819MPD2     N12111   0.644   0.935  16.414 -0.3103 -0.7922 -0.9340
  819MPD2    H512112   0.600   0.845  16.396  0.5990 -1.4632  0.2002
  819MPD2    N112113   0.397   1.098  16.022  0.0982  0.4670 -0.0074
  819MPD2    H712114   0.358   1.176  15.970  2.1300  1.6010  0.1757
  820MPD2     C12115   0.125   1.702  15.726 -0.3245  0.1547  0.5367
  820MPD2    C112116   0.054   1.591  15.676  0.0976  0.4881  0.0030
  820MPD2    C212117   0.114   1.476  15.645 -0.5951 -0.4158 -0.3846
  820MPD2    C312118   0.256   1.471  15.664 -0.6743  0.1037 -0.1340
  820MPD2    C412119   0.330   1.579  15.716 -0.1686  0.5167  0.1455
  820MPD2    C512120   0.262   1.692  15.744 -0.1933  0.0281 -0.0249
  820MPD2     H12121   0.055   1.388  15.619 -2.3975  0.8917 -0.7462
  820MPD2    H112122   0.438   1.580  15.726 -0.2993 -0.6657  1.6950
  820MPD2    H212123   0.068   1.792  15.745  2.1277  2.2051 -1.8960
  820MPD2    H312124   0.323   1.774  15.781  0.8765  0.7455 -3.3410
  820MPD2     N12125   0.330   1.352  15.644  0.5352 -0.0443 -0.2241
  820MPD2    H512126   0.425   1.346  15.680  0.0995  1.2063  1.1152
  820MPD2    N112127   4.647   1.597  15.677  0.4676  0.0600 -0.8509
  820MPD2    H712128   4.597   1.674  15.720  0.8199 -1.1824  1.8361
  821MPD2     C12129   0.180   2.542  13.914 -0.2990  0.6984 -0.0409
  821MPD2    C112130   0.293   2.478  13.964 -0.8824  0.0539  0.0448
  821MPD2    C212131   0.410   2.530  13.931  0.2520  0.0408 -0.3270
  821MPD2    C312132   0.431   2.643  13.853  0.2723  0.1640  0.3129
  821MPD2    C412133   0.322   2.712  13.811 -0.2671  0.1497 -0.7690
  821MPD2    C512134   0.198   2.659  13.829 -0.1402 -1.2648  1.1548
  821MPD2     H12135   0.498   2.474  13.962  0.2373  0.3053  0.1995
  821MPD2    H112136   0.329   2.796  13.743 -0.3214  2.3106  1.8678
  821MPD2    H212137   0.086   2.491  13.930  0.1986 -0.2275 -0.0680
  821MPD2    H312138   0.115   2.704  13.776  0.8996  0.3988  0.9425
  821MPD2     N12139   0.556   2.692  13.813  0.2055  0.2602  0.3124
  821MPD2    H512140   0.555   2.768  13.745  1.3670 -0.8457 -0.9467
  821MPD2    N112141   0.288   2.367  14.052 -0.0968  0.1633  0.1477
  821MPD2    H712142   0.379   2.325  14.070 -0.2161 -0.0274  0.3066
  822MPD2     C12143   1.685   2.005  16.047  0.0378  1.0300  0.1936
  822MPD2    C112144   1.644   1.928  16.160 -0.3734 -0.0155 -0.1798
  822MPD2    C212145   1.534   1.970  16.238 -0.0540  0.4647  0.1722
  822MPD2    C312146   1.446   2.069  16.190 -0.7073 -0.8382 -0.4379
  822MPD2    C412147   1.473   2.127  16.066  0.1220 -0.4289  0.5430
  822MPD2    C512148   1.590   2.099  15.999  0.2238  0.0022  0.7526
  822MPD2     H12149   1.513   1.910  16.326 -0.2017 -0.2590 -0.3626
  822MPD2    H112150   1.414   2.212  16.033 -2.6282 -1.7901  1.8845
  822MPD2    H212151   1.773   1.985  15.988  2.0601  1.0398  3.1671
  822MPD2    H312152   1.616   2.153  15.909 -0.1267  1.1220  1.3279
  822MPD2     N12153   1.344   2.115  16.273 -0.2733  0.1316 -0.5546
  822MPD2    H512154   1.330   2.083  16.368  2.1698  0.2210 -0.1583
  822MPD2    N112155   1.723   1.827  16.214  0.1543  0.3560  0.2631
  822MPD2    H712156   1.692   1.791  16.304  1.1993 -0.9257  0.1110
  823MPD2     C12157   0.757   2.112  16.913  0.2654  0.6781  0.6522
  823MPD2    C112158   0.868   2.068  16.849  0.6644  0.3887  1.0261
  823MPD2    C212159   0.938   1.965  16.903  1.0287 -0.1378 -0.3099
  823MPD2    C312160   0.900   1.920  17.027 -0.4525  0.3162 -0.2326
  823MPD2    C412161   0.784   1.960  17.088 -0.3809  0.2371  0.1269
  823MPD2    C512162   0.710   2.056  17.031 -0.3229  0.0400  0.1396
  823MPD2     H12163   1.028   1.941  16.847  1.2055  1.8960 -0.8850
  823MPD2    H112164   0.746   1.922  17.182  2.7121  0.8850  1.6459
  823MPD2    H212165   0.703   2.194  16.869 -0.2917 -0.9254 -1.6233
  823MPD2    H312166   0.622   2.096  17.081 -0.2097 -1.7853  1.7784
  823MPD2     N12167   0.989   1.846  17.110  0.1929  0.0150  0.3159
  823MPD2    H512168   0.948   1.820  17.199  0.4335  2.8678  1.2679
  823MPD2    N112169   0.903   2.126  16.728  0.3303 -0.0800 -0.8643
  823MPD2    H712170   0.859   2.214  16.705  2.8845  1.8432  1.6055
  824MPD2     C12171   2.132   1.149  16.131  0.7013  0.8437 -0.1533
  824MPD2    C112172   2.194   1.265  16.093 -0.2406 -0.3517  0.0247
  824MPD2    C212173   2.278   1.265  15.981  0.1468  0.1516 -0.5216
  824MPD2    C312174   2.306   1.150  15.915  0.2110  0.2960 -0.2968
  824MPD2    C412175   2.246   1.033  15.953 -0.4782  0.7930  0.4017
  824MPD2    C512176   2.158   1.036  16.062 -0.4846 -0.1938  0.5638
  824MPD2     H12177   2.317   1.359  15.944 -0.3329 -0.0017 -1.4232
  824MPD2    H112178   2.264   0.936  15.908 -3.5100  1.7357 -2.7329
  824MPD2    H212179   2.066   1.134  16.216  2.0102  0.5738  0.8088
  824MPD2    H312180   2.117   0.945  16.105 -2.1008  0.3840  0.2208
  824MPD2     N12181   2.396   1.159  15.812  0.4531  0.2189  0.3707
  824MPD2    H512182   2.438   1.251  15.798 -1.6432  0.8858 -1.5924
  824MPD2    N112183   2.159   1.391  16.144 -0.4024  0.5771 -0.1121
  824MPD2    H712184   2.199   1.478  16.109 -0.3074 -0.3608 -2.3134
  825MPD2     C12185   2.794   1.443  15.113  0.3131  0.0725  0.8809
  825MPD2    C112186   2.759   1.478  15.241  0.3071  0.1526  0.1847
  825MPD2    C212187   2.747   1.614  15.269  0.5490  0.2621 -0.4730
  825MPD2    C312188   2.754   1.710  15.165  0.0668  0.4362 -0.5032
  825MPD2    C412189   2.784   1.663  15.037 -0.2157 -0.8431 -0.2565
  825MPD2    C512190   2.809   1.535  15.019 -0.6004 -0.3702 -0.4019
  825MPD2     H12191   2.749   1.657  15.369  0.8827  1.7668 -1.1300
  825MPD2    H112192   2.797   1.721  14.947  0.4957  0.0442  0.4164
  825MPD2    H212193   2.791   1.343  15.071 -0.0364 -0.4069  2.0530
  825MPD2    H312194   2.827   1.496  14.919 -1.2629  2.8808 -1.7887
  825MPD2     N12195   2.728   1.846  15.179 -0.1508 -0.3223 -0.5371
  825MPD2    H512196   2.744   1.905  15.098  0.1226  1.4274  0.7771
  825MPD2    N112197   2.750   1.367  15.328  0.1070 -0.1471 -0.5815
  825MPD2    H712198   2.773   1.274  15.294  2.3001  0.4840 -0.8418
  826MPD2     C12199   2.152   1.319  13.786 -0.1446  0.1093  0.0679
  826MPD2    C112200   2.126   1.414  13.692 -0.7005  0.0608  0.7089
  826MPD2    C212201   2.023   1.501  13.715 -0.3950  0.0255 -0.0487
  826MPD2    C312202   1.941   1.489  13.826  0.1802 -0.1123 -0.2230
  826MPD2    C412203   1.965   1.387  13.916 -0.9678 -0.1033  0.0262
  826MPD2    C512204   2.076   1.308  13.898 -0.1103 -0.1766 -0.0060
  826MPD2     H12205   2.005   1.579  13.642  1.2880  0.6931  0.2526
  826MPD2    H112206   1.908   1.366  14.006 -0.0850  0.3734  0.6926
  826MPD2    H212207   2.229   1.244  13.772 -1.5684 -1.7662  2.3058
  826MPD2    H312208   2.092   1.228  13.970  1.4849  0.1252 -0.0116
  826MPD2     N12209   1.828   1.574  13.854  0.2901  0.0808 -0.2960
  826MPD2    H512210   1.776   1.553  13.939  1.3626 -3.0263 -0.3987
  826MPD2    N112211   2.219   1.423  13.586 -0.1862 -0.0916  0.2444
  826MPD2    H712212   2.282   1.343  13.581 -2.1331 -1.6592  0.4639
  827MPD2     C12213   2.826   3.257  10.208 -0.0434  0.7054 -0.8428
  827MPD2    C112214   2.838   3.123  10.213  0.1502  0.9158  0.3114
  827MPD2    C212215   2.800   3.047  10.105 -0.2462  0.2190  0.0865
  827MPD2    C312216   2.737   3.113   9.999  0.1286 -0.6777 -0.0844
  827MPD2    C412217   2.708   3.251  10.001 -0.2314  0.1258  0.1945
  827MPD2    C512218   2.756   3.320  10.109  0.3079 -0.3260 -0.6580
  827MPD2     H12219   2.829   2.943  10.097  0.3045  0.1572  2.8879
  827MPD2    H112220   2.647   3.304   9.929  0.2519 -1.5230 -1.4348
  827MPD2    H212221   2.855   3.317  10.294 -1.7147 -1.7265  1.4122
  827MPD2    H312222   2.738   3.427  10.119  0.8765 -0.2003 -0.9596
  827MPD2     N12223   2.692   3.036   9.890 -0.2967 -0.1910  0.1904
  827MPD2    H512224   2.688   2.936   9.912  0.5040 -0.0450  1.0143
  827MPD2    N112225   2.891   3.059  10.329  0.1032  0.0286  0.5960
  827MPD2    H712226   2.906   3.116  10.412 -1.4862 -1.4259  1.9056
  828MPD2     C12227   1.159   2.663  13.361 -0.4727  0.5252  0.3515
  828MPD2    C112228   1.096   2.724  13.258 -0.3552  0.1883  0.0279
  828MPD2    C212229   1.166   2.784  13.160  0.0286  0.3532  0.5491
  828MPD2    C312230   1.301   2.776  13.161 -0.1402 -0.4198  0.3312
  828MPD2    C412231   1.369   2.727  13.274 -0.5458  0.1231 -0.2482
  828MPD2    C512232   1.293   2.668  13.368  0.1176 -0.7776 -0.2786
  828MPD2     H12233   1.110   2.820  13.074 -0.4246 -2.4270 -0.3403
  828MPD2    H112234   1.477   2.722  13.272 -0.5615 -0.4852  0.4046
  828MPD2    H212235   1.108   2.599  13.433  4.1186 -2.1843  1.2091
  828MPD2    H312236   1.347   2.609  13.441  0.4597 -0.2402 -0.0980
  828MPD2     N12237   1.388   2.832  13.062  0.1716 -0.0263 -0.0074
  828MPD2    H512238   1.487   2.830  13.084 -0.6287  0.4281  3.5550
  828MPD2    N112239   0.954   2.730  13.242 -0.5463 -0.6218 -0.0219
  828MPD2    H712240   0.916   2.796  13.174 -1.2724 -0.9079  0.1096
  829MPD2     C12241   0.602   2.816  12.477 -0.4853  0.3924  0.3242
  829MPD2    C112242   0.483   2.832  12.552 -0.3164 -0.0220  0.8108
  829MPD2    C212243   0.501   2.833  12.692 -0.2394  0.2599 -0.2596
  829MPD2    C312244   0.625   2.809  12.747  0.2129 -0.1625  0.0847
  829MPD2    C412245   0.730   2.778  12.668  0.2751  0.3547  0.1853
  829MPD2    C512246   0.720   2.782  12.533  0.1472  0.5737  0.6550
  829MPD2     H12247   0.420   2.850  12.763 -0.4080  0.1936 -0.4342
  829MPD2    H112248   0.832   2.764  12.700  0.1429 -1.9959 -0.3925
  829MPD2    H212249   0.606   2.831  12.370  0.9097  0.4957  0.3943
  829MPD2    H312250   0.807   2.774  12.468 -2.4399 -2.3708 -2.4095
  829MPD2     N12251   0.650   2.813  12.890  0.3552  0.0591  0.0684
  829MPD2    H512252   0.740   2.778  12.923 -0.0793  0.5134  1.7351
  829MPD2    N112253   0.360   2.873  12.490  0.5982  0.1282  0.4187
  829MPD2    H712254   0.362   2.895  12.391 -0.5747 -1.0707  0.1421
  830MPD2     C12255   1.216   0.314  16.368 -0.6006  0.4950 -0.3316
  830MPD2    C112256   1.140   0.422  16.321 -0.4240 -0.0812  0.4001
  830MPD2    C212257   1.176   0.482  16.200  0.4270  0.3727  0.8316
  830MPD2    C312258   1.282   0.428  16.122  0.0146 -0.5655 -0.9125
  830MPD2    C412259   1.360   0.323  16.172 -0.1563  0.9243  0.5071
  830MPD2    C512260   1.327   0.268  16.296  0.3368  0.2491  0.3919
  830MPD2     H12261   1.120   0.566  16.159  0.7122 -1.0127 -2.3677
  830MPD2    H112262   1.437   0.274  16.113 -0.8508  1.5728 -0.9454
  830MPD2    H212263   1.193   0.278  16.467 -2.9836  0.2609 -0.9769
  830MPD2    H312264   1.384   0.186  16.337 -0.9659 -1.0441 -0.4003
  830MPD2     N12265   1.307   0.477  15.991  0.2976 -0.6592  0.0322
  830MPD2    H512266   1.396   0.452  15.949  1.6314  1.6588  1.4677
  830MPD2    N112267   1.041   0.470  16.409  0.1494 -0.4215  0.3158
  830MPD2    H712268   1.014   0.413  16.488  1.4753  1.9946  2.4936
  831MPD2     C12269   1.407   2.263  16.698  0.0582 -0.3793 -0.8232
  831MPD2    C112270   1.481   2.164  16.624 -0.3941  0.4049 -0.3411
  831MPD2    C212271   1.444   2.034  16.621 -0.4914 -0.0137  0.2937
  831MPD2    C312272   1.337   1.993  16.701 -0.4085 -0.5162  0.0056
  831MPD2    C412273   1.289   2.080  16.795 -0.2551  0.4071  0.4265
  831MPD2    C512274   1.328   2.213  16.793 -0.4350 -0.2437  0.7844
  831MPD2     H12275   1.495   1.961  16.559 -0.6468 -2.0037  2.5158
  831MPD2    H112276   1.218   2.050  16.871  0.2455 -1.7001  0.0505
  831MPD2    H212277   1.429   2.369  16.701 -0.3353 -0.2931 -0.9192
  831MPD2    H312278   1.297   2.293  16.861 -0.6666 -0.2701  0.7105
  831MPD2     N12279   1.283   1.859  16.701  0.5915  0.4833 -0.1884
  831MPD2    H512280   1.240   1.830  16.788  1.0017 -1.0492 -0.4895
  831MPD2    N112281   1.576   2.221  16.529  1.1609  0.3687  0.1773
  831MPD2    H712282   1.592   2.321  16.529  0.8390  0.4222  0.4730
  832MPD2     C12283   4.400   2.822  17.302  0.3520  0.5372 -0.0063
  832MPD2    C112284   4.411   2.956  17.279 -0.2693 -0.7060 -0.5673
  832MPD2    C212285   4.303   3.032  17.239  0.3454 -0.4827 -0.4665
  832MPD2    C312286   4.177   2.967  17.235  0.9618  0.9902 -0.0773
  832MPD2    C412287   4.169   2.833  17.266 -0.1788  0.0954  0.5334
  832MPD2    C512288   4.282   2.767  17.306 -0.2507  0.0168 -0.1380
  832MPD2     H12289   4.313   3.139  17.236 -0.3482 -0.5164 -3.8645
  832MPD2    H112290   4.072   2.784  17.272  0.1003 -0.6369 -0.8935
  832MPD2    H212291   4.487   2.758  17.315 -0.1499  0.1494  1.4606
  832MPD2    H312292   4.280   2.659  17.317 -1.7171  0.4376  3.5824
  832MPD2     N12293   4.056   3.041  17.212 -0.3592  0.1266  0.3662
  832MPD2    H512294   3.977   2.980  17.230  0.9501 -1.2732  1.3272
  832MPD2    N112295   4.546   2.995  17.274 -0.1171  0.7830  0.0144
  832MPD2    H712296   4.620   2.927  17.292 -0.4841  0.5963  0.8422
  833MPD2     C12297   1.824   1.164  12.412 -0.0967 -0.0451 -0.0152
  833MPD2    C112298   1.833   1.273  12.338  0.2586 -0.7476  0.1710
  833MPD2    C212299   1.910   1.276  12.223  1.0606 -0.5151 -0.2801
  833MPD2    C312300   1.975   1.158  12.182 -0.0521  0.6406 -0.0426
  833MPD2    C412301   1.982   1.050  12.264  0.2153 -0.5148  0.0343
  833MPD2    C512302   1.899   1.049  12.380  0.4541  0.0814 -0.1577
  833MPD2     H12303   1.915   1.368  12.167 -1.4054 -1.3208 -1.8250
  833MPD2    H112304   2.026   0.957  12.231  2.0638  0.1943  0.4785
  833MPD2    H212305   1.753   1.155  12.494  0.0632 -1.4718 -0.0194
  833MPD2    H312306   1.907   0.962  12.444  1.1377  0.3513  0.1250
  833MPD2     N12307   2.034   1.142  12.059 -0.6040 -0.0659  0.3839
  833MPD2    H512308   2.071   1.051  12.032 -0.3146 -0.2436  1.3959
  833MPD2    N112309   1.754   1.391  12.365  0.2334 -0.0241  0.0548
  833MPD2    H712310   1.676   1.377  12.429 -1.4737 -0.9761 -2.2257
  834MPD2     C12311   2.274   0.523  11.305 -0.7247 -0.0280  0.4206
  834MPD2    C112312   2.136   0.509  11.332 -0.4136  0.2923 -0.0519
  834MPD2    C212313   2.077   0.597  11.419 -0.1875  0.8199 -0.2740
  834MPD2    C312314   2.151   0.703  11.473 -0.3595  0.6298  0.0149
  834MPD2    C412315   2.286   0.720  11.439 -0.1972  0.3681  0.3728
  834MPD2    C512316   2.345   0.617  11.370  0.2816 -0.0582  0.6648
  834MPD2     H12317   1.977   0.582  11.461  0.6707  1.1506  1.9060
  834MPD2    H112318   2.346   0.802  11.475  0.0905 -0.9489  2.9166
  834MPD2    H212319   2.325   0.441  11.254  2.6907  0.5225  2.9698
  834MPD2    H312320   2.453   0.613  11.365  0.4860  3.3690  2.0998
  834MPD2     N12321   2.081   0.783  11.568  0.4115  0.1300  0.1857
  834MPD2    H512322   1.981   0.786  11.585 -0.0390  1.2146 -2.6733
  834MPD2    N112323   2.071   0.389  11.280  0.0626  0.3498 -0.7615
  834MPD2    H712324   2.131   0.327  11.227  2.3074 -0.0991  2.3206
  835MPD2     C12325   1.860   3.039  11.485 -0.0210 -0.2203  0.5112
  835MPD2    C112326   1.746   3.121  11.495 -0.0255  0.5036  0.0613
  835MPD2    C212327   1.735   3.193  11.613  0.3547 -0.2104 -0.2175
  835MPD2    C312328   1.833   3.189  11.714  0.0713 -0.2275 -0.6873
  835MPD2    C412329   1.952   3.116  11.690  0.4450 -0.6506 -0.0380
  835MPD2    C512330   1.957   3.040  11.581  0.4723 -0.1516 -0.1393
  835MPD2     H12331   1.639   3.242  11.629 -0.5092 -1.8247 -0.4976
  835MPD2    H112332   2.038   3.106  11.755  0.8508  0.9411 -0.3317
  835MPD2    H212333   1.871   2.966  11.406 -1.9318 -0.7992  0.7951
  835MPD2    H312334   2.048   2.984  11.564  1.4550  0.5446  2.7173
  835MPD2     N12335   1.819   3.243  11.849 -0.2870 -0.1367 -0.0888
  835MPD2    H512336   1.892   3.217  11.915  1.5809  2.3047 -1.1816
  835MPD2    N112337   1.649   3.142  11.396  0.3614 -0.1586  0.2242
  835MPD2    H712338   1.563   3.193  11.409  0.2177 -0.1432 -0.7536
  836MPD2     C12339   1.188   3.049  12.063  0.1016  0.1512  0.0415
  836MPD2    C112340   1.243   3.105  12.177 -0.0019 -0.2868 -0.2669
  836MPD2    C212341   1.167   3.100  12.290  0.1821  0.7029 -0.0638
  836MPD2    C312342   1.035   3.054  12.297  0.1992 -0.0731  0.0896
  836MPD2    C412343   0.983   3.006  12.187  0.5144  0.7137 -0.1915
  836MPD2    C512344   1.058   3.005  12.066  0.0550 -0.5564  0.0027
  836MPD2     H12345   1.212   3.135  12.382 -0.5654 -0.7539  0.8567
  836MPD2    H112346   0.882   2.966  12.182  1.6292 -1.9665 -1.1368
  836MPD2    H212347   1.235   3.046  11.965  0.2282  0.9666  0.0826
  836MPD2    H312348   1.009   2.957  11.982 -0.2659 -0.8341  0.3422
  836MPD2     N12349   0.954   3.044  12.411  0.1436  0.1841 -0.0621
  836MPD2    H512350   0.857   3.017  12.398  0.1563  0.4855 -0.7766
  836MPD2    N112351   1.368   3.171  12.165 -0.6334  0.0113 -0.3757
  836MPD2    H712352   1.407   3.162  12.072  0.0647 -1.8514  0.0940
  837MPD2     C12353   0.250   2.727  10.208  0.0868 -0.2045  1.0170
  837MPD2    C112354   0.146   2.717  10.294  0.3273  0.3838 -0.9825
  837MPD2    C212355   0.103   2.829  10.364  0.1957  0.5314 -0.0064
  837MPD2    C312356   0.163   2.952  10.349  0.5085  0.1425  1.2483
  837MPD2    C412357   0.274   2.960  10.263 -0.4800  0.0026  0.8562
  837MPD2    C512358   0.313   2.848  10.191  0.1217 -0.0428  0.3332
  837MPD2     H12359   0.021   2.815  10.433 -0.6127  0.2622 -1.0090
  837MPD2    H112360   0.315   3.057  10.237  1.0680 -0.0089  3.2229
  837MPD2    H212361   0.295   2.650  10.147  1.1248  0.6432  0.7087
  837MPD2    H312362   0.374   2.860  10.102 -1.3356 -0.5895 -0.7485
  837MPD2     N12363   0.108   3.053  10.422 -0.2598 -0.3123 -0.1748
  837MPD2    H512364   0.032   3.026  10.483 -1.6331  0.3009 -1.6300
  837MPD2    N112365   0.064   2.601  10.299 -0.2964 -0.1625 -0.0949
  837MPD2    H712366   4.723   2.594  10.365  0.3823 -0.6030  0.6665
  838MPD2     C12367   3.271   1.151  12.241  0.4208  0.4607  0.4661
  838MPD2    C112368   3.236   1.047  12.162 -0.6170 -0.0267  0.2690
  838MPD2    C212369   3.102   1.017  12.150  0.0169  0.1294 -0.2572
  838MPD2    C312370   3.003   1.106  12.197  0.2298  0.5926 -0.2685
  838MPD2    C412371   3.043   1.214  12.274 -0.3313 -0.4720 -0.0437
  838MPD2    C512372   3.176   1.235  12.298  0.0151 -0.4936  0.6085
  838MPD2     H12373   3.067   0.926  12.101 -1.0340 -1.1270  2.8132
  838MPD2    H112374   2.976   1.265  12.343  1.0153  1.5530 -0.2366
  838MPD2    H212375   3.373   1.176  12.267  0.4494 -0.9569  1.7555
  838MPD2    H312376   3.201   1.318  12.364  0.8669  1.4588 -2.1734
  838MPD2     N12377   2.873   1.070  12.173 -0.0872  0.5761 -0.2623
  838MPD2    H512378   2.854   0.983  12.125  0.2838  0.6655 -0.5665
  838MPD2    N112379   3.323   0.956  12.098  0.2304  0.1637 -0.1359
  838MPD2    H712380   3.270   0.886  12.048  0.0402  0.8721 -0.9284
  839MPD2     C12381   3.030   0.242  11.982  0.7338  0.1808  0.0188
  839MPD2    C112382   3.056   0.297  11.860 -0.1001 -0.6602  0.3605
  839MPD2    C212383   3.179   0.362  11.832  0.3270  0.0504  0.4746
  839MPD2    C312384   3.263   0.391  11.941  0.1028 -0.0049  0.1654
  839MPD2    C412385   3.234   0.342  12.068  0.4223  0.4747  0.3204
  839MPD2    C512386   3.117   0.264  12.088  0.1222 -0.2536  0.1523
  839MPD2     H12387   3.199   0.406  11.735  2.8521  0.4448  1.1828
  839MPD2    H112388   3.297   0.357  12.156  3.4603  0.9442 -1.9326
  839MPD2    H212389   2.942   0.185  12.009  0.3767  0.2887 -0.9212
  839MPD2    H312390   3.104   0.217  12.185 -0.8375  0.8369  0.5417
  839MPD2     N12391   3.374   0.483  11.937 -0.4563 -0.0685 -0.7277
  839MPD2    H512392   3.405   0.527  12.024  0.2135 -1.5533 -0.2223
  839MPD2    N112393   2.958   0.282  11.755  0.5668 -0.1097 -0.0147
  839MPD2    H712394   2.998   0.301  11.663 -1.9073  0.5295 -0.9621
  840MPD2     C12395   3.216   3.380  10.732  0.3951 -0.2319 -0.1037
  840MPD2    C112396   3.258   3.251  10.754  0.0299  0.7161 -0.4615
  840MPD2    C212397   3.369   3.229  10.836 -0.5131 -0.1595 -0.1621
  840MPD2    C312398   3.420   3.332  10.916  0.2599  0.0110  0.1738
  840MPD2    C412399   3.373   3.456  10.897 -0.6545  0.2337  0.3330
  840MPD2    C512400   3.272   3.483  10.809  0.2778 -0.0620 -0.4638
  840MPD2     H12401   3.414   3.130  10.834  0.3366  0.3154 -4.1532
  840MPD2    H112402   3.417   3.539  10.951 -1.7979  0.6854  0.5870
  840MPD2    H212403   3.141   3.409  10.659 -1.3168 -0.7407  1.4566
  840MPD2    H312404   3.262   3.587  10.779 -0.7643  0.0472  0.2637
  840MPD2     N12405   3.534   3.324  11.001  0.5034  0.0281 -0.1322
  840MPD2    H512406   3.559   3.407  11.054  1.4329  0.1191 -0.7061
  840MPD2    N112407   3.183   3.149  10.688  0.2227  0.2730  0.0244
  840MPD2    H712408   3.118   3.169  10.613 -0.0363 -0.9025 -0.0619
  841MPD2     C12409   2.904   3.186  15.154  0.7784 -0.6116 -0.0901
  841MPD2    C112410   2.976   3.097  15.074  0.6669  0.0859  1.0986
  841MPD2    C212411   3.074   3.154  14.991 -0.3298  0.2435 -0.7402
  841MPD2    C312412   3.095   3.291  14.976  0.0944 -0.1334 -0.4802
  841MPD2    C412413   3.011   3.377  15.047  0.3209 -0.1281  0.7680
  841MPD2    C512414   2.927   3.319  15.137 -0.0626 -0.0588  0.9596
  841MPD2     H12415   3.131   3.090  14.924  0.5908  0.9165 -0.6006
  841MPD2    H112416   3.019   3.485  15.048 -0.2616 -0.0720 -0.4359
  841MPD2    H212417   2.827   3.153  15.223 -1.0542  0.7364 -1.4631
  841MPD2    H312418   2.869   3.384  15.201  1.2570 -0.5249  2.6279
  841MPD2     N12419   3.199   3.337  14.886 -0.3415 -0.2681  0.5252
  841MPD2    H512420   3.243   3.264  14.831 -0.2704  1.2806 -1.4653
  841MPD2    N112421   2.961   2.961  15.070  0.3864  0.2348 -0.4949
  841MPD2    H712422   3.023   2.909  15.009  0.1037  0.2515 -0.8007
  842MPD2     C12423   2.775   3.050  16.579 -0.4253  0.4567 -0.0719
  842MPD2    C112424   2.857   3.158  16.595  0.7605  0.0705  1.0785
  842MPD2    C212425   2.885   3.195  16.729 -0.4204  0.3753  0.5468
  842MPD2    C312426   2.823   3.126  16.825  0.2530  0.1084 -0.1445
  842MPD2    C412427   2.741   3.014  16.806 -0.6092 -0.1973 -0.1506
  842MPD2    C512428   2.722   2.978  16.678 -0.0267 -0.2858 -0.1187
  842MPD2     H12429   2.918   3.296  16.750  0.1292  0.3847 -0.3451
  842MPD2    H112430   2.693   2.963  16.889 -0.9890  0.4401  0.0220
  842MPD2    H212431   2.751   3.017  16.479 -1.7469  1.5368 -0.1023
  842MPD2    H312432   2.665   2.888  16.656 -0.1457 -0.1193 -0.4815
  842MPD2     N12433   2.841   3.160  16.965 -0.8262  0.0148 -0.0896
  842MPD2    H512434   2.768   3.120  17.024  0.3093 -1.6945  0.1593
  842MPD2    N112435   2.889   3.244  16.485 -0.5069  0.0810  0.1711
  842MPD2    H712436   2.851   3.212  16.396 -0.0153 -2.4041  0.8306
  843MPD2     C12437   1.291   3.627  17.305 -0.1657 -0.0712  0.0866
  843MPD2    C112438   1.296   3.567  17.427  0.0556 -0.0407  0.6430
  843MPD2    C212439   1.321   3.645  17.540 -0.8221 -0.0377 -1.1933
  843MPD2    C312440   1.360   3.775  17.528 -0.0073 -0.1333  0.4277
  843MPD2    C412441   1.354   3.833  17.402 -0.2066  0.6282 -0.1263
  843MPD2    C512442   1.325   3.756  17.291  0.4211  0.0144  0.3579
  843MPD2     H12443   1.309   3.600  17.638  0.9376 -0.1293 -1.0162
  843MPD2    H112444   1.383   3.937  17.388 -1.7662  0.7818 -2.2727
  843MPD2    H212445   1.261   3.575  17.215 -0.2902  2.4752 -1.3201
  843MPD2    H312446   1.333   3.803  17.194  0.6747  0.8793  0.7958
  843MPD2     N12447   1.385   3.866  17.632  0.2728 -0.1313 -0.4445
  843MPD2    H512448   1.412   3.958  17.599  0.0805  0.4825  1.1471
  843MPD2    N112449   1.278   3.424  17.422  0.3528  0.2238  0.3990
  843MPD2    H712450   1.255   3.391  17.329  4.6327 -3.0215  0.5140
  844MPD2     C12451   3.834   2.373  16.544 -0.1893 -0.6050 -0.3480
  844MPD2    C112452   3.965   2.372  16.514  0.6567  0.0270 -0.1053
  844MPD2    C212453   4.052   2.452  16.585 -0.2637  0.6701 -0.9564
  844MPD2    C312454   4.008   2.548  16.677  0.1928 -0.3338 -0.2347
  844MPD2    C412455   3.869   2.554  16.693 -0.7029 -0.5570  0.3567
  844MPD2    C512456   3.783   2.469  16.635 -1.0580 -0.5880  0.5400
  844MPD2     H12457   4.155   2.452  16.549 -1.5166 -2.1203 -4.5540
  844MPD2    H112458   3.832   2.628  16.763  1.3428  0.6551  0.1526
  844MPD2    H212459   3.759   2.305  16.505 -1.7036  0.2486  1.1021
  844MPD2    H312460   3.680   2.481  16.666 -0.6247 -1.7902  2.4037
  844MPD2     N12461   4.098   2.632  16.749 -0.0578 -0.1999 -0.6960
  844MPD2    H512462   4.198   2.613  16.740 -0.0804  1.1919 -3.5507
  844MPD2    N112463   4.020   2.287  16.419 -0.4037 -0.1260  0.7726
  844MPD2    H712464   4.122   2.288  16.414 -0.4394  1.3499  0.1369
  845MPD2     C12465   4.351   3.649  16.876  0.7411  0.1949  0.6786
  845MPD2    C112466   4.430   3.577  16.972  0.1223  0.6560  0.1371
  845MPD2    C212467   4.421   3.441  16.991  0.5220  0.3010 -0.1118
  845MPD2    C312468   4.340   3.376  16.895  0.1144  0.0081 -0.4631
  845MPD2    C412469   4.284   3.440  16.790  0.2034 -0.0628  0.6720
  845MPD2    C512470   4.292   3.573  16.778  0.5647 -1.1892 -0.7979
  845MPD2     H12471   4.472   3.378  17.062 -0.1668  1.5623  1.5040
  845MPD2    H112472   4.238   3.381  16.712  0.1007 -0.0998  0.7598
  845MPD2    H212473   4.369   3.755  16.861 -2.9783  0.6045 -0.9508
  845MPD2    H312474   4.245   3.622  16.693 -1.3639 -2.1850 -0.3030
  845MPD2     N12475   4.335   3.238  16.905 -0.2716  1.0821  0.0742
  845MPD2    H512476   4.396   3.204  16.979  1.4377  0.6831 -1.5412
  845MPD2    N112477   4.500   3.661  17.063  0.3082  0.3237 -0.3576
  845MPD2    H712478   4.463   3.756  17.067  1.0243  0.5551  0.6182
  846MPD2     C12479   1.446   0.119  13.516 -0.4262  0.1979 -0.0974
  846MPD2    C112480   1.424   0.242  13.571  0.1638  0.2983  0.2143
  846MPD2    C212481   1.413   0.260  13.711  0.9038  0.0844 -0.1477
  846MPD2    C312482   1.423   0.152  13.799 -0.3365  0.1262 -0.4267
  846MPD2    C412483   1.446   0.027  13.749 -0.3474  0.5038  0.5813
  846MPD2    C512484   1.462   0.015  13.610 -0.0326  0.4105 -0.7576
  846MPD2     H12485   1.392   0.357  13.755  1.3219 -0.1780  0.6370
  846MPD2    H112486   1.451   4.666  13.797 -4.5409 -0.7309 -1.4894
  846MPD2    H212487   1.463   0.104  13.410  0.5372 -0.6120  0.1779
  846MPD2    H312488   1.496   4.656  13.570  0.6512  0.2682  0.1746
  846MPD2     N12489   1.406   0.176  13.941 -0.4319  0.2139 -0.1190
  846MPD2    H512490   1.355   0.259  13.969 -4.2696 -1.7845 -1.2242
  846MPD2    N112491   1.418   0.365  13.491 -0.2215  0.0252  0.1493
  846MPD2    H712492   1.399   0.447  13.548  0.7116  1.1397 -1.1502
  847MPD2     C12493   2.055   0.727  14.890  0.0371 -0.4857  0.2925
  847MPD2    C112494   1.913   0.727  14.900  0.1836  0.3397  0.5838
  847MPD2    C212495   1.860   0.752  15.022  0.6410 -0.1668 -0.2325
  847MPD2    C312496   1.928   0.768  15.140  0.0209  0.0176  0.2717
  847MPD2    C412497   2.063   0.761  15.123  0.1421 -0.2106 -0.5136
  847MPD2    C512498   2.134   0.756  15.002  0.0218 -0.6437 -0.6253
  847MPD2     H12499   1.753   0.735  15.028  0.9417 -1.4825  1.2888
  847MPD2    H112500   2.124   0.777  15.211  0.0525 -1.8964 -0.1478
  847MPD2    H212501   2.110   0.698  14.801 -1.6614 -1.7143 -0.3507
  847MPD2    H312502   2.241   0.741  15.007  0.1883  0.6437 -0.2126
  847MPD2     N12503   1.856   0.780  15.265  0.2251 -0.0832 -0.6682
  847MPD2    H512504   1.756   0.767  15.256  0.3310 -3.0295  2.4248
  847MPD2    N112505   1.820   0.683  14.805 -0.6878  0.3707 -0.5204
  847MPD2    H712506   1.730   0.649  14.838  0.1223 -0.6355  0.6417
  848MPD2     C12507   3.741   3.400  16.530  0.1614 -0.0212  0.4298
  848MPD2    C112508   3.780   3.452  16.658  0.4233  1.0855 -0.3356
  848MPD2    C212509   3.790   3.588  16.681  0.9561 -0.2172 -0.5875
  848MPD2    C312510   3.747   3.669  16.576 -0.8012 -0.0207 -0.3555
  848MPD2    C412511   3.685   3.620  16.464 -0.4200 -0.0459 -0.2174
  848MPD2    C512512   3.692   3.485  16.440 -0.7266 -0.1810  1.2832
  848MPD2     H12513   3.837   3.627  16.770  2.4446  0.0694 -1.5003
  848MPD2    H112514   3.647   3.683  16.385 -1.5893 -0.8962 -0.3437
  848MPD2    H212515   3.747   3.295  16.503 -0.9046 -0.3148  1.2868
  848MPD2    H312516   3.650   3.452  16.346  0.5632  1.0853  0.2587
  848MPD2     N12517   3.764   3.806  16.580  0.8781  0.0785 -0.3758
  848MPD2    H512518   3.732   3.860  16.500 -1.9865  1.5785  1.7836
  848MPD2    N112519   3.811   3.373  16.776 -0.5690 -0.5045  0.4574
  848MPD2    H712520   3.814   3.416  16.869  1.4605 -3.2375  1.6413
  849MPD2     C12521   4.171   4.548  13.496 -0.3872 -0.0227 -0.1056
  849MPD2    C112522   4.097   4.447  13.449  0.4006  0.1898  0.6268
  849MPD2    C212523   3.975   4.423  13.510 -0.5266  0.1601  0.3094
  849MPD2    C312524   3.936   4.489  13.619 -0.5263 -0.5093  0.2519
  849MPD2    C412525   4.003   4.606  13.655 -0.2905  0.1969 -0.4589
  849MPD2    C512526   4.117   4.629  13.591 -0.1936 -0.6199  0.2859
  849MPD2     H12527   3.921   4.337  13.471 -0.5956  2.2157 -4.1655
  849MPD2    H112528   3.976   4.663  13.743  0.9961  1.6629 -1.0036
  849MPD2    H212529   4.258   4.587  13.445  0.9239 -2.1641  0.5363
  849MPD2    H312530   4.169   4.720  13.620 -3.4206  1.2916  0.0180
  849MPD2     N12531   3.811   4.455  13.682 -0.5895 -0.2208 -0.1290
  849MPD2    H512532   3.777   4.511  13.760 -0.0618 -0.5785  0.3548
  849MPD2    N112533   4.158   4.368  13.351  0.2868 -0.2924 -0.3787
  849MPD2    H712534   4.251   4.385  13.314  0.3782 -0.3734 -0.1842
  850MPD2     C12535   1.195   2.066  15.563  0.3224 -0.4260 -1.1756
  850MPD2    C112536   1.306   2.025  15.633 -0.1092  0.0343 -0.3521
  850MPD2    C212537   1.429   2.062  15.583 -0.4353 -0.9468  0.1613
  850MPD2    C312538   1.442   2.134  15.464 -0.1170  0.5419 -0.1551
  850MPD2    C412539   1.330   2.153  15.390  0.0226  0.1431  0.3769
  850MPD2    C512540   1.209   2.121  15.440 -0.2604  0.2496 -0.5057
  850MPD2     H12541   1.512   2.046  15.651  0.6177  2.1266 -0.3634
  850MPD2    H112542   1.338   2.196  15.291 -0.4679  0.1494  0.3398
  850MPD2    H212543   1.096   2.036  15.594 -1.1476  1.6138 -3.9147
  850MPD2    H312544   1.122   2.143  15.379 -1.4387  0.7987  1.3744
  850MPD2     N12545   1.574   2.158  15.413 -0.5906  0.0434 -0.9410
  850MPD2    H512546   1.648   2.139  15.480 -2.8309  0.5876  1.7242
  850MPD2    N112547   1.288   1.943  15.757  0.5260 -0.0459 -0.0213
  850MPD2    H712548   1.193   1.941  15.793  1.3840  1.0880  2.3189
  851MPD2     C12549   1.718   1.350  16.026 -0.0741  0.2363  0.3294
  851MPD2    C112550   1.582   1.354  16.060  0.4273 -0.0875 -0.1434
  851MPD2    C212551   1.505   1.239  16.033  0.8385  0.0942 -0.4144
  851MPD2    C312552   1.573   1.130  15.978  0.2377  0.2829 -0.3103
  851MPD2    C412553   1.708   1.122  15.963 -0.4323  0.0746  0.6759
  851MPD2    C512554   1.780   1.239  15.976 -0.5459 -0.0996 -0.1258
  851MPD2     H12555   1.397   1.231  16.035  1.0367 -2.2686  0.6810
  851MPD2    H112556   1.756   1.035  15.919  0.9278  1.6040 -0.8475
  851MPD2    H212557   1.782   1.436  16.039  0.0689 -0.0991  1.8357
  851MPD2    H312558   1.887   1.249  15.964 -0.7524 -1.2848 -3.0794
  851MPD2     N12559   1.491   1.022  15.942 -0.2663  0.6095  0.1071
  851MPD2    H512560   1.394   1.050  15.931 -0.5475 -0.6335 -0.6521
  851MPD2    N112561   1.529   1.481  16.085 -0.1677  0.4855  0.5072
  851MPD2    H712562   1.590   1.561  16.082  0.2585  0.1316 -0.3799
  852MPD2     C12563   0.599   4.440  10.092 -0.2388 -0.1589  0.4783
  852MPD2    C112564   0.699   4.416  10.184 -0.2186 -0.0088  0.1773
  852MPD2    C212565   0.774   4.518  10.236  0.1595  0.4325  0.5702
  852MPD2    C312566   0.753   4.651  10.186  0.0586  0.6511  0.7524
  852MPD2    C412567   0.656   4.673  10.091  0.8997  0.2421  0.1944
  852MPD2    C512568   0.586   4.565  10.046 -0.5592  0.0009  0.7049
  852MPD2     H12569   0.861   4.514  10.300  0.1262  2.7802  0.7893
  852MPD2    H112570   0.648   0.030  10.036  1.0167 -0.0038 -0.2358
  852MPD2    H212571   0.528   4.370  10.050 -1.0077  1.3414 -0.7295
  852MPD2    H312572   0.525   4.579   9.957 -1.9817 -2.7470  1.2414
  852MPD2     N12573   0.843   0.017  10.230 -0.2811  0.1238  0.1156
  852MPD2    H512574   0.937   4.721  10.254 -0.4517 -0.4422  0.0119
  852MPD2    N112575   0.737   4.289  10.225 -0.0438 -0.8877 -0.0236
  852MPD2    H712576   0.813   4.289  10.292 -0.4940 -0.4288  0.4830
  853MPD2     C12577   2.695   3.952  12.720 -0.3825 -0.4103  0.2508
  853MPD2    C112578   2.672   4.067  12.647  0.7147  0.2134 -0.0016
  853MPD2    C212579   2.715   4.071  12.516 -0.4518 -0.1560  0.0977
  853MPD2    C312580   2.783   3.964  12.457  0.3685  0.1826 -0.0840
  853MPD2    C412581   2.808   3.853  12.536  0.7590  0.4326 -0.2030
  853MPD2    C512582   2.765   3.845  12.660  0.0185  0.2469  0.5617
  853MPD2     H12583   2.718   4.163  12.459  0.8264  0.6161  1.4267
  853MPD2    H112584   2.866   3.773  12.493  0.6299 -0.9728  2.2592
  853MPD2    H212585   2.663   3.946  12.823  0.2380 -1.4847  0.3867
  853MPD2    H312586   2.777   3.747  12.703 -0.3986 -0.2356 -0.4135
  853MPD2     N12587   2.822   3.962  12.321  0.5005 -0.1400 -0.0098
  853MPD2    H512588   2.875   3.883  12.286 -0.9495 -0.6739 -1.0086
  853MPD2    N112589   2.611   4.180  12.705 -0.4638  0.0775 -0.0019
  853MPD2    H712590   2.603   4.186  12.806 -0.6298 -0.3407  0.0092
  854MPD2     C12591   4.608   0.304  12.886  0.4956  0.6334 -0.4617
  854MPD2    C112592   4.619   0.199  12.799 -0.0219  0.4360  0.3486
  854MPD2    C212593   4.658   0.081  12.848  0.4820  0.4328 -0.0069
  854MPD2    C312594   4.696   0.061  12.981 -0.0529  0.3941  0.7273
  854MPD2    C412595   4.704   0.170  13.059  0.9765  0.4381 -0.0227
  854MPD2    C512596   4.656   0.289  13.014 -0.2388  0.2945  0.1124
  854MPD2     H12597   4.659   0.003  12.773 -1.3644  1.6676 -1.3048
  854MPD2    H112598   0.008   0.171  13.160 -0.6640  0.2939  0.6118
  854MPD2    H212599   4.579   0.405  12.857  0.6474  0.8342  0.0841
  854MPD2    H312600   4.650   0.372  13.084  3.6290 -0.4039  1.2410
  854MPD2     N12601   4.735   4.671  13.030 -0.1398 -0.1591  0.1606
  854MPD2    H512602   0.058   4.669  13.113 -0.3566 -1.7063  0.2642
  854MPD2    N112603   4.595   0.222  12.660 -0.0342 -0.2641  0.3194
  854MPD2    H712604   4.563   0.315  12.637  1.8859 -0.0485 -1.5115
  855MPD2     C12605   0.520   3.969  13.567 -0.0914  0.6186  0.0479
  855MPD2    C112606   0.423   4.065  13.602  0.6659  0.1974  0.2921
  855MPD2    C212607   0.368   4.144  13.505  0.3933 -0.1544  0.6414
  855MPD2    C312608   0.390   4.116  13.374 -0.4327  0.2299  0.0276
  855MPD2    C412609   0.475   4.017  13.339 -0.4401  0.1120 -0.4267
  855MPD2    C512610   0.544   3.942  13.436  1.3498  0.7140  0.0773
  855MPD2     H12611   0.308   4.231  13.528  0.5435 -0.0628  0.6886
  855MPD2    H112612   0.493   3.990  13.235  4.1849 -1.2888  0.7375
  855MPD2    H212613   0.563   3.904  13.642 -1.4737  0.6993  0.9142
  855MPD2    H312614   0.623   3.873  13.408  0.5219 -0.4759  0.6865
  855MPD2     N12615   0.321   4.178  13.271  0.1412 -0.9380 -0.5793
  855MPD2    H512616   0.329   4.126  13.184 -0.7564  0.7064 -1.6415
  855MPD2    N112617   0.385   4.079  13.740 -0.2528  0.7176  0.2835
  855MPD2    H712618   0.296   4.123  13.758 -1.4265 -0.4906 -2.5250
  856MPD2     C12619   2.131   0.439  14.076 -0.2160  0.5716 -0.4026
  856MPD2    C112620   2.187   0.537  14.160 -0.4101  0.6104  0.2085
  856MPD2    C212621   2.127   0.661  14.160 -0.6452  0.2028  0.5182
  856MPD2    C312622   2.007   0.692  14.095  0.8565 -0.0795 -0.1357
  856MPD2    C412623   1.951   0.587  14.025 -0.3169 -0.4205  0.5159
  856MPD2    C512624   2.011   0.466  14.010 -0.0373  0.2858  0.2846
  856MPD2     H12625   2.170   0.733  14.229  0.4612 -1.0470  1.1177
  856MPD2    H112626   1.855   0.596  13.976  0.5787 -1.2356 -1.4203
  856MPD2    H212627   2.178   0.342  14.064  0.5862  1.0478 -1.0623
  856MPD2    H312628   1.964   0.388  13.951  0.1797  1.3462 -1.2916
  856MPD2     N12629   1.937   0.811  14.113 -0.0391 -0.0354 -0.0650
  856MPD2    H512630   1.854   0.826  14.056 -1.0830  1.3552  1.8023
  856MPD2    N112631   2.303   0.514  14.241  0.2662 -0.3325 -0.1526
  856MPD2    H712632   2.353   0.593  14.280  1.2989 -1.5408  0.9401
  857MPD2     C12633   3.716   2.580  12.873 -0.1361  0.5353 -0.3234
  857MPD2    C112634   3.841   2.575  12.928 -0.6707 -0.6764 -0.0706
  857MPD2    C212635   3.931   2.680  12.921 -0.2929 -0.3651 -0.0530
  857MPD2    C312636   3.880   2.800  12.862  0.6476  0.3946  0.6880
  857MPD2    C412637   3.753   2.809  12.810  0.1651  0.3464  0.3726
  857MPD2    C512638   3.677   2.696  12.812 -0.4934 -0.6554 -0.3823
  857MPD2     H12639   4.027   2.679  12.969 -0.3898  2.6930  0.1903
  857MPD2    H112640   3.708   2.899  12.770  3.0623  1.1402 -1.1386
  857MPD2    H212641   3.648   2.496  12.874  0.7773 -0.2050 -1.4641
  857MPD2    H312642   3.578   2.694  12.766 -1.4081 -0.5771  1.5929
  857MPD2     N12643   3.974   2.909  12.867  0.1828 -0.1826 -0.6296
  857MPD2    H512644   4.061   2.883  12.913  0.6088 -0.8140 -1.7729
  857MPD2    N112645   3.871   2.460  12.999 -0.2723  0.7961  0.2429
  857MPD2    H712646   3.796   2.393  13.011  0.0466  0.9532  2.9707
  858MPD2     C12647   3.866   0.647  17.064  0.0672  0.6152 -0.4175
  858MPD2    C112648   3.999   0.671  17.053  0.1216  0.1393  0.0473
  858MPD2    C212649   4.080   0.691  17.164  0.2235 -0.1419 -0.2883
  858MPD2    C312650   4.019   0.694  17.286  0.2686 -0.2058  0.7293
  858MPD2    C412651   3.882   0.682  17.300  0.5155  0.0879  0.2271
  858MPD2    C512652   3.805   0.661  17.184  0.1015 -0.1196  0.1004
  858MPD2     H12653   4.186   0.706  17.150  0.4044 -0.9625  0.2015
  858MPD2    H112654   3.822   0.699  17.389 -0.7445 -1.3902 -0.3331
  858MPD2    H212655   3.797   0.626  16.983 -3.0470 -0.3678  2.5118
  858MPD2    H312656   3.697   0.654  17.189 -0.0839  2.0384 -0.6618
  858MPD2     N12657   4.094   0.741  17.400 -0.1670 -0.1969 -0.1410
  858MPD2    H512658   4.054   0.768  17.490 -1.3855 -1.1228 -0.3980
  858MPD2    N112659   4.042   0.662  16.913  0.3517  0.5955 -0.2401
  858MPD2    H712660   3.969   0.655  16.843  1.4516 -0.7771 -1.2484
  859MPD2     C12661   3.207   3.674  15.689  0.2881  0.1858  1.3909
  859MPD2    C112662   3.335   3.699  15.661 -0.0544 -0.4288  0.8256
  859MPD2    C212663   3.431   3.599  15.667  0.2009  0.1981  0.1767
  859MPD2    C312664   3.408   3.479  15.733  0.2671 -0.0800 -0.0440
  859MPD2    C412665   3.276   3.455  15.770  0.9215  0.5264  0.1435
  859MPD2    C512666   3.179   3.546  15.741  0.4347 -0.2512 -0.5369
  859MPD2     H12667   3.531   3.623  15.634  1.4619 -2.3953  2.0684
  859MPD2    H112668   3.243   3.361  15.814  3.2095 -0.7620 -0.8444
  859MPD2    H212669   3.128   3.748  15.689  1.2371  1.2011  2.6342
  859MPD2    H312670   3.074   3.529  15.763  0.3432 -1.4759 -1.9587
  859MPD2     N12671   3.500   3.371  15.744 -0.0326 -0.0537  0.1125
  859MPD2    H512672   3.461   3.289  15.790  2.0148 -2.1080 -1.7914
  859MPD2    N112673   3.372   3.827  15.614 -0.2181 -0.2719 -0.2339
  859MPD2    H712674   3.469   3.833  15.584 -0.4533  2.1279 -0.5129
  860MPD2     C12675   0.922   4.482  11.738 -1.3940 -0.1996 -0.6701
  860MPD2    C112676   0.871   4.518  11.862  0.9894  0.0372 -0.7276
  860MPD2    C212677   0.736   4.533  11.877 -0.3457  0.7611 -0.4459
  860MPD2    C312678   0.652   4.505  11.779  0.1295 -0.5191  0.5995
  860MPD2    C412679   0.697   4.455  11.662  0.1637 -0.0439  0.1799
  860MPD2    C512680   0.829   4.447  11.640 -0.1210  0.4488 -0.2178
  860MPD2     H12681   0.695   4.578  11.967  0.3204 -0.0649  0.2846
  860MPD2    H112682   0.628   4.424  11.585  1.1025 -1.3340 -0.1338
  860MPD2    H212683   1.026   4.463  11.716 -1.0591  0.7230  0.1562
  860MPD2    H312684   0.859   4.405  11.545  1.3837  0.9269  0.0362
  860MPD2     N12685   0.514   4.514  11.803 -0.4056  0.3052 -0.4167
  860MPD2    H512686   0.474   4.560  11.884 -0.4861  0.7803 -0.7286
  860MPD2    N112687   0.958   4.549  11.969  0.1393  0.3215  0.8051
  860MPD2    H712688   0.913   4.550  12.060 -0.3757 -1.8044  0.5607
  861MPD2     C12689   4.590   1.766  11.381 -0.8948 -0.2995 -0.4991
  861MPD2    C112690   4.565   1.899  11.408  0.0792 -0.0219 -0.3229
  861MPD2    C212691   4.490   1.974  11.319 -0.0476 -0.2759  0.5026
  861MPD2    C312692   4.430   1.917  11.204 -0.4088  0.1446  0.2884
  861MPD2    C412693   4.458   1.783  11.179 -0.2699  0.7422  0.1628
  861MPD2    C512694   4.536   1.714  11.265 -0.0082  0.3850  0.3852
  861MPD2     H12695   4.476   2.077  11.351 -1.2977  0.1953 -1.6392
  861MPD2    H112696   4.426   1.745  11.083 -2.5351  0.0421  1.1842
  861MPD2    H212697   4.645   1.696  11.443  0.0578 -1.0078 -2.1334
  861MPD2    H312698   4.558   1.612  11.234 -2.8866  0.0655 -0.6448
  861MPD2     N12699   4.356   1.983  11.107 -0.0285  0.0725 -0.4881
  861MPD2    H512700   4.305   1.924  11.042 -1.0435  1.5864 -1.0707
  861MPD2    N112701   4.620   1.970  11.519  0.1928 -0.0984 -0.3044
  861MPD2    H712702   4.607   2.071  11.527  3.3510  0.1967  1.0005
  862MPD2     C12703   3.809   1.819  10.624 -0.2946  0.0591  0.0599
  862MPD2    C112704   3.895   1.796  10.732 -0.0752 -0.4392  0.0399
  862MPD2    C212705   3.894   1.675  10.793  0.5528 -0.1538 -0.4454
  862MPD2    C312706   3.796   1.579  10.758  0.0747 -0.4138 -0.5811
  862MPD2    C412707   3.703   1.607  10.660  0.5013  0.3270  0.2566
  862MPD2    C512708   3.718   1.724  10.587  0.2925  0.5324  0.1725
  862MPD2     H12709   3.959   1.661  10.878 -0.8631  2.4492  1.0790
  862MPD2    H112710   3.619   1.543  10.640 -0.0095  0.9520  0.4131
  862MPD2    H212711   3.803   1.918  10.581 -3.2533  0.0224  0.4012
  862MPD2    H312712   3.640   1.738  10.514  0.1929  2.2604  0.6019
  862MPD2     N12713   3.779   1.477  10.852 -1.2608 -0.1502  0.0613
  862MPD2    H512714   3.835   1.464  10.936  1.1915 -1.7777 -1.8114
  862MPD2    N112715   3.992   1.890  10.777 -0.2876  0.1679 -0.0172
  862MPD2    H712716   4.054   1.860  10.852  0.9077  0.8429 -0.7366
  863MPD2     C12717   2.285   4.721  16.797 -0.6121  0.5409  0.2237
  863MPD2    C112718   2.347   0.078  16.883  0.2680 -0.1849 -0.2688
  863MPD2    C212719   2.425   0.035  16.988  0.3482  0.1262  0.5094
  863MPD2    C312720   2.448   4.637  16.999 -0.4841  0.2533  0.5336
  863MPD2    C412721   2.389   4.548  16.912 -0.3546  0.4318  0.9099
  863MPD2    C512722   2.306   4.593  16.813 -0.1744 -0.1770  0.7516
  863MPD2     H12723   2.483   0.108  17.044 -1.3203  0.6459  1.5669
  863MPD2    H112724   2.403   4.441  16.925  0.9188  0.5255  0.3256
  863MPD2    H212725   2.235   0.011  16.705  1.6222 -0.1477 -1.1785
  863MPD2    H312726   2.271   4.521  16.740  1.6096 -1.0252  0.7266
  863MPD2     N12727   2.537   4.583  17.093  0.1656  0.0476 -0.5990
  863MPD2    H512728   2.543   4.482  17.100 -0.4056  0.0354 -0.2593
  863MPD2    N112729   2.340   0.219  16.855 -0.5384 -0.0277  0.2968
  863MPD2    H712730   2.282   0.234  16.774  0.1449  3.0592  0.3915
  864MPD2     C12731   3.422   1.099  17.190 -0.8547 -0.1244  0.0483
  864MPD2    C112732   3.502   1.082  17.076  0.3614 -0.3751  0.1681
  864MPD2    C212733   3.638   1.061  17.088 -0.1097 -0.2074 -0.9009
  864MPD2    C312734   3.697   1.050  17.212 -0.5052  0.5469 -0.0425
  864MPD2    C412735   3.615   1.072  17.322 -0.1385  0.0020  0.5447
  864MPD2    C512736   3.482   1.091  17.308  0.2339 -0.0425  0.3207
  864MPD2     H12737   3.692   1.047  16.996  0.3152 -0.4319 -0.6168
  864MPD2    H112738   3.659   1.066  17.421 -0.4017 -2.6728  0.4905
  864MPD2    H212739   3.320   1.134  17.186 -1.7589 -2.3022  3.7530
  864MPD2    H312740   3.430   1.118  17.400  0.6409 -1.6676  1.0278
  864MPD2     N12741   3.831   1.022  17.238  0.3239  0.3747  0.1518
  864MPD2    H512742   3.841   1.026  17.339 -0.4722 -3.1701  0.3652
  864MPD2    N112743   3.443   1.067  16.948  0.0639 -0.2173 -0.0197
  864MPD2    H712744   3.505   1.048  16.870  1.3959 -0.8370  1.1962
  865MPD2     C12745   4.030   1.719  16.906  0.8380 -0.0106 -0.5368
  865MPD2    C112746   4.115   1.631  16.849 -0.2429 -0.2987 -0.3125
  865MPD2    C212747   4.173   1.534  16.923  1.2025 -0.5051  0.0389
  865MPD2    C312748   4.134   1.521  17.058  0.2752 -0.7167  0.5504
  865MPD2    C412749   4.051   1.611  17.118 -0.2889  0.2246  0.0461
  865MPD2    C512750   4.009   1.713  17.043 -0.4310  0.6394  0.1135
  865MPD2     H12751   4.244   1.460  16.888  2.6734  0.6245  0.6327
  865MPD2    H112752   4.011   1.609  17.219  0.7458  1.8671  0.4826
  865MPD2    H212753   3.977   1.793  16.847 -0.2438 -0.7277 -0.4829
  865MPD2    H312754   3.947   1.786  17.095 -1.0707  1.5625 -1.9571
  865MPD2     N12755   4.180   1.405  17.123 -0.1483  0.2037  0.0383
  865MPD2    H512756   4.232   1.336  17.069 -2.0056 -1.1914  0.0605
  865MPD2    N112757   4.125   1.646  16.711 -0.1281 -0.2730 -0.4252
  865MPD2    H712758   4.063   1.715  16.670  0.6529  1.1007  0.6679
  866MPD2     C12759   0.397   2.483  11.428  0.1489  0.3629  0.2540
  866MPD2    C112760   0.332   2.360  11.432  1.1025 -0.1498  0.4629
  866MPD2    C212761   0.195   2.353  11.419  0.1746 -0.1765  0.2050
  866MPD2    C312762   0.118   2.471  11.409 -0.0036 -0.6611  0.7520
  866MPD2    C412763   0.186   2.581  11.419  0.2139 -0.0250  0.1620
  866MPD2    C512764   0.320   2.593  11.423 -0.1354  0.1046 -0.1946
  866MPD2     H12765   0.152   2.254  11.424 -0.8175  0.1270 -2.3426
  866MPD2    H112766   0.126   2.672  11.426  0.8025  0.3854 -0.1780
  866MPD2    H212767   0.501   2.491  11.455  0.1854 -1.2160  0.6336
  866MPD2    H312768   0.364   2.690  11.446 -0.8584  0.0293  1.5014
  866MPD2     N12769   4.713   2.478  11.396  0.0388  0.3167  0.1558
  866MPD2    H512770   4.666   2.567  11.408 -0.6600  0.0257 -0.3984
  866MPD2    N112771   0.417   2.248  11.450 -0.0303  0.2427 -0.1627
  866MPD2    H712772   0.516   2.264  11.464 -0.4125  0.5999  2.0694
  867MPD2     C12773   2.826   1.724  17.493  0.2635 -0.0787 -0.1672
  867MPD2    C112774   2.798   1.645  17.599  0.4887 -0.3619 -0.2009
  867MPD2    C212775   2.830   1.694  17.726  0.0041 -0.6175 -0.4739
  867MPD2    C312776   2.894   1.818   0.002 -0.6821 -0.1275  0.2524
  867MPD2    C412777   2.918   1.895  17.632  0.4909  0.1924 -0.2194
  867MPD2    C512778   2.876   1.846  17.505 -0.5841 -0.0365  0.1458
  867MPD2     H12779   2.800   1.635   0.070  0.8701 -2.5755 -1.5214
  867MPD2    H112780   2.980   1.984  17.638  1.4742 -0.4346 -1.1039
  867MPD2    H212781   2.800   1.678  17.398  0.1028  0.6543 -0.4746
  867MPD2    H312782   2.898   1.900  17.413 -2.1063  1.8452  0.8815
  867MPD2     N12783   2.937   1.866   0.125  0.8309  0.0135  0.1583
  867MPD2    H512784   2.981   1.958   0.130 -1.4130  1.0494  0.8238
  867MPD2    N112785   2.750   1.512  17.567  0.5791  0.0676  0.3130
  867MPD2    H712786   2.747   1.492  17.467  3.0510 -0.1383  0.2826
  868MPD2     C12787   4.010   1.136  13.773 -0.1361 -0.3550 -0.7029
  868MPD2    C112788   4.056   1.044  13.853 -0.2133  0.2270 -0.2378
  868MPD2    C212789   4.030   1.045  13.986 -0.8488 -0.5466 -0.1863
  868MPD2    C312790   3.929   1.133  14.031 -0.4899  0.3149 -0.4002
  868MPD2    C412791   3.877   1.223  13.947 -0.1008  0.2625 -0.7725
  868MPD2    C512792   3.918   1.225  13.819  0.1733  0.4887 -0.1809
  868MPD2     H12793   4.058   0.964  14.052  0.5295  0.4421  0.4507
  868MPD2    H112794   3.800   1.292  13.978 -1.0266 -0.9164 -0.4511
  868MPD2    H212795   4.029   1.140  13.666  0.5959 -0.0282 -0.5588
  868MPD2    H312796   3.878   1.295  13.747 -1.7160 -1.7125 -1.2647
  868MPD2     N12797   3.883   1.111  14.170 -0.4903  0.2621 -0.4458
  868MPD2    H512798   3.940   1.048  14.226 -1.7300  1.7238  2.4896
  868MPD2    N112799   4.131   0.941  13.784  0.2186  0.1307  0.0729
  868MPD2    H712800   4.136   0.950  13.683 -2.9839 -1.6077 -0.2643
  869MPD2     C12801   1.800   1.945   0.795 -0.0114 -0.1557 -0.3974
  869MPD2    C112802   1.688   1.967   0.866 -0.1257 -0.1489 -0.4753
  869MPD2    C212803   1.591   2.052   0.824 -0.5717 -0.0667  0.8661
  869MPD2    C312804   1.594   2.117   0.703  0.1950 -0.2347  1.0067
  869MPD2    C412805   1.710   2.094   0.636 -0.8234 -0.0245  0.4758
  869MPD2    C512806   1.809   2.013   0.678 -0.8397  0.6046 -0.1176
  869MPD2     H12807   1.500   2.061   0.883 -1.0217 -0.0133  0.1664
  869MPD2    H112808   1.729   2.131   0.536  0.9375 -3.0663 -0.3096
  869MPD2    H212809   1.872   1.865   0.808  1.5744  1.9483  3.6362
  869MPD2    H312810   1.893   1.990   0.614 -0.7379  1.0260 -0.1354
  869MPD2     N12811   1.501   2.202   0.651  0.7311 -0.3225 -0.2726
  869MPD2    H512812   1.514   2.232   0.555 -0.1770 -2.1873 -0.9718
  869MPD2    N112813   1.673   1.883   0.978 -0.3723  0.3110 -0.0621
  869MPD2    H712814   1.745   1.814   1.000 -1.8140 -1.0887  0.2922
  870MPD2     C12815   1.024   1.808   1.488  0.4469 -0.3639 -0.5382
  870MPD2    C112816   0.923   1.721   1.467  0.8597 -0.7251  0.2736
  870MPD2    C212817   0.798   1.769   1.466  0.1966 -0.4931  0.9567
  870MPD2    C312818   0.769   1.906   1.470 -0.2988  0.7145 -0.7810
  870MPD2    C412819   0.878   1.998   1.480 -0.3270 -0.1219  0.6831
  870MPD2    C512820   1.003   1.947   1.493  0.2686  0.4134  0.0802
  870MPD2     H12821   0.707   1.711   1.453 -0.0488  0.6968 -2.6650
  870MPD2    H112822   0.868   2.106   1.476  2.7275  0.1147 -0.0181
  870MPD2    H212823   1.126   1.773   1.500  0.9752  0.4919 -2.5436
  870MPD2    H312824   1.095   2.003   1.507  0.4589  0.3279 -0.8240
  870MPD2     N12825   0.632   1.949   1.477  0.4418 -0.7538  1.1900
  870MPD2    H512826   0.571   1.868   1.469 -0.7289  0.1227  1.2674
  870MPD2    N112827   0.961   1.580   1.462  0.4733 -0.6027  0.6346
  870MPD2    H712828   1.057   1.564   1.490  0.1789 -1.2055  1.3214
  871MPD2     C12829   1.577   1.448  16.822 -0.3541 -0.5291 -0.0072
  871MPD2    C112830   1.563   1.423  16.956 -0.5069  0.1719 -0.9152
  871MPD2    C212831   1.600   1.297  17.006  0.2285 -0.1051  0.4260
  871MPD2    C312832   1.669   1.207  16.931  0.1984  0.0430 -0.0891
  871MPD2    C412833   1.696   1.238  16.804 -0.0211  0.2460 -0.5576
  871MPD2    C512834   1.649   1.353  16.747 -0.5417 -1.0606  0.6773
  871MPD2     H12835   1.589   1.288  17.114  1.2956 -0.2011  0.5204
  871MPD2    H112836   1.748   1.167  16.740  1.6630 -0.5750  1.7222
  871MPD2    H212837   1.558   1.548  16.785  1.9460 -0.1342 -0.1741
  871MPD2    H312838   1.665   1.370  16.642 -1.7451 -1.1986  0.4735
  871MPD2     N12839   1.698   1.087  16.996 -0.3932  0.4746  0.4951
  871MPD2    H512840   1.653   1.072  17.086  0.0698 -0.3746  0.5835
  871MPD2    N112841   1.516   1.539  17.026 -0.0938  0.0679 -0.2642
  871MPD2    H712842   1.498   1.622  16.972 -0.8825 -0.1008 -0.2511
  872MPD2     C12843   1.978   0.152  13.683  0.1406 -0.4880 -0.3731
  872MPD2    C112844   2.065   0.060  13.734 -0.5893 -0.3278 -0.5741
  872MPD2    C212845   2.009   4.714  13.828  0.6113 -0.3046  0.5548
  872MPD2    C312846   1.872   4.729  13.876  0.2573  0.3416 -0.0477
  872MPD2    C412847   1.794   0.098  13.823  0.0906  0.3321  0.1482
  872MPD2    C512848   1.853   0.181  13.732  0.2141 -0.1145 -0.7967
  872MPD2     H12849   2.072   4.643  13.880  3.3314  1.1182 -0.8248
  872MPD2    H112850   1.691   0.115  13.853  0.5735  0.0583  1.9678
  872MPD2    H212851   2.005   0.222  13.605  1.7608  0.4899  1.0621
  872MPD2    H312852   1.793   0.257  13.681 -0.4823  0.7255  1.2961
  872MPD2     N12853   1.809   4.642  13.965 -0.1410  0.5632  0.8288
  872MPD2    H512854   1.718   4.668  14.002 -1.3649  0.0794 -1.9034
  872MPD2    N112855   2.201   0.023  13.681  0.1147 -0.4440 -0.1465
  872MPD2    H712856   2.251   4.681  13.722 -0.0808 -1.6016 -2.0799
  873MPD2     C12857   4.006   2.620   1.063 -0.4567  0.5033  0.2715
  873MPD2    C112858   3.908   2.679   0.983 -0.2808 -0.8672  0.6553
  873MPD2    C212859   3.787   2.614   0.971 -0.2352  0.0663 -0.1553
  873MPD2    C312860   3.761   2.490   1.032 -0.7881  0.0739  0.6883
  873MPD2    C412861   3.856   2.447   1.117  0.1730 -0.0822  0.3823
  873MPD2    C512862   3.975   2.511   1.135  0.1718 -0.2718  0.7329
  873MPD2     H12863   3.699   2.656   0.923  0.1652  0.7327 -0.3030
  873MPD2    H112864   3.839   2.364   1.185  0.8556 -0.9185 -0.4687
  873MPD2    H212865   4.105   2.664   1.070 -0.5159  0.9870 -2.0215
  873MPD2    H312866   4.043   2.465   1.205  0.1920  1.1008  1.6009
  873MPD2     N12867   3.646   2.415   1.035  0.2605 -0.4408 -0.0981
  873MPD2    H512868   3.652   2.324   1.080  0.2149 -0.3858  0.0206
  873MPD2    N112869   3.931   2.810   0.928 -0.4604  0.3565 -0.6526
  873MPD2    H712870   4.024   2.850   0.939 -1.7812  2.9020  1.0416
  874MPD2     C12871   3.069   4.141  16.399 -1.0803 -0.1662 -0.6375
  874MPD2    C112872   3.117   4.024  16.457  0.4203  0.2145  1.0309
  874MPD2    C212873   3.243   4.023  16.515  0.0126 -0.2437  0.7168
  874MPD2    C312874   3.312   4.140  16.523  0.4326 -0.0645 -0.1221
  874MPD2    C412875   3.266   4.252  16.460  0.6392  0.2950 -0.0130
  874MPD2    C512876   3.147   4.253  16.400 -0.4512  0.1933  0.2704
  874MPD2     H12877   3.281   3.928  16.551  0.8176 -0.1441  0.1074
  874MPD2    H112878   3.330   4.339  16.450 -1.2868  2.0188  2.5700
  874MPD2    H212879   2.967   4.148  16.363 -0.7040  1.3680 -1.3982
  874MPD2    H312880   3.118   4.348  16.356 -1.3248 -0.6037 -0.8711
  874MPD2     N12881   3.440   4.130  16.588  0.6642 -0.0750  0.4299
  874MPD2    H512882   3.474   4.048  16.637 -2.2450 -1.4202  0.1631
  874MPD2    N112883   3.032   3.915  16.443  0.4660  0.4399 -0.4888
  874MPD2    H712884   2.947   3.927  16.389 -0.0316 -0.6214  0.0556
  875MPD2     C12885   4.563   2.852  14.427  0.1644 -0.0860  0.3645
  875MPD2    C112886   4.427   2.867  14.439  0.6354 -0.3792 -0.1848
  875MPD2    C212887   4.381   2.907  14.561  0.4529  0.2373 -0.6156
  875MPD2    C312888   4.460   2.913  14.673 -0.5361 -0.1492  0.1363
  875MPD2    C412889   4.590   2.892  14.660 -0.2464 -0.3536 -0.2143
  875MPD2    C512890   4.645   2.878  14.535  0.1236  0.1222 -0.1271
  875MPD2     H12891   4.276   2.934  14.566  0.3309 -0.1051 -1.2832
  875MPD2    H112892   4.657   2.894  14.745  0.1771 -1.0008 -0.5336
  875MPD2    H212893   4.606   2.824  14.332  0.7705  1.2329  0.2580
  875MPD2    H312894   0.016   2.864  14.531  0.2424  0.8083  0.4876
  875MPD2     N12895   4.428   2.943  14.803 -0.2093 -0.0740 -0.0208
  875MPD2    H512896   4.500   2.963  14.871 -1.6975  2.8070  0.7023
  875MPD2    N112897   4.333   2.852  14.338  0.8260  0.4363  0.4091
  875MPD2    H712898   4.244   2.894  14.362  0.1392  0.1870 -1.7156
  876MPD2     C12899   3.581   3.893  15.940 -0.1670  0.7255 -0.4807
  876MPD2    C112900   3.710   3.884  15.982 -0.3959  0.0626 -0.4141
  876MPD2    C212901   3.763   3.762  16.016 -0.0608  0.1756  0.4854
  876MPD2    C312902   3.687   3.647  16.019  1.1543  0.2256 -0.1645
  876MPD2    C412903   3.555   3.658  15.976  0.1819  0.0314  0.0842
  876MPD2    C512904   3.504   3.782  15.944  0.2725  0.3397 -0.0534
  876MPD2     H12905   3.865   3.750  16.050  0.4728 -2.4969 -2.0643
  876MPD2    H112906   3.482   3.578  15.972  0.9406 -0.6250 -0.3904
  876MPD2    H212907   3.537   3.986  15.906  1.0156  1.7357  0.7349
  876MPD2    H312908   3.407   3.781  15.895 -0.0363 -2.8589  0.6190
  876MPD2     N12909   3.750   3.523  16.063  0.1356 -0.3492 -0.2616
  876MPD2    H512910   3.852   3.526  16.067  0.1154  1.1169 -0.8590
  876MPD2    N112911   3.789   4.004  15.968 -0.6305  0.1248  0.3712
  876MPD2    H712912   3.749   4.080  15.915  1.4890  0.0691 -1.3056
  877MPD2     C12913   3.582   4.587  15.682  0.2991 -0.1777  0.1918
  877MPD2    C112914   3.699   4.544  15.613  0.3176  0.5966 -0.6239
  877MPD2    C212915   3.716   4.582  15.477  0.0104  0.3723  0.0645
  877MPD2    C312916   3.608   4.649  15.414 -1.1615  0.1207 -0.4888
  877MPD2    C412917   3.502   4.691  15.486  0.4658 -0.4947  0.1625
  877MPD2    C512918   3.486   4.661  15.614 -0.3103 -0.2864 -0.2941
  877MPD2     H12919   3.812   4.557  15.434  0.0214  0.3806  0.0844
  877MPD2    H112920   3.428   0.023  15.444  1.9518  1.0625  0.0436
  877MPD2    H212921   3.566   4.557  15.785 -1.4775  0.8735  0.2135
  877MPD2    H312922   3.406   4.710  15.669 -1.2286 -2.0031 -0.0933
  877MPD2     N12923   3.595   4.648  15.272  0.1081 -0.2759 -0.4444
  877MPD2    H512924   3.504   4.657  15.228 -0.8285  1.4050  1.8596
  877MPD2    N112925   3.801   4.477  15.678  0.1810  0.2895  0.3219
  877MPD2    H712926   3.868   4.421  15.626 -0.7337 -0.9771  0.5300
  878MPD2     C12927   3.715   3.825  12.666  0.4180 -0.4191  0.1245
  878MPD2    C112928   3.685   3.944  12.718  0.4310  0.3551 -0.5932
  878MPD2    C212929   3.777   4.007  12.797 -0.1865 -0.4744 -0.2333
  878MPD2    C312930   3.901   3.948  12.825 -0.4947  0.7954 -0.6085
  878MPD2    C412931   3.926   3.827  12.761 -0.5397  0.0211 -1.0552
  878MPD2    C512932   3.841   3.771  12.675  0.4853  0.0938  0.1272
  878MPD2     H12933   3.758   4.103  12.844 -2.3192 -0.6550 -0.7399
  878MPD2    H112934   4.023   3.780  12.750 -0.9516 -1.3783  1.2910
  878MPD2    H212935   3.649   3.762  12.609 -0.0586  1.1086 -0.9975
  878MPD2    H312936   3.861   3.673  12.633  0.6215 -0.1416  0.7328
  878MPD2     N12937   3.991   4.002  12.919  0.3690  0.3635 -0.8267
  878MPD2    H512938   3.964   4.080  12.978  1.0217 -0.0574  0.0180
  878MPD2    N112939   3.545   3.978  12.713 -0.3493  0.5559 -0.0970
  878MPD2    H712940   3.482   3.912  12.669 -0.4092 -1.3291  2.8853
  879MPD2     C12941   3.813   4.681  17.254 -0.2652 -0.6882  1.0763
  879MPD2    C112942   3.818   4.543  17.236 -0.7696  0.0014  0.0233
  879MPD2    C212943   3.714   4.479  17.164  0.3916  0.2386  0.3302
  879MPD2    C312944   3.627   4.566  17.099 -1.2493 -0.2747  1.1366
  879MPD2    C412945   3.634   4.706  17.112  0.5013 -0.1064  0.6725
  879MPD2    C512946   3.731   0.032  17.187  0.2423 -0.5014  0.1926
  879MPD2     H12947   3.706   4.373  17.143  0.8072 -0.7395  5.0075
  879MPD2    H112948   3.569   0.027  17.048 -0.1420  0.8936  2.2176
  879MPD2    H212949   3.889   4.730  17.314 -0.1507  0.6397 -0.1371
  879MPD2    H312950   3.742   0.139  17.189 -1.3536 -0.3719  1.5620
  879MPD2     N12951   3.514   4.525  17.028  0.1317 -0.2978  0.4523
  879MPD2    H512952   3.440   4.593  17.017 -1.1393 -2.0067 -1.5784
  879MPD2    N112953   3.924   4.471  17.292 -0.2615 -0.2065 -0.0075
  879MPD2    H712954   3.998   4.532  17.325  1.0707 -0.1103 -3.1887
  880MPD2     C12955   0.490   1.012   0.975  0.3909  0.4084 -0.6672
  880MPD2    C112956   0.433   1.038   0.854  0.6030 -0.0930  0.9024
  880MPD2    C212957   0.455   0.943   0.756 -0.2054 -0.3253  0.1766
  880MPD2    C312958   0.483   0.809   0.783  0.1878 -0.2560  0.2672
  880MPD2    C412959   0.544   0.783   0.907 -0.6749  0.0818  0.1083
  880MPD2    C512960   0.546   0.889   0.999  0.4990  0.4846 -0.0198
  880MPD2     H12961   0.430   0.976   0.655  0.2880 -1.2879 -0.2542
  880MPD2    H112962   0.583   0.683   0.922  0.3583  0.6037  0.8944
  880MPD2    H212963   0.481   1.068   1.067 -0.4229  3.3654 -2.5620
  880MPD2    H312964   0.583   0.883   1.100 -0.3824 -2.8282  0.0908
  880MPD2     N12965   0.457   0.714   0.688 -0.4894  0.0818  0.1710
  880MPD2    H512966   0.429   0.758   0.601  3.9235  2.6642  0.0273
  880MPD2    N112967   0.362   1.157   0.830  0.5733  0.4254 -0.1203
  880MPD2    H712968   0.360   1.228   0.902 -2.1920  2.1215 -1.8665
  881MPD2     C12969   4.694   1.831   0.051 -0.5315 -0.1117  0.4457
  881MPD2    C112970   0.071   1.756   0.047  0.3534 -0.5054 -0.8111
  881MPD2    C212971   0.119   1.696   0.165  0.2820  0.2048  0.0245
  881MPD2    C312972   0.045   1.703   0.285  0.3338 -0.4091  0.1942
  881MPD2    C412973   4.663   1.777   0.288  0.7292 -0.1456 -0.3365
  881MPD2    C512974   4.627   1.845   0.172 -0.7373 -0.5320  0.1902
  881MPD2     H12975   0.219   1.654   0.171  0.2489  0.2741  1.0997
  881MPD2    H112976   4.595   1.787   0.372  1.2274  1.9108 -0.1618
  881MPD2    H212977   4.670   1.889  17.705  1.0890 -0.4506 -0.2133
  881MPD2    H312978   4.537   1.905   0.173  0.9099  1.9455 -0.0553
  881MPD2     N12979   0.080   1.634   0.402  0.0220 -0.0414  0.8041
  881MPD2    H512980   0.006   1.635   0.471  1.1075 -3.1427  2.0224
  881MPD2    N112981   0.162   1.771  17.679  0.0050  0.1493 -0.6836
  881MPD2    H712982   0.138   1.839  17.608  0.0491  1.2882  0.3884
  882MPD2     C12983   3.476   4.042  15.111  0.1567  0.1324 -0.5917
  882MPD2    C112984   3.424   4.124  15.012 -0.2316  0.6451 -0.2509
  882MPD2    C212985   3.312   4.072  14.947 -0.4999 -0.1190 -0.6803
  882MPD2    C312986   3.274   3.937  14.959 -0.4148 -0.0125  0.4347
  882MPD2    C412987   3.322   3.864  15.061  0.0992  0.1801  0.0910
  882MPD2    C512988   3.415   3.924  15.143 -0.3478 -0.3478  0.3941
  882MPD2     H12989   3.271   4.143  14.877  1.6227  1.5714 -0.2163
  882MPD2    H112990   3.285   3.766  15.091 -1.3682  0.8362  0.3961
  882MPD2    H212991   3.559   4.077  15.172  0.3661 -0.6860 -0.4162
  882MPD2    H312992   3.455   3.872  15.230 -0.8598  0.5503  1.1544
  882MPD2     N12993   3.177   3.878  14.876 -0.1031  0.5022  0.4589
  882MPD2    H512994   3.140   3.788  14.907 -0.3681  0.1031 -1.0051
  882MPD2    N112995   3.477   4.257  14.988 -0.1757  0.8511  0.4145
  882MPD2    H712996   3.557   4.277  15.047  0.1768 -0.5088  0.3755
  883MPD2     C12997   0.522   4.243  15.930 -0.3529 -0.5175  0.0892
  883MPD2    C112998   0.631   4.220  15.851  0.4984 -0.3907  0.9512
  883MPD2    C212999   0.744   4.181  15.905  0.8390 -0.8061 -0.7535
  883MPD2    C313000   0.760   4.160  16.039 -0.6261 -0.5810 -0.4646
  883MPD2    C413001   0.647   4.168  16.116  0.5053  0.2248  0.1236
  883MPD2    C513002   0.530   4.213  16.055 -0.1877 -0.8353  0.4159
  883MPD2     H13003   0.828   4.157  15.841  0.3698 -2.0097 -0.9165
  883MPD2    H113004   0.645   4.174  16.225 -1.9632 -1.5680  0.1869
  883MPD2    H213005   0.422   4.254  15.889  0.3146  0.4453 -1.2762
  883MPD2    H313006   0.446   4.230  16.121 -1.9369 -4.2267 -0.9172
  883MPD2     N13007   0.888   4.132  16.087 -0.0024  0.1051  0.3194
  883MPD2    H513008   0.960   4.120  16.017 -0.8885  1.4011 -0.8215
  883MPD2    N113009   0.633   4.235  15.713  0.4935 -0.4515 -0.2496
  883MPD2    H713010   0.719   4.214  15.665  2.3319 -0.1990  2.9210
  884MPD2     C13011   3.102   0.376  15.239 -0.1369 -0.2539 -0.1757
  884MPD2    C113012   3.045   0.501  15.241  0.6163 -0.7012 -0.2319
  884MPD2    C213013   2.912   0.509  15.277  0.0205 -0.2484 -0.9727
  884MPD2    C313014   2.838   0.394  15.303  0.5989 -0.1764 -0.1927
  884MPD2    C413015   2.902   0.268  15.308 -0.0987 -0.5303 -0.4123
  884MPD2    C513016   3.031   0.259  15.270  0.1860 -0.3752  0.7494
  884MPD2     H13017   2.856   0.602  15.276  0.4920  0.0356 -1.4116
  884MPD2    H113018   2.862   0.171  15.337 -5.6562  1.8712  0.0608
  884MPD2    H213019   3.207   0.363  15.217 -0.2083  0.5927 -0.9952
  884MPD2    H313020   3.080   0.162  15.268 -0.6505 -0.7167 -1.9323
  884MPD2     N13021   2.702   0.403  15.351 -0.8165  0.4221 -0.0793
  884MPD2    H513022   2.669   0.498  15.365  1.0169  0.5845  3.1105
  884MPD2    N113023   3.106   0.627  15.223  0.5891  0.2872  0.2798
  884MPD2    H713024   3.043   0.706  15.222 -0.7794 -0.8134 -0.2864
  885MPD2     C13025   0.969   3.836   0.047  0.0395 -0.1886 -0.2302
  885MPD2    C113026   0.990   3.927   0.149  0.0597 -0.1610  0.3102
  885MPD2    C213027   1.020   4.058   0.116 -0.0826 -0.2509  1.2605
  885MPD2    C313028   1.054   4.089  17.731  0.0416 -0.9834 -0.0666
  885MPD2    C413029   1.045   4.001  17.628 -0.1929 -0.2508 -0.1160
  885MPD2    C513030   1.013   3.867  17.659  0.6412 -0.2323  0.2580
  885MPD2     H13031   1.027   4.137   0.189 -0.3729  0.7055  0.2677
  885MPD2    H113032   1.066   4.024  17.525  0.6272  0.6004  0.2459
  885MPD2    H213033   0.927   3.740   0.071 -1.3007  0.8068  1.3589
  885MPD2    H313034   1.008   3.791  17.581  0.4242 -1.2400  1.2532
  885MPD2     N13035   1.090   4.221  17.702 -0.3615 -0.0291  0.3887
  885MPD2    H513036   1.071   4.294   0.028 -0.4173 -0.6761  1.0672
  885MPD2    N113037   0.990   3.879   0.285 -0.0969  0.2507  0.9132
  885MPD2    H713038   0.943   3.791   0.303 -1.9711  1.1686  0.4701
  886MPD2     C13039   2.146   3.853  15.771  0.1319 -1.0650 -0.3134
  886MPD2    C113040   2.270   3.802  15.732  0.0320  0.7501  0.5117
  886MPD2    C213041   2.338   3.868  15.625  0.7108 -0.4247  0.0435
  886MPD2    C313042   2.280   3.983  15.575 -0.6127  0.1257 -0.0643
  886MPD2    C413043   2.154   4.026  15.617 -0.0779 -0.4940 -0.0795
  886MPD2    C513044   2.096   3.966  15.722  0.4483 -0.3316  0.6867
  886MPD2     H13045   2.436   3.840  15.586  1.3078  2.1446 -0.3478
  886MPD2    H113046   2.107   4.117  15.583 -2.7383 -0.1748  4.3887
  886MPD2    H213047   2.101   3.819  15.863  0.7908 -3.0126 -0.6970
  886MPD2    H313048   2.000   4.000  15.759 -0.0557 -0.5173 -0.4538
  886MPD2     N13049   2.334   4.036  15.454 -0.0474 -0.6404  0.3624
  886MPD2    H513050   2.417   3.990  15.417  1.0610  0.6115  1.3434
  886MPD2    N113051   2.318   3.684  15.785 -0.5827 -0.0099 -0.4673
  886MPD2    H713052   2.410   3.660  15.749 -0.6133 -1.9439  0.7378
  887MPD2     C13053   2.931   3.309  16.028  0.1605 -0.2778  0.3621
  887MPD2    C113054   2.863   3.425  16.004 -0.3666 -0.2465 -0.4893
  887MPD2    C213055   2.927   3.542  16.029  0.2044  0.3002 -0.1936
  887MPD2    C313056   3.056   3.557  16.081 -0.1294 -0.3400 -0.0382
  887MPD2    C413057   3.123   3.438  16.106 -1.1486  0.1600 -0.1875
  887MPD2    C513058   3.061   3.317  16.078  0.2173 -0.4572  0.2747
  887MPD2     H13059   2.872   3.632  16.004 -1.4625 -0.8229 -0.5627
  887MPD2    H113060   3.225   3.433  16.142 -1.9030  0.4163  1.9807
  887MPD2    H213061   2.880   3.215  16.011  0.1629 -0.3537  0.7763
  887MPD2    H313062   3.120   3.226  16.084  2.1664  0.7614 -0.4037
  887MPD2     N13063   3.099   3.685  16.111  0.0865  0.7354  0.2667
  887MPD2    H513064   3.038   3.766  16.107  0.2894  0.9923  2.3773
  887MPD2    N113065   2.740   3.436  15.932  0.2125 -0.5819  0.8422
  887MPD2    H713066   2.698   3.528  15.927 -1.3089 -1.1031  3.6894
  888MPD2     C13067   4.591   4.218  14.558 -0.0595 -0.7857  0.3294
  888MPD2    C113068   4.629   4.227  14.693  0.4152 -0.4061 -0.4515
  888MPD2    C213069   4.714   4.325  14.727 -0.1330 -0.2802  0.0067
  888MPD2    C313070   0.036   4.403  14.633 -0.0697  0.0446 -0.0682
  888MPD2    C413071   0.003   4.384  14.500 -0.5901 -0.1238  0.4813
  888MPD2    C513072   4.648   4.293  14.464 -0.3900 -0.2666  0.5346
  888MPD2     H13073   4.732   4.350  14.830 -1.3899 -0.6029  0.3116
  888MPD2    H113074   0.047   4.437  14.416  1.5103 -1.9538  0.4000
  888MPD2    H213075   4.520   4.143  14.527  0.2272 -1.0810  0.3912
  888MPD2    H313076   4.619   4.271  14.362  1.5736  0.3508 -0.1514
  888MPD2     N13077   0.138   4.483  14.682  0.0600  0.8296  0.0306
  888MPD2    H513078   0.153   4.481  14.782  0.1504 -0.5047 -0.0091
  888MPD2    N113079   4.589   4.132  14.790 -0.1697  0.4748 -0.3342
  888MPD2    H713080   4.644   4.133  14.876 -0.9016 -1.9941  0.1521
  889MPD2     C13081   4.090   3.346  12.373  0.1677 -0.5482 -0.6588
  889MPD2    C113082   4.128   3.430  12.478  0.2577  0.0504  0.6755
  889MPD2    C213083   4.097   3.559  12.474 -0.0028 -0.3360  0.5825
  889MPD2    C313084   4.032   3.609  12.368  0.0760 -0.1352  0.2428
  889MPD2    C413085   4.001   3.528  12.259 -0.5546 -0.1343 -0.3510
  889MPD2    C513086   4.037   3.397  12.257  0.6112 -0.3404 -0.2947
  889MPD2     H13087   4.106   3.623  12.561 -2.1004  0.1743  0.4114
  889MPD2    H113088   3.946   3.565  12.173 -1.5394 -2.2647 -0.6290
  889MPD2    H213089   4.115   3.241  12.370 -3.3806 -1.3840 -1.1456
  889MPD2    H313090   4.021   3.337  12.168  1.6309 -2.2746  0.8181
  889MPD2     N13091   4.013   3.744  12.376  0.4542 -0.4561 -0.2208
  889MPD2    H513092   4.045   3.792  12.460  0.7980  0.3243 -0.7873
  889MPD2    N113093   4.157   3.359  12.600 -0.3313 -0.7139  0.1755
  889MPD2    H713094   4.167   3.258  12.593  2.0187 -0.3692 -1.2247
  890MPD2     C13095   3.486   0.405  15.538  0.0683 -0.0665 -0.1091
  890MPD2    C113096   3.616   0.393  15.495 -0.8598  0.4496 -0.6132
  890MPD2    C213097   3.700   0.324  15.577  0.4511  0.2295  0.6269
  890MPD2    C313098   3.653   0.253  15.688 -0.0076  0.4236  0.4029
  890MPD2    C413099   3.515   0.246  15.711  0.1984  0.4231 -0.1420
  890MPD2    C513100   3.433   0.328  15.634  0.7411 -0.5266 -0.4215
  890MPD2     H13101   3.807   0.313  15.563  0.4563 -2.2460  2.6062
  890MPD2    H113102   3.467   0.190  15.791 -0.9245  0.5565 -0.7226
  890MPD2    H213103   3.423   0.474  15.483 -0.2357 -0.0473  0.2708
  890MPD2    H313104   3.327   0.337  15.656  1.1095 -0.0536  1.1356
  890MPD2     N13105   3.745   0.181  15.770  0.2043  0.3874 -0.1582
  890MPD2    H513106   3.841   0.199  15.744 -0.0082 -0.8729 -1.7316
  890MPD2    N113107   3.663   0.479  15.388 -0.0507 -0.4529  0.1651
  890MPD2    H713108   3.599   0.543  15.342  1.4222  1.5811  0.9401
  891MPD2     C13109   1.876   3.187  16.945 -0.0345 -0.7320 -0.0639
  891MPD2    C113110   1.783   3.087  16.958 -1.5544 -0.5860  0.1239
  891MPD2    C213111   1.823   2.967  17.006  0.8473  0.4483  0.1774
  891MPD2    C313112   1.961   2.941  17.024 -0.1994  0.3365 -0.2556
  891MPD2    C413113   2.053   3.048  17.014  0.0300  0.5365  0.7198
  891MPD2    C513114   2.006   3.169  16.969  0.4629  1.2826  0.6551
  891MPD2     H13115   1.757   2.881  17.008  0.2056  0.9393 -0.1580
  891MPD2    H113116   2.160   3.035  17.016  0.1360  1.2196 -0.6170
  891MPD2    H213117   1.847   3.281  16.899 -1.9726 -1.1636  0.2582
  891MPD2    H313118   2.071   3.254  16.952 -1.1778  2.4279  0.0602
  891MPD2     N13119   2.008   2.806  17.058  0.9670 -0.3904  0.7786
  891MPD2    H513120   1.945   2.729  17.039  0.5196 -0.0011  0.6580
  891MPD2    N113121   1.650   3.123  16.919  0.3437  0.5688 -0.2489
  891MPD2    H713122   1.625   3.217  16.888  2.1697  0.8243 -0.9309
  892MPD2     C13123   2.719   4.556  14.484  0.6641  0.2482  0.2686
  892MPD2    C113124   2.668   4.500  14.601  0.1217  0.0825  0.0614
  892MPD2    C213125   2.671   4.363  14.621 -0.2578 -0.3036  0.3098
  892MPD2    C313126   2.737   4.277  14.537  0.0112 -0.2812  0.5016
  892MPD2    C413127   2.787   4.331  14.421 -0.9786 -0.0808 -0.4862
  892MPD2    C513128   2.781   4.466  14.398 -0.6504  0.4585  0.3334
  892MPD2     H13129   2.631   4.330  14.717 -0.3812 -1.0691 -0.0105
  892MPD2    H113130   2.847   4.269  14.355  0.8701 -1.6604  2.7123
  892MPD2    H213131   2.719   4.664  14.468 -0.7396 -0.0055 -1.4418
  892MPD2    H313132   2.837   4.506  14.314 -1.8813  1.0937 -0.1794
  892MPD2     N13133   2.769   4.147  14.560 -0.9487  0.3384  0.7517
  892MPD2    H513134   2.826   4.106  14.487 -0.4517  0.7460  0.9109
  892MPD2    N113135   2.598   4.583  14.692  0.5615 -0.0320 -0.7178
  892MPD2    H713136   2.576   4.678  14.666  1.6118  0.2647 -0.5157
  893MPD2     C13137   0.940   2.981   2.025  0.5483  0.1604 -0.3201
  893MPD2    C113138   1.051   2.918   1.966 -0.1564 -0.0558 -0.2393
  893MPD2    C213139   1.178   2.954   2.010  0.4948  0.1273  0.5860
  893MPD2    C313140   1.194   3.066   2.092 -0.0888  0.4008 -0.3491
  893MPD2    C413141   1.084   3.127   2.149  0.4833 -0.0352  0.6782
  893MPD2    C513142   0.961   3.083   2.113  0.6817 -0.7484  0.1995
  893MPD2     H13143   1.265   2.907   1.965 -0.0425 -0.6086  0.3263
  893MPD2    H113144   1.088   3.203   2.225 -0.8979  0.4136  0.2923
  893MPD2    H213145   0.840   2.950   1.996  0.5385  0.6764 -0.8299
  893MPD2    H313146   0.876   3.134   2.157 -1.4990 -2.0115 -2.5229
  893MPD2     N13147   1.320   3.130   2.130  0.2646 -0.4538 -0.7832
  893MPD2    H513148   1.322   3.218   2.180  0.8320  0.0768 -1.7269
  893MPD2    N113149   1.027   2.823   1.864  0.0241 -0.3225 -0.2289
  893MPD2    H713150   0.929   2.801   1.849 -0.0720 -0.5031  0.6554
  894MPD2     C13151   2.239   4.287   1.294  0.1750 -0.6094 -0.1783
  894MPD2    C113152   2.150   4.378   1.337 -0.0742 -0.4033 -1.1386
  894MPD2    C213153   2.191   4.513   1.317  0.3185 -0.1553 -0.2710
  894MPD2    C313154   2.320   4.541   1.289 -0.5119 -0.5490  0.0089
  894MPD2    C413155   2.407   4.449   1.242  0.0581  0.2813 -0.0886
  894MPD2    C513156   2.360   4.318   1.246  0.3609  0.5379  0.4796
  894MPD2     H13157   2.118   4.581   1.358  0.1975 -0.6317  0.3010
  894MPD2    H113158   2.508   4.471   1.210  0.8196 -0.5514  1.7027
  894MPD2    H213159   2.221   4.181   1.312  3.2713 -1.1767 -0.3956
  894MPD2    H313160   2.420   4.239   1.203  1.8961  2.6338 -1.2375
  894MPD2     N13161   2.353   4.673   1.307  0.2217 -0.1272  0.5506
  894MPD2    H513162   2.278   4.736   1.335 -0.5452  0.0992 -2.0032
  894MPD2    N113163   2.030   4.343   1.398  0.0977  0.0248 -0.3507
  894MPD2    H713164   1.972   4.421   1.426 -1.2558 -1.9667  2.4765
  895MPD2     C13165   1.768   3.803  13.996 -0.3102 -0.2321 -0.2168
  895MPD2    C113166   1.655   3.757  13.926  0.2966 -0.2409  0.0416
  895MPD2    C213167   1.658   3.637  13.862 -0.0521  0.0735  0.4916
  895MPD2    C313168   1.773   3.559  13.862  0.0076  0.3215 -0.5333
  895MPD2    C413169   1.892   3.613  13.919  0.2572  0.3573 -0.2359
  895MPD2    C513170   1.880   3.727  13.989  0.4468  0.1967 -0.4080
  895MPD2     H13171   1.578   3.609  13.794 -0.0826 -1.8554  1.3193
  895MPD2    H113172   1.989   3.564  13.916  0.0755  0.1413 -2.8280
  895MPD2    H213173   1.782   3.905  14.029  1.3073  0.0022 -1.5868
  895MPD2    H313174   1.966   3.774  14.036 -0.2856  0.1065  1.0255
  895MPD2     N13175   1.767   3.445  13.781 -0.2348 -0.0259  0.5732
  895MPD2    H513176   1.672   3.422  13.755 -0.5704  2.7440 -0.6469
  895MPD2    N113177   1.533   3.835  13.916  0.6425  0.3580  0.6845
  895MPD2    H713178   1.458   3.790  13.865  0.7064 -1.0057  1.8047
  896MPD2     C13179   4.180   1.438   1.336  0.5324  0.2613  0.1690
  896MPD2    C113180   4.205   1.327   1.252 -0.0717 -0.6156 -0.5403
  896MPD2    C213181   4.101   1.259   1.195  0.1445  0.2103  0.1801
  896MPD2    C313182   3.973   1.292   1.219  0.4163 -0.4144 -0.0511
  896MPD2    C413183   3.950   1.403   1.297 -0.5703  0.1526  0.2871
  896MPD2    C513184   4.049   1.472   1.355  0.3118 -0.1578  0.4649
  896MPD2     H13185   4.116   1.180   1.122 -1.1048 -1.1868  1.4371
  896MPD2    H113186   3.851   1.431   1.331 -0.4974 -0.1743  0.7687
  896MPD2    H213187   4.258   1.500   1.379  1.3183 -0.4604 -0.2123
  896MPD2    H313188   4.023   1.547   1.429 -2.3193 -1.1317  0.5298
  896MPD2     N13189   3.873   1.206   1.157 -0.1825  0.6079  0.7883
  896MPD2    H513190   3.902   1.118   1.116  0.9169  1.9296 -1.3177
  896MPD2    N113191   4.338   1.285   1.228  0.0537  0.2563 -0.2289
  896MPD2    H713192   4.352   1.211   1.160 -1.0924 -2.1230  2.1363
  897MPD2     C13193   0.421   2.772  10.596 -0.2384 -0.9695 -0.1199
  897MPD2    C113194   0.429   2.907  10.623  0.4939 -0.6030 -0.0348
  897MPD2    C213195   0.384   2.956  10.743  0.3251 -0.2053 -0.9798
  897MPD2    C313196   0.317   2.875  10.838  0.5310 -0.1064 -0.4907
  897MPD2    C413197   0.311   2.744  10.810  0.3526 -0.0449 -0.2851
  897MPD2    C513198   0.369   2.695  10.695  0.0752  0.1916  0.2785
  897MPD2     H13199   0.374   3.062  10.757  0.6461 -0.2503 -0.4278
  897MPD2    H113200   0.252   2.676  10.871 -1.8435  1.8251 -0.2966
  897MPD2    H213201   0.467   2.726  10.510  0.0772  0.4217 -0.7001
  897MPD2    H313202   0.367   2.587  10.684 -1.4905  0.1839  0.6006
  897MPD2     N13203   0.265   2.942  10.956  0.2720  0.1903  0.2375
  897MPD2    H513204   0.269   3.043  10.962 -0.4123  0.3708 -2.2498
  897MPD2    N113205   0.492   2.987  10.527  0.0621 -0.5261 -0.1216
  897MPD2    H713206   0.525   2.946  10.440 -0.4395 -0.2696 -0.4385
  898MPD2     C13207   2.067   3.789   0.497 -0.5987  0.0895  0.1363
  898MPD2    C113208   2.128   3.796   0.376  0.6366  0.2608  0.1436
  898MPD2    C213209   2.154   3.924   0.328 -0.0077  0.5907  1.0701
  898MPD2    C313210   2.131   4.046   0.387  0.0225 -0.4179 -0.9539
  898MPD2    C413211   2.073   4.032   0.509 -0.1032 -0.9869  0.3150
  898MPD2    C513212   2.032   3.912   0.559  0.4991 -0.3903 -0.3543
  898MPD2     H13213   2.197   3.929   0.229 -3.4061  1.6173 -0.3790
  898MPD2    H113214   2.061   4.119   0.572 -0.4890 -0.7016 -0.1521
  898MPD2    H213215   2.032   3.697   0.543 -0.4107 -0.3599 -0.6286
  898MPD2    H313216   1.993   3.910   0.661 -0.4875 -0.9448 -0.7435
  898MPD2     N13217   2.176   4.163   0.332 -0.1367  0.4622 -0.1805
  898MPD2    H513218   2.209   4.163   0.236  0.0429 -3.7017 -0.1206
  898MPD2    N113219   2.165   3.687   0.297 -0.2086  0.5562  0.5334
  898MPD2    H713220   2.208   3.705   0.207 -2.2216 -0.3079 -0.6109
  899MPD2     C13221   2.962   3.932  17.429 -0.0773  0.3391 -0.2003
  899MPD2    C113222   2.858   4.021  17.446  0.2344 -0.4031 -0.3235
  899MPD2    C213223   2.772   4.002  17.555  0.2084  0.1134  0.0613
  899MPD2    C313224   2.795   3.893  17.641 -0.5132  0.1123 -0.1947
  899MPD2    C413225   2.902   3.808  17.625 -0.3384  0.0141  0.6218
  899MPD2    C513226   2.986   3.833  17.526 -0.1234 -0.3016  0.2131
  899MPD2     H13227   2.693   4.073  17.578 -1.3593 -1.3417 -0.8438
  899MPD2    H113228   2.931   3.723  17.686 -3.5041  0.3273  2.5552
  899MPD2    H213229   3.023   3.943  17.340  1.2108 -1.4887  0.4557
  899MPD2    H313230   3.078   3.777  17.508 -1.4119 -2.2027 -0.5252
  899MPD2     N13231   2.717   3.885   0.015  0.0659  0.5619  0.6899
  899MPD2    H513232   2.628   3.934   0.019 -1.4524 -2.2872  2.1443
  899MPD2    N113233   2.850   4.133  17.362 -0.2652 -0.5086  0.3351
  899MPD2    H713234   2.925   4.142  17.294 -0.7489  0.4583 -0.0798
  900MPD2     C13235   2.572   1.574  12.691 -0.1380  0.3649  0.5016
  900MPD2    C113236   2.515   1.520  12.578 -0.5483  0.4460 -0.1235
  900MPD2    C213237   2.441   1.600  12.493 -0.3575 -0.0198  0.3115
  900MPD2    C313238   2.429   1.735  12.512 -0.7642 -0.5024 -0.4283
  900MPD2    C413239   2.500   1.791  12.608  0.7461  0.8123 -0.2517
  900MPD2    C513240   2.570   1.712  12.696  0.0073 -0.3753 -0.0925
  900MPD2     H13241   2.407   1.562  12.397  0.6920 -1.0056  0.3333
  900MPD2    H113242   2.494   1.895  12.636  0.8321  0.8373 -0.3259
  900MPD2    H213243   2.630   1.511  12.757  1.2743 -0.7637 -1.8568
  900MPD2    H313244   2.630   1.752  12.777  0.1027 -2.1854  0.7366
  900MPD2     N13245   2.340   1.806  12.438 -0.6395  0.4506 -0.2391
  900MPD2    H513246   2.285   1.751  12.373 -0.1873 -0.2416 -0.0257
  900MPD2    N113247   2.527   1.381  12.559 -0.5674  0.2288  0.3299
  900MPD2    H713248   2.587   1.333  12.626  0.3339  1.0054  0.0971
  901MPD2     C13249   2.140   0.394  12.315  0.4612  0.4994  0.4453
  901MPD2    C113250   2.269   0.376  12.365  0.0087 -0.3435 -0.5114
  901MPD2    C213251   2.356   0.484  12.396  0.2218  0.5765 -0.5510
  901MPD2    C313252   2.322   0.617  12.373  0.1920  0.2291 -0.3994
  901MPD2    C413253   2.192   0.627  12.324  0.1977 -0.3610  0.0816
  901MPD2    C513254   2.106   0.526  12.299 -0.0172 -0.2325 -1.6012
  901MPD2     H13255   2.452   0.455  12.436 -0.3368 -0.4006  0.0982
  901MPD2    H113256   2.156   0.729  12.319  2.7880  0.5159 -1.1582
  901MPD2    H213257   2.072   0.315  12.284 -0.6915  0.9688  1.7998
  901MPD2    H313258   2.004   0.545  12.269 -1.1364 -0.8700  1.7912
  901MPD2     N13259   2.413   0.727  12.401  0.4490  0.3009 -0.1026
  901MPD2    H513260   2.504   0.702  12.440  0.2557  1.1386  0.9149
  901MPD2    N113261   2.299   0.237  12.387 -0.2831 -0.2612  0.1565
  901MPD2    H713262   2.220   0.180  12.356 -0.3736 -0.4357  0.7163
  902MPD2     C13263   1.505   4.623  13.087  0.2660 -0.0383  0.1572
  902MPD2    C113264   1.511   4.607  12.952 -0.4123  0.1736  0.7925
  902MPD2    C213265   1.523   4.473  12.908 -0.1596  0.1268 -0.1341
  902MPD2    C313266   1.524   4.367  12.988 -0.4734  0.8204  0.1109
  902MPD2    C413267   1.511   4.381  13.117 -0.0080  0.0012 -0.3046
  902MPD2    C513268   1.504   4.510  13.163 -0.5432  0.3301 -0.5893
  902MPD2     H13269   1.539   4.462  12.802 -0.1299  1.7271 -0.3011
  902MPD2    H113270   1.513   4.301  13.191  1.1882  0.3222  0.0055
  902MPD2    H213271   1.507   4.722  13.131 -0.0742 -0.6382  1.5209
  902MPD2    H313272   1.510   4.518  13.271  0.9138  0.0165 -0.6501
  902MPD2     N13273   1.537   4.235  12.935 -0.2102 -0.6120  0.7953
  902MPD2    H513274   1.576   4.223  12.842 -1.9372 -2.1933  0.2819
  902MPD2    N113275   1.505   4.718  12.864  0.0356  0.3458  0.7503
  902MPD2    H713276   1.527   0.075  12.900  1.0704  0.7984 -1.0586
  903MPD2     C13277   1.827   4.366  12.552  0.2239 -0.1750 -0.2516
  903MPD2    C113278   1.729   4.270  12.540 -0.4310  0.4684  0.4737
  903MPD2    C213279   1.619   4.305  12.463 -0.4674  0.4616 -0.4473
  903MPD2    C313280   1.617   4.427  12.395 -0.1128  0.6035  0.1968
  903MPD2    C413281   1.717   4.522  12.411 -0.0146  0.3979  0.4547
  903MPD2    C513282   1.815   4.485  12.496  0.0966  0.5120 -0.1997
  903MPD2     H13283   1.543   4.229  12.451  1.8130 -1.7875 -0.7876
  903MPD2    H113284   1.706   4.616  12.357  1.3595  0.0297 -0.4456
  903MPD2    H213285   1.918   4.346  12.608 -0.0952 -2.0240 -0.4136
  903MPD2    H313286   1.889   4.557  12.531  0.7052 -1.0630  1.7413
  903MPD2     N13287   1.489   4.451  12.333  0.2454 -0.4831 -0.5847
  903MPD2    H513288   1.420   4.385  12.368  0.8143 -0.8970 -0.2425
  903MPD2    N113289   1.734   4.146  12.611 -0.4869 -0.1219 -0.5453
  903MPD2    H713290   1.814   4.124  12.670 -1.7037 -1.6414  0.5670
  904MPD2     C13291   1.469   2.868  14.628  0.8569 -0.1697 -0.7305
  904MPD2    C113292   1.462   2.990  14.573  0.9201  0.0529 -0.2300
  904MPD2    C213293   1.582   3.064  14.563  0.1112 -0.4543  0.3151
  904MPD2    C313294   1.705   3.007  14.581 -0.7422  0.1335  0.0945
  904MPD2    C413295   1.705   2.886  14.639 -0.0360  0.2223  0.5034
  904MPD2    C513296   1.592   2.817  14.658  0.1495 -0.3319  0.0231
  904MPD2     H13297   1.575   3.165  14.525  1.1511 -0.8499 -0.9212
  904MPD2    H113298   1.802   2.842  14.658 -0.5979  0.2925  3.5026
  904MPD2    H213299   1.377   2.818  14.657 -0.4538  1.9602 -1.2437
  904MPD2    H313300   1.595   2.716  14.698 -0.9221  0.3415  1.8132
  904MPD2     N13301   1.808   3.077  14.514 -0.2630  0.6298 -0.3740
  904MPD2    H513302   1.779   3.159  14.461  1.2683  0.9930 -0.6538
  904MPD2    N113303   1.334   3.050  14.554 -0.3010 -0.3118 -0.5351
  904MPD2    H713304   1.252   2.993  14.538 -0.3659 -0.3379 -0.1193
  905MPD2     C13305   1.111   3.418  13.844  0.3706 -0.0027 -0.1883
  905MPD2    C113306   1.199   3.335  13.911  0.7057  0.6987 -0.5256
  905MPD2    C213307   1.300   3.277  13.845 -0.2961  0.4384  0.0289
  905MPD2    C313308   1.330   3.308  13.708  0.2111 -0.4058 -0.3902
  905MPD2    C413309   1.236   3.386  13.644  1.3447 -0.4085 -0.1697
  905MPD2    C513310   1.121   3.431  13.708 -0.1387 -0.1610 -0.2212
  905MPD2     H13311   1.352   3.202  13.904  2.4643 -1.3170 -4.6012
  905MPD2    H113312   1.246   3.413  13.540  0.2570 -0.3829 -0.2688
  905MPD2    H213313   1.028   3.460  13.900  2.2637  0.8538  1.9642
  905MPD2    H313314   1.041   3.482  13.656 -1.0732  0.4176  1.7889
  905MPD2     N13315   1.435   3.249  13.634  0.4009  0.3665  0.1936
  905MPD2    H513316   1.465   3.297  13.549  0.3639  1.7684  0.9672
  905MPD2    N113317   1.191   3.344  14.053 -0.1594  0.6453  0.3904
  905MPD2    H713318   1.112   3.387  14.099 -0.9068 -1.2075  0.8334
  906MPD2     C13319   3.527   3.270  11.735  0.0914  0.1725  0.1947
  906MPD2    C113320   3.529   3.180  11.629 -0.1251 -0.0845 -0.2575
  906MPD2    C213321   3.453   3.061  11.636  0.3764  0.3685 -0.4587
  906MPD2    C313322   3.378   3.034  11.747 -0.5892  0.3753 -0.4805
  906MPD2    C413323   3.377   3.124  11.849 -0.1796 -0.6384 -0.1075
  906MPD2    C513324   3.448   3.242  11.846  0.1427 -0.4132 -0.0522
  906MPD2     H13325   3.449   2.999  11.548  0.1912 -0.1100 -0.1129
  906MPD2    H113326   3.319   3.113  11.940  0.5692 -2.7762  0.0917
  906MPD2    H213327   3.576   3.366  11.724  0.4269  0.0245  0.4020
  906MPD2    H313328   3.443   3.321  11.920  0.8342  0.3045 -0.7769
  906MPD2     N13329   3.303   2.914  11.756  0.5893 -0.6967 -0.1805
  906MPD2    H513330   3.234   2.904  11.830  1.7450  0.8918  1.0990
  906MPD2    N113331   3.604   3.196  11.511 -0.1421  0.0606  0.3550
  906MPD2    H713332   3.601   3.116  11.450  4.3215 -0.6210  1.0211
  907MPD2     C13333   2.284   2.393  15.655  0.0076 -0.2901 -0.1086
  907MPD2    C113334   2.387   2.299  15.661 -0.4187  0.1240  0.0275
  907MPD2    C213335   2.434   2.247  15.782 -0.0002  0.3157 -1.1770
  907MPD2    C313336   2.378   2.303  15.895  0.2095 -0.1914  0.6888
  907MPD2    C413337   2.282   2.409  15.882  0.5521  0.9710 -0.5086
  907MPD2    C513338   2.241   2.455  15.764 -0.5771 -0.2818  0.0079
  907MPD2     H13339   2.515   2.174  15.786 -0.4332 -0.1474 -0.6657
  907MPD2    H113340   2.225   2.448  15.965  1.7753 -0.1776  0.8976
  907MPD2    H213341   2.242   2.434  15.564  0.1029  1.0150  0.4340
  907MPD2    H313342   2.167   2.534  15.753 -0.0156  0.5429  2.0465
  907MPD2     N13343   2.418   2.253  16.019 -0.5075 -0.0196 -0.2932
  907MPD2    H513344   2.487   2.179  16.021 -0.5290 -0.0163  0.7146
  907MPD2    N113345   2.449   2.249  15.545  0.6682 -0.1469 -0.3943
  907MPD2    H713346   2.529   2.187  15.554  0.9938  0.0392 -1.9290
  908MPD2     C13347   0.754   2.787   9.731  1.0430 -0.1165  0.6662
  908MPD2    C113348   0.699   2.727   9.843 -0.3975  0.0929 -0.1185
  908MPD2    C213349   0.681   2.810   9.956 -0.1903 -0.0639 -0.3327
  908MPD2    C313350   0.716   2.947   9.958  0.0791  0.2072  0.2136
  908MPD2    C413351   0.774   2.995   9.842 -0.1114  0.5572  0.4769
  908MPD2    C513352   0.796   2.912   9.734  1.0315 -0.4293  0.4210
  908MPD2     H13353   0.636   2.763  10.042 -0.9179  2.5637  0.7137
  908MPD2    H113354   0.806   3.098   9.829  0.2213  0.4685  0.6038
  908MPD2    H213355   0.774   2.724   9.645  0.5714  0.1019  0.4017
  908MPD2    H313356   0.838   2.945   9.639  0.3418  0.9188  0.5795
  908MPD2     N13357   0.682   3.029  10.075  0.4122  0.5448  0.3530
  908MPD2    H513358   0.646   2.977  10.154 -0.0888 -1.6405 -1.3182
  908MPD2    N113359   0.662   2.583   9.840  0.1941 -0.1205 -0.0903
  908MPD2    H713360   0.695   2.526   9.763  1.1236  0.8207 -0.3936
  909MPD2     C13361   0.570   1.076  12.273 -0.8167  0.5295  0.2106
  909MPD2    C113362   0.541   1.201  12.222  0.3497  0.1065  0.4733
  909MPD2    C213363   0.506   1.300  12.310  0.6876 -1.0559  0.3027
  909MPD2    C313364   0.474   1.274  12.441  0.4708  0.5276  0.1204
  909MPD2    C413365   0.494   1.148  12.488 -0.2098 -0.6027  0.0970
  909MPD2    C513366   0.543   1.055  12.406 -0.3987  0.4372 -0.3686
  909MPD2     H13367   0.492   1.397  12.262 -2.1560 -1.7450 -0.2662
  909MPD2    H113368   0.469   1.121  12.590 -0.1885 -0.9109  0.0184
  909MPD2    H213369   0.602   0.996  12.207 -2.3312 -0.9852  1.3182
  909MPD2    H313370   0.567   0.960  12.451 -0.9786  2.3797  3.9750
  909MPD2     N13371   0.420   1.379  12.519  0.3288 -0.5415  0.1121
  909MPD2    H513372   0.412   1.469  12.473 -1.6281 -1.7852 -2.0118
  909MPD2    N113373   0.555   1.231  12.088 -1.0000 -0.0305 -0.0619
  909MPD2    H713374   0.550   1.329  12.064  1.7953 -0.4324 -2.2411
  910MPD2     C13375   1.922   2.827  16.671  0.4406  0.3664  0.1943
  910MPD2    C113376   1.969   2.744  16.570  0.2012 -0.6212 -0.6684
  910MPD2    C213377   1.908   2.755  16.443 -0.8561 -0.2296 -0.1532
  910MPD2    C313378   1.800   2.841  16.423  0.3128  0.5021 -0.7741
  910MPD2    C413379   1.766   2.928  16.516 -0.3508 -0.5371  0.4044
  910MPD2    C513380   1.822   2.922  16.641 -0.1794  0.0503 -0.0088
  910MPD2     H13381   1.940   2.677  16.376  0.8683 -0.0547  0.4691
  910MPD2    H113382   1.709   3.019  16.500 -1.4397 -1.2136  0.4394
  910MPD2    H213383   1.958   2.817  16.773 -0.1177 -1.9517  0.1688
  910MPD2    H313384   1.794   2.992  16.719  0.1096 -0.2864  0.3937
  910MPD2     N13385   1.733   2.843  16.302  0.6247 -0.3193 -0.2331
  910MPD2    H513386   1.661   2.914  16.298  1.3924  0.3386 -2.3042
  910MPD2    N113387   2.071   2.653  16.582 -0.2504  0.2254 -0.5937
  910MPD2    H713388   2.102   2.606  16.498 -1.2832 -0.1983 -0.7421
  911MPD2     C13389   4.638   3.364  16.656 -0.3013  0.5716  0.1589
  911MPD2    C113390   4.638   3.230  16.612  0.0361 -0.1912 -0.8975
  911MPD2    C213391   4.540   3.186  16.525  0.0734  0.0369 -0.0885
  911MPD2    C313392   4.444   3.275  16.481 -0.7141 -0.6681  0.1209
  911MPD2    C413393   4.446   3.402  16.529 -0.1356  0.6706  0.1927
  911MPD2    C513394   4.546   3.449  16.608 -1.1126  0.0114 -0.5896
  911MPD2     H13395   4.559   3.087  16.485  0.8621  0.4133 -0.6479
  911MPD2    H113396   4.375   3.477  16.495 -1.3209 -0.2191  0.7374
  911MPD2    H213397   4.715   3.406  16.719  0.3804  2.8094 -2.1781
  911MPD2    H313398   4.541   3.553  16.638 -0.1302 -0.3589  0.8314
  911MPD2     N13399   4.355   3.251  16.375 -0.6464 -0.9288 -0.0955
  911MPD2    H513400   4.291   3.325  16.349 -0.9435 -1.1433  0.0249
  911MPD2    N113401   0.006   3.143  16.671  0.0160 -0.0031 -0.3623
  911MPD2    H713402   0.080   3.187  16.724 -0.6699  1.6028 -0.7487
  912MPD2     C13403   4.291   2.652  15.672  0.3059 -0.2353  0.3301
  912MPD2    C113404   4.257   2.673  15.809  0.6577  0.3807 -0.5535
  912MPD2    C213405   4.206   2.562  15.876  0.7999  0.3865 -0.2909
  912MPD2    C313406   4.187   2.437  15.826  0.3929  0.8850  0.2660
  912MPD2    C413407   4.221   2.420  15.697 -0.0347  0.6411  0.1330
  912MPD2    C513408   4.275   2.524  15.625 -0.2087  0.8893 -0.2014
  912MPD2     H13409   4.183   2.579  15.981  0.3270  1.9341 -0.6450
  912MPD2    H113410   4.204   2.323  15.651  1.8118  1.5193 -2.3368
  912MPD2    H213411   4.342   2.727  15.612 -0.3118  1.1748  1.5957
  912MPD2    H313412   4.314   2.505  15.526  1.1257  1.1562  0.2709
  912MPD2     N13413   4.144   2.333  15.917 -0.4303 -0.3390 -0.3340
  912MPD2    H513414   4.105   2.362  16.006 -2.5241 -1.5373 -0.8662
  912MPD2    N113415   4.284   2.806  15.862 -0.1545 -0.6417 -0.6395
  912MPD2    H713416   4.354   2.859  15.813 -2.0068 -0.0235 -2.5858
  913MPD2     C13417   4.271   4.540  10.349  0.0864 -0.0983 -0.8059
  913MPD2    C113418   4.386   4.611  10.390 -0.0083 -0.5922  0.4849
  913MPD2    C213419   4.397   0.010  10.354  0.9053  0.1010 -0.3367
  913MPD2    C313420   4.302   0.068  10.264 -0.1155 -0.2696  0.2864
  913MPD2    C413421   4.194   4.728  10.223 -0.4497  0.0666 -0.1192
  913MPD2    C513422   4.177   4.608  10.274 -0.8002 -0.4637 -0.0659
  913MPD2     H13423   4.479   0.066  10.398  0.0406  1.1319 -0.0557
  913MPD2    H113424   4.118   0.024  10.153 -0.4483 -1.7488 -0.9386
  913MPD2    H213425   4.251   4.439  10.380 -4.0620  0.3055 -2.3006
  913MPD2    H313426   4.082   4.560  10.252 -1.1847  1.6467 -3.0542
  913MPD2     N13427   4.326   0.195  10.203 -0.0230  0.0456  0.5682
  913MPD2    H513428   4.261   0.238  10.137  2.4264 -0.4384 -2.1813
  913MPD2    N113429   4.479   4.547  10.479  0.1386  0.0763  0.2891
  913MPD2    H713430   4.471   4.446  10.482 -1.6563  0.2074  0.0588
  914MPD2     C13431   2.380   0.558  11.742  0.0652 -0.5477 -0.4327
  914MPD2    C113432   2.438   0.588  11.861 -0.1807 -0.5122  0.2893
  914MPD2    C213433   2.464   0.486  11.947 -0.2962  0.0409  0.7617
  914MPD2    C313434   2.436   0.352  11.915 -0.2034  0.5256  0.8266
  914MPD2    C413435   2.379   0.324  11.793 -1.0630  0.0115 -0.9003
  914MPD2    C513436   2.350   0.428  11.712  0.1542  0.1715 -0.1061
  914MPD2     H13437   2.508   0.515  12.041 -0.0421 -2.0093  1.2801
  914MPD2    H113438   2.356   0.224  11.756 -1.8955 -0.5925  1.2590
  914MPD2    H213439   2.344   0.642  11.684 -1.1477  0.6623  2.0546
  914MPD2    H313440   2.292   0.400  11.625 -0.8459 -0.3103  0.7193
  914MPD2     N13441   2.474   0.254  12.013 -0.2442 -0.0901  0.4452
  914MPD2    H513442   2.542   0.284  12.082 -0.1538 -0.7531  0.6462
  914MPD2    N113443   2.466   0.727  11.890 -0.4777 -0.7168  0.2180
  914MPD2    H713444   2.448   0.790  11.813 -1.2250 -2.1123 -0.7707
  915MPD2     C13445   0.980   0.149  16.050  0.2424 -0.0302 -0.1451
  915MPD2    C113446   0.855   0.160  15.998  0.2043 -0.7242 -0.0366
  915MPD2    C213447   0.752   0.175  16.092  0.4156 -0.9512  0.1778
  915MPD2    C313448   0.766   0.154  16.223 -0.2981  0.0654 -0.1053
  915MPD2    C413449   0.893   0.119  16.270 -0.3843  1.0314 -0.4075
  915MPD2    C513450   0.995   0.122  16.182  0.1593  0.1424 -0.8639
  915MPD2     H13451   0.649   0.173  16.057  0.2236 -1.6490  0.7955
  915MPD2    H113452   0.920   0.104  16.374  1.0140 -2.5788 -1.2832
  915MPD2    H213453   1.073   0.149  15.994  0.2207  2.7809 -0.1985
  915MPD2    H313454   1.096   0.106  16.219 -0.7820 -1.8890  0.8005
  915MPD2     N13455   0.659   0.166  16.318  0.3025  0.2590 -0.3298
  915MPD2    H513456   0.572   0.206  16.284 -0.0587 -2.4095 -2.5654
  915MPD2    N113457   0.824   0.168  15.859 -0.1017  0.5881  0.3289
  915MPD2    H713458   0.727   0.174  15.829  0.3411  0.8247 -1.0516
  916MPD2     C13459   4.161   3.221  15.634  0.0118  0.2330  0.2646
  916MPD2    C113460   4.094   3.133  15.713 -0.0242  0.0147  0.2237
  916MPD2    C213461   4.066   3.008  15.661  0.3575 -0.2360 -0.8072
  916MPD2    C313462   4.112   2.969  15.533 -0.1604 -0.3873 -0.3343
  916MPD2    C413463   4.163   3.066  15.448 -0.3950  0.0757 -0.1749
  916MPD2    C513464   4.198   3.189  15.503 -0.2323 -0.2973 -0.3902
  916MPD2     H13465   4.021   2.932  15.723 -0.1139  0.2420 -0.5632
  916MPD2    H113466   4.200   3.039  15.350 -0.3716 -1.0645  0.1467
  916MPD2    H213467   4.196   3.319  15.662  2.5828 -0.6436  0.1096
  916MPD2    H313468   4.254   3.256  15.439  0.0960 -2.8233 -2.7521
  916MPD2     N13469   4.086   2.838  15.488  0.1993  0.0945 -0.6668
  916MPD2    H513470   4.024   2.783  15.546  2.3393 -0.1823  1.3458
  916MPD2    N113471   4.063   3.176  15.844 -0.6160 -0.0530 -0.7956
  916MPD2    H713472   4.077   3.275  15.863  1.9293 -0.2112 -1.8481
  917MPD2     C13473   4.373   0.844  11.649 -0.6175 -0.2364 -0.3712
  917MPD2    C113474   4.306   0.904  11.752 -0.8120 -0.3292 -0.7973
  917MPD2    C213475   4.322   1.042  11.761 -0.2230  0.0907 -0.5212
  917MPD2    C313476   4.407   1.118  11.676  0.0314 -0.7685  0.1389
  917MPD2    C413477   4.463   1.051  11.567 -0.4120  0.3046 -0.1840
  917MPD2    C513478   4.451   0.916  11.555 -0.5437 -0.5605 -0.2768
  917MPD2     H13479   4.274   1.101  11.837 -1.9184 -1.6680 -0.2206
  917MPD2    H113480   4.516   1.107  11.491  0.5462 -0.8619 -0.3806
  917MPD2    H213481   4.359   0.740  11.625  0.7998 -0.2014 -1.3372
  917MPD2    H313482   4.498   0.870  11.468 -1.0937  2.2595 -2.0705
  917MPD2     N13483   4.432   1.258  11.678  0.7364  0.9435  0.0626
  917MPD2    H513484   4.497   1.290  11.607 -0.7277 -1.1931 -2.2325
  917MPD2    N113485   4.225   0.822  11.831 -0.3900  0.8712 -0.1632
  917MPD2    H713486   4.199   0.730  11.799 -2.9676  1.4263  0.3423
  918MPD2     C13487   3.629   1.055  12.629  0.0719  0.0894  0.4548
  918MPD2    C113488   3.768   1.063  12.631 -0.4087  0.2699  0.0414
  918MPD2    C213489   3.841   0.995  12.539  0.4761  0.2082 -0.5171
  918MPD2    C313490   3.779   0.919  12.444  0.1167 -0.1728  0.1594
  918MPD2    C413491   3.645   0.913  12.434  0.3494  0.8909 -0.4598
  918MPD2    C513492   3.569   0.986  12.524  0.1950 -0.0040 -0.3369
  918MPD2     H13493   3.948   1.001  12.557  0.2268  0.0476  1.0638
  918MPD2    H113494   3.596   0.853  12.358  0.8798  1.2467 -1.0950
  918MPD2    H213495   3.561   1.099  12.701  1.7852  1.8271  1.0120
  918MPD2    H313496   3.461   0.994  12.525  0.2823  1.1612 -0.5185
  918MPD2     N13497   3.856   0.859  12.348 -0.2418 -0.0865 -0.4747
  918MPD2    H513498   3.954   0.886  12.345 -0.8758  2.3731  0.5551
  918MPD2    N113499   3.842   1.148  12.719  0.2753 -0.3766 -0.3912
  918MPD2    H713500   3.943   1.151  12.705  0.5514 -0.7265  1.4394
  919MPD2     C13501   4.604   0.137  11.514  0.0543  0.7292 -0.5293
  919MPD2    C113502   4.582   0.007  11.460  0.6469  0.6431  0.1114
  919MPD2    C213503   4.531   4.724  11.331 -0.4147  0.0587  1.2306
  919MPD2    C313504   4.493   0.098  11.253 -0.3738 -0.2194 -0.8222
  919MPD2    C413505   4.502   0.221  11.310 -0.2299  0.0577 -0.2640
  919MPD2    C513506   4.552   0.243  11.438 -0.6754  0.1683  0.1373
  919MPD2     H13507   4.522   4.620  11.300  0.7359  0.4068 -0.2430
  919MPD2    H113508   4.469   0.307  11.253  0.9832  0.7256  0.0453
  919MPD2    H213509   4.645   0.160  11.612  1.2759 -0.2101 -0.8167
  919MPD2    H313510   4.569   0.343  11.476  1.5151  0.5522 -1.8566
  919MPD2     N13511   4.453   0.082  11.123 -0.1910  0.1121 -0.2890
  919MPD2    H513512   4.419   0.165  11.076  2.0711  0.2408 -1.7136
  919MPD2    N113513   4.591   4.633  11.550  0.1161  0.6504 -0.8256
  919MPD2    H713514   4.551   4.546  11.516 -0.8285  0.5450  0.5313
  920MPD2     C13515   4.031   0.515  10.320  0.6203 -0.6808 -0.7447
  920MPD2    C113516   3.965   0.391  10.329  0.0881 -0.1189 -0.0958
  920MPD2    C213517   4.010   0.298  10.420 -0.2459 -0.4014 -0.0760
  920MPD2    C313518   4.127   0.313  10.488 -0.2931 -0.4433 -0.1579
  920MPD2    C413519   4.202   0.426  10.470  0.0793 -0.2102 -0.4468
  920MPD2    C513520   4.152   0.521  10.387  0.2505 -0.6341 -0.0520
  920MPD2     H13521   3.958   0.204  10.432  1.4442 -1.4221 -0.6496
  920MPD2    H113522   4.296   0.445  10.520  1.5436 -2.0593 -2.5212
  920MPD2    H213523   4.002   0.591  10.248 -2.5199 -0.7418  0.4711
  920MPD2    H313524   4.216   0.606  10.367 -0.5901  0.0319  0.0879
  920MPD2     N13525   4.163   0.208  10.586 -0.4377  0.1815  0.4727
  920MPD2    H513526   4.090   0.138  10.601 -0.7356  0.7580  1.7424
  920MPD2    N113527   3.842   0.361  10.260 -0.6320  1.1081  0.1686
  920MPD2    H713528   3.807   0.267  10.275  1.5682  0.4746  1.4264
  921MPD2     C13529   0.923   3.106  17.088  0.0328 -0.1707  0.7896
  921MPD2    C113530   0.937   3.049  16.963  0.1656 -0.3800  0.1918
  921MPD2    C213531   0.825   3.013  16.887  0.2166  0.6123 -0.3524
  921MPD2    C313532   0.701   3.050  16.936  0.3509  0.0582 -0.3156
  921MPD2    C413533   0.684   3.122  17.053 -0.6005 -0.4738 -0.8070
  921MPD2    C513534   0.796   3.147  17.127 -0.9477  0.3325 -0.6913
  921MPD2     H13535   0.823   2.951  16.798  2.3331 -0.8444  0.6077
  921MPD2    H113536   0.591   3.153  17.100 -0.6773 -0.6773 -0.8231
  921MPD2    H213537   1.001   3.137  17.156 -0.7653 -0.7565  1.9812
  921MPD2    H313538   0.783   3.185  17.228  1.3034 -1.5577  0.3288
  921MPD2     N13539   0.598   3.022  16.846  0.5417  0.0707  0.2316
  921MPD2    H513540   0.621   2.965  16.765 -0.8387  1.5166 -1.1636
  921MPD2    N113541   1.069   3.030  16.910 -0.0054  0.4394  0.1213
  921MPD2    H713542   1.141   3.064  16.974 -0.1035  0.0885  0.4196
  922MPD2     C13543   1.865   0.816   0.074  0.2767  0.8630  0.1705
  922MPD2    C113544   1.793   0.921   0.129 -0.1130 -0.5319  0.2908
  922MPD2    C213545   1.669   0.891   0.176  0.3222 -0.7119 -0.0745
  922MPD2    C313546   1.604   0.766   0.156  0.5020  0.1126  0.2288
  922MPD2    C413547   1.676   0.665   0.104 -0.1523 -0.6532  0.4221
  922MPD2    C513548   1.808   0.689   0.068  0.3897 -0.3160  1.0367
  922MPD2     H13549   1.607   0.970   0.217  0.9142 -1.5219  2.3993
  922MPD2    H113550   1.640   0.564   0.088  1.1953 -1.5405  3.0400
  922MPD2    H213551   1.968   0.831   0.042  1.1020  2.0059  3.3881
  922MPD2    H313552   1.866   0.608   0.026  0.5628  1.3424 -1.9034
  922MPD2     N13553   1.466   0.758   0.192 -0.5080 -0.3837 -0.0979
  922MPD2    H513554   1.425   0.843   0.229  1.2305 -0.3369  1.7388
  922MPD2    N113555   1.846   1.052   0.154 -0.4650  0.4437  0.0078
  922MPD2    H713556   1.786   1.118   0.202  0.0582 -0.1808  1.4958
  923MPD2     C13557   1.861   3.296   8.789  0.1132  0.0024 -0.1689
  923MPD2    C113558   1.878   3.346   8.917  0.0405 -0.1174 -0.0035
  923MPD2    C213559   1.999   3.400   8.954  0.2422  0.0868 -0.3670
  923MPD2    C313560   2.099   3.404   8.863  1.0065  0.1006 -0.0578
  923MPD2    C413561   2.081   3.355   8.735 -1.2300  1.1301 -0.2442
  923MPD2    C513562   1.964   3.305   8.695  1.1352 -0.3312  0.7567
  923MPD2     H13563   2.015   3.439   9.054  0.7214  0.6606 -0.6674
  923MPD2    H113564   2.171   3.359   8.674 -0.3542 -0.0739  0.9676
  923MPD2    H213565   1.775   3.244   8.748  0.4286 -3.1155  3.2114
  923MPD2    H313566   1.960   3.269   8.592 -2.6330  4.3811 -0.7823
  923MPD2     N13567   2.228   3.458   8.887 -0.0832  0.1576 -0.3794
  923MPD2    H513568   2.293   3.438   8.812  0.6959 -0.3240  0.4126
  923MPD2    N113569   1.763   3.318   9.001 -0.1312  0.4824 -0.6145
  923MPD2    H713570   1.680   3.275   8.963 -0.3118  1.2260 -1.0810
  924MPD2     C13571   2.251   1.693  16.916  0.2112  0.3814  0.3251
  924MPD2    C113572   2.327   1.639  16.813 -0.4894 -0.7229  1.0009
  924MPD2    C213573   2.314   1.703  16.682  0.1242  0.0253  0.9232
  924MPD2    C313574   2.253   1.825  16.668 -0.2625 -0.4162 -0.2479
  924MPD2    C413575   2.186   1.874  16.774 -0.5408 -1.2148 -0.5045
  924MPD2    C513576   2.185   1.809  16.893 -0.0476  0.0931  0.0339
  924MPD2     H13577   2.364   1.649  16.602  0.2028  1.0609  0.2780
  924MPD2    H113578   2.122   1.962  16.767 -0.4993 -1.1601 -0.2032
  924MPD2    H213579   2.251   1.644  17.013  1.4510  0.9030  0.5817
  924MPD2    H313580   2.119   1.852  16.968  0.4098  2.2224 -0.7712
  924MPD2     N13581   2.268   1.893  16.543 -0.1136 -0.1618  0.6160
  924MPD2    H513582   2.307   1.837  16.468 -2.2150  1.9694 -2.0102
  924MPD2    N113583   2.400   1.515  16.843  0.5458 -0.1334  0.0393
  924MPD2    H713584   2.404   1.493  16.942 -0.3304  0.3881  0.1910
  925MPD2     C13585   2.007   4.104  14.642 -0.1761 -0.2573 -0.3183
  925MPD2    C113586   1.887   4.178  14.654  0.1369 -0.2785 -0.3171
  925MPD2    C213587   1.817   4.181  14.771 -0.9843 -0.2113  0.7250
  925MPD2    C313588   1.885   4.126  14.886 -0.6591 -0.7333 -0.4238
  925MPD2    C413589   1.998   4.056  14.872 -0.0440  0.9934 -0.3086
  925MPD2    C513590   2.060   4.046  14.753  0.4622  0.1842 -0.8467
  925MPD2     H13591   1.721   4.230  14.780 -0.0602  1.7297 -0.1667
  925MPD2    H113592   2.044   4.010  14.959  0.9007  0.4837 -1.0713
  925MPD2    H213593   2.066   4.097  14.551  2.1808  1.1316  1.1234
  925MPD2    H313594   2.156   3.998  14.742  0.2041 -0.0345 -2.0985
  925MPD2     N13595   1.830   4.147  15.017  0.3491  0.8045 -0.6248
  925MPD2    H513596   1.881   4.104  15.094  0.1955 -1.3840 -1.7308
  925MPD2    N113597   1.829   4.253  14.550  0.4521  0.5521 -0.3684
  925MPD2    H713598   1.741   4.301  14.566 -0.3589 -0.4854 -1.7425
  926MPD2     C13599   0.371   3.028  13.870 -0.1527 -0.1913 -0.4816
  926MPD2    C113600   0.284   3.062  13.766  0.6209  0.8110 -0.2154
  926MPD2    C213601   0.332   3.077  13.639  0.1815 -0.3765  0.4584
  926MPD2    C313602   0.469   3.059  13.612  0.0264 -0.0474 -0.4453
  926MPD2    C413603   0.557   3.035  13.722 -0.2125 -0.6073  0.4483
  926MPD2    C513604   0.512   3.021  13.851  0.1367  0.2005  0.0113
  926MPD2     H13605   0.268   3.106  13.556  1.6224 -1.1324 -0.9182
  926MPD2    H113606   0.664   3.046  13.710  0.2520 -2.7049  2.4834
  926MPD2    H213607   0.341   3.030  13.974  2.5754 -1.4486  0.3317
  926MPD2    H313608   0.580   2.997  13.931 -0.2678 -1.0614 -0.0124
  926MPD2     N13609   0.531   3.081  13.482  0.1531  0.1253  0.4340
  926MPD2    H513610   0.632   3.075  13.486 -0.1596 -4.9253  0.3663
  926MPD2    N113611   0.147   3.070  13.781  0.0561 -0.1052  0.0157
  926MPD2    H713612   0.097   3.119  13.707 -0.1081  0.8342  0.7488
  927MPD2     C13613   0.492   3.896   0.309  0.3924  0.1605 -0.0222
  927MPD2    C113614   0.459   3.801   0.212  0.3337 -0.0533  1.0383
  927MPD2    C213615   0.527   3.814   0.089 -0.0654  0.3698  0.1112
  927MPD2    C313616   0.591   3.934   0.058  0.8525 -0.7073 -0.0802
  927MPD2    C413617   0.618   4.024   0.160  1.7436 -0.4893 -0.1448
  927MPD2    C513618   0.574   3.999   0.286 -0.1413  0.0048 -0.7340
  927MPD2     H13619   0.508   3.747   0.006 -0.5425 -0.3232  0.7755
  927MPD2    H113620   0.682   4.110   0.147  2.2730 -0.9797 -0.7873
  927MPD2    H213621   0.456   3.885   0.410  0.8729 -0.8270  0.0396
  927MPD2    H313622   0.589   4.066   0.370  0.7812  0.6175 -1.3824
  927MPD2     N13623   0.639   3.950  17.674  0.1033  0.7173  0.4293
  927MPD2    H513624   0.631   3.866  17.617 -1.2995  0.1409  1.4801
  927MPD2    N113625   0.355   3.716   0.251 -0.2553  0.2963  0.1172
  927MPD2    H713626   0.294   3.759   0.320  2.6489 -1.2735  3.6364
  928MPD2     C13627   1.824   2.422   0.636  0.2875 -0.0762  0.4454
  928MPD2    C113628   1.954   2.382   0.671 -0.3877  0.0993  0.3792
  928MPD2    C213629   2.058   2.402   0.580 -1.0604 -0.8151 -0.1550
  928MPD2    C313630   2.031   2.440   0.452  0.4233  0.1992 -0.4938
  928MPD2    C413631   1.903   2.471   0.423  0.1406  0.3558 -0.1459
  928MPD2    C513632   1.794   2.462   0.507  0.8585  0.2921 -0.0904
  928MPD2     H13633   2.157   2.385   0.621 -0.3501 -0.8661 -1.8964
  928MPD2    H113634   1.887   2.515   0.325  0.1217  1.3870  0.3171
  928MPD2    H213635   1.742   2.417   0.707 -1.6764  0.1362 -1.8046
  928MPD2    H313636   1.696   2.502   0.483  0.4358 -0.9151 -0.3876
  928MPD2     N13637   2.137   2.478   0.365 -0.9927 -0.0665  0.3350
  928MPD2    H513638   2.105   2.521   0.279  0.6180  0.4554 -0.0021
  928MPD2    N113639   1.975   2.333   0.802 -0.5927  0.1609 -0.1197
  928MPD2    H713640   1.906   2.345   0.874  0.2006 -1.5036  0.9155
  929MPD2     C13641   2.287   3.286   9.701 -0.1576  0.3521  0.2723
  929MPD2    C113642   2.269   3.222   9.820  0.3614  0.7088  0.2026
  929MPD2    C213643   2.176   3.115   9.832 -0.5720 -0.5652 -0.8169
  929MPD2    C313644   2.106   3.070   9.726  0.6371 -0.3816 -0.1676
  929MPD2    C413645   2.129   3.126   9.600 -0.6502 -0.4920 -0.0642
  929MPD2    C513646   2.216   3.234   9.591  0.5943 -0.2265 -0.1003
  929MPD2     H13647   2.182   3.055   9.922 -2.4080  0.7165  0.1435
  929MPD2    H113648   2.069   3.089   9.517 -0.4676 -1.8089  0.3823
  929MPD2    H213649   2.361   3.361   9.676  1.0637 -0.8646  0.2570
  929MPD2    H313650   2.226   3.289   9.497  3.6555  1.6302  1.3003
  929MPD2     N13651   2.014   2.963   9.742  1.0209  0.0802 -0.1380
  929MPD2    H513652   1.991   2.916   9.655  0.1184  2.0095 -0.9261
  929MPD2    N113653   2.351   3.259   9.920  0.4734  0.2595  0.3932
  929MPD2    H713654   2.403   3.346   9.932  0.3925  0.2582  0.7528
  930MPD2     C13655   4.610   0.418  14.495 -0.0730  0.3512 -0.5443
  930MPD2    C113656   4.718   0.504  14.469  0.2371  0.0815 -0.3838
  930MPD2    C213657   4.734   0.549  14.340 -0.2366  0.0669  1.1655
  930MPD2    C313658   4.640   0.519  14.240  0.0766 -0.7536  0.1430
  930MPD2    C413659   4.534   0.437  14.269 -0.1600 -0.2390 -0.8571
  930MPD2    C513660   4.521   0.385  14.397 -0.2205  0.2534  0.4623
  930MPD2     H13661   0.082   0.611  14.311  1.0115 -1.5195  1.3591
  930MPD2    H113662   4.462   0.413  14.192  0.6522  0.1648 -1.7432
  930MPD2    H213663   4.601   0.371  14.592  3.8855  0.9636  0.1579
  930MPD2    H313664   4.439   0.321  14.426  0.4860  0.5517  3.1128
  930MPD2     N13665   4.645   0.574  14.113  0.0453  0.0778 -0.5966
  930MPD2    H513666   4.565   0.557  14.053  0.4343 -1.5861 -0.6279
  930MPD2    N113667   0.054   0.545  14.581 -0.2530  0.5231 -0.0143
  930MPD2    H713668   0.012   0.523  14.671 -0.1836  1.7230  0.3156
  931MPD2     C13669   0.392   2.920   0.232  0.8804  0.6008  0.6344
  931MPD2    C113670   0.283   2.974   0.301 -0.4964  0.0681 -0.4759
  931MPD2    C213671   0.212   2.893   0.385  0.1291 -0.1101 -0.4467
  931MPD2    C313672   0.239   2.755   0.389  0.1087 -0.0613  0.4043
  931MPD2    C413673   0.337   2.702   0.308  0.0293  0.7514  0.6515
  931MPD2    C513674   0.411   2.784   0.227  0.2063 -0.0578  0.1231
  931MPD2     H13675   0.138   2.926   0.457 -2.2419 -1.4452 -2.2594
  931MPD2    H113676   0.369   2.598   0.306  0.3436  0.8303  1.3118
  931MPD2    H213677   0.459   2.980   0.171 -0.3541  1.3837  0.0428
  931MPD2    H313678   0.490   2.745   0.163 -0.6272 -2.0713  0.3084
  931MPD2     N13679   0.172   2.682   0.493 -0.2038 -0.0621 -0.0245
  931MPD2    H513680   0.124   2.720   0.574  1.3264  0.5978  0.5874
  931MPD2    N113681   0.277   3.119   0.304  0.0698  0.0700 -0.0275
  931MPD2    H713682   0.350   3.166   0.251  0.5115 -2.5624 -1.7833
  932MPD2     C13683   1.799   4.676  11.785  0.2523  0.4958 -0.4936
  932MPD2    C113684   1.754   4.619  11.675 -0.6335 -0.3560 -0.0712
  932MPD2    C213685   1.656   4.521  11.674 -0.2356 -0.2085 -0.1011
  932MPD2    C313686   1.611   4.473  11.801 -0.4083 -0.7961 -0.3450
  932MPD2    C413687   1.658   4.528  11.916  0.1782  0.1116  0.3007
  932MPD2    C513688   1.751   4.628  11.909  0.4243 -0.4917 -0.1357
  932MPD2     H13689   1.615   4.487  11.579  2.0789 -0.5265 -0.9657
  932MPD2    H113690   1.620   4.517  12.016  1.1026  1.2143  0.7680
  932MPD2    H213691   1.871   0.021  11.777  1.6105 -0.5317  1.4414
  932MPD2    H313692   1.784   4.690  11.991 -1.3875  0.3399 -0.0336
  932MPD2     N13693   1.511   4.377  11.817 -0.4803  1.0629  0.1383
  932MPD2    H513694   1.511   4.342  11.912 -0.5781 -0.2494 -0.3483
  932MPD2    N113695   1.801   4.681  11.551  0.2023 -1.1822  0.6555
  932MPD2    H713696   1.856   0.030  11.562  1.4638 -2.0197  0.6978
  933MPD2     C13697   1.818   2.467   1.604 -0.4787  0.6357 -0.4265
  933MPD2    C113698   1.874   2.521   1.488 -0.6672 -0.1333 -0.3664
  933MPD2    C213699   1.862   2.661   1.467 -0.4813 -0.1187 -0.2203
  933MPD2    C313700   1.780   2.733   1.548 -0.2266 -0.3303  0.5116
  933MPD2    C413701   1.720   2.679   1.653 -0.3913 -0.2412  0.0198
  933MPD2    C513702   1.743   2.548   1.689  0.0148  0.1479 -0.8737
  933MPD2     H13703   1.913   2.722   1.394 -1.4581  2.0741  0.9066
  933MPD2    H113704   1.655   2.742   1.713  0.1497  0.8992 -0.5771
  933MPD2    H213705   1.835   2.362   1.625 -0.7337  0.6637 -0.0888
  933MPD2    H313706   1.684   2.506   1.769 -0.4394  1.9494 -0.2762
  933MPD2     N13707   1.770   2.868   1.508 -0.0642  0.0479  0.2552
  933MPD2    H513708   1.838   2.909   1.446  0.4666 -3.2390 -1.3665
  933MPD2    N113709   1.933   2.431   1.395  0.5887 -0.1071 -0.6044
  933MPD2    H713710   1.942   2.335   1.424  1.4728  0.6800  1.6834
  934MPD2     C13711   3.944   0.861   1.358 -0.2275  0.1445 -0.1519
  934MPD2    C113712   4.004   0.740   1.361  0.1400  0.3148  0.7657
  934MPD2    C213713   3.934   0.624   1.354 -0.4523  1.1125  0.5367
  934MPD2    C313714   3.796   0.629   1.362  0.1394 -0.4317 -0.4991
  934MPD2    C413715   3.731   0.748   1.369 -0.1682  0.6605 -0.2569
  934MPD2    C513716   3.804   0.863   1.370  0.0850  0.5970 -0.7736
  934MPD2     H13717   3.993   0.534   1.349  1.9235  2.7817 -1.2646
  934MPD2    H113718   3.624   0.758   1.378  0.2287  4.9471 -0.2673
  934MPD2    H213719   4.000   0.953   1.360  0.3716 -0.2114 -0.7565
  934MPD2    H313720   3.751   0.956   1.385  1.4889  1.2210  0.2979
  934MPD2     N13721   3.711   0.513   1.357 -0.3019  0.0226 -0.5548
  934MPD2    H513722   3.611   0.529   1.345 -0.4942 -0.7653 -0.0294
  934MPD2    N113723   4.145   0.727   1.365  0.0775 -0.1905 -0.3417
  934MPD2    H713724   4.189   0.636   1.374  0.9169  0.0729 -1.8008
  935MPD2     C13725   3.920   4.259   1.151  0.1483 -0.0109 -0.2091
  935MPD2    C113726   3.796   4.283   1.102 -0.0106 -0.3560 -0.8840
  935MPD2    C213727   3.738   4.407   1.126  0.3548 -0.5287  0.4119
  935MPD2    C313728   3.795   4.500   1.218 -0.4300 -0.2351  0.7974
  935MPD2    C413729   3.926   4.471   1.257  0.2775  0.2467  0.8445
  935MPD2    C513730   3.987   4.354   1.227  0.4539  0.2061 -0.1025
  935MPD2     H13731   3.639   4.414   1.082  0.1406  0.9599  1.1231
  935MPD2    H113732   3.984   4.538   1.319  1.0878  0.6100 -0.2961
  935MPD2    H213733   3.975   4.166   1.139  0.9028  0.4431 -0.2915
  935MPD2    H313734   4.089   4.334   1.259  0.3559  1.3305  0.8965
  935MPD2     N13735   3.739   4.617   1.267 -0.0659  0.2748  0.5281
  935MPD2    H513736   3.802   4.672   1.325  1.7094 -1.0274 -0.1655
  935MPD2    N113737   3.733   4.188   1.021 -0.8278 -0.3229  0.2040
  935MPD2    H713738   3.636   4.207   0.999 -1.9855 -2.1874  3.6049
  936MPD2     C13739   1.727   2.589  12.953 -0.0438  0.2744  0.0967
  936MPD2    C113740   1.819   2.576  13.051 -0.2435 -0.0118 -0.5473
  936MPD2    C213741   1.915   2.675  13.064 -0.6618  0.1079  0.8005
  936MPD2    C313742   1.916   2.789  12.979 -0.1026 -0.1094 -0.6905
  936MPD2    C413743   1.821   2.797  12.878  0.2539 -0.0669 -0.3254
  936MPD2    C513744   1.729   2.691  12.868  0.2242  0.3508  0.1063
  936MPD2     H13745   1.990   2.656  13.140 -0.6015  1.2022  1.0040
  936MPD2    H113746   1.835   2.848  12.783  3.2174  0.9345  0.6444
  936MPD2    H213747   1.651   2.513  12.937 -1.2706  1.1990  1.5570
  936MPD2    H313748   1.670   2.693  12.777 -0.7157  2.8942  0.7837
  936MPD2     N13749   2.008   2.901  12.995  0.2427  0.6784 -0.1419
  936MPD2    H513750   2.011   2.976  12.927 -0.0575  0.5288 -0.3223
  936MPD2    N113751   1.820   2.476  13.147  0.7450  0.4165  1.0259
  936MPD2    H713752   1.884   2.495  13.223  1.7564  0.1846  0.2456
  937MPD2     C13753   0.045   3.929  11.604  0.5198  0.6991 -0.7023
  937MPD2    C113754   0.103   4.051  11.615  0.9418  0.4238 -0.0654
  937MPD2    C213755   0.223   4.070  11.552  0.5343  0.1628  0.0766
  937MPD2    C313756   0.297   3.970  11.498  0.0668 -0.6254  0.8120
  937MPD2    C413757   0.248   3.843  11.507  0.4975 -0.1246  0.2633
  937MPD2    C513758   0.110   3.826  11.549  0.6942  0.8429  0.1413
  937MPD2     H13759   0.273   4.166  11.562  3.0736 -0.9227 -2.2046
  937MPD2    H113760   0.298   3.761  11.458  1.3667  0.3711  0.3208
  937MPD2    H213761   4.673   3.922  11.611  0.5430  1.2646  0.1821
  937MPD2    H313762   0.056   3.732  11.549  1.0235  0.6593  2.6613
  937MPD2     N13763   0.418   3.995  11.431 -0.3469  0.2194  0.4859
  937MPD2    H513764   0.450   4.090  11.415 -1.1059  0.2765 -0.7293
  937MPD2    N113765   0.026   4.156  11.667  0.1463 -0.1088  0.0189
  937MPD2    H713766   0.062   4.249  11.650 -0.3037  0.2956  1.2491
  938MPD2     C13767   3.231   4.208   1.098 -0.2831  0.1658  0.1126
  938MPD2    C113768   3.125   4.301   1.105  0.6337  0.5581 -0.4937
  938MPD2    C213769   3.012   4.266   1.174  0.0314 -0.7335  0.0026
  938MPD2    C313770   2.997   4.132   1.215  0.0219 -0.7532 -0.1313
  938MPD2    C413771   3.096   4.035   1.190 -0.4579 -0.2247  0.7768
  938MPD2    C513772   3.209   4.077   1.124 -0.1505  0.0509 -0.2619
  938MPD2     H13773   2.941   4.345   1.196 -1.2428 -1.6410 -0.8239
  938MPD2    H113774   3.076   3.931   1.214 -2.8687 -0.1409 -0.8430
  938MPD2    H213775   3.324   4.237   1.052  1.1091 -1.6916  1.7450
  938MPD2    H313776   3.292   4.012   1.098 -0.2589 -1.1779  2.5228
  938MPD2     N13777   2.877   4.090   1.276  0.2414 -0.4170 -0.1224
  938MPD2    H513778   2.858   3.990   1.276  1.6069 -0.6756  0.0618
  938MPD2    N113779   3.122   4.429   1.047 -0.0317 -0.9851  0.0138
  938MPD2    H713780   3.037   4.485   1.045  0.2678 -0.5302  0.1395
  939MPD2     C13781   3.710   0.139   0.577  0.4191  0.5027 -0.4184
  939MPD2    C113782   3.764   0.263   0.610  0.9732 -0.1335 -0.0934
  939MPD2    C213783   3.885   0.271   0.663  1.0017 -0.3214  0.5594
  939MPD2    C313784   3.957   0.156   0.686 -0.3607  0.7321 -0.2249
  939MPD2    C413785   3.911   0.035   0.648  0.6841  0.6798  0.4202
  939MPD2    C513786   3.788   0.028   0.588  0.0299 -0.1976  0.4039
  939MPD2     H13787   3.937   0.361   0.693 -1.2118  1.3701 -0.7039
  939MPD2    H113788   3.962   4.675   0.655 -1.7460 -0.5792  0.8663
  939MPD2    H213789   3.607   0.134   0.545  0.5490  0.2322 -0.7976
  939MPD2    H313790   3.742   4.672   0.553  1.3275 -0.8187  0.3359
  939MPD2     N13791   4.084   0.175   0.739 -0.2197  0.2506  0.2809
  939MPD2    H513792   4.108   0.272   0.757 -0.8708  0.6700 -1.1089
  939MPD2    N113793   3.684   0.382   0.590  0.0013 -0.0534  0.5142
  939MPD2    H713794   3.591   0.364   0.554 -0.7500  0.7013  2.0552
  940MPD2     C13795   2.823   2.905  13.888  0.1254 -0.5301 -0.3633
  940MPD2    C113796   2.901   2.801  13.850 -0.3383 -0.0381 -0.7226
  940MPD2    C213797   2.890   2.756  13.720 -0.6263  0.0315  0.6345
  940MPD2    C313798   2.807   2.816  13.630 -0.6797 -0.0019  0.7717
  940MPD2    C413799   2.728   2.919  13.667  0.1341 -0.2888  0.6694
  940MPD2    C513800   2.738   2.962  13.797  0.6014  0.4622  0.3561
  940MPD2     H13801   2.939   2.664  13.690  1.6163  0.9913  1.3136
  940MPD2    H113802   2.669   2.963  13.587  1.1849 -0.3531 -0.1549
  940MPD2    H213803   2.831   2.929  13.993  3.2377  1.1036 -0.9837
  940MPD2    H313804   2.687   3.052  13.829 -0.8428 -1.1497  2.6366
  940MPD2     N13805   2.800   2.779  13.495  0.2117 -0.5195 -0.2324
  940MPD2    H513806   2.727   2.826  13.443  0.5602  0.0972 -0.1677
  940MPD2    N113807   2.990   2.730  13.939  0.0241 -0.3376 -0.5154
  940MPD2    H713808   3.041   2.654  13.897  3.0599 -0.0142  2.6152
  941MPD2     C13809   2.328   1.922   9.963 -0.1088 -0.1108  0.3989
  941MPD2    C113810   2.300   1.996  10.079 -0.2132 -0.1243 -0.2249
  941MPD2    C213811   2.223   1.941  10.178  0.0527  0.0136 -0.1549
  941MPD2    C313812   2.187   1.807  10.177  0.1855  0.3668 -0.3162
  941MPD2    C413813   2.227   1.730  10.068  0.0015  0.0626  0.4968
  941MPD2    C513814   2.291   1.794   9.963 -0.5313 -0.0925  0.1190
  941MPD2     H13815   2.196   2.007  10.259  0.9306 -2.2996  2.0168
  941MPD2    H113816   2.184   1.631  10.058  1.9155 -0.5658 -1.4458
  941MPD2    H213817   2.379   1.959   9.874  1.3618 -0.4512  1.1053
  941MPD2    H313818   2.302   1.730   9.876  3.6450  3.0982 -1.6795
  941MPD2     N13819   2.115   1.741  10.278  0.1655  0.3868 -0.5855
  941MPD2    H513820   2.099   1.643  10.257  0.3318  0.2970 -0.2840
  941MPD2    N113821   2.339   2.131  10.092 -0.6291 -0.1594  0.5447
  941MPD2    H713822   2.329   2.173  10.184 -1.6394 -0.5771  0.6307
  942MPD2     C13823   1.521   2.724   8.701  0.1894 -0.3425  0.0760
  942MPD2    C113824   1.503   2.801   8.812 -0.3045 -0.7763 -0.0148
  942MPD2    C213825   1.613   2.857   8.864  0.7102  0.4198  0.0268
  942MPD2    C313826   1.736   2.838   8.810  0.4050 -0.2326  0.7024
  942MPD2    C413827   1.751   2.756   8.701 -0.3104 -0.1569 -0.0098
  942MPD2    C513828   1.642   2.703   8.643  0.5019  0.4317 -0.1401
  942MPD2     H13829   1.600   2.911   8.957 -1.8732 -3.7984  2.1163
  942MPD2    H113830   1.847   2.734   8.656 -1.1571  1.8810 -2.8296
  942MPD2    H213831   1.434   2.690   8.646 -0.1408  1.0842 -0.2810
  942MPD2    H313832   1.654   2.645   8.552 -0.1073  1.0125 -0.5972
  942MPD2     N13833   1.861   2.897   8.844  0.0717  0.1256  0.0105
  942MPD2    H513834   1.935   2.890   8.775  1.0890 -0.6897  1.1767
  942MPD2    N113835   1.381   2.822   8.892 -0.0985  0.0269 -0.4650
  942MPD2    H713836   1.388   2.879   8.975  0.5795  0.4978 -0.8478
  943MPD2     C13837   1.043   1.359   9.875  0.4702 -0.0579  0.1111
  943MPD2    C113838   0.944   1.313   9.953 -0.3054 -0.8356 -0.6445
  943MPD2    C213839   0.920   1.375  10.075  0.3074 -0.1116 -0.9017
  943MPD2    C313840   0.999   1.478  10.120  0.9337 -0.1577  0.1448
  943MPD2    C413841   1.085   1.531  10.025  0.2221 -0.3171 -0.0938
  943MPD2    C513842   1.115   1.470   9.908 -0.0558 -0.2147  0.5377
  943MPD2     H13843   0.845   1.334  10.143 -0.0786  2.0496 -0.0307
  943MPD2    H113844   1.137   1.625  10.037  0.8260 -0.7630  0.7870
  943MPD2    H213845   1.075   1.302   9.788  1.6255  0.0717  0.4489
  943MPD2    H313846   1.196   1.507   9.846  0.6117 -3.0949 -0.2670
  943MPD2     N13847   0.984   1.540  10.248  0.3549 -0.3677  0.4261
  943MPD2    H513848   1.048   1.618  10.263  0.8825 -0.8264  0.5577
  943MPD2    N113849   0.877   1.201   9.916 -0.3962  0.3822 -0.5339
  943MPD2    H713850   0.906   1.162   9.827 -1.0298  0.2662 -0.6924
  944MPD2     C13851   4.725   0.464  11.791 -0.0575  0.3427 -0.0690
  944MPD2    C113852   0.105   0.534  11.807  0.2059 -0.0653 -0.7613
  944MPD2    C213853   0.094   0.666  11.846  1.2297 -0.1186 -0.7665
  944MPD2    C313854   4.719   0.737  11.871  0.1538  0.8277 -0.0407
  944MPD2    C413855   4.603   0.666  11.854  0.3011  0.2715  0.2714
  944MPD2    C513856   4.609   0.538  11.805  0.1370  0.6436  0.3680
  944MPD2     H13857   0.188   0.722  11.849  0.0164  1.7740  2.0521
  944MPD2    H113858   4.506   0.713  11.849 -0.4406 -1.2471  0.4067
  944MPD2    H213859   4.721   0.360  11.758 -1.7312  1.2207 -2.6002
  944MPD2    H313860   4.516   0.481  11.804 -0.5985  1.9011 -1.3785
  944MPD2     N13861   4.722   0.876  11.897  0.3271 -0.7088 -0.6271
  944MPD2    H513862   0.072   0.929  11.891 -0.1107  0.0391 -0.2957
  944MPD2    N113863   0.227   0.464  11.773  0.2887  0.2417  0.0812
  944MPD2    H713864   0.212   0.371  11.737  1.7027 -0.3437  1.0232
    1TMC1    C113865   4.099   1.730  14.955 -0.1506  0.1096  0.4203
    1TMC1    C213866   4.083   1.647  14.845 -0.8736  0.4167 -0.2287
    1TMC1    C313867   4.170   1.537  14.845  0.0144 -1.4131  0.1074
    1TMC1    C413868   4.198   1.717  15.045  0.2552  0.2807  0.7456
    1TMC1    C513869   4.286   1.612  15.030 -0.4412  0.0327 -0.5010
    1TMC1    C613870   4.270   1.519  14.931  0.2553 -0.2408 -0.0577
    1TMC1     C13871   4.003   1.837  14.987 -0.1870 -0.2438  0.1222
    1TMC1     O13872   4.000   1.898  15.097  0.2228 -0.2773  0.1301
    1TMC1     H13873   4.006   1.663  14.771 -0.1634 -0.6437 -1.2105
    1TMC1    H113874   4.199   1.780  15.134  2.2025  0.3001  0.7122
    1TMC1    H213875   4.350   1.459  14.891  0.1030 -0.1704 -0.4664
    1TMC1    C713876   4.337   1.558  15.154  0.1473  0.0443 -0.4732
    1TMC1    C813877   4.165   1.467  14.719  0.9974 -0.3956 -0.5052
    1TMC1    O113878   4.293   1.593  15.262 -0.5968  0.2049 -0.1038
    1TMC1    O213879   4.115   1.517  14.621 -0.7775 -0.0319 -0.2598
    1TMC1    O313880   4.397   1.443  15.129  0.2997  0.3600  0.4864
    1TMC1    H313881   4.448   1.436  15.045  0.3702  1.6450  0.4246
    1TMC1    O513882   4.192   1.335  14.740 -0.2408  0.7199  0.0124
    1TMC1    H513883   4.205   1.312  14.834  1.4037  0.3524 -0.3060
    2MPD2     C13884   3.682   2.214  14.853 -0.4293 -0.0983 -0.4597
    2MPD2    C113885   3.740   2.159  14.740  0.1490 -0.3248 -0.6025
    2MPD2    C213886   3.814   2.045  14.747 -0.5164  0.1704  0.1056
    2MPD2    C313887   3.849   1.993  14.872  0.1120 -1.5574  0.4522
    2MPD2    C413888   3.796   2.053  14.980  0.0067 -0.0417  0.1105
    2MPD2    C513889   3.715   2.162  14.972  0.3877 -0.0463 -0.0360
    2MPD2     H13890   3.860   2.004  14.657 -0.7185  0.2282 -0.0249
    2MPD2    H113891   3.803   2.004  15.076  1.5885  2.2246  1.1440
    2MPD2    H213892   3.633   2.310  14.857  1.2187  0.6882  1.0449
    2MPD2    H313893   3.687   2.210  15.065 -1.9950 -1.5518  0.0300
    2MPD2     N13894   3.936   1.883  14.874  1.1824 -0.1893  0.5108
    2MPD2    H513895   3.954   1.835  14.786  0.9524  1.7957 -0.6111
    2MPD2    N113896   3.726   2.233  14.616  0.3282  0.0165 -0.3691
    2MPD2    H713897   3.682   2.324  14.608  2.9769  1.3786  0.5687
    3TMC2    C113898   3.732   2.294  14.390 -0.1124  0.4965 -0.7774
    3TMC2    C213899   3.759   2.427  14.417 -0.0379  0.1258  0.0126
    3TMC2    C313900   3.714   2.526  14.338 -0.1889  0.1556  0.2728
    3TMC2    C413901   3.657   2.260  14.281 -0.9343 -0.0114 -0.0242
    3TMC2    C513902   3.608   2.364  14.207 -0.5920  0.1164  0.4010
    3TMC2    C613903   3.633   2.503  14.234  0.6212  0.4819  0.8699
    3TMC2     C13904   3.748   2.185  14.484  0.7620  0.0442  0.3482
    3TMC2     O13905   3.773   2.068  14.447  0.0963 -0.2869  0.9871
    3TMC2     H13906   3.817   2.459  14.502 -0.0939 -0.8428  0.4240
    3TMC2    H113907   3.642   2.157  14.253  1.3608 -0.7780  1.6269
    3TMC2    H213908   3.587   2.592  14.194  0.2407  0.6542  1.6906
    3TMC2    C713909   3.515   2.335  14.092 -0.3106  1.0462 -0.5174
    3TMC2    C813910   3.760   2.661  14.358 -0.0394 -0.0691 -0.0954
    3TMC2    O113911   3.466   2.223  14.083 -0.3151  0.3148  0.2679
    3TMC2    O213912   3.805   2.688  14.470  0.3013  0.2328  0.2412
    3TMC2    O513913   3.805   2.716  14.242  0.8097  0.4272  0.1180
    3TMC2    H513914   3.765   2.678  14.160  0.0820  0.9702  0.2187
    4TMC2    C113915   3.105   3.137  13.667 -0.1697 -0.0777  0.2990
    4TMC2    C213916   3.103   3.154  13.529  0.0649 -0.0665 -0.0967
    4TMC2    C313917   3.161   3.060  13.453 -0.3439  0.8278 -0.1943
    4TMC2    C413918   3.172   3.029  13.722  0.9277 -0.3506  0.2419
    4TMC2    C513919   3.228   2.937  13.645 -0.2664  0.5435 -0.7272
    4TMC2    C613920   3.223   2.950  13.507 -0.2043  0.2370  0.1922
    4TMC2     C13921   3.035   3.218  13.753  0.3883  0.7469 -0.4117
    4TMC2     O13922   3.065   3.220  13.871  0.4134 -0.4836  0.4647
    4TMC2     H13923   3.046   3.233  13.482 -0.9187 -0.6620  0.1005
    4TMC2    H113924   3.182   3.010  13.828 -1.3726  0.4092  0.6097
    4TMC2    H213925   3.262   2.868  13.447  0.9326  1.1192 -0.2744
    4TMC2    C713926   3.299   2.832  13.717  0.1043  0.0917  0.6394
    4TMC2    C813927   3.141   3.061  13.312 -0.8416  0.2524 -0.0787
    4TMC2    O113928   3.358   2.869  13.816  0.1217  0.0792 -0.2536
    4TMC2    O213929   3.159   2.966  13.240 -0.3266 -0.1078 -0.1524
    4TMC2    O513930   3.161   3.185  13.270 -0.1066  0.0735 -0.1762
    4TMC2    H513931   3.157   3.254  13.340  0.7344  0.2076 -0.2718
    5MPD2     C13932   2.577   3.442  13.820  0.5999  0.0704  0.7868
    5MPD2    C113933   2.582   3.385  13.694  0.2835 -0.3689 -0.4235
    5MPD2    C213934   2.700   3.324  13.658 -0.6628  0.1528 -0.4294
    5MPD2    C313935   2.810   3.315  13.740  0.6886 -0.0700  0.3773
    5MPD2    C413936   2.803   3.369  13.868 -0.3992  0.0122 -0.0578
    5MPD2    C513937   2.687   3.440  13.900  0.9797 -0.1458  0.0136
    5MPD2     H13938   2.703   3.282  13.558  0.4521 -1.5554  0.3196
    5MPD2    H113939   2.886   3.363  13.938 -1.0973 -2.1025  0.5793
    5MPD2    H213940   2.492   3.488  13.867 -0.6495 -1.6884  0.2701
    5MPD2    H313941   2.687   3.480  14.001  1.7856  1.2902 -0.5585
    5MPD2     N13942   2.922   3.256  13.686  0.3373  0.2701  0.2284
    5MPD2    H513943   2.915   3.250  13.585  1.1910  1.7409  0.0741
    5MPD2    N113944   2.472   3.389  13.606  0.2222 -0.5155  0.2060
    5MPD2    H713945   2.388   3.430  13.646 -0.8492 -0.2132 -2.2915
    6MPD1     C13946   1.741   0.248  13.237 -0.1211 -0.4023 -0.2544
    6MPD1    C113947   1.798   0.204  13.115  1.0632  0.5139  0.1243
    6MPD1    C213948   1.840   0.075  13.107 -0.4153  0.1521  0.0281
    6MPD1    C313949   1.821   4.726  13.215 -0.3565  0.4571 -0.5074
    6MPD1    C413950   1.786   0.041  13.339 -0.5300 -0.1320 -0.1435
    6MPD1    C513951   1.746   0.172  13.347  0.0393 -0.2370 -0.4778
    6MPD1     H13952   1.875   0.036  13.012  1.9848  3.3640 -0.3789
    6MPD1    H113953   1.784   4.723  13.433 -0.9129  2.4217  1.2848
    6MPD1    H213954   1.718   0.353  13.254  0.0182 -0.0821 -1.9928
    6MPD1    H313955   1.707   0.213  13.440  0.4496 -1.6991  0.3337
    6MPD1     N13956   1.852   4.584  13.215  0.1076  0.0718 -0.0913
    6MPD1    H513957   1.841   4.531  13.301 -2.6369 -2.1353 -1.8065
    6MPD1    N113958   1.780   0.287  12.993  0.4122  0.1761  0.1263
    6MPD1    H613959   1.840   0.270  12.912 -1.5358 -1.7503 -0.8991
    6MPD1    H713960   1.808   0.383  13.015 -2.3812  1.1199 -0.4780
    7MPD2     C13961   1.918   3.989  13.587 -0.1007 -0.5651 -0.0242
    7MPD2    C113962   1.901   3.924  13.473 -0.5455 -0.2479  0.1658
    7MPD2    C213963   1.936   3.795  13.464  0.3532  0.2314 -0.4818
    7MPD2    C313964   1.993   3.720  13.564  0.0756  0.1564 -0.5388
    7MPD2    C413965   2.010   3.783  13.686  0.7266  0.2610  0.6190
    7MPD2    C513966   1.970   3.916  13.695  0.2554  0.2815  0.3849
    7MPD2     H13967   1.924   3.741  13.370  4.5586 -2.3939  0.4655
    7MPD2    H113968   2.057   3.733  13.770 -0.2564 -0.9960  0.4297
    7MPD2    H213969   1.880   4.091  13.590  1.2346 -0.0540 -1.0398
    7MPD2    H313970   1.979   3.975  13.786 -0.5806 -0.9554  1.2531
    7MPD2     N13971   2.044   3.588  13.542  0.1795 -0.4901 -0.7856
    7MPD2    H513972   2.120   3.549  13.596  1.0440  3.6443  0.9351
    7MPD2    N113973   1.871   3.984  13.348  0.2067 -0.1600  0.0460
    7MPD2    H713974   1.894   3.916  13.276  0.4480 -0.0011 -0.0259
    8TMC3    C113975   2.086   3.394  13.417 -0.7543 -0.0779 -0.0733
    8TMC3    C213976   2.211   3.387  13.488 -0.1471 -0.0601  0.2847
    8TMC3    C313977   2.324   3.356  13.415  0.1825  0.2678  0.7370
    8TMC3    C413978   2.092   3.385  13.278  0.2009  0.5816  0.6756
    8TMC3    C513979   2.210   3.392  13.213 -0.2295 -0.0919 -0.3013
    8TMC3    C613980   2.327   3.368  13.280 -0.6803 -0.8207  0.7996
    8TMC3     C13981   1.994   3.506  13.440  0.1300  0.5548  0.5390
    8TMC3     O13982   1.886   3.512  13.380 -0.3172  0.3938  0.2240
    8TMC3     H13983   2.211   3.391  13.596 -3.4153 -1.5053  0.3459
    8TMC3    H113984   1.999   3.381  13.222 -0.7629  1.0414  2.2337
    8TMC3    H213985   2.415   3.376  13.218 -0.5367  1.2905  1.2656
    8TMC3    C713986   2.202   3.523  13.158  0.2114 -0.5048  0.2277
    8TMC3    C813987   2.457   3.333  13.479 -1.0733  0.1292 -0.1345
    8TMC3    O113988   2.094   3.582  13.160 -0.2427  0.2251  0.3561
    8TMC3    O213989   2.536   3.273  13.404  0.0610  0.3627 -0.0446
    9TMC3    C113990   1.931   4.377  13.119 -0.3398  0.1014 -0.1019
    9TMC3    C213991   1.991   4.315  13.021 -0.0630  0.8694  0.1943
    9TMC3    C313992   1.997   4.182  13.025 -0.6404  0.4587  0.5289
    9TMC3    C413993   1.858   4.310  13.213 -0.2042 -0.3946  0.2201
    9TMC3    C513994   1.852   4.174  13.207 -0.5955 -0.3008 -0.2598
    9TMC3    C613995   1.924   4.107  13.113 -0.1091 -0.3579 -0.3362
    9TMC3     C13996   1.901   4.513  13.109 -0.2564  0.0257 -0.4020
    9TMC3     O13997   1.923   4.552  12.998  0.1723  0.1396 -0.3773
    9TMC3     H13998   2.060   4.365  12.953 -0.6348 -0.8353 -1.6364
    9TMC3    H113999   1.807   4.363  13.293 -1.7635  1.0886 -1.7374
    9TMC3    H214000   1.925   3.999  13.101  1.7922 -0.1545 -2.1782
    9TMC3    C714001   1.823   4.114  13.337  0.0091  0.3577 -0.1588
    9TMC3    C814002   2.117   4.117  12.959 -0.0264  0.8349 -0.2828
    9TMC3    O114003   1.755   4.180  13.412 -0.0684  0.0260  0.1405
    9TMC3    O214004   2.181   4.177  12.877 -0.4638  0.2283  0.1317
   10MPD2     C14005   2.422   3.701  12.918 -0.2423  0.0021  0.4329
   10MPD2    C114006   2.339   3.687  13.030 -0.6338  0.4362 -0.3504
   10MPD2    C214007   2.262   3.798  13.070 -0.9242 -0.2673 -0.0287
   10MPD2    C314008   2.251   3.903  12.988  0.4012 -0.0246  0.2705
   10MPD2    C414009   2.320   3.910  12.866  0.3344  0.5313 -0.0033
   10MPD2    C514010   2.414   3.809  12.833 -0.3656 -0.1690  0.1955
   10MPD2     H14011   2.207   3.806  13.163  0.9938  0.2666  1.0613
   10MPD2    H114012   2.303   3.991  12.796 -1.2526 -0.2941 -0.5745
   10MPD2    H214013   2.489   3.620  12.892 -1.8589 -0.9532 -0.7806
   10MPD2    H314014   2.475   3.817  12.744  3.4508  0.7018  2.9131
   10MPD2     N14015   2.154   4.002  13.026 -0.5466 -0.1975  0.3288
   10MPD2    H514016   2.118   3.993  13.120 -1.4331 -0.3515 -0.0157
   10MPD2    N114017   2.324   3.564  13.098 -0.6682 -0.4449  0.2140
   10MPD2    H714018   2.405   3.503  13.091 -0.7175 -0.5875  0.8810
   11MPD2     C14019   3.338   2.341  13.852  0.7745  0.8309 -0.6308
   11MPD2    C114020   3.400   2.450  13.905 -0.3009  0.4443  0.7547
   11MPD2    C214021   3.370   2.577  13.853 -0.0885 -0.8384 -0.5431
   11MPD2    C314022   3.281   2.583  13.738 -0.7616 -0.6206  0.2928
   11MPD2    C414023   3.232   2.470  13.682 -0.4089  0.0993 -0.0703
   11MPD2    C514024   3.260   2.355  13.746  1.0765  0.0910 -0.6359
   11MPD2     H14025   3.421   2.663  13.894  0.2772 -0.3364 -2.0478
   11MPD2    H114026   3.158   2.467  13.603 -0.4712  0.4656 -0.0260
   11MPD2    H214027   3.336   2.237  13.884  1.8430  0.6690 -1.0550
   11MPD2    H314028   3.214   2.265  13.707 -1.7885  0.8580  0.9198
   11MPD2     N14029   3.246   2.706  13.677  0.0805 -0.1833  0.0792
   11MPD2    H514030   3.193   2.712  13.591  1.8349  2.7794 -0.7737
   11MPD2    N114031   3.495   2.447  14.010 -0.0483 -0.6451 -0.6895
   11MPD2    H714032   3.541   2.534  14.033  1.7433 -1.8809  0.4482
    1MPD1     C14033   1.867   4.679  15.071  0.7865  0.6569 -0.0049
    1MPD1    C114034   1.802   4.706  15.193  0.2563  0.1874 -0.2969
    1MPD1    C214035   1.829   4.627  15.303 -0.1434  0.0948  0.2613
    1MPD1    C314036   1.943   4.548  15.296 -0.5801  0.4002 -0.0186
    1MPD1    C414037   2.000   4.517  15.170 -0.6959 -0.1692 -0.4086
    1MPD1    C514038   1.958   4.580  15.059  0.1535 -0.0542 -0.3538
    1MPD1     H14039   1.788   4.648  15.401  0.3712  0.5278  0.3791
    1MPD1    H114040   2.091   4.460  15.157  0.1272  0.7008  1.7137
    1MPD1    H214041   1.839   4.727  14.978  0.4582  0.3119 -0.0850
    1MPD1    H314042   2.003   4.571  14.961 -1.7071 -1.9793 -1.0350
    1MPD1     N14043   2.004   4.491  15.412  0.7529 -0.4025 -0.9353
    1MPD1    H514044   2.079   4.423  15.408  1.5668  0.4969 -1.0520
    1MPD1    N114045   1.691   0.060  15.187  0.4611 -0.0084 -0.0835
    1MPD1    H614046   1.662   0.106  15.273  0.6402  1.6344 -0.8968
    1MPD1    H714047   1.702   0.127  15.111 -0.6947 -0.1830 -0.3991
    2MPD1     C14048   1.971   3.801  16.235 -0.1423  0.0715 -0.4273
    2MPD1    C114049   2.066   3.895  16.275 -0.2762 -0.1472 -0.0990
    2MPD1    C214050   2.084   4.001  16.192  0.7318 -0.8953  0.0689
    2MPD1    C314051   1.997   4.033  16.091 -0.5160  0.6181 -0.0615
    2MPD1    C414052   1.886   3.949  16.075 -0.3415 -0.1109 -0.4234
    2MPD1    C514053   1.881   3.832  16.139 -0.4475 -0.1742 -0.0189
    2MPD1     H14054   2.174   4.060  16.209  0.7017 -0.8139 -0.0514
    2MPD1    H114055   1.809   3.969  16.002  0.6427  0.5131 -1.2994
    2MPD1    H214056   1.943   3.712  16.289 -1.5156  0.8086  0.0629
    2MPD1    H314057   1.808   3.758  16.112  1.3981 -1.7106 -0.7996
    2MPD1     N14058   2.035   4.134  16.008 -0.2140 -0.6156  0.0121
    2MPD1    H514059   2.117   4.185  16.042 -1.4330  1.3590 -0.0193
    2MPD1    N114060   2.155   3.857  16.374 -0.3329  0.2992  0.2290
    2MPD1    H614061   2.119   3.801  16.451 -0.0262  0.0739  0.2130
    2MPD1    H714062   2.187   3.942  16.419 -0.9394  0.1762  0.8900
    3TMC3    C114063   2.021   4.302  15.838  0.0465 -0.0089 -0.3856
    3TMC3    C214064   2.157   4.307  15.842 -0.1722 -0.1257  0.1677
    3TMC3    C314065   2.222   4.361  15.733 -0.5411  0.0925  0.0032
    3TMC3    C414066   1.955   4.360  15.739 -0.0449 -0.4723  0.9188
    3TMC3    C514067   2.025   4.413  15.630  0.0567  0.1090 -0.9921
    3TMC3    C614068   2.161   4.425  15.633  0.0533 -0.3475  0.0058
    3TMC3     C14069   1.959   4.192  15.906  0.6081 -0.2955  0.5285
    3TMC3     O14070   1.851   4.164  15.854 -0.4616 -0.3741 -0.1766
    3TMC3     H14071   2.215   4.254  15.917  0.4551 -0.7104 -0.7381
    3TMC3    H114072   1.850   4.335  15.726 -0.0976  0.4964 -0.4784
    3TMC3    H214073   2.215   4.458  15.545 -1.5402 -1.8141 -1.5021
    3TMC3    C714074   1.948   4.493  15.537 -0.9272  0.7561  0.7459
    3TMC3    C814075   2.363   4.326  15.721 -0.0561  0.1376 -0.0466
    3TMC3    O114076   1.847   4.541  15.583 -0.4137  0.3109 -0.1881
    3TMC3    O214077   2.393   4.232  15.793 -0.1849  0.2951 -0.6642
    4MPD1     C14078   2.821   4.312  15.497 -0.2039 -0.8006  0.0675
    4MPD1    C114079   2.764   4.432  15.460 -0.1440  0.0369 -0.4477
    4MPD1    C214080   2.636   4.461  15.516  0.1852  0.4746 -0.8056
    4MPD1    C314081   2.562   4.368  15.588 -0.1705 -0.0271  0.1363
    4MPD1    C414082   2.614   4.247  15.603 -0.3592  0.2559  0.0423
    4MPD1    C514083   2.741   4.225  15.563 -0.1322 -0.0265 -0.0708
    4MPD1     H14084   2.594   4.558  15.496 -1.1738  0.1564  0.5550
    4MPD1    H114085   2.561   4.163  15.646 -0.0442  0.2573  0.4355
    4MPD1    H214086   2.922   4.282  15.470 -0.1939  0.8016 -1.6410
    4MPD1    H314087   2.793   4.133  15.585 -1.5677  0.2946  4.7203
    4MPD1     N14088   2.439   4.404  15.632 -0.4023  0.8199  0.3779
    4MPD1    H514089   2.409   4.500  15.619 -1.6518  0.4534  0.6347
    4MPD1    N114090   2.837   4.523  15.387  0.4359  0.1421 -0.6741
    4MPD1    H614091   2.884   4.480  15.308  0.3914  0.9008 -1.1184
    4MPD1    H714092   2.766   4.582  15.345 -1.4077 -0.6912  1.2986
    1TCq1    O114093   0.994   3.644  12.840 -0.1830 -0.0730  0.2805
    1TCq1    C114094   0.953   3.519  12.811  0.0568  0.1759 -0.7697
    1TCq1    O214095   0.858   3.463  12.866 -0.2112 -0.0056 -0.8642
    1TCq1    C214096   0.995   3.481  12.677 -0.2187 -0.3749 -0.6350
    1TCq1    C314097   0.896   3.442  12.589  0.4594 -0.3816 -0.2669
    1TCq1    C414098   0.937   3.422  12.459  0.0697  0.0649  1.0434
    1TCq1    C514099   1.061   3.458  12.415 -0.3634 -0.2903 -0.5990
    1TCq1    C614100   1.156   3.492  12.509 -0.7539  0.4784  0.0286
    1TCq1    C714101   1.123   3.508  12.641 -0.8743  0.0338  0.0003
    1TCq1    C814102   1.286   3.537  12.485  0.2526  0.0712  0.2504
    1TCq1    O414103   1.367   3.540  12.578 -0.2499  0.3895  0.0305
    1TCq1    C914104   0.835   3.418  12.358  0.0703 -1.1306  0.7049
    1TCq1    O514105   0.728   3.354  12.381 -0.0557  0.3196  0.9695
    1TCq1    O614106   0.855   3.484  12.251 -0.7858  0.0106  0.7938
    1TCq1    H114107   1.063   3.676  12.778 -1.2488 -0.6575 -1.2028
    1TCq1    H214108   0.792   3.440  12.619 -1.1543 -0.1064 -5.8895
    1TCq1    H314109   1.092   3.434  12.314  0.9954 -2.3940  0.3144
    1TCq1    H414110   1.196   3.516  12.721 -1.3612 -2.4426  0.6997
    2MPD1     C14111   1.631   3.716  12.155  0.6097 -0.9317  0.9760
    2MPD1    C114112   1.509   3.757  12.109 -0.8839  0.5403 -0.3765
    2MPD1    C214113   1.394   3.717  12.185 -0.2400 -0.0044 -0.0165
    2MPD1    C314114   1.410   3.649  12.301  0.8074  0.0382 -0.1392
    2MPD1    C414115   1.536   3.620  12.349 -0.6077 -0.7509 -0.4677
    2MPD1    C514116   1.646   3.656  12.273  0.7467 -0.2412 -0.1527
    2MPD1     H14117   1.293   3.736  12.153 -0.2538  0.7897  0.4784
    2MPD1    H114118   1.540   3.571  12.445  0.2602  0.3991  0.0848
    2MPD1    H214119   1.728   3.732  12.109 -1.5091  2.8937 -2.1575
    2MPD1    H314120   1.746   3.632  12.305  0.5954 -1.5446 -0.6590
    2MPD1     N14121   1.293   3.602  12.365  0.3987  0.0126 -0.2424
    2MPD1    H514122   1.208   3.603  12.310 -1.2678 -0.3603  2.3247
    2MPD1    N114123   1.492   3.810  11.979  0.2855 -0.0914  0.4498
    2MPD1    H614124   1.409   3.867  11.967  0.6696  0.4428  0.3630
    2MPD1    H714125   1.570   3.871  11.958  2.4199 -2.5313  1.2177
    1TMC1    C114126   4.402   3.218   1.182 -0.4509 -0.5519  0.5358
    1TMC1    C214127   4.461   3.333   1.141 -0.1997 -0.0280  0.8428
    1TMC1    C314128   4.380   3.428   1.114  0.3675  0.0608 -0.0298
    1TMC1    C414129   4.269   3.211   1.201  0.0456  0.2647  0.3247
    1TMC1    C514130   4.193   3.321   1.189 -0.1808 -0.4177 -0.2966
    1TMC1    C614131   4.249   3.434   1.132 -0.2761 -0.5836 -0.2277
    1TMC1     C14132   4.471   3.094   1.186  0.0118  0.1332 -0.1179
    1TMC1     O14133   4.403   2.996   1.205  0.1071  0.5031 -0.0416
    1TMC1     H14134   4.563   3.343   1.104 -0.5661  1.7983  0.3039
    1TMC1    H114135   4.222   3.117   1.226  1.4808 -0.4475  0.3037
    1TMC1    H214136   4.187   3.521   1.117 -0.9365 -0.9657  0.2226
    1TMC1    C714137   4.046   3.305   1.215 -0.1020 -0.3994  0.0359
    1TMC1    C814138   4.432   3.532   1.026 -0.3477 -0.0920  0.1997
    1TMC1    O114139   3.963   3.378   1.158  0.3245  0.5258  0.1435
    1TMC1    O214140   4.554   3.554   1.020 -0.0167 -0.0921 -0.0654
    1TMC1    O314141   4.019   3.219   1.317  0.0892 -0.0496  0.1951
    1TMC1    H314142   4.097   3.178   1.361 -0.4709 -1.4532 -0.1296
    1TMC1    O514143   4.349   3.539   0.920 -0.0787  0.7176 -0.1698
    1TMC1    H514144   4.269   3.483   0.925 -0.3065  1.0050 -0.6708
    2MPD1     C14145   0.173   2.824   1.194 -0.2839 -0.0378 -0.9146
    2MPD1    C114146   0.202   2.958   1.226  0.0817  0.0314 -1.2018
    2MPD1    C214147   0.098   3.049   1.204 -0.3728 -0.0346  0.8197
    2MPD1    C314148   4.702   3.013   1.184 -0.4398  0.5200 -0.4145
    2MPD1    C414149   4.670   2.881   1.185 -0.2501  0.2069 -0.7306
    2MPD1    C514150   0.040   2.791   1.188  0.7696  0.3731  0.2289
    2MPD1     H14151   0.119   3.155   1.213  0.7277  0.0791 -3.2311
    2MPD1    H114152   4.568   2.847   1.200 -0.0397 -0.5462 -1.0123
    2MPD1    H214153   0.246   2.744   1.199  2.6510  2.5150 -3.0575
    2MPD1    H314154   0.017   2.686   1.178  0.4044  0.6553 -1.8475
    2MPD1     N14155   4.607   3.112   1.187 -0.3753  0.3854  0.1674
    2MPD1    H514156   4.641   3.208   1.194  0.1736  0.0919  1.5018
    2MPD1    N114157   0.332   3.008   1.244  0.2704  0.1640  0.4968
    2MPD1    H614158   0.399   2.941   1.282 -0.2652 -0.6250  0.0587
    2MPD1    H714159   0.333   3.092   1.302 -2.7047 -0.0426  0.8362
    1MPD1     C14160   3.582   3.510  12.578 -0.4647  0.2241  0.5940
    1MPD1    C114161   3.606   3.416  12.673  0.4349  0.2746 -0.4441
    1MPD1    C214162   3.679   3.301  12.639  0.6075 -0.4030  0.1862
    1MPD1    C314163   3.712   3.281  12.506 -0.5468 -0.0892 -0.4407
    1MPD1    C414164   3.671   3.374  12.411 -0.0252  0.0893  1.2805
    1MPD1    C514165   3.612   3.494  12.450 -0.4449  0.7931 -0.2246
    1MPD1     H14166   3.712   3.226  12.710  0.1193 -0.3816  0.4389
    1MPD1    H114167   3.704   3.372  12.308 -1.5381  0.2884  0.7884
    1MPD1    H214168   3.539   3.604  12.609 -0.3409  0.5105 -0.0883
    1MPD1    H314169   3.586   3.564  12.371 -0.9262  1.5767  0.6313
    1MPD1     N14170   3.797   3.178  12.467 -0.2501  0.6279 -0.2784
    1MPD1    H514171   3.840   3.128  12.544 -0.2925 -0.7446 -1.1348
    1MPD1    N114172   3.583   3.454  12.806  0.4438  0.2172 -0.7337
    1MPD1    H614173   3.607   3.386  12.878 -1.0206  0.3547 -0.1185
    1MPD1    H714174   3.499   3.508  12.826  0.7033  0.4257 -0.1893
    2MPD1     C14175   3.221   4.326  11.783  0.4523  0.2578 -0.0943
    2MPD1    C114176   3.305   4.297  11.888  0.8078 -0.2050 -0.5006
    2MPD1    C214177   3.442   4.289  11.868  0.7350  0.2660  0.2815
    2MPD1    C314178   3.496   4.342  11.751 -0.4214  0.1524 -0.7768
    2MPD1    C414179   3.410   4.402  11.661 -0.1144  0.1301  0.4792
    2MPD1    C514180   3.274   4.383  11.668 -0.6607  1.1938  0.0487
    2MPD1     H14181   3.507   4.239  11.939 -0.6029 -1.0284  0.5975
    2MPD1    H114182   3.441   4.460  11.575 -1.6185  0.9657  0.5018
    2MPD1    H214183   3.113   4.329  11.777  0.2774 -2.1613  2.2295
    2MPD1    H314184   3.199   4.429  11.606  0.9869  2.2883 -1.1329
    2MPD1     N14185   3.634   4.350  11.717  0.0402 -0.1372 -0.0516
    2MPD1    H514186   3.666   4.382  11.627 -2.2150 -2.0054 -1.5317
    2MPD1    N114187   3.244   4.235  11.992  0.2752 -0.0969 -0.4339
    2MPD1    H614188   3.304   4.243  12.073  1.2586 -0.0233 -1.1623
    2MPD1    H714189   3.153   4.274  12.016  0.5257 -0.6780  1.4213
    3MPD1     C14190   4.006   4.641  11.020 -0.3648  0.2412 -0.5106
    3MPD1    C114191   3.907   4.555  11.047 -0.2099 -0.0902 -0.7715
    3MPD1    C214192   3.903   4.492  11.167 -0.5275 -0.6165  0.0048
    3MPD1    C314193   3.999   4.530  11.262 -0.1570 -0.0451  0.3159
    3MPD1    C414194   4.102   4.612  11.228  0.7109 -0.2327  0.3577
    3MPD1    C514195   4.111   4.662  11.104 -0.0081  0.9676  0.0961
    3MPD1     H14196   3.813   4.439  11.195  0.5581 -1.4685  1.8952
    3MPD1    H114197   4.194   4.619  11.284  1.2426 -0.8172 -0.4344
    3MPD1    H214198   4.009   4.698  10.928  0.5948  1.5304  0.3089
    3MPD1    H314199   4.181   0.008  11.093 -0.1828  0.9159 -1.3534
    3MPD1     N14200   3.983   4.474  11.389 -0.1652 -0.3329 -0.4364
    3MPD1    H514201   3.897   4.422  11.395  0.7619 -1.4932  2.7688
    3MPD1    N114202   3.808   4.526  10.952 -0.7987  0.0343 -0.1016
    3MPD1    H614203   3.801   4.598  10.880  2.7863 -2.4050 -2.9137
    3MPD1    H714204   3.715   4.525  10.994  0.0411 -3.2628  1.7233
    4MPD2     C14205   4.466   3.218  12.539  0.1110  0.0416 -0.3659
    4MPD2    C114206   4.428   3.183  12.416  1.1450  0.4590 -0.3677
    4MPD2    C214207   4.503   3.240  12.309 -1.0886 -0.2087  0.5719
    4MPD2    C314208   4.611   3.332  12.331  0.2853 -0.7909 -0.2766
    4MPD2    C414209   4.639   3.366  12.464 -0.0534  0.0111  0.2625
    4MPD2    C514210   4.570   3.302  12.571 -0.0225 -0.4283 -0.4601
    4MPD2     H14211   4.478   3.217  12.205  1.2312 -0.2841  0.0423
    4MPD2    H114212   4.719   3.434  12.491 -0.0953  0.5952 -1.0778
    4MPD2    H214213   4.421   3.165  12.622  0.3173 -0.0127 -0.2865
    4MPD2    H314214   4.595   3.328  12.673  1.1367 -0.5160 -0.7289
    4MPD2     N14215   4.683   3.391  12.231 -0.4898 -0.1402 -0.3749
    4MPD2    H514216   0.020   3.454  12.266 -0.0456 -1.3519  0.8818
    4MPD2    N114217   4.316   3.087  12.389  0.8631 -0.4915  0.5661
    4MPD2    H714218   4.298   3.067  12.291  0.9842 -1.5310  0.7614
    5TMC3    C114219   4.135   2.947  12.408 -0.3244  0.9456 -0.1400
    5TMC3    C214220   4.019   3.007  12.431  0.3911 -0.4941 -0.1707
    5TMC3    C314221   3.937   3.040  12.324 -0.6322  0.8522  0.1060
    5TMC3    C414222   4.180   2.920  12.278 -0.8016  0.1260  0.5630
    5TMC3    C514223   4.099   2.965  12.172 -0.6397 -0.4629  0.1788
    5TMC3    C614224   3.970   3.019  12.195  0.3295  0.1084  0.0782
    5TMC3     C14225   4.237   3.028  12.476 -0.3665 -0.9566 -0.5826
    5TMC3     O14226   4.216   3.064  12.590 -0.1224  0.2795  0.2274
    5TMC3     H14227   3.985   3.032  12.531 -1.2774  1.5481 -1.2355
    5TMC3    H114228   4.273   2.866  12.265 -2.1256 -1.9622 -0.1383
    5TMC3    H214229   3.903   3.031  12.111  1.2687 -0.5752 -0.7740
    5TMC3    C714230   4.175   3.026  12.071 -0.0073 -0.8729 -0.1458
    5TMC3    C814231   3.829   3.144  12.336 -0.0841  0.3075 -0.1490
    5TMC3    O114232   4.290   3.051  12.112  0.3574 -0.1322 -0.5373
    5TMC3    O214233   3.794   3.183  12.227 -0.0577  0.4637  0.4515
    6TMC3    C114234   3.869   4.325  11.752  0.3510 -0.0737 -0.2129
    6TMC3    C214235   3.901   4.407  11.647 -0.9512 -0.0320 -0.3912
    6TMC3    C314236   4.033   4.402  11.606  0.3688  0.9989  0.0553
    6TMC3    C414237   3.964   4.257  11.817  0.2761  0.3055 -0.4604
    6TMC3    C514238   4.092   4.266  11.780  0.7163 -0.0514 -0.4996
    6TMC3    C614239   4.131   4.334  11.673  0.1364  0.0412 -0.1683
    6TMC3     C14240   3.734   4.319  11.806  0.1634  0.5102 -0.1757
    6TMC3     O14241   3.730   4.283  11.922 -0.4665 -0.1235 -0.0021
    6TMC3     H14242   3.840   4.478  11.592  0.6267  1.6342 -0.0007
    6TMC3    H114243   3.936   4.179  11.887 -2.1310  2.6015  1.1254
    6TMC3    H214244   4.225   4.335  11.619 -1.1277  1.4227 -2.3279
    6TMC3    C714245   4.186   4.170  11.831 -0.3207 -0.4338  0.1333
    6TMC3    C814246   4.070   4.477  11.494  0.0420  0.0964  0.3101
    6TMC3    O114247   4.275   4.133  11.754 -0.3966  0.4770 -0.1279
    6TMC3    O214248   4.180   4.531  11.492 -0.8275  0.5005 -0.4491
    7MPD2     C14249   4.287   3.330  11.666 -0.1315 -0.5967  0.2974
    7MPD2    C114250   4.356   3.292  11.782  0.4002 -0.0112 -0.1385
    7MPD2    C214251   4.306   3.217  11.886  0.2454 -0.1411  0.7214
    7MPD2    C314252   4.170   3.171  11.874 -0.6106 -0.4646  0.0588
    7MPD2    C414253   4.102   3.207  11.755 -0.5187  0.1740 -0.3546
    7MPD2    C514254   4.159   3.285  11.653  0.1729 -0.5378 -0.0199
    7MPD2     H14255   4.376   3.189  11.964 -0.7401  0.1272  1.7043
    7MPD2    H114256   4.008   3.157  11.736 -0.0523 -1.1111  0.6841
    7MPD2    H214257   4.326   3.379  11.577  0.9695 -3.2937 -0.7043
    7MPD2    H314258   4.111   3.304  11.558 -0.9424 -1.4193  0.3736
    7MPD2     N14259   4.113   3.082  11.965 -0.3020 -0.1253  0.1966
    7MPD2    H514260   4.016   3.060  11.943  0.3294 -0.5903 -2.1078
    7MPD2    N114261   4.488   3.341  11.794 -0.5512  1.0805 -0.0153
    7MPD2    H714262   4.533   3.328  11.883  0.7796  2.5099 -0.4811
    8TMC3    C114263   4.669   3.485  11.788 -0.1474  0.2592 -0.5649
    8TMC3    C214264   4.622   3.611  11.796 -0.0313 -0.2440 -0.1281
    8TMC3    C314265   4.617   3.667  11.916  0.9609  0.7922 -0.1403
    8TMC3    C414266   4.730   3.418  11.890  0.8654  0.1443 -0.5807
    8TMC3    C514267   4.730   3.476  12.015 -0.1079 -0.6233 -0.1921
    8TMC3    C614268   4.679   3.599  12.021 -1.2109  0.1650 -0.1769
    8TMC3     C14269   4.569   3.412  11.707 -0.8514  1.4137  0.1749
    8TMC3     O14270   4.554   3.450  11.590 -0.5600 -0.1312  0.5075
    8TMC3     H14271   4.569   3.651  11.710 -0.4873  0.8563  0.6663
    8TMC3    H114272   0.026   3.315  11.879 -0.1585 -0.1752 -0.5515
    8TMC3    H214273   4.684   3.648  12.118  0.4430 -2.2738  0.9563
    8TMC3    C714274   4.666   3.377  12.095 -0.3725  0.0755  0.4357
    8TMC3    C814275   4.529   3.779  11.928  0.4837  0.7719  0.5396
    8TMC3    O114276   4.607   3.297  12.032 -0.0774  0.8411 -0.0859
    8TMC3    O214277   4.450   3.799  11.834  0.0443  0.8198 -0.6659
    9MPD2     C14278   4.444   3.981  12.231 -0.2279 -0.0229  0.3078
    9MPD2    C114279   4.436   3.935  12.096  0.1258  0.1029  0.1945
    9MPD2    C214280   4.352   3.999  12.011  0.7811 -0.6073 -0.2847
    9MPD2    C314281   4.267   4.098  12.048  0.0608  1.1319  0.3181
    9MPD2    C414282   4.272   4.140  12.176  0.1468  0.1335  0.3307
    9MPD2    C514283   4.351   4.079  12.272 -0.3286  0.0582 -0.3655
    9MPD2     H14284   4.354   3.979  11.904 -0.4381 -0.0550 -0.4090
    9MPD2    H114285   4.195   4.206  12.212 -1.7011 -0.7574 -1.9776
    9MPD2    H214286   4.517   3.941  12.301 -0.8068 -1.9707 -0.1973
    9MPD2    H314287   4.346   4.120  12.373 -3.3812  1.3050 -1.0412
    9MPD2     N14288   4.176   4.167  11.967  0.0810 -0.4107  0.6022
    9MPD2    H514289   4.096   4.212  12.011 -0.2927 -1.2394  0.7729
    9MPD2    N114290   4.527   3.838  12.054 -0.4273  1.0792 -0.4026
    9MPD2    H714291   4.590   3.803  12.126  0.1406 -0.0925 -1.4635
    1MPD1     C14292   3.172   2.166  16.803 -0.2222 -0.5372  0.4801
    1MPD1    C114293   3.238   2.168  16.682 -0.1528  1.0125  0.4653
    1MPD1    C214294   3.378   2.183  16.693 -0.2582  0.2069  0.4238
    1MPD1    C314295   3.439   2.170  16.819  0.9862 -0.6439  0.2037
    1MPD1    C414296   3.359   2.159  16.930 -0.3924  0.3532 -0.1944
    1MPD1    C514297   3.226   2.162  16.921  0.2753  0.6683 -0.2120
    1MPD1     H14298   3.431   2.192  16.599 -0.0057  2.5212  0.7692
    1MPD1    H114299   3.398   2.144  17.030 -0.9881 -1.0567 -0.1745
    1MPD1    H214300   3.064   2.175  16.808 -0.2480 -0.1255 -1.0023
    1MPD1    H314301   3.166   2.144  17.010  0.5582  0.4219 -0.0685
    1MPD1     N14302   3.574   2.165  16.839  0.2483 -0.1957  0.1919
    1MPD1    H514303   3.605   2.170  16.936 -1.1579  0.5178  0.6151
    1MPD1    N114304   3.171   2.186  16.564 -0.1711 -0.7477  0.1550
    1MPD1    H614305   3.105   2.111  16.543 -0.5739  0.1813 -1.8656
    1MPD1    H714306   3.231   2.179  16.483 -1.2348  1.1817 -0.7903
    2TMC2    C114307   3.963   2.144  16.977 -0.3848  0.5312 -0.0326
    2TMC2    C214308   4.057   2.080  16.898 -0.7193  0.2051  0.3546
    2TMC2    C314309   4.022   2.044  16.772  0.0450 -0.1399 -0.6643
    2TMC2    C414310   3.840   2.176  16.924 -0.7156  0.4391 -0.9687
    2TMC2    C514311   3.805   2.116  16.801 -0.1426 -0.1210  0.1269
    2TMC2    C614312   3.896   2.054  16.721 -0.7696 -0.3473  0.6251
    2TMC2     C14313   4.005   2.223  17.083 -0.2905  0.2247 -0.5705
    2TMC2     O14314   3.957   2.334  17.088 -0.2692  0.0649  0.2407
    2TMC2     H14315   4.156   2.067  16.940 -1.1393 -0.0666  1.2597
    2TMC2    H114316   3.768   2.227  16.986 -1.0621  0.3769 -1.3197
    2TMC2    H214317   3.871   2.022  16.620 -0.3549 -0.8241  0.6732
    2TMC2    C714318   3.672   2.141  16.743  0.1222 -0.5421  0.2301
    2TMC2    C814319   4.117   1.990  16.677 -0.1199  0.0976  0.2515
    2TMC2    O114320   3.658   2.112  16.625  0.5641  0.4541  0.6561
    2TMC2    O214321   4.095   1.904  16.592 -0.3818 -0.7255  0.2643
    2TMC2    O514322   4.231   2.054  16.704 -0.3733 -0.5514  0.1666
    2TMC2    H514323   4.219   2.140  16.749 -1.1383  0.3252 -1.6950
    3MPD1     C14324   4.234   2.300  17.536  0.3638 -0.0567 -0.1349
    3MPD1    C114325   4.260   2.171  17.489  0.2589 -0.7839  0.3988
    3MPD1    C214326   4.229   2.140  17.357  0.2185  0.0437 -0.1227
    3MPD1    C314327   4.149   2.225  17.280  0.4886 -0.8437 -0.2476
    3MPD1    C414328   4.118   2.346  17.330  1.0937  0.1331 -1.0832
    3MPD1    C514329   4.168   2.385  17.453 -0.6225  0.0113  0.0917
    3MPD1     H14330   4.249   2.039  17.323 -1.6735  0.6305 -2.9724
    3MPD1    H114331   4.054   2.419  17.280 -1.7682 -1.0453  0.8624
    3MPD1    H214332   4.260   2.325  17.638 -2.0365  1.3652  0.1227
    3MPD1    H314333   4.147   2.486  17.486 -0.5363 -0.2239  0.8699
    3MPD1     N14334   4.093   2.167  17.163  0.6140 -0.2137  0.8374
    3MPD1    H514335   4.141   2.079  17.143  2.9587  1.0469  0.9637
    3MPD1    N114336   4.332   2.082  17.572 -0.5535 -0.2770 -0.1128
    3MPD1    H614337   4.305   1.985  17.555  0.0031 -0.3038 -0.8732
    3MPD1    H714338   4.326   2.104  17.671 -1.8611  1.6249 -0.6181
    1TMC1    C114339   1.474   1.875  13.382  0.6881  0.1681  0.5222
    1TMC1    C214340   1.477   1.788  13.490 -0.1447 -0.0883 -0.2318
    1TMC1    C314341   1.366   1.768  13.561  0.5014  0.1599  0.1515
    1TMC1    C414342   1.354   1.938  13.340  0.7953 -0.8513  0.5551
    1TMC1    C514343   1.246   1.917  13.420  0.4513  0.4325 -0.1723
    1TMC1    C614344   1.248   1.834  13.534  0.1906  0.1205  0.2643
    1TMC1     C14345   1.591   1.906  13.302  0.3740 -0.1392  0.5730
    1TMC1     O14346   1.574   1.961  13.193 -0.2662  0.1071  0.4533
    1TMC1     H14347   1.573   1.744  13.516  0.5524  1.1900 -0.6174
    1TMC1    H114348   1.361   2.012  13.262 -1.5106 -0.4392  0.7683
    1TMC1    H214349   1.160   1.814  13.595 -1.6341  0.9576 -2.0970
    1TMC1    C714350   1.124   1.987  13.373  0.1124 -0.1954  0.4889
    1TMC1    C814351   1.373   1.691  13.679  0.2411  0.0125 -0.6807
    1TMC1    O114352   1.031   2.012  13.449  0.6500  0.1585  0.2027
    1TMC1    O214353   1.337   1.729  13.789 -0.1504  0.4325  0.2745
    1TMC1    O314354   1.119   1.980  13.238  0.1702 -0.2874  0.5800
    1TMC1    H314355   1.199   1.948  13.190  0.3942  1.8538 -0.4953
    1TMC1    O514356   1.469   1.600  13.653 -0.1590  0.1147 -0.7876
    1TMC1    H514357   1.491   1.593  13.557  3.9830 -0.5439  0.2116
    2MPD2     C14358   1.864   1.913  13.175 -1.1066  0.1335 -0.5324
    2MPD2    C114359   1.839   1.899  13.308  0.3913  0.5551 -0.0003
    2MPD2    C214360   1.946   1.897  13.395 -0.0150 -0.4096  0.7717
    2MPD2    C314361   2.078   1.895  13.346 -0.4146 -0.4200 -0.0455
    2MPD2    C414362   2.096   1.909  13.213 -0.2081  0.3665  0.4635
    2MPD2    C514363   1.989   1.920  13.131 -0.5300  0.1951 -0.1023
    2MPD2     H14364   1.925   1.887  13.501  0.5472 -0.5111  0.8759
    2MPD2    H114365   2.191   1.920  13.162 -0.8198 -2.6089 -1.2740
    2MPD2    H214366   1.785   1.902  13.102  0.6828  0.8783 -2.5687
    2MPD2    H314367   2.007   1.941  13.027  1.6442 -0.2027  0.1828
    2MPD2     N14368   2.186   1.879  13.434  0.1637 -0.5926  0.5909
    2MPD2    H514369   2.164   1.874  13.533  0.0502  1.0509  0.6478
    2MPD2    N114370   1.713   1.895  13.369  0.5617  0.0037  0.0597
    2MPD2    H714371   1.714   1.868  13.467 -1.4503  1.6392  0.5504
    3TCq1    O114372   2.493   2.070  13.897  0.0526  0.1762  0.0343
    3TCq1    C114373   2.380   2.042  13.835 -0.7371  0.6496  0.1900
    3TCq1    O214374   2.285   2.116  13.839 -0.2457  0.3847 -0.7761
    3TCq1    C214375   2.404   1.935  13.747  0.3379 -0.2592 -0.1281
    3TCq1    C314376   2.477   1.827  13.788 -0.3890  0.4684 -0.0911
    3TCq1    C414377   2.509   1.722  13.695  0.0427  0.2347  0.4136
    3TCq1    C514378   2.477   1.745  13.565 -0.8559 -0.2987  0.1474
    3TCq1    C614379   2.394   1.852  13.530  0.8916 -0.5572 -0.0575
    3TCq1    C714380   2.361   1.949  13.621 -0.1048  0.1446 -0.6916
    3TCq1    C814381   2.323   1.863  13.405 -0.3830 -1.0791 -0.2598
    3TCq1    O414382   2.371   1.841  13.294  0.1763 -0.1142  0.2128
    3TCq1    C914383   2.577   1.601  13.735 -0.2132 -0.3656  0.3262
    3TCq1    O514384   2.595   1.512  13.646  0.7395 -0.5503 -0.2629
    3TCq1    O614385   2.627   1.597  13.849 -0.0617  0.4015 -0.0019
    3TCq1    H114386   2.571   2.023  13.861  0.1925  0.5384 -0.1347
    3TCq1    H214387   2.516   1.811  13.888  1.1457  1.3589 -0.5338
    3TCq1    H314388   2.484   1.670  13.487 -0.8856 -0.5953  0.4306
    3TCq1    H414389   2.289   2.023  13.588 -1.4424 -1.4713 -1.3417
    1MPD2     C14390   1.919   3.400  14.719  0.1671  0.2980 -0.0372
    1MPD2    C114391   1.916   3.277  14.781  0.0745 -0.2844 -0.1046
    1MPD2    C214392   2.030   3.203  14.763 -0.3273  0.6475 -0.4281
    1MPD2    C314393   2.141   3.244  14.697 -0.5683  0.7100  0.1444
    1MPD2    C414394   2.145   3.374  14.641  0.0959  0.3893 -0.3466
    1MPD2    C514395   2.033   3.447  14.653 -0.2769 -0.3568 -0.7247
    1MPD2     H14396   2.036   3.102  14.801 -0.5884  0.8940  0.2549
    1MPD2    H114397   2.233   3.406  14.585  0.9655  0.8440  1.2836
    1MPD2    H214398   1.835   3.466  14.738  0.2908 -0.0999  1.9435
    1MPD2    H314399   2.028   3.543  14.601  0.1545 -0.1906 -0.4538
    1MPD2     N14400   2.251   3.151  14.687 -0.0909  0.3631 -0.6579
    1MPD2    H514401   2.226   3.056  14.714 -2.7528  1.0110 -0.7661
    1MPD2    N114402   1.799   3.224  14.841  0.6362  0.5697  0.4311
    1MPD2    H714403   1.715   3.280  14.827  0.0729 -1.0114 -2.5873
    2TMC3    C114404   1.676   3.075  14.992  0.0063 -0.0101  0.6659
    2TMC3    C214405   1.693   2.953  15.055 -0.3120  0.3912  0.0303
    2TMC3    C314406   1.590   2.859  15.045  0.0721 -0.8786 -0.5195
    2TMC3    C414407   1.559   3.111  14.923  0.0923  0.4775  0.1870
    2TMC3    C514408   1.462   3.011  14.923 -0.3508 -0.2198  0.2435
    2TMC3    C614409   1.471   2.888  14.985  0.8211 -0.1055  0.0122
    2TMC3     C14410   1.803   3.113  14.925 -0.5409 -0.0879 -0.8936
    2TMC3     O14411   1.895   3.039  14.955 -0.7001 -0.0461  0.0053
    2TMC3     H14412   1.774   2.936  15.125 -1.7821 -1.9101  1.1818
    2TMC3    H114413   1.550   3.205  14.870 -3.7499 -0.3330 -0.5825
    2TMC3    H214414   1.395   2.814  14.965  0.2077  0.8211 -1.0825
    2TMC3    C714415   1.326   3.058  14.922  0.0700 -0.3718 -0.4101
    2TMC3    C814416   1.641   2.730  15.022  0.2404  0.0170  0.1783
    2TMC3    O114417   1.231   2.976  14.905 -0.3537 -0.1748  0.0161
    2TMC3    O214418   1.565   2.634  15.031 -0.5756  0.4064 -0.6070
    3TCq1    O114419   1.452   4.143  14.953  0.5915  0.0214 -0.0506
    3TCq1    C114420   1.397   4.054  15.037 -0.3252 -0.3367  0.4558
    3TCq1    O214421   1.444   3.985  15.123 -0.1734  0.2798 -0.5221
    3TCq1    C214422   1.269   4.035  14.982  0.0915  0.4150  0.1357
    3TCq1    C314423   1.205   4.136  14.919 -0.4842 -0.2825 -0.4832
    3TCq1    C414424   1.100   4.098  14.839 -0.1049 -0.6403 -0.2862
    3TCq1    C514425   1.048   3.975  14.834 -0.4899 -0.2308  0.8837
    3TCq1    C614426   1.106   3.877  14.909  0.1005 -0.2400  0.2371
    3TCq1    C714427   1.224   3.906  14.985  0.9489 -0.1735  0.7827
    3TCq1    C814428   1.048   3.743  14.906 -0.2626 -0.5298 -0.0840
    3TCq1    O414429   0.938   3.730  14.857  0.2179 -0.0060  0.7586
    3TCq1    C914430   1.048   4.202  14.753 -0.1431 -0.5958  0.6025
    3TCq1    O514431   0.930   4.184  14.713 -0.3552 -0.6960 -0.1421
    3TCq1    O614432   1.127   4.286  14.717  0.0779 -0.4563  0.0422
    3TCq1    H114433   1.400   4.183  14.880 -0.2829 -3.2247 -1.2149
    3TCq1    H214434   1.228   4.241  14.933 -4.2949  0.6792 -1.4586
    3TCq1    H314435   0.966   3.952  14.767  0.0099  2.2907 -0.5899
    3TCq1    H414436   1.251   3.838  15.065  2.3232  0.3370  0.7423
    4MPD2     C14437   0.993   3.450  14.895 -0.3425 -0.3350  0.2124
    4MPD2    C114438   1.116   3.501  14.933  0.5849 -0.9051 -0.2253
    4MPD2    C214439   1.219   3.410  14.961  0.2783 -0.0028  0.0885
    4MPD2    C314440   1.206   3.278  14.936  0.0725 -0.0575 -0.3075
    4MPD2    C414441   1.084   3.228  14.890 -0.0708  0.3014  0.0617
    4MPD2    C514442   0.978   3.314  14.879 -0.2735  0.9937  0.3593
    4MPD2     H14443   1.313   3.444  15.002  1.0589 -0.0682 -1.6460
    4MPD2    H114444   1.068   3.127  14.853  0.3944  0.5421 -0.7855
    4MPD2    H214445   0.901   3.506  14.882  0.9638  1.4180 -1.4050
    4MPD2    H314446   0.888   3.265  14.842  2.4110 -1.1421 -3.3075
    4MPD2     N14447   1.323   3.198  14.944 -0.2667 -0.0307 -0.4650
    4MPD2    H514448   1.407   3.238  14.985 -0.5003 -0.3236  0.2981
    4MPD2    N114449   1.138   3.645  14.945  0.7197 -0.7062  0.5008
    4MPD2    H714450   1.229   3.677  14.976  0.6158 -0.7884  0.8973
    5TMC2    C114451   2.351   2.820  14.680 -0.4148 -0.6280  0.7682
    5TMC2    C214452   2.461   2.805  14.756  0.1203 -0.2187 -0.1154
    5TMC2    C314453   2.563   2.894  14.744  0.1859  0.5717  0.6562
    5TMC2    C414454   2.340   2.944  14.611  0.3861 -0.9514  0.0977
    5TMC2    C514455   2.436   3.039  14.603  0.6813  0.5714  0.2101
    5TMC2    C614456   2.553   3.013  14.672  0.1177 -0.2118  0.2858
    5TMC2     C14457   2.226   2.800  14.739  0.2151 -0.2893 -0.1012
    5TMC2     O14458   2.170   2.902  14.780 -0.2814  0.0257 -0.1013
    5TMC2     H14459   2.476   2.715  14.815  0.9271  2.0445  3.1231
    5TMC2    H114460   2.242   2.958  14.568  0.3383 -1.6919 -0.0377
    5TMC2    H214461   2.623   3.095  14.684 -0.4524  0.1402  1.1931
    5TMC2    C714462   2.374   3.167  14.620 -0.3532 -0.3715 -0.1603
    5TMC2    C814463   2.671   2.868  14.836 -0.1038  0.2818 -0.1203
    5TMC2    O114464   2.430   3.267  14.579 -0.2012  0.5875  0.1474
    5TMC2    O214465   2.664   2.779  14.918 -0.0171  0.2177 -0.6143
    5TMC2    O514466   2.790   2.932  14.807 -0.6599 -0.3104  0.1859
    5TMC2    H514467   2.807   2.979  14.722 -0.3788 -2.4627 -0.9632
    6MPD2     C14468   1.827   2.515  14.896  0.4118 -0.5582  0.3776
    6MPD2    C114469   1.859   2.650  14.913 -0.6388 -0.2440  0.0285
    6MPD2    C214470   1.976   2.703  14.862 -0.2679 -0.1140 -0.0710
    6MPD2    C314471   2.067   2.619  14.802  0.7858  0.1651  0.2146
    6MPD2    C414472   2.037   2.488  14.782  0.2529  0.6657  0.2607
    6MPD2    C514473   1.915   2.439  14.825  0.0585  0.3141  0.0797
    6MPD2     H14474   1.995   2.809  14.872 -1.3033 -0.2822  3.8300
    6MPD2    H114475   2.104   2.417  14.735 -0.8436 -1.0269  1.2527
    6MPD2    H214476   1.745   2.478  14.957 -1.7373  0.9270 -1.5905
    6MPD2    H314477   1.895   2.335  14.803 -1.3338  0.7121 -0.5177
    6MPD2     N14478   2.194   2.665  14.751  0.0713 -0.0488  0.4588
    6MPD2    H514479   2.260   2.591  14.728  0.0497 -0.1873  0.8411
    6MPD2    N114480   1.773   2.741  14.984  0.0601 -0.1662  0.3809
    6MPD2    H714481   1.813   2.834  14.977  0.2274 -0.2420  0.3288
  945NH3     N114482   1.500   3.137   0.961 -0.4315  0.1895  0.1996
  945NH3     H214483   1.493   3.064   1.032 -0.8193 -0.6910 -0.7456
  945NH3     H314484   1.525   3.077   0.883 -3.0609 -0.3781 -0.1944
  945NH3     H414485   1.406   3.171   0.942 -0.8294 -0.4853  0.9685
  946SOD     NA14486   4.557   4.143  15.764  0.3139 -0.4275  0.0088
  947SOD     NA14487   1.430   1.348  11.378  0.2645 -0.1295 -0.5647
  948SOD     NA14488   0.520   4.147   6.996 -0.0317 -0.2356 -0.0807
  949SOD     NA14489   0.688   3.141  11.183 -0.0604  0.6267 -0.0947
  950SOD     NA14490   0.472   1.542  10.162  0.3536  0.2167  0.0725
  951SOD     NA14491   4.236   1.052  14.534 -0.3507 -0.2315  0.2901
  952SOD     NA14492   0.437   1.656  13.976  0.3144 -0.2510  0.1335
  953SOD     NA14493   2.740   0.370  16.521 -0.1699  0.6803 -0.2799
  954SOL     OW14494   1.094   4.129  12.768  0.1024 -0.0537 -0.7770
  954SOL    HW114495   1.158   4.194  12.797 -0.3338  0.5266 -1.1240
  954SOL    HW214496   1.140   4.081  12.699  1.2465 -0.1345  0.0337
  955SOL     OW14497   4.393   4.723   9.146 -0.0185 -0.2899 -0.5790
  955SOL    HW114498   4.374   0.033   9.063 -2.4142 -1.5633 -0.7405
  955SOL    HW214499   4.482   4.690   9.139  0.4653  0.7424  0.7060
  956SOL     OW14500   0.047   3.802  15.990 -0.1849 -0.5988  0.1639
  956SOL    HW114501   0.130   3.848  16.005 -0.6524 -0.1841  1.4854
  956SOL    HW214502   4.731   3.882  15.974 -0.6913 -0.4735  2.4569
  957SOL     OW14503   3.979   3.665  11.209 -0.0804 -0.3171 -0.1505
  957SOL    HW114504   3.911   3.713  11.162 -0.3644 -0.3199  0.2588
  957SOL    HW214505   4.061   3.710  11.190 -0.8645  1.5727  0.9403
  958SOL     OW14506   1.068   0.305   6.768  0.0856 -0.0317 -0.0786
  958SOL    HW114507   1.158   0.312   6.799 -0.1878  1.6932  0.3429
  958SOL    HW214508   1.019   0.372   6.817 -0.3716  0.1146 -0.7388
  959SOL     OW14509   3.810   0.277   1.719  0.6586  0.6837 -0.3130
  959SOL    HW114510   3.874   0.276   1.647 -0.8208 -1.5753 -1.5890
  959SOL    HW214511   3.805   0.182   1.732 -0.1589  0.7963  0.1531
  960SOL     OW14512   1.437   1.827   6.968  0.3247  0.0101  0.1290
  960SOL    HW114513   1.401   1.916   6.958 -2.0008 -1.0106 -0.5855
  960SOL    HW214514   1.514   1.842   6.912  0.9145  0.3897  1.0505
  961SOL     OW14515   3.131   3.999  15.236 -0.5068  0.6478  0.1698
  961SOL    HW114516   3.118   3.911  15.273 -0.7116  0.5688 -0.0892
  961SOL    HW214517   3.177   3.973  15.156  0.3085  2.0090  0.2096
  962SOL     OW14518   1.862   0.781  16.080 -0.3077  0.6023  0.4133
  962SOL    HW114519   1.900   0.802  15.995 -1.2293 -1.5922 -0.5573
  962SOL    HW214520   1.772   0.796  16.050 -1.1432 -1.5783  1.7804
  963SOL     OW14521   3.356   0.207  11.108 -0.2159  0.0006 -0.0381
  963SOL    HW114522   3.267   0.237  11.127  0.4647  1.0965  1.3946
  963SOL    HW214523   3.406   0.289  11.117 -0.9381  0.4674 -0.3325
  964SOL     OW14524   0.998   1.913  15.832  0.1661 -0.1302 -0.5811
  964SOL    HW114525   0.990   1.818  15.823  1.6003 -0.2429 -0.6250
  964SOL    HW214526   0.923   1.947  15.784 -0.6972  0.3597  1.1199
  965SOL     OW14527   3.637   3.782   9.990 -0.5249 -0.6181  0.0654
  965SOL    HW114528   3.731   3.801   9.987 -0.6882  0.0277 -0.8342
  965SOL    HW214529   3.622   3.811  10.080  1.2005 -2.9114  1.1090
  966SOL     OW14530   3.766   4.290   7.033  0.4240 -0.0603  0.4344
  966SOL    HW114531   3.675   4.319   7.037  0.2603 -0.5535  0.2071
  966SOL    HW214532   3.818   4.370   7.042 -0.3270  0.0898  3.5237
  967SOL     OW14533   3.389   0.276   0.546 -0.0187  0.3873  1.0026
  967SOL    HW114534   3.414   0.264   0.454  0.8914 -2.5271  1.6154
  967SOL    HW214535   3.294   0.268   0.540 -0.1020  0.9535  1.6496
  968SOL     OW14536   4.697   2.234  16.192  0.7152 -0.3172  0.3197
  968SOL    HW114537   4.718   2.312  16.140  0.7229  0.5452  1.6230
  968SOL    HW214538   4.661   2.176  16.125 -0.0056  2.0174 -1.3302
  969SOL     OW14539   0.277   0.012  10.543 -0.7594 -0.2502 -0.4855
  969SOL    HW114540   0.249   0.030  10.633  0.6470 -2.0000  0.3110
  969SOL    HW214541   0.354   0.070  10.538  0.1878 -1.3109  1.4897
  970SOL     OW14542   3.826   4.196   3.012  0.0689 -0.0199 -0.2593
  970SOL    HW114543   3.847   4.187   2.919  2.1872 -1.8591  0.4256
  970SOL    HW214544   3.844   4.107   3.039 -0.3940 -0.5293 -1.6065
  971SOL     OW14545   0.822   3.903   2.627 -0.1136 -0.5804  0.4336
  971SOL    HW114546   0.753   3.969   2.621 -0.9714 -1.3045  2.2729
  971SOL    HW214547   0.829   3.900   2.532  1.0067  0.3302  0.4799
  972SOL     OW14548   1.803   2.971   6.973 -0.1279 -0.3036 -0.7093
  972SOL    HW114549   1.799   3.024   7.052 -0.1083 -0.1799 -0.7913
  972SOL    HW214550   1.853   2.892   6.998 -0.6064 -1.3666 -3.1176
  973SOL     OW14551   3.177   1.914  17.111  0.6006 -0.0218 -0.3807
  973SOL    HW114552   3.142   1.834  17.148  0.2267  0.2460 -0.1600
  973SOL    HW214553   3.146   1.914  17.021 -2.6096 -1.7395  0.7384
  974SOL     OW14554   2.996   1.225   4.461  0.1836  0.0402 -0.0904
  974SOL    HW114555   3.015   1.162   4.530  2.4756  1.5365  0.6553
  974SOL    HW214556   3.056   1.191   4.396  1.4901  0.8075  0.7054
  975SOL     OW14557   3.718   2.619   4.295  0.3218 -0.3091 -0.2146
  975SOL    HW114558   3.689   2.615   4.386  1.4294  0.3720  0.1733
  975SOL    HW214559   3.633   2.647   4.260 -0.2574 -0.5709  0.9679
  976SOL     OW14560   3.694   2.513   6.994  0.3426  0.0910 -0.4751
  976SOL    HW114561   3.708   2.485   7.085 -2.4847  1.1999  0.2880
  976SOL    HW214562   3.735   2.444   6.942  1.3896  2.9331 -3.4391
  977SOL     OW14563   3.001   4.584  17.606 -0.2965  0.2679  0.4149
  977SOL    HW114564   2.943   4.637  17.551 -0.1880  0.5075  0.5292
  977SOL    HW214565   2.952   4.503  17.615 -0.8346  0.4332 -0.9882
  978SOL     OW14566   3.798   4.492   0.816  0.0057 -0.4619 -0.3265
  978SOL    HW114567   3.788   4.412   0.765  1.2714  0.0411 -1.3578
  978SOL    HW214568   3.889   4.483   0.845  0.8956  1.4786 -2.5836
  979SOL     OW14569   1.512   3.720  11.200 -0.0059 -0.2702  0.4329
  979SOL    HW114570   1.590   3.665  11.211  0.9249  0.9315 -0.0000
  979SOL    HW214571   1.443   3.655  11.196  0.2463 -0.4869 -0.4745
  980SOL     OW14572   1.711   3.703   7.624 -0.7496 -0.2745 -0.3456
  980SOL    HW114573   1.670   3.733   7.543 -1.0454 -2.3989 -0.9849
  980SOL    HW214574   1.692   3.777   7.681 -0.8794  0.7101 -1.6589
  981SOL     OW14575   4.129   3.182   7.857  0.3961  0.5118 -0.0384
  981SOL    HW114576   4.060   3.118   7.871 -1.9035  2.9601 -0.1817
  981SOL    HW214577   4.090   3.239   7.923 -0.0840 -1.4394  1.3488
  982SOL     OW14578   3.832   2.585  16.351  0.1216 -0.2252 -0.4899
  982SOL    HW114579   3.903   2.649  16.343 -0.1797  0.3040  1.0770
  982SOL    HW214580   3.859   2.539  16.430  1.3298  0.5887 -0.4287
  983SOL     OW14581   4.149   1.543   4.066 -0.3453 -0.2535 -0.3808
  983SOL    HW114582   4.159   1.462   4.116 -0.2794 -0.6223 -0.9771
  983SOL    HW214583   4.095   1.588   4.130 -1.4901  0.0915 -1.5844
  984SOL     OW14584   0.448   3.411   0.547 -0.1464  0.3468 -0.1939
  984SOL    HW114585   0.415   3.416   0.637  1.9840  1.9971  0.4910
  984SOL    HW214586   0.508   3.337   0.557 -2.1695 -1.4611 -1.4614
  985SOL     OW14587   3.666   2.657  13.974  0.5191 -0.3198 -0.0688
  985SOL    HW114588   3.665   2.750  13.949  1.2701 -0.2323  0.2173
  985SOL    HW214589   3.722   2.623  13.905  0.1042  0.0539 -0.5948
  986SOL     OW14590   3.391   3.475   6.074  0.0347 -0.1783 -0.0239
  986SOL    HW114591   3.331   3.473   6.000 -0.8276 -0.4980  0.6748
  986SOL    HW214592   3.392   3.381   6.094  0.6541 -0.4717 -1.4878
  987SOL     OW14593   1.339   0.405   8.257 -0.1908  0.0388  0.5725
  987SOL    HW114594   1.275   0.445   8.315 -2.3811 -0.6434 -1.3848
  987SOL    HW214595   1.347   0.469   8.186 -2.6584 -0.5413 -0.2357
  988SOL     OW14596   2.458   0.861   5.790 -0.6540 -0.2150 -0.0244
  988SOL    HW114597   2.530   0.924   5.791 -0.9596  0.1114  1.6500
  988SOL    HW214598   2.442   0.832   5.880 -0.3171  0.4904  0.2608
  989SOL     OW14599   0.628   3.801   6.493 -0.5917  0.2170 -0.2766
  989SOL    HW114600   0.697   3.745   6.459  0.0537  1.7287 -1.4895
  989SOL    HW214601   0.640   3.879   6.438 -0.7032  0.2696 -0.2283
  990SOL     OW14602   3.494   0.883  13.217 -0.0923  0.0950  0.3045
  990SOL    HW114603   3.581   0.920  13.201  0.6383 -0.3661  3.1390
  990SOL    HW214604   3.448   0.899  13.135 -0.1215 -3.4401 -0.3859
  991SOL     OW14605   3.331   2.036   6.131  0.3622  0.2675  0.0561
  991SOL    HW114606   3.323   2.114   6.186 -2.1263  0.3652 -0.4522
  991SOL    HW214607   3.306   1.967   6.192  3.5288 -2.1872 -1.4266
  992SOL     OW14608   4.316   0.832   0.908 -0.0258  0.2332 -0.5083
  992SOL    HW114609   4.347   0.874   0.828  1.1834 -4.4699 -2.5116
  992SOL    HW214610   4.319   0.740   0.881 -0.9065  0.2438 -0.6392
  993SOL     OW14611   2.562   1.351   3.165 -0.1970 -0.5135  0.3676
  993SOL    HW114612   2.476   1.345   3.207  0.5158  2.2623  2.2426
  993SOL    HW214613   2.589   1.265   3.197  3.8675  0.7224  0.2725
  994SOL     OW14614   1.816   3.489  17.117 -0.2215  0.1222  0.1472
  994SOL    HW114615   1.909   3.505  17.100 -0.2511  0.6219  0.4523
  994SOL    HW214616   1.802   3.543  17.195 -0.2097 -0.7702  0.7608
  995SOL     OW14617   4.334   2.874   3.504  0.1434 -0.5338 -0.1742
  995SOL    HW114618   4.380   2.855   3.423  0.8162  0.3395 -0.0023
  995SOL    HW214619   4.293   2.958   3.480  0.7204 -0.9486 -2.5776
  996SOL     OW14620   3.386   1.923   5.369  0.3345 -0.1628  0.4831
  996SOL    HW114621   3.410   1.968   5.450 -2.5212 -0.4221  1.4904
  996SOL    HW214622   3.472   1.887   5.347 -0.8468 -0.8337 -3.0417
  997SOL     OW14623   0.318   3.300   5.330  0.4706 -0.1802 -0.2352
  997SOL    HW114624   0.374   3.377   5.335 -0.6043  0.6323 -0.6245
  997SOL    HW214625   0.297   3.292   5.423 -0.3010  0.6457 -0.3421
  998SOL     OW14626   4.362   3.354  13.501  0.0677  0.4738  0.2233
  998SOL    HW114627   4.274   3.365  13.538 -0.0585 -0.1097  0.0931
  998SOL    HW214628   4.354   3.266  13.466  2.2670  0.3313  0.1090
  999SOL     OW14629   3.139   2.654  10.953  0.0581  0.0460  0.6049
  999SOL    HW114630   3.194   2.685  11.025  1.0261 -0.8030  0.2263
  999SOL    HW214631   3.206   2.621  10.894  0.2773 -0.6287  1.2417
 1000SOL     OW14632   1.592   0.801   2.756 -0.0951  0.4503  0.4447
 1000SOL    HW114633   1.521   0.744   2.784 -1.2512 -0.1644 -3.7530
 1000SOL    HW214634   1.664   0.743   2.731 -3.0298 -2.2525 -1.6964
 1001SOL     OW14635   1.125   1.845   8.204  0.2525 -0.1236 -0.7193
 1001SOL    HW114636   1.043   1.893   8.195 -1.0523 -2.3188 -0.3945
 1001SOL    HW214637   1.143   1.850   8.298 -1.1178  1.6223 -0.5395
 1002SOL     OW14638   2.327   3.166   0.719 -0.4782 -0.5992  0.4042
 1002SOL    HW114639   2.270   3.090   0.729  0.3265 -1.4580 -1.5205
 1002SOL    HW214640   2.264   3.232   0.692  0.7332 -0.1181 -1.2482
 1003SOL     OW14641   4.167   4.338   4.598  0.2893  0.5253 -0.5740
 1003SOL    HW114642   4.165   4.275   4.527 -0.6734  0.3293 -0.3664
 1003SOL    HW214643   4.253   4.377   4.583  0.9747 -0.9826 -0.5936
 1004SOL     OW14644   0.440   3.974   8.615 -0.4016  0.0537 -0.1948
 1004SOL    HW114645   0.504   3.904   8.626 -1.2212 -0.7705 -0.6866
 1004SOL    HW214646   0.408   3.951   8.528  0.2657  0.5789 -0.5741
 1005SOL     OW14647   1.495   3.927   7.368 -0.2195 -0.4113 -0.3430
 1005SOL    HW114648   1.561   3.945   7.302 -2.5224 -0.5524 -2.6854
 1005SOL    HW214649   1.481   3.832   7.365 -0.2917 -0.3846 -0.8647
 1006SOL     OW14650   3.365   2.437   6.267  0.6158  0.2115 -0.3330
 1006SOL    HW114651   3.350   2.357   6.317  2.4035  1.2061  1.8101
 1006SOL    HW214652   3.407   2.491   6.334  3.0580  1.6501 -3.0260
 1007SOL     OW14653   3.099   1.429   8.032  0.0251 -0.0361 -0.3653
 1007SOL    HW114654   3.086   1.390   7.945  0.5142 -3.0744  0.9139
 1007SOL    HW214655   3.178   1.481   8.019  0.2228 -0.0568  0.7798
 1008SOL     OW14656   3.197   0.445   3.691 -0.4878  0.3044  0.0952
 1008SOL    HW114657   3.111   0.477   3.719 -0.6481  0.8513 -1.0297
 1008SOL    HW214658   3.191   0.365   3.743 -1.6211  1.3207  1.5207
 1009SOL     OW14659   1.642   3.681   5.039 -1.1489  0.3290 -0.2513
 1009SOL    HW114660   1.652   3.662   5.133 -0.1307  0.1809 -0.3881
 1009SOL    HW214661   1.572   3.619   5.022 -1.7690  1.1879 -0.7904
 1010SOL     OW14662   1.887   4.403  13.731 -0.2313 -0.4464 -0.1856
 1010SOL    HW114663   1.907   4.465  13.801 -1.0046 -0.5666  0.1339
 1010SOL    HW214664   1.884   4.326  13.786 -2.5601  1.0908  1.8062
 1011SOL     OW14665   2.961   1.205  17.493  0.4503 -0.1259  0.3321
 1011SOL    HW114666   2.951   1.183  17.586  2.7396  2.4900  1.1947
 1011SOL    HW214667   2.916   1.130  17.455  0.3691 -0.0751  0.3260
 1012SOL     OW14668   0.812   4.227  12.127 -0.0266  0.4146  0.1299
 1012SOL    HW114669   0.783   4.150  12.176 -1.1388  0.8074  0.0778
 1012SOL    HW214670   0.754   4.220  12.051  0.7701  0.4428 -0.4858
 1013SOL     OW14671   2.258   2.639   1.548 -0.0776 -0.0107  0.0131
 1013SOL    HW114672   2.262   2.552   1.509 -0.4935 -0.2622  0.5253
 1013SOL    HW214673   2.193   2.630   1.618 -0.8778 -2.4784 -1.0357
 1014SOL     OW14674   3.609   0.427   7.204 -0.4520  0.0060  0.4072
 1014SOL    HW114675   3.537   0.404   7.145  0.3594 -0.7689 -0.2849
 1014SOL    HW214676   3.673   0.359   7.185 -2.8781 -1.7244 -1.4787
 1015SOL     OW14677   1.574   4.403   6.685  0.0963 -0.3991 -0.4626
 1015SOL    HW114678   1.580   4.479   6.627  1.2388 -1.0996 -1.2705
 1015SOL    HW214679   1.479   4.392   6.683 -0.0690  1.1849 -0.8566
 1016SOL     OW14680   1.082   1.475   9.388  0.5504 -0.2631 -0.3615
 1016SOL    HW114681   1.054   1.437   9.305  0.0213  2.7398 -1.5524
 1016SOL    HW214682   1.008   1.529   9.415  0.4808 -0.3775 -0.3222
 1017SOL     OW14683   2.530   3.086  12.098  0.0334 -0.3751 -0.3592
 1017SOL    HW114684   2.517   3.066  12.005 -2.4668  0.1174 -0.1207
 1017SOL    HW214685   2.440   3.112  12.118  0.8266  1.0619  1.2929
 1018SOL     OW14686   1.657   1.896   6.793 -0.3602  0.2152 -0.0759
 1018SOL    HW114687   1.710   1.946   6.854  0.3918 -0.1430 -0.4399
 1018SOL    HW214688   1.707   1.825   6.754 -0.2137  0.7083 -0.7986
 1019SOL     OW14689   3.246   3.511   8.104 -0.0450  0.4272  0.1599
 1019SOL    HW114690   3.252   3.606   8.113 -0.8501  0.6374 -1.4160
 1019SOL    HW214691   3.237   3.511   8.008  0.3073  3.2456  0.1240
 1020SOL     OW14692   3.266   1.536   1.909  0.0943  0.2716  0.4007
 1020SOL    HW114693   3.337   1.568   1.964  0.2623  0.5552  0.0158
 1020SOL    HW214694   3.313   1.464   1.868 -1.5756  0.4372 -1.8455
 1021SOL     OW14695   2.777   0.820   1.537  0.0856  0.2262 -0.0707
 1021SOL    HW114696   2.693   0.798   1.577 -0.5987 -0.2429 -1.7585
 1021SOL    HW214697   2.749   0.898   1.488  0.9171  0.2256 -0.5620
 1022SOL     OW14698   0.513   3.737  11.975  0.3191  0.3857 -0.2001
 1022SOL    HW114699   0.515   3.749  11.880 -0.5477 -0.5784 -0.3438
 1022SOL    HW214700   0.570   3.664  11.997  0.3670  0.2655 -0.7377
 1023SOL     OW14701   1.720   0.463   5.247  0.2366 -0.2325  0.3603
 1023SOL    HW114702   1.730   0.482   5.154  1.2897  2.5089  1.0075
 1023SOL    HW214703   1.808   0.458   5.283  0.0483  0.0669  0.8694
 1024SOL     OW14704   2.681   0.747   6.787 -0.1746 -0.2604  0.1324
 1024SOL    HW114705   2.720   0.716   6.705 -1.0014  3.0536 -1.5375
 1024SOL    HW214706   2.588   0.755   6.765 -0.3385 -3.0855 -0.1788
 1025SOL     OW14707   1.647   0.144  12.168 -0.0634 -0.2840  0.0837
 1025SOL    HW114708   1.608   0.179  12.088 -0.6351  0.8259  0.8500
 1025SOL    HW214709   1.618   0.052  12.169  0.8174 -0.5654  0.4760
 1026SOL     OW14710   0.864   1.625   2.496 -0.2849 -0.3418  0.7965
 1026SOL    HW114711   0.924   1.567   2.448 -2.5533 -1.9349 -0.1212
 1026SOL    HW214712   0.806   1.558   2.531 -0.1256 -0.9211 -0.0411
 1027SOL     OW14713   3.741   2.956   4.576  0.0651 -0.4343 -0.2405
 1027SOL    HW114714   3.795   2.908   4.513 -1.9142 -0.3733 -2.0142
 1027SOL    HW214715   3.719   3.035   4.527 -1.7687 -1.0117 -0.3667
 1028SOL     OW14716   2.145   3.089   3.087 -0.7639 -0.3506  0.0881
 1028SOL    HW114717   2.125   3.158   3.024  0.0847 -1.1189 -1.0082
 1028SOL    HW214718   2.058   3.084   3.128 -0.8150 -1.4474 -0.1405
 1029SOL     OW14719   0.770   3.543   6.414  0.6199 -0.0772 -0.1087
 1029SOL    HW114720   0.770   3.496   6.331  0.3974 -0.2605 -0.0055
 1029SOL    HW214721   0.794   3.477   6.479  1.1817 -0.8896 -1.1475
 1030SOL     OW14722   4.624   4.551   7.564  0.3106  0.1191 -0.0460
 1030SOL    HW114723   4.550   4.490   7.561 -1.0002  1.5807  2.0564
 1030SOL    HW214724   4.686   4.482   7.587  0.5506 -0.1285 -1.4720
 1031SOL     OW14725   4.067   3.797   6.153  0.3527 -0.4198 -0.5390
 1031SOL    HW114726   4.097   3.707   6.144 -0.7602 -0.7150 -1.3641
 1031SOL    HW214727   4.000   3.793   6.084 -0.0792 -0.8584 -0.0923
 1032SOL     OW14728   3.495   1.863  12.878  0.5093 -0.0130  0.6245
 1032SOL    HW114729   3.433   1.933  12.858 -1.3807 -1.9325 -0.2059
 1032SOL    HW214730   3.446   1.807  12.937 -1.6402  0.5424 -0.6600
 1033SOL     OW14731   0.809   4.685   3.742 -0.4580 -0.2087 -0.4122
 1033SOL    HW114732   0.757   4.657   3.817  1.2223 -0.8537  0.5281
 1033SOL    HW214733   0.815   0.044   3.751 -0.9109 -0.1021 -1.2094
 1034SOL     OW14734   1.960   3.515   3.856 -0.1534 -0.4631  0.6015
 1034SOL    HW114735   1.896   3.573   3.816  0.4782 -0.8024 -0.9275
 1034SOL    HW214736   2.045   3.559   3.849  1.0424 -2.7090  0.8161
 1035SOL     OW14737   1.231   2.382   9.024 -0.2761 -0.4026 -0.6944
 1035SOL    HW114738   1.265   2.293   9.038 -1.7793 -1.0397 -1.0747
 1035SOL    HW214739   1.312   2.432   9.027 -0.7587  0.2468  1.2587
 1036SOL     OW14740   4.072   3.875   2.041 -0.3866  0.2774  0.4420
 1036SOL    HW114741   4.098   3.931   1.967 -1.8147  0.9657  0.4544
 1036SOL    HW214742   4.130   3.801   2.026  0.7135  1.4501 -1.0998
 1037SOL     OW14743   0.337   3.979   5.018  0.0761 -0.1660  0.3187
 1037SOL    HW114744   0.249   3.998   5.050  0.6484  0.5115  1.5015
 1037SOL    HW214745   0.317   3.895   4.976  0.1601  1.8974 -3.7384
 1038SOL     OW14746   3.783   4.453   8.019  0.1857  0.0814 -0.2400
 1038SOL    HW114747   3.859   4.431   8.073 -0.0926 -0.4500 -0.0673
 1038SOL    HW214748   3.738   4.524   8.065 -1.8906 -1.3737 -0.0081
 1039SOL     OW14749   3.375   2.856   5.502 -0.0604 -0.0555 -0.0866
 1039SOL    HW114750   3.329   2.873   5.584 -1.0042 -1.0577 -0.4140
 1039SOL    HW214751   3.336   2.771   5.481 -1.3171 -0.0177  2.0601
 1040SOL     OW14752   0.739   0.246   6.093  0.2266  0.0701  0.1039
 1040SOL    HW114753   0.683   0.209   6.161 -0.6514  1.1437 -0.0416
 1040SOL    HW214754   0.699   0.207   6.015  0.9721 -0.7775  0.1413
 1041SOL     OW14755   4.006   0.036  17.046  0.5163 -0.5482  0.0571
 1041SOL    HW114756   3.925   4.736  17.082  1.3974 -0.4834  2.0604
 1041SOL    HW214757   3.988   0.011  16.955  1.9415 -0.7271 -0.1762
 1042SOL     OW14758   2.166   0.717   8.667  0.0787 -0.1309  0.2975
 1042SOL    HW114759   2.104   0.773   8.618 -2.3580 -0.4788  2.9763
 1042SOL    HW214760   2.135   0.731   8.757  0.7427  0.5037  0.4285
 1043SOL     OW14761   3.090   0.668   4.829  0.4823  0.6185 -0.0100
 1043SOL    HW114762   3.076   0.585   4.785  1.4168  0.7766 -0.5892
 1043SOL    HW214763   3.019   0.727   4.801  0.0469  0.3807  0.5766
 1044SOL     OW14764   1.561   3.052   7.637 -0.9004 -0.2872 -0.2187
 1044SOL    HW114765   1.602   3.125   7.685 -3.9131  0.3545  1.3438
 1044SOL    HW214766   1.566   3.083   7.547  0.5317 -0.0088 -0.0562
 1045SOL     OW14767   2.545   4.531   4.877  0.0245 -0.4649 -0.3839
 1045SOL    HW114768   2.536   4.485   4.794 -1.0929 -0.6492 -0.1704
 1045SOL    HW214769   2.559   4.454   4.933  1.2981  0.9909  1.2980
 1046SOL     OW14770   4.059   0.356   6.352  0.4662 -0.1625 -0.2547
 1046SOL    HW114771   4.115   0.279   6.364  1.6823  1.2334  2.8623
 1046SOL    HW214772   4.102   0.421   6.407 -0.2167  0.1945 -0.1374
 1047SOL     OW14773   3.735   1.343   2.271  0.1127 -0.1957  0.2409
 1047SOL    HW114774   3.799   1.373   2.206 -2.5433  0.8958 -1.8382
 1047SOL    HW214775   3.656   1.387   2.240  0.6455  1.9311  1.8593
 1048SOL     OW14776   1.630   1.064  13.051 -0.1577 -0.1374 -0.0623
 1048SOL    HW114777   1.593   0.980  13.024 -1.4882  0.2506  0.5353
 1048SOL    HW214778   1.691   1.041  13.121  0.0704  1.0041  0.1096
 1049SOL     OW14779   1.675   3.459   7.297 -0.0717 -0.5104  0.4807
 1049SOL    HW114780   1.762   3.423   7.313  0.4731 -0.1319 -1.6929
 1049SOL    HW214781   1.632   3.389   7.248 -1.6677 -1.2180  2.8823
 1050SOL     OW14782   0.686   0.351   6.465  0.1740  0.1631 -0.3000
 1050SOL    HW114783   0.737   0.280   6.425  0.0959 -0.4162  0.6196
 1050SOL    HW214784   0.748   0.370   6.536 -1.6878 -1.8332  1.8661
 1051SOL     OW14785   2.553   0.603  13.751 -0.3672 -0.5707 -0.0450
 1051SOL    HW114786   2.623   0.666  13.759 -0.0543 -1.1701  1.7809
 1051SOL    HW214787   2.542   0.587  13.657 -1.3769  0.5211 -0.1103
 1052SOL     OW14788   3.806   0.684  16.737  0.1557 -0.6463  0.3228
 1052SOL    HW114789   3.744   0.632  16.685 -1.3767  1.9101 -0.3975
 1052SOL    HW214790   3.821   0.749  16.668  1.6122 -0.0813  1.1707
 1053SOL     OW14791   1.283   2.018   2.834 -0.3329 -0.0404  0.2613
 1053SOL    HW114792   1.267   2.111   2.853 -2.7692 -0.5310  0.5564
 1053SOL    HW214793   1.352   2.024   2.767 -0.5724  0.9743  0.1017
 1054SOL     OW14794   3.471   3.177   4.711  0.0184 -0.4441  0.4448
 1054SOL    HW114795   3.420   3.108   4.753 -2.9981  1.0171 -0.8360
 1054SOL    HW214796   3.408   3.246   4.731 -0.2467 -0.8922  1.1395
 1055SOL     OW14797   1.989   4.735   9.030  0.0856 -0.0653 -0.1173
 1055SOL    HW114798   2.043   4.710   8.955 -0.6942 -0.0871 -0.6807
 1055SOL    HW214799   2.054   0.032   9.091 -0.0941  1.9067 -1.0001
 1056SOL     OW14800   0.254   1.809   2.865  0.3826 -0.1035  0.0179
 1056SOL    HW114801   0.275   1.833   2.955  1.4797 -0.6256 -0.0966
 1056SOL    HW214802   0.333   1.837   2.818 -0.4424 -0.1770 -1.4291
 1057SOL     OW14803   1.781   1.777   0.486 -0.5213 -0.3910  0.1495
 1057SOL    HW114804   1.842   1.704   0.476 -0.9153 -0.6867 -0.0831
 1057SOL    HW214805   1.765   1.772   0.580  0.3264 -0.1240  0.3121
 1058SOL     OW14806   1.301   2.822   8.037  0.4064 -0.0819 -0.7494
 1058SOL    HW114807   1.314   2.877   8.114 -2.9341  1.0055 -0.9754
 1058SOL    HW214808   1.386   2.779   8.028  0.2759 -0.2566 -1.1633
 1059SOL     OW14809   3.968   0.257  14.220 -0.3610 -0.2158 -0.5291
 1059SOL    HW114810   3.907   0.259  14.294 -0.4347  0.1163 -0.5968
 1059SOL    HW214811   4.025   0.328  14.248 -1.9289  1.1742 -0.8747
 1060SOL     OW14812   4.408   3.179  17.613 -0.1582  0.1825  0.5074
 1060SOL    HW114813   4.321   3.182  17.575  0.8713  0.4369 -1.8219
 1060SOL    HW214814   4.445   3.252  17.563 -0.5147  1.2387  1.7955
 1061SOL     OW14815   2.193   0.466   6.194  0.0767 -0.4462  0.5912
 1061SOL    HW114816   2.224   0.400   6.132  2.8231  2.0848 -0.7457
 1061SOL    HW214817   2.102   0.477   6.163  1.4228  4.4326 -1.6557
 1062SOL     OW14818   1.061   1.505   5.614  0.0964  0.2236  0.6104
 1062SOL    HW114819   1.079   1.558   5.693 -2.6264 -1.0195  2.0548
 1062SOL    HW214820   1.031   1.572   5.553 -0.9067 -1.2712 -0.5220
 1063SOL     OW14821   2.546   0.483   6.466 -0.4623  0.0006  0.0615
 1063SOL    HW114822   2.553   0.397   6.508 -0.1114  0.7482  1.5264
 1063SOL    HW214823   2.453   0.505   6.471  0.2892  2.7635  1.9152
 1064SOL     OW14824   4.210   0.793   7.490 -0.2135 -0.0223 -0.7495
 1064SOL    HW114825   4.220   0.741   7.410 -0.7144 -1.4379  0.0949
 1064SOL    HW214826   4.262   0.747   7.556 -2.1274 -0.7319  0.2699
 1065SOL     OW14827   4.688   2.392   8.033 -0.0695 -0.1975 -0.8465
 1065SOL    HW114828   0.019   2.338   7.992 -1.4516 -1.4825 -1.4223
 1065SOL    HW214829   4.689   2.357   8.122  2.3575  3.2349  0.4597
 1066SOL     OW14830   4.384   1.499   9.717 -0.3144  0.2441 -0.4216
 1066SOL    HW114831   4.370   1.473   9.808  0.1144 -1.1451 -0.7449
 1066SOL    HW214832   4.379   1.594   9.727 -3.0317 -0.0628  1.0767
 1067SOL     OW14833   0.812   1.444  15.812  0.1590 -0.1150  0.3362
 1067SOL    HW114834   0.816   1.362  15.861 -1.0050 -1.2889 -1.5134
 1067SOL    HW214835   0.854   1.422  15.729 -1.2565  1.5259 -0.8189
 1068SOL     OW14836   3.144   1.023   2.436 -0.3781  0.3028 -0.2953
 1068SOL    HW114837   3.163   0.999   2.346 -1.5140  1.7796 -0.9270
 1068SOL    HW214838   3.209   0.968   2.480 -0.7702  0.9775  1.1170
 1069SOL     OW14839   4.215   0.898   4.692 -0.1677  0.8344 -0.1493
 1069SOL    HW114840   4.213   0.963   4.621 -0.4021  1.7130  0.6653
 1069SOL    HW214841   4.283   0.934   4.749 -0.3782 -0.8633  1.1525
 1070SOL     OW14842   3.611   3.692   7.950  0.2118  0.0789  0.3595
 1070SOL    HW114843   3.539   3.714   7.891 -0.5938 -0.2704  1.2143
 1070SOL    HW214844   3.659   3.774   7.960  0.9311  0.1835 -3.9007
 1071SOL     OW14845   3.481   0.819   1.612 -0.0413  0.5869 -0.4279
 1071SOL    HW114846   3.426   0.775   1.547 -0.1420 -2.4087  1.6642
 1071SOL    HW214847   3.431   0.897   1.635  1.1543  1.6871 -1.5966
 1072SOL     OW14848   2.906   0.855   5.200 -0.0127  0.5358 -0.4742
 1072SOL    HW114849   2.812   0.851   5.180 -0.3699 -2.2424  1.8367
 1072SOL    HW214850   2.925   0.764   5.220 -1.9315  0.2853  0.2368
 1073SOL     OW14851   2.672   0.563   8.960  0.3033 -0.1822  0.0356
 1073SOL    HW114852   2.709   0.482   8.995 -1.6556  0.3966  3.4923
 1073SOL    HW214853   2.715   0.579   8.876  1.1632 -0.7327  0.3720
 1074SOL     OW14854   2.183   3.376  10.544  0.2588  0.5127 -0.0565
 1074SOL    HW114855   2.266   3.331  10.531 -0.2557 -0.2728 -0.6580
 1074SOL    HW214856   2.119   3.305  10.545 -0.2285  0.9649  0.6031
 1075SOL     OW14857   3.803   0.336   8.970 -0.7950 -0.0605  0.2291
 1075SOL    HW114858   3.737   0.403   8.987 -2.0702 -1.5878  1.2545
 1075SOL    HW214859   3.751   0.257   8.983 -0.4182  0.1502  3.0353
 1076SOL     OW14860   2.069   2.317  11.039  0.4849  0.3954  0.2310
 1076SOL    HW114861   2.107   2.391  11.086 -2.0076  1.1897  1.0210
 1076SOL    HW214862   2.028   2.270  11.112 -0.0209  0.5273  0.0321
 1077SOL     OW14863   3.597   1.940   1.686  0.7780  0.0616  0.2497
 1077SOL    HW114864   3.549   2.021   1.666  1.0969  0.1677 -0.0995
 1077SOL    HW214865   3.602   1.910   1.595 -0.8313  4.1782 -1.2297
 1078SOL     OW14866   1.729   1.188   7.743 -0.3120 -0.3130 -0.3249
 1078SOL    HW114867   1.811   1.237   7.737 -0.2335 -0.5579 -1.2404
 1078SOL    HW214868   1.685   1.223   7.820 -1.7305  0.5732 -1.5299
 1079SOL     OW14869   3.385   2.825   6.588 -0.4119 -0.2410  0.6291
 1079SOL    HW114870   3.376   2.872   6.506  1.5639 -1.0492 -0.0599
 1079SOL    HW214871   3.373   2.904   6.641 -2.5201  1.2055 -2.0735
 1080SOL     OW14872   3.790   4.411   2.786 -0.3084  0.0989 -0.2330
 1080SOL    HW114873   3.822   4.321   2.783  1.3648  0.6851 -0.0406
 1080SOL    HW214874   3.695   4.397   2.790 -0.4633  1.1343 -0.3262
 1081SOL     OW14875   1.469   4.498   7.673  0.3290 -0.1962  0.8309
 1081SOL    HW114876   1.514   4.570   7.629  3.3986 -3.5387 -1.4419
 1081SOL    HW214877   1.392   4.495   7.617  0.7943 -0.9354  0.2458
 1082SOL     OW14878   1.602   3.964  11.170  0.0011  0.9131 -0.2920
 1082SOL    HW114879   1.566   3.880  11.197  0.4769  1.0071  0.6471
 1082SOL    HW214880   1.654   3.920  11.103 -1.8005  1.1695 -1.8509
 1083SOL     OW14881   0.754   2.197   3.605  0.3035  0.5066 -0.0463
 1083SOL    HW114882   0.709   2.277   3.577 -0.3068  0.0289 -0.4172
 1083SOL    HW214883   0.718   2.128   3.550 -0.4840 -1.3893  2.8376
 1084SOL     OW14884   3.146   4.508   2.089 -0.4749 -0.3951  0.1489
 1084SOL    HW114885   3.192   4.586   2.120  1.5991 -1.6722  0.2938
 1084SOL    HW214886   3.086   4.552   2.029 -0.2874 -0.9702 -0.4580
 1085SOL     OW14887   2.850   3.100   9.143 -0.2987 -0.8122 -0.1513
 1085SOL    HW114888   2.853   3.115   9.238  0.0626  0.3150 -0.3378
 1085SOL    HW214889   2.941   3.107   9.117  0.2085 -1.4904  1.4217
 1086SOL     OW14890   1.475   0.931  17.594 -0.3669 -0.0620  0.9808
 1086SOL    HW114891   1.559   0.891  17.572 -0.7825 -0.0723 -0.6007
 1086SOL    HW214892   1.498   1.024  17.602 -0.9650  0.1474  0.2390
 1087SOL     OW14893   0.211   2.484  16.292 -0.2346 -0.6931 -0.1437
 1087SOL    HW114894   0.152   2.485  16.367  1.2718 -0.9591  1.0387
 1087SOL    HW214895   0.254   2.570  16.290 -0.3986 -0.6171 -0.4366
 1088SOL     OW14896   0.864   3.526   7.994  0.0809  0.4108 -0.1473
 1088SOL    HW114897   0.815   3.606   8.012 -2.3257 -1.0710 -0.0662
 1088SOL    HW214898   0.838   3.500   7.905 -1.5351  2.0128 -0.1451
 1089SOL     OW14899   1.135   2.108   0.963  0.0561  0.9564 -0.1725
 1089SOL    HW114900   1.187   2.123   1.042 -0.8874  2.7064  0.1049
 1089SOL    HW214901   1.207   2.139   0.908  0.2885 -0.6545 -0.7806
 1090SOL     OW14902   3.825   1.094   6.863 -0.0104 -0.0459 -0.2200
 1090SOL    HW114903   3.855   1.145   6.938  0.8037 -0.6169 -0.1574
 1090SOL    HW214904   3.767   1.034   6.910  0.2009  0.0633  0.1785
 1091SOL     OW14905   3.894   3.426  10.906 -0.3303  0.4648  0.4252
 1091SOL    HW114906   3.933   3.458  10.824  0.1571 -1.3948 -0.0612
 1091SOL    HW214907   3.919   3.498  10.965  0.0644  1.4978 -1.0017
 1092SOL     OW14908   1.546   2.500  14.632  0.1078  0.0764 -0.1699
 1092SOL    HW114909   1.531   2.446  14.710  2.1045 -0.8834 -0.4711
 1092SOL    HW214910   1.461   2.497  14.589 -0.3122 -0.9726  0.7128
 1093SOL     OW14911   2.708   3.305  14.554 -0.4655  0.2227 -0.3310
 1093SOL    HW114912   2.693   3.395  14.527 -1.0563  0.6199  1.3088
 1093SOL    HW214913   2.621   3.268  14.567  0.1870 -0.8743  0.9183
 1094SOL     OW14914   1.111   1.156   9.461 -0.4617 -0.8594  0.1547
 1094SOL    HW114915   1.042   1.217   9.489 -1.6951 -1.2446 -1.9778
 1094SOL    HW214916   1.068   1.072   9.475 -1.7052 -0.1161  0.7945
 1095SOL     OW14917   1.315   4.555  10.935 -0.3570 -0.0151  0.3268
 1095SOL    HW114918   1.400   4.587  10.965 -0.8639  0.2584  1.4750
 1095SOL    HW214919   1.320   4.465  10.966 -0.1527  0.0215  0.4006
 1096SOL     OW14920   3.028   1.704   7.760 -0.7863 -0.0838  0.0106
 1096SOL    HW114921   2.944   1.719   7.805 -0.1371 -0.5037  1.3575
 1096SOL    HW214922   3.016   1.613   7.732  0.9660 -0.0037 -0.9709
 1097SOL     OW14923   0.187   3.908  11.981 -0.0591 -0.0836  0.0207
 1097SOL    HW114924   0.191   3.999  12.013  0.4196 -0.6296  1.4906
 1097SOL    HW214925   0.126   3.908  11.907 -1.0946  3.7931  0.8420
 1098SOL     OW14926   2.625   1.526   2.723  0.7453 -0.1146 -0.2492
 1098SOL    HW114927   2.674   1.546   2.643  2.0428  0.1883  0.6220
 1098SOL    HW214928   2.563   1.459   2.693  1.4327 -0.4257 -0.9956
 1099SOL     OW14929   3.391   2.129   2.631 -0.0168  0.1550 -0.1380
 1099SOL    HW114930   3.325   2.153   2.695  0.4166  0.4999  0.1781
 1099SOL    HW214931   3.349   2.046   2.605 -1.3387  0.6359  0.4849
 1100SOL     OW14932   3.421   3.465  17.703  0.0643  0.1840 -0.4568
 1100SOL    HW114933   3.450   3.404   0.029 -1.3277 -0.2481 -0.2485
 1100SOL    HW214934   3.418   3.409  17.625 -2.2491  1.5913 -1.3520
 1101SOL     OW14935   4.575   3.853  16.754 -1.0014 -0.2468  0.5130
 1101SOL    HW114936   4.609   3.931  16.711 -2.5572 -0.1123 -0.4246
 1101SOL    HW214937   4.658   3.830  16.797  0.5277  0.4235 -2.1362
 1102SOL     OW14938   2.095   1.522   2.489  0.4711  0.8029  0.1772
 1102SOL    HW114939   2.174   1.574   2.475  0.4561  0.7323 -0.1482
 1102SOL    HW214940   2.131   1.434   2.505 -2.0623 -0.1580  0.4744
 1103SOL     OW14941   4.303   1.546   8.550  0.2029  0.4933  1.0352
 1103SOL    HW114942   4.230   1.548   8.488  0.4896 -0.2590  0.6745
 1103SOL    HW214943   4.311   1.634   8.586  1.2850  0.3951  1.0370
 1104SOL     OW14944   2.150   1.958  17.280  0.1577  1.2923 -0.2579
 1104SOL    HW114945   2.141   1.986  17.371 -0.2947  0.5393 -0.0759
 1104SOL    HW214946   2.175   1.866  17.290  0.7332  1.3733 -0.9477
 1105SOL     OW14947   2.326   0.875   0.679  0.2375  0.9003 -0.1763
 1105SOL    HW114948   2.303   0.962   0.711 -0.3142 -0.2337  2.5447
 1105SOL    HW214949   2.309   0.885   0.586 -0.1985  1.6578 -0.0181
 1106SOL     OW14950   3.526   2.258  15.930 -0.2228  0.1974 -0.3751
 1106SOL    HW114951   3.606   2.300  15.961 -0.4922  0.5098 -0.1109
 1106SOL    HW214952   3.456   2.305  15.976  1.4867  2.0252  0.3250
 1107SOL     OW14953   1.991   3.668   8.504  0.1789  0.5438  0.0516
 1107SOL    HW114954   2.057   3.599   8.502  1.7475  1.9888  1.4997
 1107SOL    HW214955   1.980   3.679   8.410 -4.2258  1.6165  0.6493
 1108SOL     OW14956   1.713   3.602  17.365 -0.6630  0.0644 -0.0066
 1108SOL    HW114957   1.685   3.591  17.455 -0.6056  0.2002  0.0282
 1108SOL    HW214958   1.731   3.696  17.366 -2.4437  0.3658  2.0417
 1109SOL     OW14959   1.981   1.307   1.321 -0.3439  0.3696  0.2298
 1109SOL    HW114960   1.988   1.235   1.384 -0.8556  0.6498  0.6051
 1109SOL    HW214961   1.895   1.346   1.339 -0.5963  1.0125 -2.2694
 1110SOL     OW14962   2.898   2.157   5.513 -0.8709 -0.2552  0.4171
 1110SOL    HW114963   2.963   2.090   5.491 -0.8600  0.2499 -1.0957
 1110SOL    HW214964   2.911   2.216   5.438  0.2692  0.8149  1.4457
 1111SOL     OW14965   3.648   3.004   7.503  0.6828  0.2004 -0.2654
 1111SOL    HW114966   3.686   2.949   7.571 -0.3213 -0.6745 -0.4140
 1111SOL    HW214967   3.715   3.070   7.482 -0.2407  1.2640  0.0904
 1112SOL     OW14968   4.688   0.519   1.949 -0.3466  0.1313  0.2049
 1112SOL    HW114969   4.675   0.560   2.035  0.4887  1.0082 -0.0947
 1112SOL    HW214970   4.703   0.592   1.890  1.5718  1.2959  2.1432
 1113SOL     OW14971   3.182   2.137  14.798 -0.3252 -0.3742 -0.3532
 1113SOL    HW114972   3.258   2.174  14.753 -0.6000 -0.7228 -1.0909
 1113SOL    HW214973   3.141   2.087  14.728  0.9790  0.6263 -1.8401
 1114SOL     OW14974   0.685   3.536   7.725  0.0918  0.6615  0.0552
 1114SOL    HW114975   0.691   3.631   7.713 -2.4693  0.6269 -1.6501
 1114SOL    HW214976   0.590   3.521   7.732  0.1058 -0.0732 -1.3263
 1115SOL     OW14977   4.396   0.749   3.364  0.5153 -0.7072 -0.5401
 1115SOL    HW114978   4.343   0.689   3.416  0.0107 -0.1305 -0.3890
 1115SOL    HW214979   4.477   0.698   3.358  0.7518 -0.4651  0.6066
 1116SOL     OW14980   1.012   0.207  16.870 -0.4253  0.0239 -0.0692
 1116SOL    HW114981   1.061   0.166  16.941  0.8824  1.1464 -0.3370
 1116SOL    HW214982   0.924   0.170  16.879 -1.2414  2.7057  3.2453
 1117SOL     OW14983   0.044   3.473   5.550  0.0876 -0.3371  0.3018
 1117SOL    HW114984   0.043   3.399   5.489  0.3816 -0.0241 -0.0840
 1117SOL    HW214985   4.696   3.518   5.543  0.8131  0.6741 -1.7892
 1118SOL     OW14986   3.542   1.332   6.905 -0.2391  0.0773  0.1363
 1118SOL    HW114987   3.537   1.245   6.866 -0.8367  0.2993 -0.2804
 1118SOL    HW214988   3.487   1.318   6.982 -1.6351  0.0435 -0.8696
 1119SOL     OW14989   3.623   1.849   2.109  0.3318 -0.3868 -0.0027
 1119SOL    HW114990   3.650   1.926   2.058  1.6140  0.0066  1.2674
 1119SOL    HW214991   3.648   1.864   2.200  3.5239 -1.7408 -0.6443
 1120SOL     OW14992   1.721   2.263  11.081 -0.1569  0.0198  0.8172
 1120SOL    HW114993   1.757   2.334  11.029  0.1837  0.8323  2.1576
 1120SOL    HW214994   1.798   2.241  11.133  0.2841 -0.7431 -0.1473
 1121SOL     OW14995   0.744   3.304   6.964 -0.3559 -0.4586  0.3228
 1121SOL    HW114996   0.674   3.322   7.028 -0.1688 -1.6374  0.8671
 1121SOL    HW214997   0.770   3.212   6.970 -3.9061 -1.5895 -1.6578
 1122SOL     OW14998   4.668   4.533   2.640 -0.2645  0.2395  0.0830
 1122SOL    HW114999   4.634   4.566   2.556 -0.4820  1.0090  0.4783
 1122SOL    HW215000   4.618   4.456   2.668 -0.0986 -0.0482 -0.4103
 1123SOL     OW15001   3.595   0.689   9.272 -0.3759  0.5446 -0.1754
 1123SOL    HW115002   3.537   0.626   9.315  1.7968 -1.6353 -0.4461
 1123SOL    HW215003   3.593   0.759   9.338 -2.1119  1.9129 -1.6766
 1124SOL     OW15004   3.205   3.080   6.520  0.1610 -0.1100 -0.3159
 1124SOL    HW115005   3.256   3.037   6.452  1.2902 -0.1983  0.5748
 1124SOL    HW215006   3.261   3.068   6.597  1.6217 -0.8995 -1.4907
 1125SOL     OW15007   0.737   1.778   0.681 -0.9016  0.0882  0.4861
 1125SOL    HW115008   0.688   1.700   0.706 -0.9984 -0.5920 -1.8844
 1125SOL    HW215009   0.778   1.810   0.762  1.7301 -1.9421 -0.0513
 1126SOL     OW15010   4.343   2.592  16.387  0.6909  0.1210 -0.1093
 1126SOL    HW115011   4.356   2.522  16.451 -1.2065  0.4129  0.5934
 1126SOL    HW215012   4.364   2.672  16.435  1.9642 -0.8819  1.0220
 1127SOL     OW15013   2.466   2.454   6.098 -0.3053 -0.0854  0.2250
 1127SOL    HW115014   2.441   2.452   6.005  0.3501  2.7138 -0.0218
 1127SOL    HW215015   2.382   2.436   6.140 -0.0773 -0.1493  0.6507
 1128SOL     OW15016   1.114   4.212   6.146 -0.8111 -0.0874 -0.3466
 1128SOL    HW115017   1.182   4.172   6.200 -0.9377 -1.4779 -1.2193
 1128SOL    HW215018   1.157   4.291   6.114 -0.0420  0.6423  2.4818
 1129SOL     OW15019   0.176   0.171   5.135  0.3455 -0.8677 -0.9119
 1129SOL    HW115020   0.168   0.136   5.046 -1.0022 -1.6037 -0.5038
 1129SOL    HW215021   0.263   0.211   5.127 -0.5648  1.1977 -0.2293
 1130SOL     OW15022   0.360   0.123   3.533 -0.6144  0.2148  0.4323
 1130SOL    HW115023   0.430   0.117   3.598  0.1902  0.1394 -0.4366
 1130SOL    HW215024   0.384   0.190   3.469 -1.3971 -1.4627 -1.6345
 1131SOL     OW15025   0.583   4.674   3.916  0.2062 -0.4182 -0.3826
 1131SOL    HW115026   0.529   4.596   3.931  0.2861 -0.5733 -0.9193
 1131SOL    HW215027   0.587   4.703   4.007 -2.6350 -0.9829 -0.0879
 1132SOL     OW15028   0.195   2.374   3.017  0.3869 -0.9392 -0.1244
 1132SOL    HW115029   0.223   2.298   2.964 -0.7891 -2.1465  0.9851
 1132SOL    HW215030   0.270   2.378   3.076 -0.1753 -1.1309  0.5910
 1133SOL     OW15031   2.069   0.469  15.778 -0.4650 -0.4066 -0.2426
 1133SOL    HW115032   2.027   0.468  15.692 -1.3350 -2.3249  0.1873
 1133SOL    HW215033   1.993   0.471  15.837  1.7125  1.6911  2.5199
 1134SOL     OW15034   4.365   2.807   9.494 -0.5090  0.5204 -0.2439
 1134SOL    HW115035   4.309   2.786   9.419  0.1404 -2.0902  0.0092
 1134SOL    HW215036   4.298   2.863   9.534  1.4377  1.7932  1.2406
 1135SOL     OW15037   2.567   0.224   9.054  0.1912 -0.2434  0.5974
 1135SOL    HW115038   2.644   0.281   9.058 -0.3657  0.3912  2.1845
 1135SOL    HW215039   2.549   0.201   9.145 -3.0296  0.9911  0.2494
 1136SOL     OW15040   1.427   4.357   6.943 -0.1839  0.2830 -0.0951
 1136SOL    HW115041   1.398   4.358   6.852  1.6484  0.3857 -0.6592
 1136SOL    HW215042   1.343   4.382   6.983 -1.1342  0.5776 -2.2980
 1137SOL     OW15043   0.091   3.239  14.178 -0.0788 -0.5008  0.1700
 1137SOL    HW115044   0.157   3.257  14.111 -0.9958  1.5682 -0.1972
 1137SOL    HW215045   0.140   3.166  14.214  1.1422  0.2141 -0.0347
 1138SOL     OW15046   1.530   3.127   3.564 -0.4474  0.1017 -0.6651
 1138SOL    HW115047   1.585   3.100   3.638 -0.7054 -3.0266 -1.6352
 1138SOL    HW215048   1.444   3.116   3.605  0.2272 -0.5688  0.5758
 1139SOL     OW15049   3.391   0.960   9.111 -0.4436  0.2294 -0.1723
 1139SOL    HW115050   3.447   0.903   9.058  0.5439  0.9969  0.0420
 1139SOL    HW215051   3.444   0.971   9.190 -1.1167  1.0427  0.1672
 1140SOL     OW15052   1.280   0.426   9.393  0.0324  0.1406 -0.4750
 1140SOL    HW115053   1.226   0.348   9.381 -0.0336  0.0889  0.1565
 1140SOL    HW215054   1.348   0.419   9.326 -0.9368 -0.8414 -1.3457
 1141SOL     OW15055   0.955   0.070   9.472 -0.6583 -0.2414 -0.3742
 1141SOL    HW115056   0.944   4.731   9.530  2.8065 -1.1661 -0.8903
 1141SOL    HW215057   0.963   0.021   9.390 -2.0358  0.8944 -1.1805
 1142SOL     OW15058   2.380   4.629  10.228  0.5968 -0.7091 -0.4959
 1142SOL    HW115059   2.313   4.561  10.226  0.6616 -0.8115  0.7829
 1142SOL    HW215060   2.435   4.604  10.302 -0.2187  0.7298  0.5982
 1143SOL     OW15061   1.067   1.657  15.548 -0.0384  0.0875 -0.1366
 1143SOL    HW115062   1.153   1.616  15.544 -0.3873 -0.6005 -0.4588
 1143SOL    HW215063   1.100   1.746  15.534 -1.1220  0.2509 -1.6193
 1144SOL     OW15064   0.772   1.896   6.722 -0.0280 -0.2832 -0.0247
 1144SOL    HW115065   0.831   1.905   6.797 -1.8765  0.3219  1.3630
 1144SOL    HW215066   0.781   1.979   6.675  0.9199  0.7291  1.9496
 1145SOL     OW15067   1.595   0.015   5.045  0.1913  0.1483 -0.4547
 1145SOL    HW115068   1.634   0.095   5.009  3.1363 -0.3767  1.5720
 1145SOL    HW215069   1.535   4.731   4.972 -0.0761 -2.0997  0.3641
 1146SOL     OW15070   0.178   3.560   4.258  0.1818 -0.8504 -0.6726
 1146SOL    HW115071   0.150   3.516   4.177  0.8718 -0.3412 -1.1816
 1146SOL    HW215072   0.267   3.525   4.264  1.0283  1.5595  0.4356
 1147SOL     OW15073   1.255   1.690   1.257 -0.4405 -0.1419  0.1145
 1147SOL    HW115074   1.287   1.682   1.167 -0.4373 -0.8554  0.1822
 1147SOL    HW215075   1.232   1.782   1.249  1.5684  0.2976 -0.7392
 1148SOL     OW15076   4.518   2.781  13.937  0.2505  0.5640  0.0534
 1148SOL    HW115077   4.511   2.745  14.026  3.2725  1.1838  0.5222
 1148SOL    HW215078   4.613   2.779  13.931  0.3667  2.8655  0.9513
 1149SOL     OW15079   4.495   0.879   3.136 -0.3601  0.6744  0.6280
 1149SOL    HW115080   4.433   0.819   3.178  0.1744 -1.2661 -1.3622
 1149SOL    HW215081   4.573   0.885   3.192  0.0396  0.4396  0.1005
 1150SOL     OW15082   3.924   2.976   2.370 -0.2978 -0.0501  0.2924
 1150SOL    HW115083   3.947   3.040   2.302  2.0928 -0.9353  0.2659
 1150SOL    HW215084   3.838   3.013   2.388 -1.0266 -0.2896 -2.7082
 1151SOL     OW15085   0.198   3.999   2.650 -0.3078  0.2052  0.2817
 1151SOL    HW115086   0.216   4.057   2.725  0.3942 -0.5568  0.7041
 1151SOL    HW215087   0.126   4.043   2.605 -0.5008  0.3321  0.7058
 1152SOL     OW15088   4.038   1.582  12.352  0.1214  0.4971  0.2011
 1152SOL    HW115089   4.061   1.566  12.443  2.8175 -0.7492 -0.6913
 1152SOL    HW215090   3.957   1.632  12.361 -0.2857  0.2836 -2.2395
 1153SOL     OW15091   4.062   1.709   2.124  0.0657 -0.0113  0.0493
 1153SOL    HW115092   4.095   1.692   2.212  0.8733 -1.6860 -0.5884
 1153SOL    HW215093   3.996   1.641   2.111 -0.9560  1.2470 -1.3403
 1154SOL     OW15094   2.251   0.362   5.443 -0.5160  0.1711 -0.3060
 1154SOL    HW115095   2.162   0.397   5.449  0.5167  2.6232  0.9620
 1154SOL    HW215096   2.242   0.268   5.460  0.7916 -0.2092 -1.7720
 1155SOL     OW15097   1.209   1.833   8.952 -0.0429 -0.5187 -0.0798
 1155SOL    HW115098   1.175   1.920   8.973  1.3720 -0.4186  1.8576
 1155SOL    HW215099   1.172   1.775   9.018 -2.0094 -0.2759 -0.9884
 1156SOL     OW15100   0.043   1.107   5.574  0.0968  0.2489  0.1082
 1156SOL    HW115101   0.097   1.185   5.564 -2.1606  1.6963 -0.8514
 1156SOL    HW215102   0.118   1.048   5.582  2.8880  3.6924 -0.1814
 1157SOL     OW15103   0.225   0.125  10.790 -0.1915 -0.2483 -0.7761
 1157SOL    HW115104   0.289   0.191  10.762 -0.3437  0.6516  0.9703
 1157SOL    HW215105   0.171   0.175  10.851 -1.9427 -2.2044 -0.7180
 1158SOL     OW15106   3.388   0.652   5.790  0.1957 -0.4092 -0.8015
 1158SOL    HW115107   3.469   0.652   5.739  0.3753  0.8327 -0.5219
 1158SOL    HW215108   3.343   0.588   5.735 -2.9340 -0.5296  1.9131
 1159SOL     OW15109   0.882   3.476   5.483 -0.0665 -0.0085 -0.2553
 1159SOL    HW115110   0.904   3.458   5.392  2.9246  1.9255  0.0476
 1159SOL    HW215111   0.791   3.447   5.480  0.7782 -2.7191  0.4962
 1160SOL     OW15112   0.082   3.426  13.007 -0.0516 -0.0186 -0.0420
 1160SOL    HW115113   0.036   3.351  12.970 -3.1728  1.5032  0.7296
 1160SOL    HW215114   0.166   3.381  13.020 -0.1716 -0.1528  0.2655
 1161SOL     OW15115   3.367   4.582  13.853 -0.5151 -0.5877 -0.2193
 1161SOL    HW115116   3.358   4.487  13.853 -1.1160 -0.5352  0.5533
 1161SOL    HW215117   3.393   4.600  13.763 -0.3701  0.6390  0.0646
 1162SOL     OW15118   0.800   4.355   9.090  0.0921  0.4355  0.2178
 1162SOL    HW115119   0.894   4.361   9.073 -0.3857 -0.3876 -2.6478
 1162SOL    HW215120   0.813   4.329   9.181  4.2678  0.4451 -0.3574
 1163SOL     OW15121   2.927   3.683  14.291 -0.1094 -0.1457 -0.2031
 1163SOL    HW115122   2.865   3.613  14.273 -1.9546  1.4522 -0.1266
 1163SOL    HW215123   2.880   3.760  14.258 -2.8079 -0.5804  2.6297
 1164SOL     OW15124   3.801   2.868   1.697 -0.5723 -0.1623  0.1043
 1164SOL    HW115125   3.857   2.833   1.766 -0.8864 -1.2273 -0.1791
 1164SOL    HW215126   3.728   2.899   1.751 -1.2682  0.3637 -1.1355
 1165SOL     OW15127   1.020   1.910   5.872  0.1292 -0.1367 -0.0089
 1165SOL    HW115128   1.037   1.881   5.782  0.2025 -1.0619  0.2951
 1165SOL    HW215129   1.084   1.859   5.922 -0.4346 -0.5038  0.3483
 1166SOL     OW15130   0.032   2.613   9.896  0.4467  0.1291  0.3243
 1166SOL    HW115131   0.009   2.668   9.821  1.5741  0.6841  0.3893
 1166SOL    HW215132   0.027   2.676   9.968 -2.6145  1.0082 -0.6708
 1167SOL     OW15133   2.492   0.670   8.381 -0.2010  0.0801  0.1459
 1167SOL    HW115134   2.577   0.636   8.409  0.2011  0.9006 -0.0645
 1167SOL    HW215135   2.450   0.585   8.366  1.4319 -0.6259 -0.4093
 1168SOL     OW15136   4.274   2.612   4.803 -0.0503  0.0166  0.0591
 1168SOL    HW115137   4.265   2.701   4.769  1.6967  0.3559  0.5197
 1168SOL    HW215138   4.185   2.595   4.835  0.4356  0.1464  1.5071
 1169SOL     OW15139   0.681   4.349   4.015  0.3774  0.0407  0.1368
 1169SOL    HW115140   0.588   4.359   3.997  0.2751  1.5168  1.4895
 1169SOL    HW215141   0.683   4.354   4.110  1.0854  1.8581  0.0210
 1170SOL     OW15142   3.345   4.468  12.895  0.4789 -0.1925 -0.3321
 1170SOL    HW115143   3.429   4.432  12.923  0.6101  1.5932  1.6148
 1170SOL    HW215144   3.332   4.546  12.948 -0.1004  0.0405 -0.8273
 1171SOL     OW15145   3.490   3.176  16.733 -0.2681  0.1223  0.2080
 1171SOL    HW115146   3.583   3.193  16.720 -0.0804 -0.7946  0.3290
 1171SOL    HW215147   3.465   3.161  16.642  2.4291 -0.3757 -0.4633
 1172SOL     OW15148   3.844   2.018   4.176 -0.2449 -0.2115 -0.1654
 1172SOL    HW115149   3.750   2.020   4.162 -0.4341 -1.5979  0.8538
 1172SOL    HW215150   3.853   2.029   4.271 -1.9047  0.5350 -0.0926
 1173SOL     OW15151   3.252   3.844  13.946 -0.4542 -0.6349  0.6358
 1173SOL    HW115152   3.262   3.749  13.945  1.4230 -0.4423  0.4628
 1173SOL    HW215153   3.209   3.855  13.861  0.2406 -0.0251  0.3638
 1174SOL     OW15154   0.604   0.158   5.881  0.2078  0.5446  0.5407
 1174SOL    HW115155   0.615   0.179   5.788 -2.3684 -1.4977 -0.2432
 1174SOL    HW215156   0.516   0.197   5.885 -0.5222 -0.6690 -3.4391
 1175SOL     OW15157   2.492   0.288  15.023 -0.5173 -0.4114  0.3202
 1175SOL    HW115158   2.513   0.381  15.027  2.0774 -1.0485  1.5053
 1175SOL    HW215159   2.403   0.295  15.058 -0.2459 -0.5317  1.0428
 1176SOL     OW15160   0.007   1.017   2.581  0.2560 -0.1834  0.5993
 1176SOL    HW115161   0.023   1.110   2.596 -0.0525  0.0551 -0.5993
 1176SOL    HW215162   0.026   0.984   2.669  0.4999 -2.7333 -0.4002
 1177SOL     OW15163   1.579   1.331   8.899 -0.2389  0.2509  0.5267
 1177SOL    HW115164   1.591   1.252   8.847  2.9203  0.1721  1.3873
 1177SOL    HW215165   1.667   1.359   8.922  0.3100 -0.6459 -0.4984
 1178SOL     OW15166   3.786   4.144   9.953  0.1278  0.0148 -0.0569
 1178SOL    HW115167   3.783   4.195  10.034 -0.6964 -0.7762  0.4170
 1178SOL    HW215168   3.711   4.084   9.954 -0.1197  0.3297  0.1632
 1179SOL     OW15169   1.130   3.142   7.573 -0.0637  0.8046 -0.1615
 1179SOL    HW115170   1.160   3.229   7.597  1.7834 -0.2666  1.3864
 1179SOL    HW215171   1.169   3.085   7.640 -0.8355 -1.2393 -1.4345
 1180SOL     OW15172   3.090   2.749   4.136 -0.5519  0.3380 -0.5084
 1180SOL    HW115173   3.107   2.833   4.095 -1.0295 -0.2508 -1.8849
 1180SOL    HW215174   3.155   2.700   4.085  0.3497  0.2902  0.6695
 1181SOL     OW15175   4.648   3.878   2.707 -0.2337  0.0050  0.4006
 1181SOL    HW115176   4.731   3.905   2.745  0.5330 -4.4898  1.9803
 1181SOL    HW215177   4.584   3.891   2.778 -0.0366  2.5650  0.0928
 1182SOL     OW15178   1.631   4.521   5.215 -0.5264 -0.3131  0.4411
 1182SOL    HW115179   1.557   4.465   5.190 -1.0068 -0.2330  1.7127
 1182SOL    HW215180   1.631   4.598   5.158 -0.9835 -1.0821 -0.5988
 1183SOL     OW15181   0.828   1.057  14.763  0.5375  0.9535  0.6806
 1183SOL    HW115182   0.921   1.035  14.758  0.2169 -0.6840  1.8943
 1183SOL    HW215183   0.791   1.000  14.695 -1.7453  1.4149  1.5372
 1184SOL     OW15184   1.714   0.623  10.691 -0.2778  0.2097 -0.6689
 1184SOL    HW115185   1.687   0.694  10.633 -0.0643  1.9673  1.3623
 1184SOL    HW215186   1.809   0.633  10.696 -0.3199  0.5101 -0.4557
 1185SOL     OW15187   0.503   3.805   1.488  0.0021 -0.1260 -0.7215
 1185SOL    HW115188   0.564   3.758   1.431  1.2184  3.0239 -1.9928
 1185SOL    HW215189   0.568   3.816   1.559  0.4124 -0.3755 -1.0569
 1186SOL     OW15190   1.411   1.238   8.633 -0.2094 -0.0143 -0.1970
 1186SOL    HW115191   1.413   1.333   8.627  0.1553 -0.0519 -0.6259
 1186SOL    HW215192   1.324   1.240   8.674  0.1353  1.3776  0.4504
 1187SOL     OW15193   4.379   2.608   1.355  0.0981 -0.4893 -0.2747
 1187SOL    HW115194   4.377   2.631   1.262 -1.5370  0.1246 -0.1007
 1187SOL    HW215195   4.342   2.693   1.381  2.2649  0.1934  0.5548
 1188SOL     OW15196   4.230   0.682   7.915  0.7798 -0.0098 -0.4761
 1188SOL    HW115197   4.280   0.612   7.956  1.2403  0.1989 -0.6816
 1188SOL    HW215198   4.184   0.635   7.845  0.7866 -0.8031  0.0511
 1189SOL     OW15199   2.228   2.670   1.251  0.2375 -0.1292 -0.7556
 1189SOL    HW115200   2.268   2.757   1.259  0.0066 -0.3107  2.3449
 1189SOL    HW215201   2.267   2.620   1.322 -0.6031  2.3575  1.4569
 1190SOL     OW15202   2.769   0.682   4.979 -0.7984 -0.6122 -0.2677
 1190SOL    HW115203   2.832   0.754   4.976 -2.3463  0.7688  0.1837
 1190SOL    HW215204   2.740   0.671   4.888 -1.0100  0.5248 -0.3337
 1191SOL     OW15205   2.362   0.225   5.030 -0.2884  0.8998  0.5318
 1191SOL    HW115206   2.375   0.251   4.939  1.2585  1.3637  0.8865
 1191SOL    HW215207   2.316   0.298   5.070 -0.2729  0.3248  1.6084
 1192SOL     OW15208   2.058   0.640   8.182 -0.4507 -0.1626 -0.5980
 1192SOL    HW115209   1.979   0.651   8.129 -0.7153  0.3789 -0.0863
 1192SOL    HW215210   2.061   0.725   8.224 -0.5743 -1.1642  1.4240
 1193SOL     OW15211   0.645   2.334  11.600  0.1595 -0.1567 -0.1307
 1193SOL    HW115212   0.651   2.426  11.623 -2.8359 -0.2015  0.7988
 1193SOL    HW215213   0.721   2.300  11.647  0.2312  1.0502  0.6063
 1194SOL     OW15214   1.411   0.353   4.896  0.0146  0.3097  0.1558
 1194SOL    HW115215   1.502   0.326   4.879  0.3821  0.5350  1.7488
 1194SOL    HW215216   1.405   0.448   4.887  2.1121  0.4286 -0.0422
 1195SOL     OW15217   1.718   0.398   0.253 -0.5110  0.0148  0.4523
 1195SOL    HW115218   1.727   0.361   0.341 -0.9537 -1.2194 -0.0346
 1195SOL    HW215219   1.673   0.480   0.275  3.0212  1.7373  1.3352
 1196SOL     OW15220   0.795   4.107   7.872 -0.4931 -0.1191  0.0730
 1196SOL    HW115221   0.789   4.043   7.942  0.2838 -2.3000 -1.8421
 1196SOL    HW215222   0.704   4.137   7.874 -0.6788 -0.6130 -0.9384
 1197SOL     OW15223   3.703   0.655   1.697  0.3117 -0.0992 -0.0891
 1197SOL    HW115224   3.625   0.711   1.686  1.0478  1.3082  1.7153
 1197SOL    HW215225   3.716   0.629   1.606 -0.7161 -3.2785  0.6863
 1198SOL     OW15226   1.724   0.516  11.629  0.3625  0.4830  0.5675
 1198SOL    HW115227   1.777   0.491  11.554 -1.1649  0.3801 -0.4670
 1198SOL    HW215228   1.747   0.442  11.686 -0.2946 -0.3945 -0.3087
 1199SOL     OW15229   0.207   4.088   4.637 -0.4549 -0.0227 -0.2736
 1199SOL    HW115230   0.124   4.043   4.656 -0.3102 -0.1313  0.1023
 1199SOL    HW215231   0.269   4.033   4.685  0.2479  0.4098 -0.6902
 1200SOL     OW15232   0.065   3.926   3.390 -1.1956 -0.5069  0.1486
 1200SOL    HW115233   4.725   3.980   3.368 -1.3593 -1.4377 -1.5807
 1200SOL    HW215234   0.113   3.995   3.436 -1.8179  1.3459 -1.9820
 1201SOL     OW15235   1.144   1.388   7.494 -0.4832 -0.1369  0.2158
 1201SOL    HW115236   1.072   1.346   7.446  0.1064  0.4972 -1.2053
 1201SOL    HW215237   1.195   1.307   7.492 -1.6983 -0.8753 -0.7181
 1202SOL     OW15238   1.151   3.093   0.966  0.3323 -0.2674  0.4002
 1202SOL    HW115239   1.064   3.071   0.999  0.4937 -1.2870  0.1504
 1202SOL    HW215240   1.207   3.093   1.044  1.6656 -1.8680 -0.5476
 1203SOL     OW15241   4.254   0.388   0.574  0.1641  0.0716  0.5835
 1203SOL    HW115242   4.229   0.311   0.523  0.4729  1.2225 -1.3089
 1203SOL    HW215243   4.205   0.452   0.523  0.5241  0.0693  0.2303
 1204SOL     OW15244   2.276   2.741  12.138 -0.1794  0.0405  0.5280
 1204SOL    HW115245   2.339   2.777  12.201  1.3872 -1.1144 -0.3920
 1204SOL    HW215246   2.308   2.653  12.119  0.5370  0.0825  1.4848
 1205SOL     OW15247   1.805   2.644   6.337 -0.5282  0.1385  0.1887
 1205SOL    HW115248   1.835   2.554   6.340 -2.7667 -0.5984  0.8283
 1205SOL    HW215249   1.851   2.680   6.413  0.4288  0.6804 -0.6479
 1206SOL     OW15250   0.614   2.401   3.464  0.7757  0.4514  0.1333
 1206SOL    HW115251   0.569   2.434   3.386 -0.2678  2.7270  1.7228
 1206SOL    HW215252   0.604   2.308   3.443 -1.6035 -0.0021  3.2856
 1207SOL     OW15253   4.175   1.955   5.087  0.1701 -0.3084 -0.6696
 1207SOL    HW115254   4.189   1.948   4.992  2.8979  0.9637 -0.3555
 1207SOL    HW215255   4.172   2.049   5.104 -1.5720 -0.5955  0.5607
 1208SOL     OW15256   2.442   0.001   3.091  0.1745  0.3850  0.1902
 1208SOL    HW115257   2.400   0.007   3.177  0.9195 -0.4533  0.6070
 1208SOL    HW215258   2.501   0.077   3.096 -0.2291  0.7709 -0.9616
 1209SOL     OW15259   1.713   2.788   7.198  0.2043 -0.0919  0.3479
 1209SOL    HW115260   1.713   2.699   7.163 -2.0159 -0.7568  2.0769
 1209SOL    HW215261   1.703   2.764   7.290 -0.8735 -0.2889  0.1701
 1210SOL     OW15262   2.036   4.707   2.275  0.0664  0.2222 -0.4552
 1210SOL    HW115263   1.962   4.683   2.219  0.1700 -0.5037 -0.2897
 1210SOL    HW215264   1.996   4.698   2.361 -0.5448  1.5676 -0.6021
 1211SOL     OW15265   2.434   4.065  10.218 -0.3840 -0.4159 -0.3172
 1211SOL    HW115266   2.402   4.035  10.133  0.7110 -0.4995 -0.7012
 1211SOL    HW215267   2.519   4.020  10.218  0.0623  0.4367  1.4391
 1212SOL     OW15268   4.517   4.713   7.237  0.2159 -0.2137 -0.0625
 1212SOL    HW115269   4.485   4.624   7.254  0.9135  0.1136  3.0600
 1212SOL    HW215270   4.610   4.702   7.257  0.5631  2.7188 -0.0377
 1213SOL     OW15271   3.791   3.596  13.425  0.7922  0.3983 -0.7031
 1213SOL    HW115272   3.878   3.581  13.390  0.9614  0.4966 -0.3251
 1213SOL    HW215273   3.772   3.518  13.477  2.4050 -0.8183 -1.9385
 1214SOL     OW15274   3.905   3.667   6.817 -0.1015 -0.0199 -0.1208
 1214SOL    HW115275   3.925   3.751   6.858  1.4591  0.3682 -1.6815
 1214SOL    HW215276   3.886   3.709   6.733 -2.2479  1.4351  1.0895
 1215SOL     OW15277   1.060   1.318  15.274  0.0888 -0.0527 -0.4317
 1215SOL    HW115278   1.102   1.283  15.353  1.4928  0.4040 -0.9634
 1215SOL    HW215279   0.988   1.257  15.263 -0.7625  0.8964 -0.1069
 1216SOL     OW15280   0.709   4.353   9.402 -0.2973 -0.3502  0.0941
 1216SOL    HW115281   0.616   4.375   9.406 -0.0876  0.7630 -0.8997
 1216SOL    HW215282   0.713   4.261   9.425 -1.0694 -0.4098 -0.0244
 1217SOL     OW15283   3.136   1.672  11.510 -0.3121 -0.1367 -0.3981
 1217SOL    HW115284   3.230   1.686  11.501 -0.1657 -0.2304  0.8696
 1217SOL    HW215285   3.104   1.751  11.466  0.4184  0.6159  0.4138
 1218SOL     OW15286   4.414   0.182  13.565 -0.9306  1.1465 -0.3048
 1218SOL    HW115287   4.323   0.189  13.535 -0.8382 -0.4452 -0.9354
 1218SOL    HW215288   4.418   0.091  13.594 -1.2268  1.3992  0.5281
 1219SOL     OW15289   1.758   1.548  17.689  0.2208  0.7264  0.1679
 1219SOL    HW115290   1.694   1.485  17.722  2.0066 -2.0955 -1.7089
 1219SOL    HW215291   1.787   1.500  17.612 -0.8183 -0.3621  0.4487
 1220SOL     OW15292   0.933   3.886  17.092  0.4078 -0.0452  0.6677
 1220SOL    HW115293   0.960   3.974  17.118  2.7552 -1.0910  1.8007
 1220SOL    HW215294   0.838   3.883  17.079  0.2513 -0.1862  1.8848
 1221SOL     OW15295   1.270   2.705   5.486  0.0569  1.0716  0.2580
 1221SOL    HW115296   1.245   2.670   5.401 -0.0883  1.4994  0.1271
 1221SOL    HW215297   1.365   2.702   5.488  0.1212  2.9354 -0.0858
 1222SOL     OW15298   4.515   0.458   4.033  0.9654 -0.4488 -0.1482
 1222SOL    HW115299   4.512   0.469   4.128 -0.2172  0.4941 -0.2965
 1222SOL    HW215300   4.425   0.436   4.011  0.5152  1.8055 -0.5279
 1223SOL     OW15301   2.752   2.243  15.587  0.0508  0.3192  0.1044
 1223SOL    HW115302   2.776   2.285  15.505 -3.5747 -1.5375 -1.8900
 1223SOL    HW215303   2.809   2.167  15.577  2.1595  1.9495 -0.1594
 1224SOL     OW15304   0.730   0.556   5.969  0.0421  0.2204 -0.0545
 1224SOL    HW115305   0.777   0.515   6.041  0.6613 -0.9958 -1.1545
 1224SOL    HW215306   0.799   0.557   5.903  0.4119 -0.6879  0.3193
 1225SOL     OW15307   2.599   0.250   8.174 -0.2547 -0.2080  0.4998
 1225SOL    HW115308   2.669   0.194   8.141  0.3973  0.9806 -0.1156
 1225SOL    HW215309   2.618   0.330   8.125 -1.3089  0.8412  1.7947
 1226SOL     OW15310   0.448   0.191   2.963 -0.2779 -0.3240  0.0392
 1226SOL    HW115311   0.419   0.136   3.036 -2.5906 -0.4523 -0.9891
 1226SOL    HW215312   0.396   0.271   2.963  0.0154 -0.1335 -0.1504
 1227SOL     OW15313   4.491   2.285   7.221  0.1877  0.5772 -0.1489
 1227SOL    HW115314   4.552   2.285   7.147  0.0696  0.8194 -0.2440
 1227SOL    HW215315   4.531   2.347   7.282 -0.9744  1.1774  0.0029
 1228SOL     OW15316   0.075   4.634   3.214 -0.0640 -0.0179  0.3000
 1228SOL    HW115317   0.007   4.602   3.155  0.6095  3.3840 -2.3310
 1228SOL    HW215318   0.045   4.591   3.295  1.1499  0.3841  0.9624
 1229SOL     OW15319   4.549   0.633   9.264  0.1837  0.2599  0.5259
 1229SOL    HW115320   4.494   0.560   9.235 -0.3308  0.8000  0.1323
 1229SOL    HW215321   4.483   0.686   9.310  1.2594  2.2027 -0.1894
 1230SOL     OW15322   4.561   0.107   4.711  0.1893 -0.5895 -0.4752
 1230SOL    HW115323   4.612   0.100   4.630 -0.5800 -4.9742 -0.6001
 1230SOL    HW215324   4.631   0.141   4.767  0.4938 -1.7911 -0.1269
 1231SOL     OW15325   2.929   3.585   6.065  0.3146  0.0267  0.0457
 1231SOL    HW115326   2.896   3.495   6.077  0.8029 -0.1512  0.0468
 1231SOL    HW215327   2.945   3.598   5.972  1.8313  0.6583  0.3947
 1232SOL     OW15328   3.230   4.560  14.676  0.5032 -0.0022 -0.7111
 1232SOL    HW115329   3.139   4.535  14.695  1.7043 -1.9033  2.5859
 1232SOL    HW215330   3.282   4.490  14.716 -0.9892 -1.1263 -0.7314
 1233SOL     OW15331   1.272   1.363   4.848 -0.0328  0.3535  0.2917
 1233SOL    HW115332   1.341   1.350   4.912 -1.6456  0.3645  2.0309
 1233SOL    HW215333   1.322   1.387   4.770 -1.2221  1.1471 -0.2160
 1234SOL     OW15334   2.760   1.473   5.646 -0.1329  0.6763  0.5249
 1234SOL    HW115335   2.827   1.450   5.582 -0.1594 -0.6245  0.9774
 1234SOL    HW215336   2.759   1.568   5.632 -3.4761  0.3231 -1.7619
 1235SOL     OW15337   3.819   1.600   1.628  0.4336 -0.3681  0.1369
 1235SOL    HW115338   3.731   1.628   1.650  1.3386  0.8409  2.2422
 1235SOL    HW215339   3.871   1.663   1.678  0.5328 -1.1200  0.9794
 1236SOL     OW15340   1.931   4.548   7.859  0.1403  0.0842 -0.4763
 1236SOL    HW115341   1.841   4.544   7.826  0.5319 -0.9683 -1.3799
 1236SOL    HW215342   1.925   4.562   7.954  1.2208 -0.0395 -0.3897
 1237SOL     OW15343   1.918   3.302   0.128  0.0449  0.2278 -0.1520
 1237SOL    HW115344   1.875   3.317   0.212  1.1508  2.0373  0.0897
 1237SOL    HW215345   1.954   3.215   0.143 -1.0605 -0.1094  0.5477
 1238SOL     OW15346   4.503   3.628   2.585 -0.0768 -0.6123 -0.1149
 1238SOL    HW115347   4.524   3.714   2.621 -0.6054 -0.0123 -1.2368
 1238SOL    HW215348   4.463   3.656   2.502  1.1306 -0.9455 -0.8172
 1239SOL     OW15349   1.878   0.140   1.538 -0.0637  0.0341 -0.1570
 1239SOL    HW115350   1.799   0.151   1.484 -0.0207 -2.6835 -0.7711
 1239SOL    HW215351   1.860   0.190   1.617 -0.3975  0.1801 -0.3236
 1240SOL     OW15352   3.722   0.692   3.236  0.0918  0.1742 -0.7108
 1240SOL    HW115353   3.802   0.644   3.217  1.5279  1.6619  1.6660
 1240SOL    HW215354   3.650   0.636   3.206  0.9687 -1.8579  0.9538
 1241SOL     OW15355   3.301   1.987   8.588 -0.5786 -0.3450  0.2365
 1241SOL    HW115356   3.209   1.973   8.610 -0.8278  0.2517 -0.4088
 1241SOL    HW215357   3.328   1.895   8.594  1.0527 -0.0657 -2.6010
 1242SOL     OW15358   0.342   3.622   1.287 -0.2375 -0.1268 -0.0259
 1242SOL    HW115359   0.391   3.700   1.310  1.6825 -1.2146 -0.4040
 1242SOL    HW215360   0.417   3.564   1.275 -0.7369 -0.2479 -2.6277
 1243SOL     OW15361   4.643   2.052   4.114  0.1185  0.7913 -0.0154
 1243SOL    HW115362   4.713   2.055   4.179  0.1588  0.6039 -0.0525
 1243SOL    HW215363   4.684   2.102   4.043  1.6233 -1.8939 -1.0311
 1244SOL     OW15364   3.136   4.207   1.505 -0.1293  0.0254 -0.8766
 1244SOL    HW115365   3.081   4.136   1.539  0.9175 -0.7874 -0.8771
 1244SOL    HW215366   3.106   4.204   1.414  0.5531 -1.3415 -1.0512
 1245SOL     OW15367   4.111   4.497   3.366  0.1833  0.0614 -0.9563
 1245SOL    HW115368   4.102   4.453   3.451 -0.8615  0.1587 -1.0133
 1245SOL    HW215369   4.122   4.588   3.395 -0.8780 -0.6573  1.7860
 1246SOL     OW15370   1.467   3.482   4.940 -0.0662 -0.0933 -0.3669
 1246SOL    HW115371   1.383   3.476   4.987  0.0835  2.5611  0.2633
 1246SOL    HW215372   1.450   3.399   4.895 -2.2111 -1.5018  2.9731
 1247SOL     OW15373   0.430   2.937   3.347  0.4674 -0.2170  0.1126
 1247SOL    HW115374   0.403   2.872   3.412 -0.8902  1.7363  1.5252
 1247SOL    HW215375   0.373   2.923   3.272  0.7206 -1.9614  0.2484
 1248SOL     OW15376   3.961   3.890   2.753 -0.4509 -0.3034 -0.4863
 1248SOL    HW115377   3.902   3.884   2.828 -0.2734 -3.0644 -0.5943
 1248SOL    HW215378   3.906   3.876   2.677 -0.6696 -0.7459 -0.2483
 1249SOL     OW15379   1.081   3.042   7.129 -0.1778 -0.3618 -0.0580
 1249SOL    HW115380   1.035   2.961   7.150  0.0273  0.6143  4.1808
 1249SOL    HW215381   1.044   3.099   7.196 -1.1426 -0.5511 -0.4263
 1250SOL     OW15382   1.932   0.090   1.208  0.4356  0.2610  0.4351
 1250SOL    HW115383   2.009   0.132   1.246 -0.2376  2.0848 -0.2380
 1250SOL    HW215384   1.973   0.049   1.131 -0.9119  2.6474 -1.5595
 1251SOL     OW15385   3.296   3.561   2.820  0.2927  0.1540 -0.3135
 1251SOL    HW115386   3.322   3.596   2.734 -1.2127 -0.6360 -1.0950
 1251SOL    HW215387   3.214   3.515   2.802  0.0400 -0.3271  2.1587
 1252SOL     OW15388   3.506   3.241  12.173 -0.5215 -0.2903  0.2647
 1252SOL    HW115389   3.570   3.269  12.108  1.2667 -0.4058  1.9675
 1252SOL    HW215390   3.566   3.214  12.242 -0.9475  2.0284  1.5385
 1253SOL     OW15391   1.374   1.409   2.596  0.6035 -0.9506  0.2145
 1253SOL    HW115392   1.363   1.458   2.514 -0.0810 -1.1348  0.1948
 1253SOL    HW215393   1.420   1.330   2.566  0.1614 -1.0534 -0.1952
 1254SOL     OW15394   0.940   3.430   3.532  0.1119  0.1417  0.5436
 1254SOL    HW115395   1.003   3.495   3.565 -1.8839  1.3721  1.9429
 1254SOL    HW215396   0.909   3.384   3.610 -2.2939 -0.1327 -0.5717
 1255SOL     OW15397   0.740   3.403   0.081 -0.0072  0.6304 -0.5104
 1255SOL    HW115398   0.834   3.419   0.089  0.2417 -1.4581  0.5870
 1255SOL    HW215399   0.715   3.394   0.172 -1.1297 -2.3138 -1.1165
 1256SOL     OW15400   2.430   1.952   0.950 -0.0736 -0.1986 -0.0394
 1256SOL    HW115401   2.377   1.950   1.030 -1.6988  1.6053 -1.0679
 1256SOL    HW215402   2.463   2.042   0.949  0.6083 -0.4202  3.1576
 1257SOL     OW15403   1.334   2.740  15.212  0.3914 -0.2213  0.4479
 1257SOL    HW115404   1.408   2.740  15.273 -0.5773  3.8058  1.5980
 1257SOL    HW215405   1.279   2.804  15.255 -1.8358 -1.3521 -0.7388
 1258SOL     OW15406   1.757   4.324   8.879  0.4595 -0.3428  0.2406
 1258SOL    HW115407   1.761   4.407   8.832  2.7417 -0.1157  0.8493
 1258SOL    HW215408   1.703   4.274   8.818 -0.7494  2.3304 -0.8970
 1259SOL     OW15409   3.291   4.661   9.471 -0.0654  0.2878  0.1433
 1259SOL    HW115410   3.316   4.677   9.380 -0.1156 -0.2577  0.0290
 1259SOL    HW215411   3.318   4.570   9.485  1.0829  0.2044 -2.5684
 1260SOL     OW15412   0.484   0.545   6.436  0.2849 -0.0782 -0.3321
 1260SOL    HW115413   0.568   0.569   6.396  0.5858 -2.0104 -0.8994
 1260SOL    HW215414   0.511   0.468   6.486  1.8099  0.5809 -0.1320
 1261SOL     OW15415   2.555   3.892  10.873 -0.1126 -0.4080  0.0075
 1261SOL    HW115416   2.465   3.920  10.885 -0.3390 -1.4461  0.7492
 1261SOL    HW215417   2.574   3.928  10.786  1.2213 -2.3551 -0.5172
 1262SOL     OW15418   3.052   1.238   8.226  0.4118  0.0633 -0.2397
 1262SOL    HW115419   3.060   1.276   8.138  0.3864 -0.3146 -0.4060
 1262SOL    HW215420   3.140   1.202   8.235 -0.0636 -0.6788  1.3949
 1263SOL     OW15421   2.040   1.582  15.345 -0.2513  0.1671  0.6033
 1263SOL    HW115422   1.946   1.588  15.364  0.0789  3.7301  1.1468
 1263SOL    HW215423   2.070   1.613  15.431 -0.7320 -0.2078  0.9050
 1264SOL     OW15424   1.298   4.337   9.590 -0.0086 -0.0343  0.3324
 1264SOL    HW115425   1.266   4.415   9.634  0.3699  1.2654 -1.6925
 1264SOL    HW215426   1.332   4.280   9.660 -1.4018 -0.2931  0.7967
 1265SOL     OW15427   0.102   2.050   3.235  0.2697 -0.1446 -0.0724
 1265SOL    HW115428   0.163   2.124   3.243  0.5427 -0.2461 -1.2060
 1265SOL    HW215429   0.058   2.060   3.319 -1.2495 -0.7483 -0.8030
 1266SOL     OW15430   3.875   2.968   6.162  0.1097  0.4473 -0.1681
 1266SOL    HW115431   3.962   2.950   6.126  0.1569 -0.3888  0.3530
 1266SOL    HW215432   3.852   3.037   6.101 -0.6347  1.4846  1.3054
 1267SOL     OW15433   4.622   2.584   4.613 -0.2724  0.0319  0.2745
 1267SOL    HW115434   4.693   2.636   4.575  0.4748 -0.3986  1.0756
 1267SOL    HW215435   4.596   2.648   4.679 -1.8387  0.6115 -0.9042
 1268SOL     OW15436   0.722   4.528   2.264  0.3638 -0.2570  0.2417
 1268SOL    HW115437   0.652   4.535   2.198  1.1797 -2.2894 -0.8402
 1268SOL    HW215438   0.668   4.507   2.340  1.2780  0.8510  1.1970
 1269SOL     OW15439   4.452   4.666   5.311  0.6779  0.1957  0.1652
 1269SOL    HW115440   4.383   4.617   5.357  0.3231  0.4620 -0.0857
 1269SOL    HW215441   4.404   4.673   5.228  0.1600 -1.1390  0.3456
 1270SOL     OW15442   3.841   2.619   2.463  0.1463  0.0268 -0.2078
 1270SOL    HW115443   3.775   2.621   2.532  1.1097  1.7458  0.6562
 1270SOL    HW215444   3.786   2.638   2.387 -0.2605 -0.6353 -0.0757
 1271SOL     OW15445   4.064   2.443   2.599  0.5495  0.2898 -0.7035
 1271SOL    HW115446   4.089   2.407   2.514 -0.6450 -1.4251 -0.3100
 1271SOL    HW215447   3.998   2.504   2.568 -0.4729 -1.0858 -1.2030
 1272SOL     OW15448   2.548   0.863   0.920  0.3015  0.0712 -0.4253
 1272SOL    HW115449   2.472   0.871   0.977  0.6750  5.5969 -0.7055
 1272SOL    HW215450   2.572   0.954   0.903 -0.0721  0.1925 -0.2991
 1273SOL     OW15451   0.937   0.287  16.590  0.1553  0.0714 -0.2764
 1273SOL    HW115452   0.982   0.271  16.673  0.8237  2.3731 -0.1848
 1273SOL    HW215453   0.887   0.207  16.575 -0.0366 -0.1797  1.7460
 1274SOL     OW15454   0.248   4.148   2.920  0.7030  0.6793 -0.5027
 1274SOL    HW115455   0.243   4.238   2.951 -0.8246  1.1267 -2.1038
 1274SOL    HW215456   0.166   4.123   2.963  1.2110  2.0776  1.2998
 1275SOL     OW15457   0.500   4.065  16.854 -0.1902 -0.0363 -0.4356
 1275SOL    HW115458   0.553   3.999  16.897 -0.9189  0.0204  0.5273
 1275SOL    HW215459   0.571   4.125  16.831  0.6488  0.3266  3.1095
 1276SOL     OW15460   2.879   2.336   5.273 -0.0312 -0.3992  0.1559
 1276SOL    HW115461   2.866   2.416   5.323 -3.2570 -2.1976  2.2678
 1276SOL    HW215462   2.950   2.343   5.209 -0.5356  0.8376 -0.2643
 1277SOL     OW15463   3.310   1.606  12.370 -0.4137 -0.1068  0.2325
 1277SOL    HW115464   3.357   1.622  12.452 -0.1841 -3.4445  0.7571
 1277SOL    HW215465   3.378   1.589  12.305  1.1239  1.4243  1.4142
 1278SOL     OW15466   0.780   1.989   5.016  0.0389 -0.3225 -0.5282
 1278SOL    HW115467   0.846   2.041   4.970  0.7959  1.4136  2.4879
 1278SOL    HW215468   0.712   1.984   4.949  1.5934 -1.3718 -2.0257
 1279SOL     OW15469   3.449   3.232   7.195  0.0405 -0.1804 -0.3080
 1279SOL    HW115470   3.376   3.292   7.214  0.8861 -0.0541  2.5506
 1279SOL    HW215471   3.522   3.280   7.234  1.4038 -2.6058  0.1008
 1280SOL     OW15472   3.929   4.004   4.451 -0.0810  0.3707  0.2518
 1280SOL    HW115473   3.839   4.038   4.447  0.2109  0.9084 -1.3483
 1280SOL    HW215474   3.955   4.041   4.536 -0.2580 -0.7974  0.8205
 1281SOL     OW15475   3.904   4.178   3.562  0.0011 -0.2818 -0.4528
 1281SOL    HW115476   3.987   4.167   3.516  1.7092  1.1426  2.3252
 1281SOL    HW215477   3.937   4.245   3.622 -1.1443  0.9523 -1.1818
 1282SOL     OW15478   1.384   4.660   2.116 -0.1170 -0.1709  0.4909
 1282SOL    HW115479   1.403   0.001   2.061  0.2372  0.4586  1.4895
 1282SOL    HW215480   1.463   4.654   2.171 -0.5411 -0.6951  1.0451
 1283SOL     OW15481   1.647   0.179  15.927  0.2696 -0.1511 -1.0591
 1283SOL    HW115482   1.735   0.148  15.906  0.6576  1.1107 -1.3012
 1283SOL    HW215483   1.626   0.120  15.999 -1.2223 -1.2891 -2.3996
 1284SOL     OW15484   2.910   3.057   4.402  0.3986 -0.3740  0.6537
 1284SOL    HW115485   2.849   2.985   4.389 -1.8526  1.3799  1.3386
 1284SOL    HW215486   2.979   3.013   4.450 -0.3131 -1.4999  0.6280
 1285SOL     OW15487   1.325   1.771   9.763  0.6558  0.8821 -0.5863
 1285SOL    HW115488   1.318   1.711   9.689  0.6482  1.7243 -1.2544
 1285SOL    HW215489   1.364   1.843   9.714  3.3717 -1.8707 -2.4596
 1286SOL     OW15490   4.097   0.866  12.770 -0.2262  0.1531 -0.0823
 1286SOL    HW115491   4.091   0.905  12.857 -0.1266 -0.1910  0.0782
 1286SOL    HW215492   4.183   0.902  12.749  0.4186 -2.2924 -1.6187
 1287SOL     OW15493   2.090   2.654   3.579  0.2698  0.2097  0.4528
 1287SOL    HW115494   2.031   2.593   3.623  1.1667 -1.0438 -0.0632
 1287SOL    HW215495   2.149   2.590   3.539  0.9691  1.2471 -0.1954
 1288SOL     OW15496   0.859   0.307   5.247  0.5138 -0.1474  0.6695
 1288SOL    HW115497   0.813   0.229   5.277 -0.8159  1.1592  2.0646
 1288SOL    HW215498   0.780   0.357   5.226  0.8093 -0.0070 -0.1047
 1289SOL     OW15499   1.749   3.543  14.186  0.2327  0.1271  0.1889
 1289SOL    HW115500   1.828   3.520  14.235 -0.5861 -1.0746  0.9320
 1289SOL    HW215501   1.783   3.591  14.110 -0.1345  0.2584  0.1074
 1290SOL     OW15502   0.054   1.267  15.099  0.2475  0.6408 -0.1887
 1290SOL    HW115503   4.726   1.325  15.057  0.5747  1.1656  0.0402
 1290SOL    HW215504   0.054   1.297  15.189  1.0710 -0.7163  0.2692
 1291SOL     OW15505   3.032   0.904   9.620  0.2292 -0.5045  0.0952
 1291SOL    HW115506   3.011   0.909   9.527  0.3443  1.6116  0.1945
 1291SOL    HW215507   2.957   0.943   9.664  1.1522  0.4092  0.8605
 1292SOL     OW15508   3.132   0.875   1.916 -0.7304 -0.2919 -0.5817
 1292SOL    HW115509   3.121   0.782   1.898  0.1895 -0.9255  2.1436
 1292SOL    HW215510   3.042   0.898   1.893 -1.9182 -3.3817  0.8784
 1293SOL     OW15511   1.784   0.896   5.335 -0.5464 -0.3789  0.0266
 1293SOL    HW115512   1.868   0.940   5.348  0.5020 -2.0317 -1.0587
 1293SOL    HW215513   1.733   0.974   5.313 -0.9444 -0.3798  0.9311
 1294SOL     OW15514   2.643   0.159   7.811 -0.4585 -0.1852 -0.2484
 1294SOL    HW115515   2.647   0.252   7.833 -0.3206 -0.5487  1.2625
 1294SOL    HW215516   2.563   0.148   7.760 -1.5695  1.7301  1.1112
 1295SOL     OW15517   0.093   4.475  13.600 -0.4208 -0.1554 -0.3085
 1295SOL    HW115518   0.133   4.468  13.513  0.1204 -1.0667  0.0209
 1295SOL    HW215519   0.128   4.557  13.636  1.5422 -0.7184 -0.9140
 1296SOL     OW15520   1.295   2.158   9.422 -0.4464 -0.1484 -0.1383
 1296SOL    HW115521   1.345   2.190   9.348 -0.4977 -0.2891 -0.2350
 1296SOL    HW215522   1.303   2.226   9.489 -2.1224 -0.3268  0.2368
 1297SOL     OW15523   0.147   1.013   7.296 -0.0013  0.1279  0.0466
 1297SOL    HW115524   0.162   0.939   7.356  0.8677  0.7411  0.5984
 1297SOL    HW215525   0.122   1.087   7.352 -2.0838 -0.3120 -0.3201
 1298SOL     OW15526   3.238   3.561  12.866 -0.3916  0.1930  0.2084
 1298SOL    HW115527   3.230   3.522  12.953 -0.2933  2.0305  1.0396
 1298SOL    HW215528   3.185   3.639  12.875  1.4558  1.8735 -3.4569
 1299SOL     OW15529   0.058   0.083   8.981  0.1286 -0.4907  0.3259
 1299SOL    HW115530   4.733   0.106   9.052 -0.3468  0.7373 -0.4837
 1299SOL    HW215531   0.036   4.726   8.972  2.4911 -0.9897 -0.3458
 1300SOL     OW15532   3.575   3.908  10.257 -0.0832 -0.1264  0.0955
 1300SOL    HW115533   3.633   3.917  10.333  0.5970  1.0524 -0.5623
 1300SOL    HW215534   3.515   3.978  10.282 -0.8899 -0.3051 -1.3101
 1301SOL     OW15535   4.718   2.462   3.336 -0.3606 -0.8033 -0.3519
 1301SOL    HW115536   4.722   2.513   3.416  2.8540  0.7777 -1.5148
 1301SOL    HW215537   4.631   2.422   3.338 -1.0873  0.8636  0.7380
 1302SOL     OW15538   2.244   1.065   9.548 -0.3831  0.2685  0.2674
 1302SOL    HW115539   2.230   1.141   9.605  0.9655  0.0056  0.9618
 1302SOL    HW215540   2.331   1.086   9.513  0.1420  0.6876  1.7955
 1303SOL     OW15541   3.590   2.129   4.106  0.0664 -0.1933 -0.0998
 1303SOL    HW115542   3.504   2.097   4.077 -0.1679  1.0163 -0.7256
 1303SOL    HW215543   3.596   2.217   4.068  2.0490 -0.4465 -0.3899
 1304SOL     OW15544   3.759   0.347  12.286  0.2516  0.1209 -0.6712
 1304SOL    HW115545   3.845   0.315  12.261  0.7261  0.8501  0.0003
 1304SOL    HW215546   3.777   0.415  12.351  2.1177 -1.4653  0.4806
 1305SOL     OW15547   3.196   2.651   2.518  0.0354 -0.0516 -0.2140
 1305SOL    HW115548   3.141   2.720   2.555 -2.6122 -0.9536 -2.4423
 1305SOL    HW215549   3.260   2.634   2.587  0.2890 -2.9861 -1.1945
 1306SOL     OW15550   2.442   2.928  17.322  0.2124  0.2278  0.0143
 1306SOL    HW115551   2.536   2.921  17.336  0.0462 -0.9112  0.5299
 1306SOL    HW215552   2.405   3.008  17.360 -1.5025 -1.1129  1.1493
 1307SOL     OW15553   4.317   2.289   5.562  0.0638  0.3809 -0.0458
 1307SOL    HW115554   4.319   2.208   5.512  0.3913 -0.0236  0.6267
 1307SOL    HW215555   4.408   2.286   5.593  0.0058 -2.1389 -0.1209
 1308SOL     OW15556   0.050   0.141   7.765 -0.6751  0.3631 -0.4785
 1308SOL    HW115557   0.083   0.137   7.855  1.6711  0.3765 -1.3390
 1308SOL    HW215558   0.107   0.208   7.726 -2.2774  0.5085 -2.5652
 1309SOL     OW15559   0.633   3.383   5.484  0.6861 -0.2615  0.0304
 1309SOL    HW115560   0.588   3.422   5.409  0.9697  0.1773  0.0884
 1309SOL    HW215561   0.568   3.395   5.554 -0.2450  1.2282 -1.0824
 1310SOL     OW15562   4.552   0.354   9.772 -0.0212  0.3591  0.3204
 1310SOL    HW115563   4.619   0.297   9.736  0.1849  0.9564 -0.2375
 1310SOL    HW215564   4.565   0.434   9.721  0.2458  1.0830  1.5400
 1311SOL     OW15565   1.207   3.306   3.190  0.4170 -1.3263 -0.1577
 1311SOL    HW115566   1.134   3.353   3.148  0.9102 -1.2669 -0.9483
 1311SOL    HW215567   1.161   3.249   3.251  0.0921 -0.3662  0.4886
 1312SOL     OW15568   0.894   0.758   1.012  0.1337  0.6315  0.3664
 1312SOL    HW115569   0.904   0.843   1.054  1.4322  1.0108 -0.7107
 1312SOL    HW215570   0.891   0.694   1.083 -2.0758  0.8734  0.5002
 1313SOL     OW15571   1.102   2.455   8.163 -0.0526  0.3317 -0.8321
 1313SOL    HW115572   1.079   2.418   8.248  1.3969 -0.5482 -0.8116
 1313SOL    HW215573   1.146   2.384   8.116 -0.3658  0.4636 -1.3256
 1314SOL     OW15574   3.842   1.381   2.889 -0.2856 -0.5680  0.0008
 1314SOL    HW115575   3.870   1.407   2.976  1.4980 -1.7476 -0.2387
 1314SOL    HW215576   3.831   1.287   2.898  0.6906 -0.4218  2.4456
 1315SOL     OW15577   0.307   3.140   2.215 -0.3478  0.1814 -0.4944
 1315SOL    HW115578   0.265   3.152   2.300 -1.4892 -0.6610 -0.9442
 1315SOL    HW215579   0.275   3.218   2.171 -0.8131 -0.7163 -1.7369
 1316SOL     OW15580   4.133   4.530   7.843 -0.2490 -0.0621  0.7637
 1316SOL    HW115581   4.208   4.586   7.827  0.8890 -1.8269 -0.1045
 1316SOL    HW215582   4.140   4.508   7.936 -2.2738 -0.3544  0.8659
 1317SOL     OW15583   0.230   2.350   5.907  0.3532 -0.3895 -0.7908
 1317SOL    HW115584   0.207   2.275   5.853 -2.1089  0.7656 -1.3463
 1317SOL    HW215585   0.152   2.367   5.960 -0.0273 -1.8871 -0.8676
 1318SOL     OW15586   2.768   3.702   5.678 -0.1297 -0.4728 -0.2568
 1318SOL    HW115587   2.743   3.610   5.676  0.4506 -0.6636  0.9599
 1318SOL    HW215588   2.767   3.717   5.584  0.8999 -0.1879 -0.2264
 1319SOL     OW15589   3.408   4.581   7.121  0.0290  0.4713  0.0190
 1319SOL    HW115590   3.353   4.508   7.150  1.3742 -0.4648  0.2321
 1319SOL    HW215591   3.351   4.634   7.065 -0.1835  0.5287  0.2858
 1320SOL     OW15592   2.385   1.671  15.770 -0.2647 -0.2431 -0.2388
 1320SOL    HW115593   2.478   1.693  15.773  0.1348 -1.8218 -1.0399
 1320SOL    HW215594   2.360   1.739  15.707 -0.5041  1.0831  1.2999
 1321SOL     OW15595   2.347   3.522  15.455  0.3522 -0.0870  0.4577
 1321SOL    HW115596   2.311   3.435  15.438  0.5315 -0.0264 -0.2444
 1321SOL    HW215597   2.292   3.534  15.532  0.6761  2.6923  0.2525
 1322SOL     OW15598   3.527   4.690   1.631 -0.4680 -0.1089 -0.5182
 1322SOL    HW115599   3.510   4.597   1.613 -0.2882 -0.7336  2.4114
 1322SOL    HW215600   3.456   4.715   1.690  0.4813  0.5056  0.3886
 1323SOL     OW15601   1.033   2.313   8.366 -0.1810  0.0328  0.0641
 1323SOL    HW115602   0.947   2.277   8.386 -1.0379  2.0086  0.0123
 1323SOL    HW215603   1.087   2.271   8.433  0.5794 -1.6178 -1.5949
 1324SOL     OW15604   4.046   3.763   4.481  0.0102 -0.4999  0.1806
 1324SOL    HW115605   4.067   3.805   4.565  0.9240 -1.5442  0.4683
 1324SOL    HW215606   3.973   3.818   4.449  0.9859  1.4552  1.2906
 1325SOL     OW15607   1.114   2.135   8.788 -0.1958 -0.0893  0.6276
 1325SOL    HW115608   1.125   2.096   8.875  1.6987 -0.4381  0.2314
 1325SOL    HW215609   1.045   2.076   8.758  0.6866 -1.8083  1.9557
 1326SOL     OW15610   4.375   2.794   8.044  0.4767 -0.2386  0.2347
 1326SOL    HW115611   4.418   2.879   8.037  0.7552 -0.3027  1.3266
 1326SOL    HW215612   4.439   2.736   8.083 -1.1830 -2.8386 -0.8712
 1327SOL     OW15613   3.081   1.902  12.429  0.2058 -0.1253 -0.5304
 1327SOL    HW115614   3.006   1.843  12.436 -2.0592  2.7971 -0.1861
 1327SOL    HW215615   3.100   1.911  12.522  0.8956  3.2457 -0.9716
 1328SOL     OW15616   0.734   3.260  11.794 -0.1399  0.1524  0.2129
 1328SOL    HW115617   0.730   3.355  11.781 -0.0727  0.4487  2.3617
 1328SOL    HW215618   0.768   3.263  11.883 -0.8131 -0.2594  0.4803
 1329SOL     OW15619   1.086   1.062   6.114 -0.5200  0.8839 -0.7997
 1329SOL    HW115620   1.091   1.036   6.022  4.0960 -1.3277  0.0586
 1329SOL    HW215621   1.009   1.010   6.139 -0.0276  1.9361  2.9235
 1330SOL     OW15622   0.980   1.644   3.736  0.3767 -0.0862  0.3563
 1330SOL    HW115623   1.012   1.725   3.776 -0.3107  0.8698 -1.0311
 1330SOL    HW215624   0.896   1.637   3.782 -0.0394 -0.9435 -0.5345
 1331SOL     OW15625   4.552   4.335  11.028  0.5064  0.1774 -0.0628
 1331SOL    HW115626   4.564   4.429  11.046  1.0689  0.5142 -2.1952
 1331SOL    HW215627   4.578   4.301  11.113  0.5947  0.6872  0.1171
 1332SOL     OW15628   3.107   2.109   5.155 -0.0438  0.4868 -0.3847
 1332SOL    HW115629   3.110   2.196   5.113  0.6943  0.0747 -1.1890
 1332SOL    HW215630   3.076   2.051   5.086  2.0176 -0.5873 -0.4049
 1333SOL     OW15631   0.937   1.666   7.017  0.3248 -0.3666 -0.5112
 1333SOL    HW115632   0.849   1.667   6.980 -0.0294 -0.1870  0.3255
 1333SOL    HW215633   0.964   1.744   6.970  2.3262 -0.4256  0.5348
 1334SOL     OW15634   1.033   4.241   6.953 -0.2926  0.0833  0.2033
 1334SOL    HW115635   1.054   4.169   6.892 -1.1982  2.2138 -2.6193
 1334SOL    HW215636   1.111   4.252   7.007  0.1001  0.7879 -0.5006
 1335SOL     OW15637   2.327   3.303  17.167  0.3349 -0.0502  0.2987
 1335SOL    HW115638   2.355   3.363  17.237  0.7306  0.2070 -0.0803
 1335SOL    HW215639   2.311   3.354  17.088  0.8178 -1.8198 -0.9313
 1336SOL     OW15640   4.204   3.895  10.626 -0.0509  0.1949 -0.1975
 1336SOL    HW115641   4.111   3.894  10.648  0.3221  0.9921  1.3944
 1336SOL    HW215642   4.193   3.857  10.539 -0.8620  1.6787 -0.7464
 1337SOL     OW15643   3.519   0.539  13.781 -0.5061 -0.0317  0.0820
 1337SOL    HW115644   3.428   0.569  13.784 -0.6940 -0.5399 -0.6058
 1337SOL    HW215645   3.524   0.494  13.697  0.5147  1.1455 -0.4979
 1338SOL     OW15646   3.547   4.546   4.941  0.1060  0.5672 -0.0041
 1338SOL    HW115647   3.578   4.622   4.989 -0.1325 -0.5587  1.9055
 1338SOL    HW215648   3.531   4.478   5.006 -0.1727  0.5067 -0.1375
 1339SOL     OW15649   2.967   1.134   3.268 -0.1160  0.3006  0.2908
 1339SOL    HW115650   2.907   1.208   3.281  0.8705  0.9186  1.3560
 1339SOL    HW215651   3.034   1.161   3.331  2.0190 -1.8162 -1.0750
 1340SOL     OW15652   3.813   0.645   0.342 -0.5776 -0.6260  0.0148
 1340SOL    HW115653   3.814   0.714   0.275 -1.7982 -0.4000  0.2194
 1340SOL    HW215654   3.766   0.579   0.291 -3.4332  1.6976 -0.4031
 1341SOL     OW15655   3.128   3.917  14.339 -0.5023  0.0684 -0.3001
 1341SOL    HW115656   3.199   3.918  14.274 -0.1860 -4.3808 -0.0541
 1341SOL    HW215657   3.153   3.841  14.392  0.7857  0.6086 -0.1363
 1342SOL     OW15658   2.060   3.087  12.794 -0.3281  0.5902  0.1101
 1342SOL    HW115659   1.987   3.137  12.758  0.7880  1.8176 -0.4477
 1342SOL    HW215660   2.128   3.154  12.792 -0.8710  1.0571 -2.9857
 1343SOL     OW15661   2.544   2.852   6.386 -0.1360 -0.2131 -0.6986
 1343SOL    HW115662   2.580   2.931   6.345  1.1550 -0.6026 -0.2935
 1343SOL    HW215663   2.574   2.782   6.329 -0.0201  0.4568 -1.4527
 1344SOL     OW15664   2.197   3.708   7.737 -0.4181 -0.4609 -0.2090
 1344SOL    HW115665   2.120   3.765   7.735 -0.7888 -0.8673  1.9746
 1344SOL    HW215666   2.251   3.765   7.683 -1.7733 -0.4356 -1.5384
 1345SOL     OW15667   2.098   1.066   8.926  0.1281 -0.0548 -0.1155
 1345SOL    HW115668   2.145   1.013   8.991  2.6624  0.3574 -1.6375
 1345SOL    HW215669   2.041   0.999   8.888  1.2655 -1.1756  0.1662
 1346SOL     OW15670   4.563   3.009   8.378  0.4142 -1.2861 -0.2772
 1346SOL    HW115671   4.652   2.982   8.400  0.8966 -0.2671 -0.9331
 1346SOL    HW215672   4.502   2.964   8.436  0.8834  0.8332  1.8926
 1347SOL     OW15673   0.077   0.495   4.649  0.2603 -0.7574  0.0742
 1347SOL    HW115674   0.005   0.535   4.601  0.5769  0.9005  0.9716
 1347SOL    HW215675   0.031   0.463   4.728 -0.3955 -0.4618 -0.1837
 1348SOL     OW15676   4.049   1.882   0.655 -0.3266  0.3707 -0.3962
 1348SOL    HW115677   3.974   1.915   0.606 -0.6368  0.0015 -0.1638
 1348SOL    HW215678   4.034   1.791   0.678 -0.0467  1.1735  3.0218
 1349SOL     OW15679   1.471   1.770   7.720 -0.1190  0.0438  0.1007
 1349SOL    HW115680   1.515   1.700   7.768  0.4700 -0.5828 -1.3315
 1349SOL    HW215681   1.516   1.784   7.636 -1.0657 -2.7420 -0.8622
 1350SOL     OW15682   3.407   0.359   7.027 -0.3915 -0.1189 -0.2011
 1350SOL    HW115683   3.330   0.416   7.028 -0.1576  0.1847  0.4625
 1350SOL    HW215684   3.370   0.270   7.028 -1.4133  0.3270  1.1202
 1351SOL     OW15685   3.126   0.315  11.167 -0.1050  0.2550  0.8357
 1351SOL    HW115686   3.135   0.392  11.223  1.0467 -0.4288  1.5889
 1351SOL    HW215687   3.094   0.242  11.220  1.2921 -2.1077 -1.5426
 1352SOL     OW15688   2.299   1.918   2.319  0.1982 -0.5901  0.1957
 1352SOL    HW115689   2.303   1.925   2.224  1.8091  1.8151  0.4350
 1352SOL    HW215690   2.354   1.995   2.338 -0.5915  0.6963 -2.7681
 1353SOL     OW15691   0.760   3.444   3.068 -0.0870 -0.3744 -0.2710
 1353SOL    HW115692   0.731   3.352   3.069 -2.9497  0.5437 -0.0929
 1353SOL    HW215693   0.701   3.490   3.009  0.3993  3.3184  2.1053
 1354SOL     OW15694   3.413   1.616  16.447  0.1820 -0.5113 -0.4721
 1354SOL    HW115695   3.387   1.698  16.406 -0.0983  1.0241  2.8160
 1354SOL    HW215696   3.455   1.573  16.372  2.5232  1.7406 -0.4575
 1355SOL     OW15697   2.189   2.628   8.554  0.2431 -0.2917 -0.0376
 1355SOL    HW115698   2.227   2.611   8.468  1.2917  0.0031  0.3677
 1355SOL    HW215699   2.132   2.702   8.532  1.1118  0.1705 -0.7149
 1356SOL     OW15700   0.820   3.727   2.814  0.5181  0.6125 -0.1411
 1356SOL    HW115701   0.821   3.783   2.737  1.4610  1.9555  0.8408
 1356SOL    HW215702   0.834   3.786   2.888  0.1459  0.9257 -0.3225
 1357SOL     OW15703   4.735   1.496   7.899  0.1371 -0.1814  0.0871
 1357SOL    HW115704   0.072   1.495   7.962 -0.1101 -0.9013  0.3642
 1357SOL    HW215705   4.703   1.406   7.902 -1.3159  0.3401  0.1688
 1358SOL     OW15706   0.564   2.656   1.880  0.1473  0.2659 -0.0902
 1358SOL    HW115707   0.597   2.644   1.791 -1.7367 -0.4577 -0.6905
 1358SOL    HW215708   0.639   2.659   1.940 -0.0394  1.4261  0.0812
 1359SOL     OW15709   0.826   1.467  16.467 -0.2884 -0.0802 -0.2474
 1359SOL    HW115710   0.804   1.400  16.532  0.9596  0.3066  0.5642
 1359SOL    HW215711   0.913   1.489  16.501 -0.4000 -0.6595  0.4160
 1360SOL     OW15712   0.712   0.070  12.956 -0.3651  0.3382  0.0413
 1360SOL    HW115713   0.779   0.002  12.959 -1.2816 -0.5890 -0.4374
 1360SOL    HW215714   0.726   0.102  13.045  1.9867 -0.2487 -0.1177
 1361SOL     OW15715   4.396   2.501   1.677 -0.3957  0.4678  0.2028
 1361SOL    HW115716   4.489   2.517   1.694  0.1404 -1.2243 -1.1412
 1361SOL    HW215717   4.389   2.488   1.582 -0.5169  1.2882  0.1013
 1362SOL     OW15718   2.954   0.040   2.202 -0.7392 -0.2360 -0.5669
 1362SOL    HW115719   3.028   0.090   2.168 -0.6709  0.8974  1.2448
 1362SOL    HW215720   2.972   0.042   2.296 -2.0384  1.3387 -0.3481
 1363SOL     OW15721   3.884   3.541   2.918 -0.8043 -0.0729 -0.3830
 1363SOL    HW115722   3.962   3.566   2.967 -0.7465 -0.2292 -0.3943
 1363SOL    HW215723   3.825   3.529   2.992 -0.6618  1.8821  0.0370
 1364SOL     OW15724   2.512   4.360   3.889  0.0957  0.4360  1.3918
 1364SOL    HW115725   2.569   4.376   3.813 -0.5680 -3.8650 -0.0161
 1364SOL    HW215726   2.482   4.270   3.872 -0.6425  1.0190 -0.4618
 1365SOL     OW15727   3.768   3.694  14.479  0.4655 -0.1989 -0.0687
 1365SOL    HW115728   3.692   3.729  14.433  0.4416  1.2705  1.0833
 1365SOL    HW215729   3.820   3.775  14.482 -1.1034  0.7837  0.5955
 1366SOL     OW15730   3.631   2.376   6.580  0.2794 -0.3039  0.3293
 1366SOL    HW115731   3.678   2.423   6.649 -0.7987  1.2639 -0.0166
 1366SOL    HW215732   3.558   2.436   6.570 -0.2571 -0.9204  0.5050
 1367SOL     OW15733   2.269   2.066   5.232  0.7336  0.0180 -0.7690
 1367SOL    HW115734   2.267   2.110   5.147  2.6500  1.1811 -0.1928
 1367SOL    HW215735   2.217   1.988   5.211  2.5841 -1.0154 -1.5396
 1368SOL     OW15736   1.191   2.135   8.508 -0.2166 -0.0452  0.0055
 1368SOL    HW115737   1.164   2.093   8.589 -0.6664  2.2960  1.0394
 1368SOL    HW215738   1.186   2.059   8.450  1.0667 -0.1254 -0.0076
 1369SOL     OW15739   3.302   0.820  12.406 -0.0642  0.1631 -0.3505
 1369SOL    HW115740   3.318   0.891  12.344 -1.0363 -1.7766 -2.8108
 1369SOL    HW215741   3.279   0.748  12.347 -2.0330 -0.3720  1.0523
 1370SOL     OW15742   2.363   1.078   3.723 -0.0858  0.2199 -1.0553
 1370SOL    HW115743   2.311   1.001   3.748  0.3606  1.0881  2.5472
 1370SOL    HW215744   2.374   1.125   3.806  0.9546 -1.2023 -0.3852
 1371SOL     OW15745   4.552   2.758   4.811 -0.1527 -0.0904 -0.1371
 1371SOL    HW115746   4.620   2.823   4.796 -1.5485  0.9962 -1.8176
 1371SOL    HW215747   4.478   2.808   4.846 -1.8769 -3.3468  0.8748
 1372SOL     OW15748   0.437   0.851   8.334  0.5282 -0.0080 -0.1908
 1372SOL    HW115749   0.407   0.763   8.358 -1.3391  0.4461 -0.8043
 1372SOL    HW215750   0.358   0.890   8.296  0.2388 -0.5541 -0.1564
 1373SOL     OW15751   2.457   1.227   6.892 -0.2800 -0.2721  0.2431
 1373SOL    HW115752   2.545   1.193   6.910 -0.1615 -0.0585  0.0748
 1373SOL    HW215753   2.400   1.159   6.929 -2.1052  1.1298  0.0072
 1374SOL     OW15754   0.322   3.064  14.604 -0.4038 -0.3713  0.0285
 1374SOL    HW115755   0.377   3.087  14.528 -1.5407  0.9014 -0.3992
 1374SOL    HW215756   0.255   3.129  14.584  0.0362  0.4923  1.3797
 1375SOL     OW15757   0.840   0.635   2.473  0.5783  0.2824  0.0792
 1375SOL    HW115758   0.898   0.644   2.398 -0.8248  0.0103 -1.0453
 1375SOL    HW215759   0.755   0.649   2.430  1.1012  0.6104 -0.8339
 1376SOL     OW15760   0.289   3.457   8.139  0.6258  0.3557 -0.4486
 1376SOL    HW115761   0.272   3.552   8.140 -0.3547  0.1900 -1.3469
 1376SOL    HW215762   0.222   3.434   8.202  1.0034  2.3737  0.6835
 1377SOL     OW15763   4.633   0.655   7.828  0.6153  0.1552  0.3002
 1377SOL    HW115764   4.608   0.570   7.791  1.3326 -0.2752  0.7967
 1377SOL    HW215765   4.554   0.696   7.862  0.6101  1.2989 -1.1100
 1378SOL     OW15766   4.714   2.500   5.745  0.4129  0.1940 -0.4595
 1378SOL    HW115767   4.674   2.574   5.701 -0.0034  0.4079  0.2794
 1378SOL    HW215768   0.018   2.545   5.820  0.3933 -1.8224  0.7763
 1379SOL     OW15769   3.473   4.448   5.961  0.1242 -0.0275  0.1040
 1379SOL    HW115770   3.418   4.371   5.954  0.5951 -0.2411 -1.1433
 1379SOL    HW215771   3.433   4.484   6.041  0.0616 -0.2087  0.1535
 1380SOL     OW15772   3.167   3.371  12.659 -0.4921 -0.0539 -0.3979
 1380SOL    HW115773   3.216   3.297  12.695 -0.0663  0.7713  0.7354
 1380SOL    HW215774   3.189   3.436  12.726  1.0861 -0.3589 -0.6286
 1381SOL     OW15775   2.210   1.718   8.584  0.4027  0.0832  0.3900
 1381SOL    HW115776   2.252   1.688   8.665  0.1031 -2.0762 -0.2524
 1381SOL    HW215777   2.281   1.746   8.527 -0.3057 -0.2226 -0.6411
 1382SOL     OW15778   1.267   3.380   2.890  0.6334  0.1229 -0.0857
 1382SOL    HW115779   1.174   3.403   2.885  1.0807  2.1311  0.6329
 1382SOL    HW215780   1.272   3.344   2.978  0.4914  1.6903  0.5689
 1383SOL     OW15781   4.231   4.218   5.278  0.4061 -0.1317 -0.2075
 1383SOL    HW115782   4.171   4.154   5.239  2.6835 -1.6426 -1.2470
 1383SOL    HW215783   4.232   4.193   5.370  1.5950  2.3887  0.4853
 1384SOL     OW15784   3.939   0.070   3.992 -0.3120 -0.7218 -0.2594
 1384SOL    HW115785   3.862   0.087   4.047 -0.0547 -0.5660  0.0557
 1384SOL    HW215786   3.945   4.710   3.994 -0.1001 -0.7234 -0.8991
 1385SOL     OW15787   1.555   2.115  12.978  0.1078  0.1745  0.3448
 1385SOL    HW115788   1.571   2.050  13.047 -0.7406 -0.8220 -0.3953
 1385SOL    HW215789   1.577   2.198  13.020 -0.1553  1.8366 -2.8874
 1386SOL     OW15790   2.461   2.068   5.434  0.0311 -0.0347  0.3595
 1386SOL    HW115791   2.413   2.025   5.505  1.9167 -0.7105  1.2138
 1386SOL    HW215792   2.395   2.055   5.366  1.9083 -0.4032 -1.3817
 1387SOL     OW15793   2.203   2.565   7.315  0.4772 -0.0713  0.1442
 1387SOL    HW115794   2.165   2.556   7.228 -0.5078  3.2633  0.2187
 1387SOL    HW215795   2.286   2.608   7.291 -0.2927  0.0420 -2.2969
 1388SOL     OW15796   2.672   4.701   4.641 -0.5009 -0.2337 -0.2421
 1388SOL    HW115797   2.705   4.680   4.729  0.5463  0.9915 -0.3414
 1388SOL    HW215798   2.600   0.019   4.673  0.4968  2.2113 -2.1424
 1389SOL     OW15799   1.320   4.424   6.366 -0.1691 -0.4857  0.1673
 1389SOL    HW115800   1.279   4.468   6.292 -0.5315  1.8497  1.7752
 1389SOL    HW215801   1.249   4.435   6.429  0.4547  1.9496  0.4356
 1390SOL     OW15802   0.732   1.318   7.180  0.0232  0.0920 -0.4132
 1390SOL    HW115803   0.676   1.392   7.155 -0.3026 -0.0593 -0.1285
 1390SOL    HW215804   0.673   1.246   7.157  2.5668 -1.9380 -0.4539
 1391SOL     OW15805   1.043   0.047   2.870 -0.4095 -0.0874  0.0887
 1391SOL    HW115806   1.083   0.061   2.956  1.0824 -0.5816 -0.5262
 1391SOL    HW215807   0.958   0.087   2.892 -0.4440  0.3410 -0.8388
 1392SOL     OW15808   2.840   0.232  17.280 -0.4541 -0.2594  0.1106
 1392SOL    HW115809   2.780   0.180  17.226  0.5498  0.2118 -1.4726
 1392SOL    HW215810   2.777   0.277  17.337  1.5002  4.0998 -1.1990
 1393SOL     OW15811   2.961   2.543   2.420  0.2935  0.2788  0.1348
 1393SOL    HW115812   2.966   2.461   2.370  0.4905  1.1990 -1.3778
 1393SOL    HW215813   3.056   2.546   2.435  0.3039  1.2077 -0.0988
 1394SOL     OW15814   1.075   1.821   5.619  0.0022 -0.0310 -0.2223
 1394SOL    HW115815   1.000   1.790   5.568 -0.1598  2.8166 -1.7459
 1394SOL    HW215816   1.104   1.884   5.553 -3.5851  0.9099 -0.8792
 1395SOL     OW15817   3.324   1.712   3.006  0.6630  0.2692  0.5379
 1395SOL    HW115818   3.296   1.802   3.019  0.5713  0.3136  0.0283
 1395SOL    HW215819   3.364   1.724   2.920  0.7050 -0.4277  0.4548
 1396SOL     OW15820   0.448   1.280   6.284  0.0130  0.1204 -0.1503
 1396SOL    HW115821   0.427   1.230   6.205  1.8158 -0.9919  0.0745
 1396SOL    HW215822   0.517   1.341   6.259 -0.4177  0.4536 -0.5285
 1397SOL     OW15823   2.208   1.530   7.188  0.2859 -0.0494  0.6077
 1397SOL    HW115824   2.246   1.562   7.270 -1.1399 -0.0337  1.2529
 1397SOL    HW215825   2.144   1.593   7.156 -0.3322  0.7046  3.3730
 1398SOL     OW15826   1.232   3.170   5.355  0.0609  0.1090  0.4335
 1398SOL    HW115827   1.273   3.096   5.399 -0.9053 -2.4631 -3.0585
 1398SOL    HW215828   1.301   3.210   5.303 -1.7805  1.8017 -0.7238
 1399SOL     OW15829   1.134   1.283   6.255  0.4675  0.2787  0.0533
 1399SOL    HW115830   1.048   1.315   6.227  0.9624  2.3962  1.0187
 1399SOL    HW215831   1.133   1.199   6.208 -0.1295 -0.0029  0.5642
 1400SOL     OW15832   4.600   0.858   0.618  0.0596 -0.5619 -0.0675
 1400SOL    HW115833   4.627   0.845   0.709 -1.4796 -1.0322  0.3305
 1400SOL    HW215834   4.549   0.939   0.628 -0.2540 -0.6353 -1.0750
 1401SOL     OW15835   1.507   3.231   8.879 -0.3070 -0.1258  0.2182
 1401SOL    HW115836   1.457   3.306   8.913 -2.7222 -0.9236 -1.5842
 1401SOL    HW215837   1.448   3.190   8.816 -0.0224 -0.9404  0.4813
 1402SOL     OW15838   0.209   1.327   6.043 -0.1855 -0.2473 -0.1855
 1402SOL    HW115839   0.196   1.421   6.049 -0.3530 -0.2050 -1.2299
 1402SOL    HW215840   0.304   1.310   6.044 -0.3301 -0.9537  1.2742
 1403SOL     OW15841   0.380   1.633  11.811  0.6594  0.2358 -0.1633
 1403SOL    HW115842   0.467   1.610  11.843 -0.2323 -0.0436  2.0813
 1403SOL    HW215843   0.399   1.632  11.717  0.8259  2.9569 -0.1738
 1404SOL     OW15844   2.111   3.597  10.404 -0.5221 -0.1340  0.2975
 1404SOL    HW115845   2.185   3.615  10.346  0.2816 -0.7859  1.1116
 1404SOL    HW215846   2.132   3.521  10.459 -1.4137 -0.1503  0.6099
 1405SOL     OW15847   2.673   3.669   6.547  0.1637 -0.3697 -0.5495
 1405SOL    HW115848   2.586   3.709   6.552  0.9708  1.5978 -2.3013
 1405SOL    HW215849   2.671   3.641   6.456 -1.2033 -0.5615 -0.4551
 1406SOL     OW15850   1.383   0.028   6.621 -0.3430 -0.3148 -0.0023
 1406SOL    HW115851   1.440   4.698   6.581  0.5402  0.9443 -0.8113
 1406SOL    HW215852   1.394   0.100   6.559 -2.5452  0.0073 -0.0204
 1407SOL     OW15853   3.060   1.746  11.909  0.4038 -0.3024 -0.0022
 1407SOL    HW115854   2.991   1.811  11.925  1.6862  1.0403  0.0399
 1407SOL    HW215855   3.088   1.733  12.000  0.9633 -3.3006 -0.5894
 1408SOL     OW15856   0.291   3.658   8.664  0.0216  0.2102  0.1681
 1408SOL    HW115857   0.277   3.747   8.696 -1.2235  0.2831 -0.5668
 1408SOL    HW215858   0.229   3.658   8.591 -0.0929  1.4778  0.2618
 1409SOL     OW15859   3.836   2.467  10.704  0.3287 -0.3345 -0.0774
 1409SOL    HW115860   3.745   2.487  10.679  1.0482  1.5450 -1.2169
 1409SOL    HW215861   3.881   2.451  10.621 -1.7301 -0.2509 -1.2280
 1410SOL     OW15862   0.572   2.282  13.718 -0.0501  0.6664  0.0520
 1410SOL    HW115863   0.505   2.346  13.693 -0.7707  0.7014  2.0658
 1410SOL    HW215864   0.637   2.292  13.648  2.1689  1.2550  2.2208
 1411SOL     OW15865   2.627   1.825   4.076  0.5321 -0.4125  0.0171
 1411SOL    HW115866   2.641   1.919   4.090  1.1237 -0.3393 -1.1203
 1411SOL    HW215867   2.715   1.803   4.046  0.8503 -2.3781  2.4291
 1412SOL     OW15868   2.947   1.188   7.057  0.1547  0.0230 -0.3743
 1412SOL    HW115869   2.890   1.142   6.995  0.8947 -1.8248  0.3083
 1412SOL    HW215870   2.879   1.238   7.103 -0.7640 -2.0383  0.5082
 1413SOL     OW15871   2.454   3.284   7.599  0.0774  0.1406 -0.3814
 1413SOL    HW115872   2.404   3.342   7.542 -0.1678 -1.1920 -1.5445
 1413SOL    HW215873   2.389   3.269   7.667 -0.8800 -1.0245 -1.5722
 1414SOL     OW15874   3.370   1.135   2.038 -0.0188  0.0723 -0.3715
 1414SOL    HW115875   3.289   1.113   2.084  0.4532  0.6897  0.7780
 1414SOL    HW215876   3.432   1.129   2.111  1.4981 -0.9358 -1.7372
 1415SOL     OW15877   3.547   2.519  14.997 -0.4142 -0.0171  0.1674
 1415SOL    HW115878   3.585   2.607  15.000  1.1090 -0.8017  3.4003
 1415SOL    HW215879   3.476   2.537  14.934 -0.2237 -1.0681 -0.3398
 1416SOL     OW15880   2.842   1.430   9.975 -0.3325 -0.3334 -0.0449
 1416SOL    HW115881   2.885   1.457   9.894 -2.2187  0.7254 -0.6948
 1416SOL    HW215882   2.846   1.513  10.023  0.5886  0.5370 -1.6483
 1417SOL     OW15883   2.357   1.326   7.872 -0.2728  0.0799  0.4841
 1417SOL    HW115884   2.377   1.238   7.905  1.9885  1.2428  2.2729
 1417SOL    HW215885   2.396   1.371   7.947  1.0263  1.3875 -0.9921
 1418SOL     OW15886   3.833   4.248  17.682 -0.7376 -0.1247  0.1096
 1418SOL    HW115887   3.764   4.257   0.007 -0.7935 -2.1014  0.3293
 1418SOL    HW215888   3.876   4.171  17.720  1.4954  1.2787  0.3664
 1419SOL     OW15889   3.043   0.302   5.501 -0.0698 -0.1903  0.0368
 1419SOL    HW115890   3.075   0.384   5.464  2.4070 -0.7181  1.0028
 1419SOL    HW215891   3.125   0.255   5.518  0.6698  1.3462  0.7330
 1420SOL     OW15892   4.681   0.040  16.282 -0.2036 -0.2624 -0.0372
 1420SOL    HW115893   4.629   0.032  16.202 -2.3215  3.3087  0.9743
 1420SOL    HW215894   0.008   4.705  16.265 -0.3669 -0.9926  2.4285
 1421SOL     OW15895   0.323   2.068   1.856 -0.9006 -0.6371  0.4032
 1421SOL    HW115896   0.371   2.034   1.932 -1.2480 -0.9409  0.4860
 1421SOL    HW215897   0.294   2.155   1.886  0.1334 -0.9449  2.3310
 1422SOL     OW15898   0.858   3.856   7.120  0.2666 -0.1449  0.4910
 1422SOL    HW115899   0.888   3.859   7.211  0.9412 -1.7024  0.3125
 1422SOL    HW215900   0.790   3.789   7.125  0.9352 -0.9359 -0.9190
 1423SOL     OW15901   0.420   0.502   8.737  0.0527 -0.1071 -0.0280
 1423SOL    HW115902   0.427   0.407   8.748 -0.0630 -0.1867 -0.6257
 1423SOL    HW215903   0.326   0.508   8.755  0.0443  0.2068 -0.1672
 1424SOL     OW15904   3.936   3.557   8.247 -0.3543  0.6312  0.4158
 1424SOL    HW115905   3.850   3.537   8.209  0.3178  1.6606 -1.6465
 1424SOL    HW215906   3.915   3.621   8.315  0.9009 -1.2020  2.5147
 1425SOL     OW15907   0.375   2.665   8.734 -0.7227 -0.7108 -0.6921
 1425SOL    HW115908   0.370   2.761   8.734  0.4484 -0.6571 -0.8585
 1425SOL    HW215909   0.468   2.662   8.758 -1.3181 -1.3570  1.5956
 1426SOL     OW15910   3.069   4.408   8.208 -0.1572  0.7339  0.2505
 1426SOL    HW115911   3.070   4.472   8.280 -0.6635  0.3595  0.5883
 1426SOL    HW215912   3.048   4.335   8.267  0.4669  1.6591  1.6234
 1427SOL     OW15913   2.456   4.524   0.572 -0.0670 -0.2248 -0.2898
 1427SOL    HW115914   2.428   4.536   0.663 -1.0586 -0.8940 -0.5058
 1427SOL    HW215915   2.463   4.430   0.587 -0.4440 -0.3855 -1.1237
 1428SOL     OW15916   0.301   2.249  10.697 -0.1614 -0.0945  0.1121
 1428SOL    HW115917   0.344   2.176  10.741  0.8939  0.4917  0.0588
 1428SOL    HW215918   0.369   2.307  10.662  0.1461 -1.4496 -1.5109
 1429SOL     OW15919   1.002   1.460   6.791  0.0339 -0.0763 -0.6410
 1429SOL    HW115920   0.927   1.401   6.785 -0.2310 -0.0311  2.1116
 1429SOL    HW215921   0.972   1.527   6.853 -0.5201 -2.3359  1.5643
 1430SOL     OW15922   2.527   1.054  11.271  0.5189  0.2819  0.2898
 1430SOL    HW115923   2.481   1.065  11.355 -0.7756 -1.3815 -0.2125
 1430SOL    HW215924   2.570   1.139  11.259  1.0798 -0.3365 -1.9942
 1431SOL     OW15925   2.738   2.090   0.082  0.3345 -0.1573  0.4093
 1431SOL    HW115926   2.735   2.015   0.021  0.7995 -0.5550  0.8748
 1431SOL    HW215927   2.822   2.134   0.068  0.0002  0.6040  0.8795
 1432SOL     OW15928   1.538   0.752   6.041  0.1007  0.6613  0.5733
 1432SOL    HW115929   1.593   0.772   5.965  1.8418  0.6476  1.8389
 1432SOL    HW215930   1.510   0.662   6.023 -0.4176  1.0515 -0.5601
 1433SOL     OW15931   4.162   4.468   2.383 -0.1955  0.0361 -0.7681
 1433SOL    HW115932   4.182   4.561   2.371  1.2097  0.0610  1.7794
 1433SOL    HW215933   4.249   4.430   2.371 -0.2199 -0.7540  1.5657
 1434SOL     OW15934   1.124   1.859   2.057  0.1649 -0.0193  0.0890
 1434SOL    HW115935   1.180   1.783   2.041  2.9102  1.9526  0.3699
 1434SOL    HW215936   1.038   1.832   2.024  0.7029 -0.6992 -0.7365
 1435SOL     OW15937   0.751   4.429   6.025  0.2897 -0.1313  0.1258
 1435SOL    HW115938   0.784   4.418   6.114 -0.6087  0.5364  0.5420
 1435SOL    HW215939   0.830   4.420   5.971  0.3490 -1.7934  0.4995
 1436SOL     OW15940   2.757   1.932   8.685  0.2277 -0.0210  0.3443
 1436SOL    HW115941   2.746   1.926   8.590 -0.6709  2.1365  0.2962
 1436SOL    HW215942   2.669   1.960   8.711  1.4694  2.0446  2.3090
 1437SOL     OW15943   1.558   1.522   7.744 -0.1467  0.3527  0.2865
 1437SOL    HW115944   1.636   1.471   7.720  2.3615  4.2115  0.3087
 1437SOL    HW215945   1.489   1.456   7.744  0.2795 -0.1042  1.4666
 1438SOL     OW15946   4.727   0.875   5.338 -0.4983  0.1912  0.7433
 1438SOL    HW115947   4.728   0.943   5.405  0.8487  1.2679 -0.3568
 1438SOL    HW215948   4.692   0.799   5.383 -0.6038  0.6256  1.3875
 1439SOL     OW15949   1.196   3.882   2.457 -0.1083  0.4381  0.5739
 1439SOL    HW115950   1.175   3.975   2.458 -1.5070  0.1304 -0.1200
 1439SOL    HW215951   1.218   3.864   2.549  1.0683  0.0318  0.2213
 1440SOL     OW15952   0.617   3.615   4.211 -0.4562 -0.0835 -0.4017
 1440SOL    HW115953   0.698   3.632   4.163  0.8595  1.5598  2.3875
 1440SOL    HW215954   0.621   3.522   4.233  0.7176  0.1127  0.1929
 1441SOL     OW15955   2.444   0.642   5.630  0.4246 -0.3971 -0.1666
 1441SOL    HW115956   2.440   0.566   5.689 -0.2710  0.3964  0.8191
 1441SOL    HW215957   2.449   0.717   5.690 -0.1013 -0.0073 -0.6093
 1442SOL     OW15958   1.222   0.898   5.914 -0.3121 -0.3033 -0.3367
 1442SOL    HW115959   1.198   0.823   5.968 -3.9035  0.5176 -0.8079
 1442SOL    HW215960   1.290   0.933   5.972 -0.5926 -0.1571 -0.0963
 1443SOL     OW15961   0.873   3.514   9.253  0.4744 -0.3397 -0.5674
 1443SOL    HW115962   0.820   3.511   9.333 -0.3211  0.0105 -1.0769
 1443SOL    HW215963   0.842   3.436   9.208  2.1292 -0.2298 -1.8748
 1444SOL     OW15964   2.348   1.647   2.430 -0.2945 -0.0135 -0.3273
 1444SOL    HW115965   2.381   1.577   2.375 -1.7633 -0.3238 -0.8223
 1444SOL    HW215966   2.355   1.734   2.390  1.6068 -0.2411 -0.4848
 1445SOL     OW15967   1.435   0.155  11.339 -0.3065  0.2026  0.4319
 1445SOL    HW115968   1.438   0.157  11.434 -1.3201 -0.0837  0.4713
 1445SOL    HW215969   1.344   0.182  11.323 -0.9623 -1.8858  0.7012
 1446SOL     OW15970   1.342   1.041   3.308 -0.1381  0.5067 -0.2288
 1446SOL    HW115971   1.250   1.068   3.303 -0.4369 -0.7775 -1.5130
 1446SOL    HW215972   1.380   1.127   3.291  0.1633  0.4080 -0.0374
 1447SOL     OW15973   0.491   1.309   5.996 -0.4029  0.1729  0.0976
 1447SOL    HW115974   0.579   1.285   6.025 -0.0474  2.2400  0.7743
 1447SOL    HW215975   0.516   1.307   5.903 -1.6156  1.3752 -0.2510
 1448SOL     OW15976   1.928   0.097   4.305  0.2433  0.8877  0.0767
 1448SOL    HW115977   1.981   0.103   4.226 -0.4444 -1.3028 -0.5504
 1448SOL    HW215978   1.851   0.142   4.270  0.1053 -0.3326 -1.1578
 1449SOL     OW15979   3.258   1.144  13.485 -0.0637 -0.1635  0.1291
 1449SOL    HW115980   3.169   1.111  13.474  0.0946 -1.5993  3.0128
 1449SOL    HW215981   3.241   1.227  13.530  2.3336  1.1685 -1.4171
 1450SOL     OW15982   2.492   3.829   6.398 -0.4617  0.5591 -0.0991
 1450SOL    HW115983   2.477   3.885   6.475 -0.7721 -0.1232  0.3365
 1450SOL    HW215984   2.403   3.796   6.389  0.3245 -1.7198  0.5500
 1451SOL     OW15985   1.863   0.133   9.648 -0.3852  0.0874  0.6083
 1451SOL    HW115986   1.877   0.223   9.678 -1.7235  1.1962 -2.0779
 1451SOL    HW215987   1.935   0.136   9.585  0.4550  0.2042  1.5583
 1452SOL     OW15988   1.211   2.660   2.585 -0.4757 -0.0829 -0.1959
 1452SOL    HW115989   1.278   2.592   2.592 -0.6323 -0.2345 -0.1696
 1452SOL    HW215990   1.162   2.640   2.665 -2.2937 -1.9766 -1.7929
 1453SOL     OW15991   2.025   3.560   5.153  0.4076  0.3259  0.2312
 1453SOL    HW115992   2.087   3.561   5.079  0.0864 -1.5385 -0.0720
 1453SOL    HW215993   2.045   3.470   5.179  1.3326  0.2688 -0.6440
 1454SOL     OW15994   0.407   2.287   0.443  0.0957 -0.1602  0.0183
 1454SOL    HW115995   0.345   2.360   0.447 -0.0222 -0.3231  1.2567
 1454SOL    HW215996   0.349   2.218   0.412 -0.6078  0.1766  0.5853
 1455SOL     OW15997   4.665   2.282   8.300 -0.0863  0.4930 -0.5711
 1455SOL    HW115998   0.016   2.245   8.315 -0.3825  0.2534  0.5282
 1455SOL    HW215999   4.624   2.221   8.238 -0.1194  0.2713 -0.3271
 1456SOL     OW16000   3.447   2.148   9.776 -0.0230  0.4728 -0.0529
 1456SOL    HW116001   3.439   2.206   9.851  1.1324  1.2054 -0.4991
 1456SOL    HW216002   3.387   2.186   9.712 -0.6128  4.0774  2.6447
 1457SOL     OW16003   2.648   0.778  11.519  0.0283 -0.0543  0.5297
 1457SOL    HW116004   2.709   0.731  11.576  0.0039 -0.6866  0.0407
 1457SOL    HW216005   2.647   0.859  11.570 -1.4061 -0.0264  0.4731
 1458SOL     OW16006   2.178   2.560  11.102  0.3230  0.1882  0.1668
 1458SOL    HW116007   2.232   2.626  11.147  0.2528 -0.1973  0.8232
 1458SOL    HW216008   2.194   2.572  11.009 -2.0630  0.4625 -0.2091
 1459SOL     OW16009   1.236   0.228   8.914 -0.5586  0.2219 -0.2019
 1459SOL    HW116010   1.276   0.162   8.857 -0.6980 -0.4560  0.4902
 1459SOL    HW216011   1.244   0.313   8.871  0.2672 -0.1445 -0.7835
 1460SOL     OW16012   3.655   0.403   8.598 -0.3156  0.2113 -0.8106
 1460SOL    HW116013   3.648   0.473   8.534  1.3044 -0.6747 -1.9640
 1460SOL    HW216014   3.733   0.433   8.645  0.1754  0.7173 -1.9421
 1461SOL     OW16015   2.880   4.205   3.814  0.0893 -0.8038 -0.3898
 1461SOL    HW116016   2.842   4.149   3.881 -2.7126 -1.1451 -2.2255
 1461SOL    HW216017   2.932   4.139   3.767 -2.9858 -3.4912 -0.0037
 1462SOL     OW16018   1.466   1.968   2.233 -0.7488  0.6247  0.2897
 1462SOL    HW116019   1.532   1.964   2.303 -0.2866 -0.2622 -0.1934
 1462SOL    HW216020   1.391   1.932   2.281  0.1388 -2.2644 -0.4830
 1463SOL     OW16021   0.565   3.022  17.359 -0.5955  0.2891  0.2112
 1463SOL    HW116022   0.493   3.011  17.297  0.3978 -0.9149 -0.7270
 1463SOL    HW216023   0.598   2.932  17.370  0.0678  0.5976  0.7976
 1464SOL     OW16024   1.425   1.046   1.499 -0.3091 -0.1582 -0.5486
 1464SOL    HW116025   1.405   1.025   1.591 -1.3006 -2.4257 -1.2845
 1464SOL    HW216026   1.496   0.984   1.480 -1.1510 -1.1037 -0.5776
 1465SOL     OW16027   1.213   1.232   2.312  0.3389 -0.1454  0.3562
 1465SOL    HW116028   1.206   1.188   2.227 -2.6780  0.1632  0.4380
 1465SOL    HW216029   1.302   1.210   2.339  0.9041  0.2553 -1.1785
 1466SOL     OW16030   3.834   0.231   2.817  0.8233 -0.1757 -0.1317
 1466SOL    HW116031   3.888   0.189   2.884 -0.3195  1.1750  1.6419
 1466SOL    HW216032   3.750   0.185   2.817 -1.2552  3.5734  0.6588
 1467SOL     OW16033   0.093   3.283   9.157 -0.1534  0.3163 -0.2168
 1467SOL    HW116034   0.112   3.348   9.225 -0.4686 -0.4467  0.6031
 1467SOL    HW216035   0.004   3.263   9.186  0.4018 -1.1787  0.4150
 1468SOL     OW16036   3.523   0.180   5.657 -0.8533  0.0232 -0.0515
 1468SOL    HW116037   3.433   0.155   5.639 -0.4306 -0.0340 -2.0868
 1468SOL    HW216038   3.530   0.132   5.740 -2.4667 -1.2638 -0.6654
 1469SOL     OW16039   2.201   1.824   6.397  0.2452 -0.0212 -0.1541
 1469SOL    HW116040   2.183   1.777   6.316 -1.4411  0.6911 -0.1792
 1469SOL    HW216041   2.136   1.782   6.453 -2.1526  2.2053 -1.2892
 1470SOL     OW16042   3.294   4.314  13.835 -0.0151  0.0955 -0.5355
 1470SOL    HW116043   3.313   4.250  13.903  1.8466  0.5334 -0.6658
 1470SOL    HW216044   3.200   4.304  13.853  0.3628  1.7420  2.2860
 1471SOL     OW16045   4.554   0.198   5.542 -0.3201 -0.0225  0.3062
 1471SOL    HW116046   4.551   0.291   5.523 -3.3880  0.0265  1.1325
 1471SOL    HW216047   4.590   0.161   5.461 -2.6873  0.2527 -0.8520
 1472SOL     OW16048   0.084   0.132   2.548  0.2171 -0.4490 -0.4073
 1472SOL    HW116049   0.100   0.170   2.635  1.2374  0.6566 -1.0804
 1472SOL    HW216050   0.117   0.047   2.577  0.5500 -1.3017 -3.3476
 1473SOL     OW16051   0.015   0.955   3.339  0.4638  0.2617 -0.0536
 1473SOL    HW116052   0.030   0.861   3.348 -0.2828  0.1315 -0.1963
 1473SOL    HW216053   0.108   0.978   3.332  0.1476  1.1658 -1.3565
 1474SOL     OW16054   1.387   1.291   9.125  0.1665 -0.2897  0.1129
 1474SOL    HW116055   1.450   1.279   9.054  1.1597  0.6585  0.8304
 1474SOL    HW216056   1.431   1.343   9.192  1.8542 -0.7479 -0.6403
 1475SOL     OW16057   1.905   0.976   6.728 -0.6373 -0.3183  0.1261
 1475SOL    HW116058   1.855   0.904   6.690  0.4391 -1.0262  0.0357
 1475SOL    HW216059   1.865   0.994   6.813  2.1858 -2.5016  1.9262
 1476SOL     OW16060   4.136   4.477   7.567 -0.1502  0.1467 -0.2339
 1476SOL    HW116061   4.095   4.400   7.527 -0.2750  0.2200 -0.2466
 1476SOL    HW216062   4.105   4.471   7.657 -4.0716 -3.5682 -1.7995
 1477SOL     OW16063   4.238   1.037   6.716  0.3241 -0.2900  0.3438
 1477SOL    HW116064   4.326   1.000   6.718  0.3972 -0.2719 -2.3134
 1477SOL    HW216065   4.259   1.126   6.744  1.7833 -1.0023  1.4999
 1478SOL     OW16066   0.025   3.510   1.775 -0.2732  0.7634 -0.0032
 1478SOL    HW116067   0.020   3.603   1.753  1.4153 -0.3314 -4.9076
 1478SOL    HW216068   4.707   3.513   1.854 -3.8548 -0.1179 -2.3825
 1479SOL     OW16069   4.295   2.970   2.500  0.0863 -0.1962  0.1188
 1479SOL    HW116070   4.253   3.055   2.513 -0.8584 -0.8811  1.5853
 1479SOL    HW216071   4.307   2.969   2.405 -2.6748 -0.4888 -0.2323
 1480SOL     OW16072   2.506   2.775   7.505 -0.4261 -0.2111 -0.4182
 1480SOL    HW116073   2.495   2.784   7.600 -0.6324 -3.7558 -0.0731
 1480SOL    HW216074   2.512   2.867   7.481 -1.4566  0.1042  0.5372
 1481SOL     OW16075   2.304   0.923  11.029 -0.1177 -0.0198  0.0574
 1481SOL    HW116076   2.277   0.968  11.109 -1.8166 -0.8797 -0.0370
 1481SOL    HW216077   2.397   0.944  11.018 -0.1062 -1.5968 -3.1828
 1482SOL     OW16078   1.308   0.414   7.804  0.4257 -0.8656  0.3119
 1482SOL    HW116079   1.335   0.423   7.712  1.6547 -0.4487  0.7213
 1482SOL    HW216080   1.216   0.437   7.792  0.5563 -0.4135  0.1646
 1483SOL     OW16081   3.245   2.194   2.862  0.6156  0.4149  0.8895
 1483SOL    HW116082   3.165   2.159   2.824  2.6739 -2.6377 -0.5845
 1483SOL    HW216083   3.205   2.277   2.888 -0.0277 -0.1244  1.6443
 1484SOL     OW16084   0.725   2.116   2.065 -0.0764 -0.1732 -0.0452
 1484SOL    HW116085   0.819   2.128   2.052  0.1221 -0.4053  1.1892
 1484SOL    HW216086   0.708   2.050   1.998 -0.5923  0.5106 -0.5897
 1485SOL     OW16087   1.556   0.554   7.318  0.0208  0.1628  0.4621
 1485SOL    HW116088   1.586   0.508   7.397  2.9160 -0.6786 -1.1309
 1485SOL    HW216089   1.544   0.646   7.342 -3.3701 -0.3855  0.9590
 1486SOL     OW16090   2.874   2.591   0.822  0.3229 -0.1458 -0.2219
 1486SOL    HW116091   2.851   2.606   0.730  0.7044 -1.0283 -0.4612
 1486SOL    HW216092   2.946   2.531   0.802  0.1647 -0.3705 -0.1227
 1487SOL     OW16093   3.090   0.902   8.365  0.4662 -0.3810 -0.3021
 1487SOL    HW116094   3.030   0.863   8.300 -0.1105 -2.5586  1.5280
 1487SOL    HW216095   3.102   0.986   8.322 -2.6139  1.5953  2.6737
 1488SOL     OW16096   0.820   4.545   4.678 -0.0373  0.1949 -0.3173
 1488SOL    HW116097   0.783   4.622   4.636  1.2507  0.8970 -0.1502
 1488SOL    HW216098   0.848   4.479   4.614  3.2398  1.5786 -0.3365
 1489SOL     OW16099   2.759   1.690   8.822 -0.0884 -0.3748  0.3110
 1489SOL    HW116100   2.779   1.766   8.767  0.3190 -1.0553 -0.4815
 1489SOL    HW216101   2.684   1.725   8.870  0.9347  0.6548  1.1759
 1490SOL     OW16102   3.036   1.650  13.821 -0.5097  0.3662 -0.1895
 1490SOL    HW116103   3.021   1.632  13.728  1.7990 -3.3958  0.1625
 1490SOL    HW216104   2.962   1.701  13.854  0.3526  0.0733  2.1644
 1491SOL     OW16105   2.472   3.272   5.513 -0.2105  0.5949 -0.0431
 1491SOL    HW116106   2.387   3.314   5.505 -1.9430 -3.0715 -0.9266
 1491SOL    HW216107   2.464   3.189   5.561  0.1513  0.8663  0.4870
 1492SOL     OW16108   2.197   3.317  13.915  0.2537  0.1493  0.6540
 1492SOL    HW116109   2.133   3.341  13.849  1.9664 -0.4647 -1.2162
 1492SOL    HW216110   2.264   3.264  13.872  0.8098  1.0612  0.3970
 1493SOL     OW16111   3.965   3.516  14.474  0.0884  0.1997  0.1979
 1493SOL    HW116112   3.894   3.580  14.470 -0.7463 -0.7627 -0.3297
 1493SOL    HW216113   3.984   3.501  14.382  0.3866  3.0231 -0.1904
 1494SOL     OW16114   0.908   0.069  14.050 -0.4555  0.0319  0.4149
 1494SOL    HW116115   0.913   0.004  14.120 -1.2165 -1.0199 -0.5025
 1494SOL    HW216116   0.987   0.047  14.002  0.0939 -0.7145  1.6725
 1495SOL     OW16117   2.075   2.211   1.886 -0.0549 -0.5949  0.0501
 1495SOL    HW116118   2.007   2.252   1.940 -0.6361 -2.6454  0.8935
 1495SOL    HW216119   2.152   2.243   1.932 -0.9304  0.0331  1.0871
 1496SOL     OW16120   0.203   3.714   8.129 -0.7219  0.2375 -1.3899
 1496SOL    HW116121   0.240   3.801   8.112 -0.0184  0.6269  2.1006
 1496SOL    HW216122   0.123   3.732   8.179  0.7703  0.0602  1.0654
 1497SOL     OW16123   4.714   1.000   8.562  0.6660 -0.6823  0.5026
 1497SOL    HW116124   4.717   1.085   8.607  1.6841 -1.8410  2.6182
 1497SOL    HW216125   0.073   0.992   8.562  0.7584  0.4049  0.3301
 1498SOL     OW16126   3.088   2.277   3.143 -0.0307  0.1317  0.4792
 1498SOL    HW116127   3.021   2.326   3.097 -0.5138 -0.0311  1.0040
 1498SOL    HW216128   3.035   2.233   3.210 -0.5766 -0.3770 -0.2921
 1499SOL     OW16129   3.543   0.401  14.030  0.0725  0.0900  0.1109
 1499SOL    HW116130   3.618   0.433  14.080 -0.2570  2.0935 -0.6550
 1499SOL    HW216131   3.557   0.464  13.959 -1.6027 -2.1880 -2.2176
 1500SOL     OW16132   3.163   1.122   6.897  0.3162  0.3763  0.0218
 1500SOL    HW116133   3.080   1.156   6.930 -0.1053 -0.4109 -0.2081
 1500SOL    HW216134   3.216   1.186   6.944 -0.7282  2.1061 -1.1335
 1501SOL     OW16135   4.539   0.283   3.747 -0.4850 -0.4616 -0.0083
 1501SOL    HW116136   4.512   0.348   3.811  2.1062  0.1580  0.4465
 1501SOL    HW216137   4.489   0.203   3.762 -2.8238  0.9409 -0.2581
 1502SOL     OW16138   1.588   0.117   6.787  0.0041 -0.2440  0.0993
 1502SOL    HW116139   1.533   0.059   6.735 -0.3615 -0.0369  0.2608
 1502SOL    HW216140   1.615   0.174   6.715  0.2434 -1.6088 -0.8974
 1503SOL     OW16141   0.895   1.128  15.612  0.0175  0.1954  0.6412
 1503SOL    HW116142   0.890   1.224  15.619 -0.0756  0.1960  0.5553
 1503SOL    HW216143   0.974   1.118  15.558  0.6393  2.5941  1.0781
 1504SOL     OW16144   3.542   3.822   6.969 -0.0887 -0.2852 -0.4577
 1504SOL    HW116145   3.609   3.891   6.975 -1.4325  1.0486 -0.6504
 1504SOL    HW216146   3.473   3.853   7.028 -0.7539 -2.6706  0.0273
 1505SOL     OW16147   1.914   3.781   2.338 -0.0825 -0.1846  0.4390
 1505SOL    HW116148   1.887   3.785   2.430 -0.5136  0.3781  0.2852
 1505SOL    HW216149   1.970   3.858   2.328 -1.4041  0.8250  0.8068
 1506SOL     OW16150   0.066   4.481   9.995 -0.6842 -0.2582 -0.6237
 1506SOL    HW116151   0.100   4.545   9.932  1.0392  1.1004  1.6854
 1506SOL    HW216152   0.145   4.492  10.048 -1.3673  2.9061 -0.2052
 1507SOL     OW16153   1.688   2.283   7.216 -0.4699 -0.1296 -0.1113
 1507SOL    HW116154   1.736   2.200   7.216  0.1975  0.2477  2.8532
 1507SOL    HW216155   1.706   2.299   7.309 -0.1937  0.8570 -0.3397
 1508SOL     OW16156   0.433   0.204   5.395 -0.1667  0.3043  0.1290
 1508SOL    HW116157   0.446   0.270   5.326 -0.4812  1.9726  1.6487
 1508SOL    HW216158   0.338   0.195   5.402  0.3347 -3.6907  1.4790
 1509SOL     OW16159   2.379   0.183   6.978 -0.0256 -0.0314  0.3990
 1509SOL    HW116160   2.296   0.206   7.020 -1.7716 -1.6848 -2.1724
 1509SOL    HW216161   2.389   0.254   6.914 -0.9055 -0.3415 -0.0703
 1510SOL     OW16162   4.236   0.893   6.059 -0.4370 -0.2293 -0.4568
 1510SOL    HW116163   4.149   0.927   6.037  0.3663  1.8162 -0.4858
 1510SOL    HW216164   4.214   0.841   6.136  0.1340 -3.0469 -2.1802
 1511SOL     OW16165   0.393   1.465   3.608  0.1206 -0.4927  0.1328
 1511SOL    HW116166   0.440   1.548   3.621 -3.1186  1.2494  0.8966
 1511SOL    HW216167   0.452   1.405   3.654  0.6681  1.2844  1.7720
 1512SOL     OW16168   2.308   0.764  13.479  0.2255 -0.0703  0.3219
 1512SOL    HW116169   2.323   0.735  13.390 -1.7944 -0.1744  0.0069
 1512SOL    HW216170   2.377   0.830  13.484  0.0829 -0.1024  2.7538
 1513SOL     OW16171   0.148   4.224   5.880 -0.0420 -0.1704  0.0330
 1513SOL    HW116172   0.072   4.261   5.925 -1.2246  0.2259 -2.3584
 1513SOL    HW216173   0.219   4.261   5.934 -0.5000 -0.8044  1.0632
 1514SOL     OW16174   2.226   3.516  12.038 -0.1994  0.1847 -0.2003
 1514SOL    HW116175   2.211   3.592  11.981 -2.3113 -0.6502 -0.7515
 1514SOL    HW216176   2.315   3.486  12.022  0.4164  1.7135  0.3234
 1515SOL     OW16177   1.258   1.825   2.324  0.1784  0.0271 -0.0990
 1515SOL    HW116178   1.190   1.837   2.391 -1.3397 -0.6589 -1.4944
 1515SOL    HW216179   1.209   1.808   2.243 -2.4175 -0.0871  1.4710
 1516SOL     OW16180   3.421   3.937   9.628  0.3818 -0.0133 -0.4754
 1516SOL    HW116181   3.439   3.866   9.567  0.5939  0.0874 -0.5294
 1516SOL    HW216182   3.347   3.965   9.574 -0.1733  2.3351  1.5010
 1517SOL     OW16183   0.568   0.816   6.531  0.0771  0.0967 -0.0334
 1517SOL    HW116184   0.562   0.728   6.568  0.0175  0.0097 -0.2544
 1517SOL    HW216185   0.586   0.777   6.446  0.9336  2.0609 -0.7646
 1518SOL     OW16186   2.380   3.942  14.830  0.0734  0.1127 -0.0226
 1518SOL    HW116187   2.414   3.973  14.745  2.1322 -1.9254  0.0498
 1518SOL    HW216188   2.312   3.892  14.785  0.6464 -0.0237 -0.7530
 1519SOL     OW16189   3.298   3.002   1.880  0.0488 -0.2431 -0.5189
 1519SOL    HW116190   3.384   3.037   1.901  0.2406 -1.6212  1.0723
 1519SOL    HW216191   3.280   3.037   1.793 -1.0950 -0.6625 -0.4616
 1520SOL     OW16192   2.480   2.732   3.876  0.5147 -0.0101  0.3072
 1520SOL    HW116193   2.468   2.786   3.798 -1.4016  0.9430  1.2363
 1520SOL    HW216194   2.490   2.652   3.826  0.1726  1.0152 -1.4090
 1521SOL     OW16195   2.766   3.965   3.472  0.5381 -0.3911 -0.1981
 1521SOL    HW116196   2.696   4.017   3.433  0.0920 -0.3681  0.6234
 1521SOL    HW216197   2.827   4.034   3.499  1.4641  0.5320 -4.7410
 1522SOL     OW16198   0.809   3.347   3.755  0.5373 -0.1528  0.3988
 1522SOL    HW116199   0.784   3.440   3.758 -1.5394 -0.6992 -0.3980
 1522SOL    HW216200   0.731   3.298   3.779 -0.0694  0.9304  0.6113
 1523SOL     OW16201   4.449   0.267   8.803  0.0844 -0.1181  0.1122
 1523SOL    HW116202   4.424   0.323   8.729 -0.9373 -0.1205  0.4638
 1523SOL    HW216203   4.369   0.262   8.856 -0.3240 -1.2966 -0.6138
 1524SOL     OW16204   1.087   0.670   3.623  0.2788  0.5946  0.3155
 1524SOL    HW116205   1.115   0.580   3.607  0.0550  0.5198  0.3541
 1524SOL    HW216206   1.167   0.701   3.666  1.5171 -0.2326 -1.4009
 1525SOL     OW16207   0.313   1.965   8.875 -0.5161 -0.5383 -0.5901
 1525SOL    HW116208   0.307   1.870   8.869  1.1913 -0.8684  2.2663
 1525SOL    HW216209   0.228   1.991   8.841 -0.8189 -1.2663 -0.3809
 1526SOL     OW16210   3.040   1.540   5.914  0.0724 -0.0936  0.0318
 1526SOL    HW116211   3.014   1.448   5.908  0.5922 -0.1396 -1.7376
 1526SOL    HW216212   3.050   1.552   5.819  0.6946  3.0939  0.4817
 1527SOL     OW16213   0.697   0.880   2.675 -0.1751  0.8535 -0.6862
 1527SOL    HW116214   0.615   0.853   2.632  0.3023 -0.8346 -0.5372
 1527SOL    HW216215   0.741   0.911   2.596 -1.5612  0.8383 -1.4620
 1528SOL     OW16216   1.233   1.386   3.446  0.1218  0.4469 -0.0532
 1528SOL    HW116217   1.274   1.407   3.362 -0.0577  1.9398  0.2214
 1528SOL    HW216218   1.156   1.340   3.414  1.6238 -1.5018 -0.8966
 1529SOL     OW16219   4.040   0.488   2.431  0.2216  0.1012 -0.3061
 1529SOL    HW116220   4.102   0.542   2.381 -0.7214  1.1927 -0.2936
 1529SOL    HW216221   4.090   0.490   2.513  2.0750  0.2160 -1.4315
 1530SOL     OW16222   3.642   2.231   7.681  0.0435 -0.4719 -0.2157
 1530SOL    HW116223   3.725   2.271   7.707 -0.8736  2.3418 -1.5510
 1530SOL    HW216224   3.676   2.162   7.625  3.6857  0.8816  0.3350
 1531SOL     OW16225   3.940   4.246  10.974  0.1545 -0.2048  0.1702
 1531SOL    HW116226   4.028   4.278  10.994  0.5860 -0.1098 -1.9078
 1531SOL    HW216227   3.902   4.333  10.962 -1.6592 -0.7853  1.6492
 1532SOL     OW16228   2.775   3.999   8.559  0.1633  0.2580 -0.1542
 1532SOL    HW116229   2.729   3.927   8.602  2.0338 -1.6674 -1.3771
 1532SOL    HW216230   2.865   3.966   8.564 -0.2087 -0.5329  1.5595
 1533SOL     OW16231   0.415   1.014   1.709  0.1364  0.1753 -0.1216
 1533SOL    HW116232   0.443   1.089   1.656  0.4716 -2.1894 -3.2765
 1533SOL    HW216233   0.450   1.041   1.793  0.5929 -0.1206 -0.2225
 1534SOL     OW16234   3.403   3.284  17.478 -0.0222 -0.1073  0.3055
 1534SOL    HW116235   3.415   3.194  17.509  0.0738 -0.0489  0.4406
 1534SOL    HW216236   3.495   3.295  17.454 -0.0428 -3.2146 -1.1065
 1535SOL     OW16237   1.515   0.816   7.352 -0.3924 -0.4739  0.6970
 1535SOL    HW116238   1.469   0.871   7.289  1.3817  0.6286  0.3696
 1535SOL    HW216239   1.444   0.798   7.413 -1.6818  0.0560 -0.6654
 1536SOL     OW16240   3.845   1.207   6.185  0.4681 -0.5325 -0.1143
 1536SOL    HW116241   3.879   1.183   6.271 -2.5327  0.0073  1.2001
 1536SOL    HW216242   3.888   1.147   6.124  1.0301  0.4624 -0.7058
 1537SOL     OW16243   4.300   1.515  10.901  0.0432 -0.0167  0.4969
 1537SOL    HW116244   4.355   1.480  10.971  0.5063  1.2541  0.7678
 1537SOL    HW216245   4.223   1.459  10.899 -0.3932  0.6192 -0.5859
 1538SOL     OW16246   1.743   2.233  11.857  0.3601  0.0324  0.4221
 1538SOL    HW116247   1.755   2.148  11.813 -1.9182  0.9074 -1.8684
 1538SOL    HW216248   1.693   2.281  11.792 -2.9975 -2.1595  1.3864
 1539SOL     OW16249   0.903   4.638  16.628 -0.2960 -0.1546  0.4439
 1539SOL    HW116250   0.932   4.596  16.547  0.2415 -0.1925  0.6569
 1539SOL    HW216251   0.850   4.711  16.597  0.5593  0.0102 -0.6152
 1540SOL     OW16252   3.147   3.424   7.041  0.3489 -0.0715  0.5039
 1540SOL    HW116253   3.134   3.487   6.970  0.3448  1.5140  1.9018
 1540SOL    HW216254   3.107   3.343   7.010 -0.3927  0.4334  0.1145
 1541SOL     OW16255   2.718   3.627   6.258 -0.0057 -0.6786  0.1124
 1541SOL    HW116256   2.767   3.601   6.180  1.2353  1.4552  0.1798
 1541SOL    HW216257   2.635   3.641   6.212  0.4731 -1.3750 -0.9761
 1542SOL     OW16258   2.954   0.395   8.861 -0.4464 -0.4848 -0.4340
 1542SOL    HW116259   3.033   0.343   8.880  0.8460  1.7782  0.3456
 1542SOL    HW216260   2.938   0.349   8.778 -0.9250 -0.2699 -0.4610
 1543SOL     OW16261   4.533   4.176   5.837 -0.7433  0.0300 -0.0530
 1543SOL    HW116262   4.456   4.149   5.887  0.5631 -0.3346  1.7660
 1543SOL    HW216263   4.567   4.246   5.893 -1.0318  0.3453 -0.2726
 1544SOL     OW16264   4.708   3.385   7.086 -0.5084 -0.3246  0.0787
 1544SOL    HW116265   0.033   3.452   7.054 -1.1214  0.9645  1.6013
 1544SOL    HW216266   0.015   3.358   7.167  0.2390  3.6112  0.9934
 1545SOL     OW16267   4.073   0.766   8.924  0.0844  0.1840  0.5021
 1545SOL    HW116268   4.101   0.710   8.997 -0.1080  1.5271  1.6141
 1545SOL    HW216269   4.117   0.718   8.854 -2.5133  2.6558 -2.8025
 1546SOL     OW16270   3.768   2.619   9.523  0.0529  0.3404 -0.2774
 1546SOL    HW116271   3.759   2.542   9.579  1.2301  1.2257  1.1449
 1546SOL    HW216272   3.724   2.588   9.444 -1.3422 -0.4391  0.8118
 1547SOL     OW16273   2.848   3.072  14.582 -0.3841  0.3540 -0.4146
 1547SOL    HW116274   2.856   3.058  14.488  1.7889  0.7941 -0.2776
 1547SOL    HW216275   2.829   3.166  14.580 -1.9044  0.0885  1.6362
 1548SOL     OW16276   2.965   1.314   0.586 -0.2005  0.3277 -0.6250
 1548SOL    HW116277   3.036   1.297   0.647  0.1514  0.7338 -0.9168
 1548SOL    HW216278   2.940   1.406   0.600  2.4712  1.2088 -1.5950
 1549SOL     OW16279   4.363   0.278   7.788 -0.0307 -0.2825  0.3573
 1549SOL    HW116280   4.289   0.243   7.838  0.3981 -1.0891  0.4323
 1549SOL    HW216281   4.358   0.223   7.710 -0.0069  0.0970  0.0923
 1550SOL     OW16282   4.470   4.494  15.967  0.0989  0.0281  0.9469
 1550SOL    HW116283   4.378   4.517  15.955  0.2999  0.6394  0.5910
 1550SOL    HW216284   4.499   4.574  16.010 -0.1590 -0.0576  1.2801
 1551SOL     OW16285   1.658   3.626   5.735  0.0105 -0.8367 -0.5502
 1551SOL    HW116286   1.743   3.667   5.719 -0.6007  0.9468  0.7047
 1551SOL    HW216287   1.600   3.671   5.673  0.2129  0.4277  0.1698
 1552SOL     OW16288   0.974   0.122   4.815 -0.4386 -0.1022  0.0789
 1552SOL    HW116289   1.021   0.039   4.813 -0.9428 -0.3685 -0.9827
 1552SOL    HW216290   1.025   0.178   4.757  0.2153  0.1222  0.8839
 1553SOL     OW16291   1.798   0.205   6.952  0.1348 -0.3475 -0.0566
 1553SOL    HW116292   1.769   0.145   6.884 -0.9690 -1.2575  1.2119
 1553SOL    HW216293   1.860   0.253   6.897 -0.1784 -1.5006 -1.3869
 1554SOL     OW16294   0.168   2.427   4.075  0.0710  0.1232 -0.1199
 1554SOL    HW116295   0.231   2.426   4.004  0.2673 -0.9933  0.0651
 1554SOL    HW216296   0.224   2.433   4.153  2.2630  1.4919 -1.8096
 1555SOL     OW16297   4.570   3.685   6.636 -0.8887  0.2529 -0.1566
 1555SOL    HW116298   4.497   3.632   6.667  1.8180 -2.8646  0.8375
 1555SOL    HW216299   4.565   3.665   6.542 -1.8319 -1.4409  0.2543
 1556SOL     OW16300   2.134   4.106   4.514  0.1372  0.1943  0.0268
 1556SOL    HW116301   2.116   4.189   4.470 -0.8741 -0.3967 -0.6818
 1556SOL    HW216302   2.162   4.149   4.594 -0.4705 -0.0163  0.3527
 1557SOL     OW16303   2.821   0.836   7.786  0.0128  0.2130 -0.0106
 1557SOL    HW116304   2.765   0.765   7.818  1.8910 -1.0753  0.4375
 1557SOL    HW216305   2.888   0.787   7.739 -0.4636  0.2765 -0.7477
 1558SOL     OW16306   2.411   0.025   8.473 -1.0112  0.0543  0.5138
 1558SOL    HW116307   2.338   0.028   8.535 -0.2489 -0.4861  1.4288
 1558SOL    HW216308   2.475   0.087   8.508 -1.9991  0.6035  1.3510
 1559SOL     OW16309   0.641   0.380   7.887  0.0185 -0.0441  0.0900
 1559SOL    HW116310   0.642   0.453   7.948  1.1950  1.3902 -1.6404
 1559SOL    HW216311   0.560   0.389   7.836  0.1852  0.5492 -0.0691
 1560SOL     OW16312   2.718   1.027  11.673  0.0826 -0.4283  0.5182
 1560SOL    HW116313   2.796   1.077  11.651 -0.4654  0.1229 -0.2132
 1560SOL    HW216314   2.644   1.079  11.639  0.4896  0.2740  0.7281
 1561SOL     OW16315   2.546   0.968  13.471  0.2269 -0.4996 -0.3395
 1561SOL    HW116316   2.552   0.976  13.376 -1.2830 -0.6157 -0.4419
 1561SOL    HW216317   2.629   0.928  13.497  0.6047  0.3196 -0.2825
 1562SOL     OW16318   3.622   0.932   7.437  0.0887 -0.3560 -0.8762
 1562SOL    HW116319   3.610   0.839   7.421 -1.4496  0.1935 -2.9625
 1562SOL    HW216320   3.583   0.962   7.355 -0.9784  1.5509  0.3307
 1563SOL     OW16321   1.452   2.366   3.007  0.5435  0.3018  0.1366
 1563SOL    HW116322   1.497   2.364   2.923 -3.1609 -0.2592 -1.7904
 1563SOL    HW216323   1.366   2.335   2.980 -0.2512  1.4608  1.3537
 1564SOL     OW16324   3.483   0.505   6.581  0.1224  0.0039 -0.5366
 1564SOL    HW116325   3.493   0.557   6.501 -0.5234  1.9223  0.6469
 1564SOL    HW216326   3.522   0.564   6.645  1.1175 -0.5679 -0.6090
 1565SOL     OW16327   1.868   0.504  15.975  0.0181  0.2545 -0.7996
 1565SOL    HW116328   1.873   0.425  16.029  3.4207  1.5468  0.7736
 1565SOL    HW216329   1.888   0.575  16.037 -1.3748 -1.1419  1.2570
 1566SOL     OW16330   4.187   3.548   7.144  0.2122  0.0908  0.1561
 1566SOL    HW116331   4.281   3.536   7.158 -0.1639 -2.1593  0.5872
 1566SOL    HW216332   4.147   3.539   7.230  1.6677  0.3118  0.8550
 1567SOL     OW16333   1.793   2.225   7.715  0.1252 -0.1755 -0.5895
 1567SOL    HW116334   1.750   2.238   7.799 -2.8445 -5.3893 -1.3060
 1567SOL    HW216335   1.869   2.177   7.748  1.0940  2.6653  1.3215
 1568SOL     OW16336   3.497   4.411   6.787  0.2053 -0.2503 -0.6292
 1568SOL    HW116337   3.558   4.484   6.784 -1.6222  1.3719  1.4105
 1568SOL    HW216338   3.475   4.415   6.881 -0.5774 -0.9998 -0.7763
 1569SOL     OW16339   1.111   3.737   4.303  0.7969  0.8154  0.2623
 1569SOL    HW116340   1.031   3.785   4.322  1.4094  1.9931 -0.1322
 1569SOL    HW216341   1.075   3.681   4.234  0.0819  0.5013  0.8839
 1570SOL     OW16342   2.589   3.845  15.029  0.2227 -0.3570 -0.3203
 1570SOL    HW116343   2.541   3.834  15.111 -0.5348 -0.9279 -0.8419
 1570SOL    HW216344   2.530   3.899  14.976  0.8604 -1.1196 -1.8025
 1571SOL     OW16345   1.708   4.102   2.685  0.5233  0.0244 -0.6396
 1571SOL    HW116346   1.779   4.156   2.651 -1.2488  3.3015  0.8693
 1571SOL    HW216347   1.743   4.013   2.687 -1.8571 -0.9131 -0.0735
 1572SOL     OW16348   4.336   2.628  13.593 -0.5510  0.6285  0.0475
 1572SOL    HW116349   4.245   2.613  13.619 -0.2417  0.0835  0.8039
 1572SOL    HW216350   4.326   2.588  13.507  0.3699  1.7259 -0.5715
 1573SOL     OW16351   3.151   1.679  10.409 -0.0162  0.1402 -0.0014
 1573SOL    HW116352   3.118   1.589  10.402 -1.0896  0.7290 -2.4914
 1573SOL    HW216353   3.245   1.682  10.394  0.0313 -1.0094  0.0594
 1574SOL     OW16354   4.558   3.489   9.816  1.1999  0.4759  0.6084
 1574SOL    HW116355   4.628   3.459   9.874 -0.1657 -5.2838 -0.6839
 1574SOL    HW216356   4.576   3.437   9.737  0.1829  1.5692 -0.3379
 1575SOL     OW16357   1.703   2.651   4.610 -0.1454  0.6958 -0.0933
 1575SOL    HW116358   1.619   2.636   4.565  1.0548 -0.2784 -1.9917
 1575SOL    HW216359   1.687   2.739   4.644  1.9354  0.3900  1.6770
 1576SOL     OW16360   2.429   3.855   3.384 -0.0153 -0.3541 -0.1574
 1576SOL    HW116361   2.511   3.824   3.346  0.3952  0.3069  0.1839
 1576SOL    HW216362   2.438   3.841   3.479 -0.6481  1.5706  0.1874
 1577SOL     OW16363   2.689   0.786   6.325 -0.4826  0.6930  0.1703
 1577SOL    HW116364   2.594   0.789   6.333 -0.3262 -0.8164  2.6570
 1577SOL    HW216365   2.705   0.822   6.238 -0.9951  0.1747 -0.1390
 1578SOL     OW16366   0.187   4.481   5.452  0.6240 -0.5545  0.1595
 1578SOL    HW116367   0.202   4.415   5.519 -1.0313 -0.9689  0.1315
 1578SOL    HW216368   0.250   4.550   5.472 -1.3281  1.7902 -1.7337
 1579SOL     OW16369   1.410   2.014   5.372  0.2027 -0.0043  0.6908
 1579SOL    HW116370   1.444   2.098   5.402  0.5283  1.0512 -2.5343
 1579SOL    HW216371   1.489   1.981   5.328  1.0215  1.8983  0.7320
 1580SOL     OW16372   1.811   4.254   7.245 -0.3271  0.4634 -0.0468
 1580SOL    HW116373   1.841   4.344   7.256  0.5542  0.0804  0.6721
 1580SOL    HW216374   1.744   4.269   7.178  0.9434  0.4441 -1.3214
 1581SOL     OW16375   2.028   2.457   2.672  0.1639 -0.5440  0.0368
 1581SOL    HW116376   2.020   2.371   2.712  1.8985  1.0013  3.6809
 1581SOL    HW216377   1.962   2.513   2.713  0.8533 -0.8230  1.5001
 1582SOL     OW16378   1.744   4.332   4.277  0.3413 -0.4496 -0.2415
 1582SOL    HW116379   1.730   4.254   4.330  2.6802  0.0087  1.0531
 1582SOL    HW216380   1.656   4.370   4.278  0.8906  0.8560 -1.0474
 1583SOL     OW16381   0.274   1.083   3.361 -0.4015 -0.6824 -0.3152
 1583SOL    HW116382   0.365   1.078   3.390 -0.1309  1.7332 -0.7175
 1583SOL    HW216383   0.240   1.101   3.448 -0.8460 -0.3976 -0.5492
 1584SOL     OW16384   2.558   4.469   4.336 -0.6070 -0.8386  0.4306
 1584SOL    HW116385   2.536   4.544   4.280 -3.4219 -0.0066  2.6659
 1584SOL    HW216386   2.570   4.404   4.267  0.3182 -0.7941  0.5444
 1585SOL     OW16387   1.690   1.074   4.058  0.0285  0.5494  0.0709
 1585SOL    HW116388   1.682   1.139   4.128 -2.2934 -0.5374  0.8136
 1585SOL    HW216389   1.602   1.040   4.042  1.0501 -1.4093 -1.3195
 1586SOL     OW16390   3.620   4.665  11.489 -0.4219 -0.4268  0.2844
 1586SOL    HW116391   3.662   4.669  11.575  0.5137  0.7027 -0.2236
 1586SOL    HW216392   3.531   4.689  11.512 -0.2589 -1.9042  2.4702
 1587SOL     OW16393   3.187   2.423  13.267 -0.2039 -0.4321 -0.2658
 1587SOL    HW116394   3.281   2.439  13.276 -0.3733  0.7220 -0.5852
 1587SOL    HW216395   3.150   2.482  13.332  1.7423  1.7735 -1.1832
 1588SOL     OW16396   0.043   0.029   7.226 -0.0970 -0.3848 -0.6579
 1588SOL    HW116397   0.034   4.706   7.151  0.4028  0.4396 -1.3546
 1588SOL    HW216398   0.124   0.004   7.270 -0.3943 -0.8587 -0.3781
 1589SOL     OW16399   4.640   2.964   6.093 -0.5168 -0.1788  0.5602
 1589SOL    HW116400   4.602   3.051   6.079  1.8139  0.4745 -1.6958
 1589SOL    HW216401   4.564   2.914   6.123 -0.8811  0.0934  0.0745
 1590SOL     OW16402   2.747   4.209  10.955 -0.7760 -0.5336  0.5056
 1590SOL    HW116403   2.672   4.171  11.000 -1.5012 -0.3520 -0.5441
 1590SOL    HW216404   2.788   4.256  11.028 -0.1984 -2.1695  1.2373
 1591SOL     OW16405   2.900   1.010   4.289  0.4810 -0.8361 -0.4680
 1591SOL    HW116406   2.841   1.050   4.353 -0.9514 -1.7062 -1.2569
 1591SOL    HW216407   2.962   0.968   4.349  2.5943  2.4829 -0.2979
 1592SOL     OW16408   3.489   3.850   3.833  0.2268 -0.5012  0.3024
 1592SOL    HW116409   3.471   3.761   3.864  1.4824 -1.0818 -0.6437
 1592SOL    HW216410   3.539   3.825   3.756  0.7565 -0.4901  0.6448
 1593SOL     OW16411   3.412   0.664   2.208  0.4012  0.1354 -0.0710
 1593SOL    HW116412   3.477   0.596   2.195 -0.4801  0.0163 -3.9517
 1593SOL    HW216413   3.417   0.687   2.301  2.2577 -1.1155  0.1334
 1594SOL     OW16414   2.478   0.881   2.179  0.0646 -0.1833 -0.3154
 1594SOL    HW116415   2.402   0.939   2.178 -0.6860 -1.1563  0.2290
 1594SOL    HW216416   2.434   0.797   2.194  1.1086 -0.5636  0.6835
 1595SOL     OW16417   2.667   3.592   1.423  0.2145  0.3976  0.1391
 1595SOL    HW116418   2.579   3.602   1.458 -0.4049 -0.4832 -1.1522
 1595SOL    HW216419   2.699   3.522   1.480  1.1740 -0.5283 -1.5098
 1596SOL     OW16420   4.088   1.493  12.074  0.2155 -0.0960 -0.1446
 1596SOL    HW116421   4.126   1.406  12.087 -1.1943 -0.4765  1.4770
 1596SOL    HW216422   4.086   1.526  12.164  0.8838 -0.7430  0.1068
 1597SOL     OW16423   4.228   1.932   1.793  0.6299  0.0588  0.8204
 1597SOL    HW116424   4.284   1.866   1.834  0.4708  0.2708  1.3779
 1597SOL    HW216425   4.159   1.923   1.859  0.6657 -1.3510  0.6720
 1598SOL     OW16426   4.394   0.486  12.583  0.2000 -0.3320  0.8926
 1598SOL    HW116427   4.452   0.553  12.549 -0.7512 -0.1151 -0.2769
 1598SOL    HW216428   4.356   0.533  12.658  0.2386  0.8978  0.1379
 1599SOL     OW16429   2.901   0.266   7.281  0.1315  0.3820 -0.6578
 1599SOL    HW116430   2.886   0.179   7.244 -0.6333  0.2588 -0.0611
 1599SOL    HW216431   2.931   0.303   7.198 -0.4561  1.5025 -0.3784
 1600SOL     OW16432   2.818   4.434  13.610 -0.0650  0.8657 -0.1581
 1600SOL    HW116433   2.760   4.401  13.541 -0.7144 -0.6898  1.1169
 1600SOL    HW216434   2.891   4.375  13.595 -1.0221 -0.4400  0.2546
 1601SOL     OW16435   1.590   1.102   5.270 -0.0073 -0.6001 -0.0536
 1601SOL    HW116436   1.540   1.103   5.352 -2.5165  1.3731 -1.5890
 1601SOL    HW216437   1.545   1.029   5.227  0.7861 -0.0052 -1.8798
 1602SOL     OW16438   2.470   1.177   1.803 -0.0999 -0.1698 -0.0569
 1602SOL    HW116439   2.393   1.152   1.854  1.7872  1.7693  3.6648
 1602SOL    HW216440   2.466   1.106   1.738 -0.0344 -1.3686  1.2525
 1603SOL     OW16441   4.594   3.412   2.260 -0.0057 -0.3210 -0.3648
 1603SOL    HW116442   4.680   3.424   2.299 -0.6680 -2.2278  1.6700
 1603SOL    HW216443   4.546   3.392   2.340 -3.0974 -4.1235 -3.1132
 1604SOL     OW16444   0.954   2.024   0.787  0.1490  0.0377  0.3572
 1604SOL    HW116445   1.008   2.067   0.853  1.4065  0.1261 -0.7226
 1604SOL    HW216446   0.867   2.049   0.817  0.2882 -0.6490  1.3408
 1605SOL     OW16447   0.591   2.123   7.002 -0.3053  0.3126 -0.5986
 1605SOL    HW116448   0.605   2.060   7.073 -1.5612  1.5058  0.7052
 1605SOL    HW216449   0.669   2.127   6.947  0.8522  1.7873  1.1568
 1606SOL     OW16450   0.040   0.869   2.830 -0.4815  0.6101 -0.5779
 1606SOL    HW116451   0.054   0.778   2.856 -2.7796  0.7416  1.0752
 1606SOL    HW216452   0.088   0.925   2.892 -0.2867 -0.3760  0.1590
 1607SOL     OW16453   2.184   1.632   4.924  0.5299 -0.0703 -0.2874
 1607SOL    HW116454   2.163   1.554   4.976 -0.2242 -0.1988 -0.7908
 1607SOL    HW216455   2.145   1.641   4.837 -0.9325  3.3687  0.7457
 1608SOL     OW16456   3.779   3.541  17.016 -0.0133  0.2911 -0.5411
 1608SOL    HW116457   3.696   3.564  16.975 -0.5193  0.6665  0.7024
 1608SOL    HW216458   3.803   3.631  17.037  0.2627  0.3053 -0.9163
 1609SOL     OW16459   1.714   0.669   8.424  0.0296 -0.4470  0.6203
 1609SOL    HW116460   1.806   0.646   8.437  0.4377  0.2957 -0.9253
 1609SOL    HW216461   1.662   0.594   8.454  1.0559 -2.0225 -1.5015
 1610SOL     OW16462   2.685   1.065   6.834 -0.2133 -0.1315  0.0529
 1610SOL    HW116463   2.658   1.036   6.747  0.7351 -0.3955 -0.1527
 1610SOL    HW216464   2.732   0.985   6.856  1.3564  0.8502  0.2545
 1611SOL     OW16465   0.282   0.594   4.521  0.0414 -0.6257  0.1727
 1611SOL    HW116466   0.206   0.553   4.563 -2.4463  1.9677 -1.7874
 1611SOL    HW216467   0.356   0.571   4.577  1.0570 -0.0885 -0.9527
 1612SOL     OW16468   1.489   1.624   0.218 -0.1162  0.3154  0.0607
 1612SOL    HW116469   1.571   1.673   0.214 -0.0243  0.1972  0.4751
 1612SOL    HW216470   1.436   1.673   0.155 -0.8272 -1.2533 -0.5568
 1613SOL     OW16471   3.200   1.699  10.086 -0.1896 -0.4411 -0.2521
 1613SOL    HW116472   3.294   1.694  10.069 -0.3622 -1.3742 -0.9124
 1613SOL    HW216473   3.185   1.624  10.145  0.2981  1.2004  1.9515
 1614SOL     OW16474   2.479   1.209   2.879  0.7683  1.0299 -0.2167
 1614SOL    HW116475   2.542   1.195   2.808 -0.7081 -0.4454 -1.2261
 1614SOL    HW216476   2.525   1.246   2.955  0.2861  1.9886 -0.3814
 1615SOL     OW16477   1.711   2.610  10.892 -0.4349  0.5977 -0.3791
 1615SOL    HW116478   1.764   2.665  10.950 -0.2123 -0.2774  0.2430
 1615SOL    HW216479   1.781   2.569  10.841 -1.0832  1.1484 -1.7343
 1616SOL     OW16480   2.453   3.804   3.646 -0.4860 -0.5013 -0.4346
 1616SOL    HW116481   2.404   3.854   3.712  2.4012 -2.8329  3.4372
 1616SOL    HW216482   2.442   3.713   3.672  3.3778 -0.7027  0.4785
 1617SOL     OW16483   3.440   2.423   8.452  0.6347  0.0652  0.0582
 1617SOL    HW116484   3.448   2.434   8.357  0.1007 -0.9678 -0.1011
 1617SOL    HW216485   3.376   2.352   8.460 -1.6560  2.4230  2.5536
 1618SOL     OW16486   2.450   0.739   4.837  0.6655  0.1581 -0.1524
 1618SOL    HW116487   2.478   0.723   4.747  2.5561  0.3883  0.4045
 1618SOL    HW216488   2.456   0.655   4.881 -0.9981 -0.4810 -1.1287
 1619SOL     OW16489   3.154   3.007   5.432 -0.6342  0.0447  0.5556
 1619SOL    HW116490   3.179   3.094   5.463  0.4353 -0.0574 -0.0348
 1619SOL    HW216491   3.231   2.952   5.441 -0.4524  0.2090  0.0376
 1620SOL     OW16492   0.576   3.709   8.528  0.1781  0.5163  0.2664
 1620SOL    HW116493   0.580   3.671   8.616  2.0137 -1.7925 -0.8175
 1620SOL    HW216494   0.628   3.638   8.489  0.2339  1.2682 -1.0365
 1621SOL     OW16495   4.415   2.907   5.769 -0.0527  0.2695  0.0848
 1621SOL    HW116496   4.341   2.964   5.749 -1.1871 -2.1155 -2.5851
 1621SOL    HW216497   4.435   2.936   5.858 -0.6310  0.2245  0.2250
 1622SOL     OW16498   4.592   1.996   0.536  0.2060  0.1869 -0.1800
 1622SOL    HW116499   4.512   2.048   0.524 -0.5096 -0.9144 -0.1798
 1622SOL    HW216500   4.658   2.064   0.549  0.9315 -0.7808  1.1880
 1623SOL     OW16501   2.504   0.270   3.077  0.3437  0.4195  0.6944
 1623SOL    HW116502   2.453   0.331   3.024 -0.1025 -0.3597  0.2347
 1623SOL    HW216503   2.543   0.326   3.144  2.1484  0.7481 -0.6316
 1624SOL     OW16504   2.283   4.007  12.307  0.2688  0.3762 -0.4557
 1624SOL    HW116505   2.276   4.007  12.211  0.5901 -2.7264 -0.4857
 1624SOL    HW216506   2.323   4.094  12.314  1.9820 -0.3420 -1.1842
 1625SOL     OW16507   1.913   0.480   1.606  0.1932  0.2399  0.4664
 1625SOL    HW116508   1.965   0.494   1.527  1.2708  2.8374  1.6473
 1625SOL    HW216509   1.970   0.405   1.628  0.7567  0.0808 -1.5655
 1626SOL     OW16510   3.082   1.395  10.694 -0.0843 -0.5357  0.4524
 1626SOL    HW116511   3.040   1.321  10.737  0.0864 -1.0688 -0.2877
 1626SOL    HW216512   3.133   1.345  10.630 -1.1080  0.5370 -1.2136
 1627SOL     OW16513   1.596   3.394   5.848 -0.4624  0.2661  0.8531
 1627SOL    HW116514   1.689   3.371   5.840 -0.9266 -0.8902 -1.3065
 1627SOL    HW216515   1.606   3.484   5.816 -0.6287 -1.0047 -2.7661
 1628SOL     OW16516   2.600   0.224  14.003 -0.3716 -0.1317  0.2613
 1628SOL    HW116517   2.510   0.193  13.993 -0.2894 -0.3052  0.0721
 1628SOL    HW216518   2.632   0.241  13.915  0.0090  0.5080  0.5230
 1629SOL     OW16519   4.676   0.654   2.236  0.0674 -0.1727  0.2320
 1629SOL    HW116520   4.606   0.708   2.198  1.3746  0.1491 -1.7293
 1629SOL    HW216521   4.727   0.725   2.276  1.9858 -0.9261 -0.8581
 1630SOL     OW16522   3.861   1.303  10.147  0.3135 -0.5575  0.1861
 1630SOL    HW116523   3.946   1.337  10.117 -0.6875  2.1676  0.4082
 1630SOL    HW216524   3.791   1.365  10.125  1.6483  0.4486 -1.2151
 1631SOL     OW16525   4.706   1.624   1.241  0.5002 -0.3362 -0.9579
 1631SOL    HW116526   0.050   1.674   1.261  0.8373 -1.1308 -0.3186
 1631SOL    HW216527   4.728   1.570   1.164  1.9147 -0.9634 -0.1172
 1632SOL     OW16528   4.393   0.169   7.546 -0.1345 -0.3626  0.2432
 1632SOL    HW116529   4.344   0.135   7.471 -0.9022 -0.4573  0.7934
 1632SOL    HW216530   4.483   0.145   7.521  0.3398 -1.1383  2.7093
 1633SOL     OW16531   0.009   0.166  17.565 -0.3149  0.4054 -0.2415
 1633SOL    HW116532   0.077   0.206  17.618 -1.5598  2.4978 -0.2398
 1633SOL    HW216533   4.692   0.237  17.530  0.7627  1.8559  1.0811
 1634SOL     OW16534   0.860   4.589   2.575 -0.1387 -0.6056 -0.2469
 1634SOL    HW116535   0.809   4.670   2.586  1.8303  0.7573 -1.1000
 1634SOL    HW216536   0.946   4.620   2.547  0.0175 -2.0932 -1.4034
 1635SOL     OW16537   0.045   2.945   5.241  0.3969  0.1426 -0.5281
 1635SOL    HW116538   4.720   3.002   5.194 -0.6160 -0.4083  0.1199
 1635SOL    HW216539   0.103   2.918   5.170  1.4243 -1.0238  0.7491
 1636SOL     OW16540   1.993   3.472  16.066  0.1570 -0.2542  0.5826
 1636SOL    HW116541   1.947   3.416  16.004 -0.7868  1.2116 -0.0237
 1636SOL    HW216542   2.022   3.538  16.004  1.8615  0.3940  2.0696
 1637SOL     OW16543   3.377   0.051   3.656 -0.3333 -0.0610 -0.2564
 1637SOL    HW116544   3.384   4.695   3.683 -1.1647  0.2669  1.0423
 1637SOL    HW216545   3.417   0.045   3.569  2.1839 -0.4497  0.9229
 1638SOL     OW16546   0.102   4.537  12.365 -0.0549  0.0538 -0.0281
 1638SOL    HW116547   0.013   4.569  12.354 -0.0266  0.2833  0.4111
 1638SOL    HW216548   0.107   4.533  12.460  0.1612  1.6895  0.0310
 1639SOL     OW16549   3.399   1.662  17.202 -0.2216  0.4402 -0.0682
 1639SOL    HW116550   3.378   1.709  17.122 -0.8743  0.3663  0.0629
 1639SOL    HW216551   3.424   1.576  17.168 -2.2180 -0.3518  0.4663
 1640SOL     OW16552   0.556   3.604   3.695  0.1290 -0.2616 -0.3004
 1640SOL    HW116553   0.491   3.665   3.729  0.0993  0.1964 -1.1722
 1640SOL    HW216554   0.565   3.536   3.761 -0.2972  1.1259  1.1911
 1641SOL     OW16555   0.421   1.660   6.293  0.2554 -0.1938 -0.1301
 1641SOL    HW116556   0.418   1.751   6.323 -0.6861 -0.0748 -0.5563
 1641SOL    HW216557   0.513   1.639   6.309  0.3532  0.5679  0.3130
 1642SOL     OW16558   0.310   0.776  12.848 -0.3794 -0.2476  0.2751
 1642SOL    HW116559   0.258   0.697  12.837 -2.5182  1.1238  0.5315
 1642SOL    HW216560   0.265   0.830  12.912 -1.8848 -1.7808  0.5005
 1643SOL     OW16561   4.408   0.583   7.573 -0.1591  0.1911  0.4485
 1643SOL    HW116562   4.470   0.642   7.530  0.5181 -0.8777 -0.0381
 1643SOL    HW216563   4.472   0.525   7.614 -0.2526  0.2512  0.6763
 1644SOL     OW16564   4.239   1.311   6.132  0.2343 -0.0360 -0.0400
 1644SOL    HW116565   4.154   1.353   6.143  0.1130 -0.6585  1.3359
 1644SOL    HW216566   4.226   1.237   6.072 -1.0029  0.3261 -0.2082
 1645SOL     OW16567   4.152   0.474   8.222  0.2508  0.1681  0.0865
 1645SOL    HW116568   4.139   0.562   8.258  1.1569 -0.2040  1.3148
 1645SOL    HW216569   4.236   0.486   8.178  0.5072 -0.7913  0.3147
 1646SOL     OW16570   4.613   1.190   3.345 -0.1811 -0.2931 -0.1752
 1646SOL    HW116571   4.666   1.111   3.344 -0.7267 -0.6001 -2.7925
 1646SOL    HW216572   4.531   1.147   3.370  0.9101 -2.2297  0.0125
 1647SOL     OW16573   3.391   1.002   6.112 -0.1394 -0.1821 -0.5748
 1647SOL    HW116574   3.380   0.990   6.206  1.1687 -0.8618 -0.5022
 1647SOL    HW216575   3.457   1.071   6.118 -1.2314  0.6341  2.0114
 1648SOL     OW16576   4.318   1.184   4.818  0.2378  0.1454  0.0709
 1648SOL    HW116577   4.384   1.126   4.780  1.1130  1.5509 -0.5361
 1648SOL    HW216578   4.365   1.241   4.880  0.3493 -0.7695  0.8271
 1649SOL     OW16579   0.797   2.361   1.295 -0.3277  0.5945  0.0853
 1649SOL    HW116580   0.829   2.277   1.328  0.3984  0.4165 -1.0941
 1649SOL    HW216581   0.841   2.359   1.210  1.4109  0.7657  0.9787
 1650SOL     OW16582   4.485   3.216   5.574  0.1455 -0.1438 -0.1830
 1650SOL    HW116583   4.485   3.242   5.666  1.8384  2.7222 -1.0044
 1650SOL    HW216584   4.520   3.127   5.574 -0.9107 -0.5564  1.6851
 1651SOL     OW16585   3.779   3.945   6.139 -0.4042  0.4450  0.3805
 1651SOL    HW116586   3.805   3.875   6.079 -1.0449 -1.8787  2.8225
 1651SOL    HW216587   3.687   3.961   6.116 -0.6456 -0.5163  0.6579
 1652SOL     OW16588   2.661   3.518  12.442  0.1704  0.2301  0.3477
 1652SOL    HW116589   2.604   3.594  12.435  1.4126  1.0935 -0.3334
 1652SOL    HW216590   2.666   3.509  12.347 -0.1020  1.7122  0.1998
 1653SOL     OW16591   2.863   1.774  12.555  0.5429 -0.1800 -0.0633
 1653SOL    HW116592   2.869   1.853  12.609 -1.8839 -0.5555  0.7815
 1653SOL    HW216593   2.802   1.805  12.488  1.7328  1.3634 -0.4390
 1654SOL     OW16594   0.906   3.930   6.210 -0.3888  0.2929  0.8987
 1654SOL    HW116595   0.911   4.006   6.152 -1.7412 -0.5737 -0.3708
 1654SOL    HW216596   0.820   3.940   6.250  0.0030 -0.5757  1.9799
 1655SOL     OW16597   2.289   3.218   7.824 -0.4193 -0.3261 -0.1799
 1655SOL    HW116598   2.213   3.275   7.813  0.8418  0.9845 -2.0243
 1655SOL    HW216599   2.237   3.138   7.837 -2.9901  1.1234 -1.4371
 1656SOL     OW16600   0.358   4.578  13.445 -0.1613 -0.3704 -0.4850
 1656SOL    HW116601   0.311   4.503  13.408 -0.1080  0.0511 -1.3885
 1656SOL    HW216602   0.448   4.552  13.423  0.4178 -0.6404  2.1099
 1657SOL     OW16603   2.517   3.588  10.896 -0.0926  0.2977  0.3373
 1657SOL    HW116604   2.548   3.669  10.856  0.3510  0.0988  0.2695
 1657SOL    HW216605   2.443   3.569  10.839 -0.1671 -2.2522  1.2576
 1658SOL     OW16606   2.974   0.222   9.596 -0.1976 -0.0196 -0.5162
 1658SOL    HW116607   2.986   0.135   9.557  1.1995  0.6136 -1.4984
 1658SOL    HW216608   3.059   0.262   9.579  0.8261 -1.7062  0.6902
 1659SOL     OW16609   3.665   1.982   2.644  0.2195  0.2597  0.5134
 1659SOL    HW116610   3.639   1.932   2.721  2.5835  0.0569  1.1637
 1659SOL    HW216611   3.752   2.006   2.675  1.2756 -1.0656 -1.4770
 1660SOL     OW16612   2.529   4.552   8.648  0.4592  0.1372 -0.5128
 1660SOL    HW116613   2.459   4.490   8.625 -0.3044  0.5969  0.5513
 1660SOL    HW216614   2.500   4.621   8.589 -1.4703 -0.3771 -0.1647
 1661SOL     OW16615   4.118   2.012   4.538  0.4655 -0.2061  0.2737
 1661SOL    HW116616   4.032   2.050   4.520  0.6254 -1.3701 -3.0341
 1661SOL    HW216617   4.156   2.088   4.582  3.4195 -0.2865 -2.1661
 1662SOL     OW16618   3.361   4.601   6.485  0.9333  0.5153 -0.6673
 1662SOL    HW116619   3.303   4.677   6.477  0.7084  0.2238 -1.8255
 1662SOL    HW216620   3.445   4.647   6.476  1.2511  0.3729  1.7241
 1663SOL     OW16621   2.793   4.662   8.107  0.1819 -0.0849  0.0282
 1663SOL    HW116622   2.728   4.639   8.173  1.4005  0.9473  1.5733
 1663SOL    HW216623   2.847   4.726   8.153 -0.6394 -0.5079  1.5893
 1664SOL     OW16624   1.508   0.080   7.977  0.6894 -0.2380  0.0977
 1664SOL    HW116625   1.502   4.727   8.011  1.4404 -0.3041  0.0579
 1664SOL    HW216626   1.462   0.115   8.053 -2.8900 -2.5197 -1.0562
 1665SOL     OW16627   2.026   4.601   0.591  0.3360  0.2300  0.1379
 1665SOL    HW116628   2.089   4.540   0.630 -0.2586 -1.4248 -1.4672
 1665SOL    HW216629   2.063   4.678   0.634  1.5222  1.0618 -2.4068
 1666SOL     OW16630   0.862   4.015   3.543 -0.0335  0.1355  0.0677
 1666SOL    HW116631   0.902   3.934   3.513  1.2704  0.4130  1.1111
 1666SOL    HW216632   0.827   4.032   3.455  1.0018  0.3447 -0.2972
 1667SOL     OW16633   3.256   3.868   7.765 -0.1729 -0.4178  1.2930
 1667SOL    HW116634   3.225   3.936   7.705  2.9829 -0.0215  0.1226
 1667SOL    HW216635   3.319   3.833   7.702 -0.6955  1.2913 -0.1829
 1668SOL     OW16636   1.119   2.525   4.804  0.6339  0.1432 -0.0464
 1668SOL    HW116637   1.191   2.586   4.789 -0.4817  0.7736 -2.9200
 1668SOL    HW216638   1.155   2.468   4.872  0.9976  0.9811  0.4515
 1669SOL     OW16639   0.050   3.412   9.398  0.6206  0.3322 -0.1059
 1669SOL    HW116640   0.005   3.380   9.476  1.7726  0.7544  0.7461
 1669SOL    HW216641   0.048   3.504   9.423 -0.4721  0.6457 -1.3415
 1670SOL     OW16642   1.606   0.619   3.820 -0.0792 -0.2624  0.0916
 1670SOL    HW116643   1.619   0.552   3.752  1.5983  1.3082 -1.1413
 1670SOL    HW216644   1.699   0.642   3.813 -0.1233  0.2365  1.2310
 1671SOL     OW16645   0.312   3.233   7.091 -0.4752 -0.2751  0.1624
 1671SOL    HW116646   0.254   3.281   7.151 -0.7705  0.2608 -0.5518
 1671SOL    HW216647   0.300   3.147   7.131 -3.1868 -0.2785 -0.6409
 1672SOL     OW16648   2.016   3.859   5.235  0.0405  0.9448 -0.5316
 1672SOL    HW116649   2.002   3.833   5.144  0.5244  1.4230 -0.7451
 1672SOL    HW216650   1.960   3.936   5.240 -0.9248  0.1830  0.2619
 1673SOL     OW16651   3.909   4.150   8.678  0.4958 -0.4973 -0.2519
 1673SOL    HW116652   3.883   4.221   8.737 -1.1709  0.1644 -1.7740
 1673SOL    HW216653   3.976   4.184   8.619  1.1915  0.9610  1.3989
 1674SOL     OW16654   0.644   0.984  15.602 -0.0170  0.0881 -0.5622
 1674SOL    HW116655   0.616   1.024  15.520  0.2702  1.5295  0.0397
 1674SOL    HW216656   0.721   1.036  15.624 -0.9600  1.5477 -0.7831
 1675SOL     OW16657   2.208   2.474   2.112  0.1457 -0.0997  0.0462
 1675SOL    HW116658   2.274   2.537   2.138  1.2827 -1.0808 -0.4756
 1675SOL    HW216659   2.137   2.531   2.082 -1.6699 -2.4775 -0.1761
 1676SOL     OW16660   4.298   2.237   7.787  0.5140  0.1899  0.2747
 1676SOL    HW116661   4.374   2.289   7.812  0.2563  0.4204  0.5826
 1676SOL    HW216662   4.295   2.200   7.875 -0.3526 -0.2115  0.0756
 1677SOL     OW16663   0.184   2.292   7.423 -0.3876 -0.0285 -0.0390
 1677SOL    HW116664   0.216   2.207   7.392  1.5280  0.2217  1.2489
 1677SOL    HW216665   0.089   2.291   7.426 -0.3808 -1.0829 -0.0136
 1678SOL     OW16666   4.112   3.610   9.726  0.3545  0.8761 -0.0007
 1678SOL    HW116667   4.115   3.593   9.632  0.7203 -1.8433  0.5134
 1678SOL    HW216668   4.020   3.591   9.742  0.0910  0.2241 -2.3362
 1679SOL     OW16669   4.244   3.876  16.515  0.1342  0.3156  0.8471
 1679SOL    HW116670   4.212   3.935  16.583  2.3559  1.9239  0.4835
 1679SOL    HW216671   4.271   3.934  16.444  0.6664 -0.0650  0.7388
 1680SOL     OW16672   2.785   1.410  13.978  0.0481 -0.5916  0.2655
 1680SOL    HW116673   2.725   1.339  13.955  0.2149 -0.1042 -1.7278
 1680SOL    HW216674   2.747   1.483  13.929  0.1398 -1.8620 -1.6920
 1681SOL     OW16675   4.111   4.155   6.444  0.1684  0.3517 -0.2004
 1681SOL    HW116676   4.044   4.223   6.454 -1.0005 -1.1822  2.3796
 1681SOL    HW216677   4.070   4.092   6.384 -2.1958  1.2074  0.5030
 1682SOL     OW16678   2.547   2.142   0.260  0.1176 -0.6747  0.4972
 1682SOL    HW116679   2.623   2.127   0.205  0.6205  1.4915  0.6029
 1682SOL    HW216680   2.496   2.213   0.220 -0.2112 -1.4176 -0.4131
 1683SOL     OW16681   0.136   4.634   9.768 -0.5234 -0.0903  0.8780
 1683SOL    HW116682   0.216   4.663   9.723 -0.5518  0.0406  0.9112
 1683SOL    HW216683   0.140   4.699   9.838 -2.9534  2.7845 -1.6548
 1684SOL     OW16684   3.250   3.355   8.665  1.2445  0.5559 -0.0750
 1684SOL    HW116685   3.179   3.415   8.688 -1.0824 -1.3040 -2.3172
 1684SOL    HW216686   3.294   3.355   8.750  0.3466 -1.2352  0.3893
 1685SOL     OW16687   4.044   3.135   2.218 -0.3358 -0.0162  0.1073
 1685SOL    HW116688   4.096   3.206   2.257 -0.8704  0.2934  0.2549
 1685SOL    HW216689   4.098   3.111   2.142 -0.9805  0.3577 -0.4661
 1686SOL     OW16690   0.354   1.720  12.078 -0.6994 -0.0570  0.2431
 1686SOL    HW116691   0.369   1.692  11.988 -0.5217 -0.4170  0.3815
 1686SOL    HW216692   0.285   1.785  12.064 -0.6875 -0.3429 -1.1681
 1687SOL     OW16693   1.625   1.897   5.180 -0.1463 -0.4968 -0.8017
 1687SOL    HW116694   1.711   1.901   5.222  0.8706 -2.2661 -2.7297
 1687SOL    HW216695   1.641   1.921   5.089 -0.2562  1.2967 -0.3458
 1688SOL     OW16696   4.174   4.503   3.673  0.4757 -0.1980  0.0475
 1688SOL    HW116697   4.152   4.587   3.633 -0.8717 -0.3604  0.4278
 1688SOL    HW216698   4.088   4.478   3.707  1.4841 -0.0913  2.7182
 1689SOL     OW16699   3.038   1.898  11.672 -0.5343  0.3327  0.4017
 1689SOL    HW116700   2.976   1.837  11.710  1.4290 -1.8218  0.1345
 1689SOL    HW216701   3.015   1.889  11.580 -1.9300 -0.8172  0.8661
 1690SOL     OW16702   1.548   3.752  15.219 -0.5351 -0.2736 -0.4624
 1690SOL    HW116703   1.590   3.815  15.277  0.4293 -1.3739  0.0349
 1690SOL    HW216704   1.494   3.820  15.179  0.0654  1.1846  1.2373
 1691SOL     OW16705   2.195   2.951   4.935 -0.2797  0.4707  0.0021
 1691SOL    HW116706   2.277   2.993   4.912 -1.2936  2.7958  0.6245
 1691SOL    HW216707   2.192   2.985   5.025 -2.7462 -1.1607  0.5383
 1692SOL     OW16708   0.554   3.102   6.263 -0.6138 -0.6460 -0.1197
 1692SOL    HW116709   0.564   3.027   6.205  3.2485  0.0134 -0.2804
 1692SOL    HW216710   0.497   3.164   6.217  1.4184  2.7527  1.9231
 1693SOL     OW16711   0.566   2.195   7.536 -0.0241 -0.1207 -0.0898
 1693SOL    HW116712   0.634   2.241   7.487 -0.5898 -0.4000 -1.1502
 1693SOL    HW216713   0.623   2.124   7.566  1.2503 -0.5607 -3.5190
 1694SOL     OW16714   1.394   0.010   8.832  0.0060 -0.3799  0.1616
 1694SOL    HW116715   1.485   0.033   8.812 -0.6204  0.9504 -1.2127
 1694SOL    HW216716   1.402   4.705   8.918  0.7141  2.0087  1.1996
 1695SOL     OW16717   4.267   3.589  10.651  0.2702 -0.0383 -0.7682
 1695SOL    HW116718   4.172   3.581  10.662  0.6898 -3.1586  0.6875
 1695SOL    HW216719   4.294   3.650  10.720  0.1183 -0.6068 -0.2033
 1696SOL     OW16720   2.105   3.397   7.791 -0.3146  0.0566  0.3534
 1696SOL    HW116721   2.018   3.402   7.751 -0.2953 -0.8178  0.1945
 1696SOL    HW216722   2.132   3.489   7.789 -1.0605  0.3059  1.4983
 1697SOL     OW16723   1.680   4.388   7.865 -0.3666 -0.4278  0.4071
 1697SOL    HW116724   1.614   4.413   7.801 -0.6964 -1.1263  0.4828
 1697SOL    HW216725   1.646   4.423   7.948 -0.4733  4.1609 -1.5623
 1698SOL     OW16726   1.812   3.792   6.734 -0.3519 -0.7442 -0.2396
 1698SOL    HW116727   1.814   3.818   6.827 -0.2127 -2.2962  0.1896
 1698SOL    HW216728   1.795   3.698   6.734  0.8416 -0.9657  1.4932
 1699SOL     OW16729   3.357   1.344   8.446 -0.3354 -0.3775  0.4597
 1699SOL    HW116730   3.437   1.387   8.416  0.4610 -0.8193  1.9343
 1699SOL    HW216731   3.391   1.254   8.445  0.6811  0.0023 -0.0928
 1700SOL     OW16732   4.556   3.099   4.559  0.4957  0.0582 -0.2668
 1700SOL    HW116733   4.472   3.123   4.597  2.3160  3.0629  1.8279
 1700SOL    HW216734   4.520   3.026   4.509 -0.1517  0.8209 -0.9182
 1701SOL     OW16735   1.081   1.636   5.256  0.0612 -0.4387 -0.3427
 1701SOL    HW116736   1.103   1.728   5.268 -3.3288 -0.1146  3.4735
 1701SOL    HW216737   1.154   1.574   5.252 -1.8145 -2.7030  0.2830
 1702SOL     OW16738   0.066   3.109   7.965 -0.0134  0.4098  0.2043
 1702SOL    HW116739   0.020   3.156   7.896  0.5167  0.9289  0.2105
 1702SOL    HW216740   0.036   3.018   7.956 -1.0509  0.9105 -1.3664
 1703SOL     OW16741   0.476   2.510   2.164 -0.0168 -0.1488 -0.2601
 1703SOL    HW116742   0.559   2.463   2.171  0.5545  0.7913 -0.7923
 1703SOL    HW216743   0.521   2.594   2.164  2.0033 -1.2393 -2.0369
 1704SOL     OW16744   2.536   1.959  11.692 -0.1185 -0.1793 -0.3352
 1704SOL    HW116745   2.603   1.996  11.635  1.5093  0.7631  2.1809
 1704SOL    HW216746   2.474   1.931  11.625  1.1052 -2.4727 -0.4858
 1705SOL     OW16747   2.866   2.302  11.726 -0.2810 -0.0156  0.4412
 1705SOL    HW116748   2.842   2.245  11.653  1.1776  0.4373 -0.3798
 1705SOL    HW216749   2.902   2.234  11.783  1.2442 -0.3040 -0.8644
 1706SOL     OW16750   2.902   0.914  14.886 -0.5195 -0.4097 -0.1039
 1706SOL    HW116751   2.919   0.867  14.805 -0.1523  0.2275 -0.3995
 1706SOL    HW216752   2.940   1.002  14.876 -2.0970  0.3597  0.7458
 1707SOL     OW16753   1.050   4.645   1.647 -0.3475  0.5227 -0.0488
 1707SOL    HW116754   1.110   4.604   1.584  0.4031  0.9466  0.3772
 1707SOL    HW216755   0.969   4.597   1.636 -0.2164  0.4426 -0.6545
 1708SOL     OW16756   3.480   2.907  17.383 -0.4603 -0.3621  0.1140
 1708SOL    HW116757   3.483   2.954  17.467 -1.2246 -0.8107  0.3990
 1708SOL    HW216758   3.400   2.937  17.338  0.4788 -0.0337 -1.3181
 1709SOL     OW16759   2.407   0.582   1.743  0.2007  0.4061  0.5357
 1709SOL    HW116760   2.362   0.511   1.788 -0.3393 -0.0402 -0.7295
 1709SOL    HW216761   2.478   0.540   1.694 -0.0699 -0.0514  0.5411
 1710SOL     OW16762   3.385   4.378   5.097  0.3883  0.1149 -0.4337
 1710SOL    HW116763   3.381   4.284   5.078  0.6135 -0.3000  1.5813
 1710SOL    HW216764   3.294   4.406   5.085 -0.1463 -1.9575 -1.3939
 1711SOL     OW16765   0.307   1.462  13.958  0.2241 -0.3633 -0.7569
 1711SOL    HW116766   0.325   1.368  13.949 -2.0504 -0.9225  0.5093
 1711SOL    HW216767   0.214   1.456  13.933 -0.3066  0.2605  1.0580
 1712SOL     OW16768   2.392   3.856   7.586  0.0211  0.0560  0.0875
 1712SOL    HW116769   2.460   3.848   7.518  0.4455  1.8364  0.3063
 1712SOL    HW216770   2.445   3.909   7.645 -0.7188  1.7786 -0.7821
 1713SOL     OW16771   3.191   0.383  12.440  0.2229  0.3759 -0.4828
 1713SOL    HW116772   3.286   0.380  12.434  0.2361  1.8431 -1.2488
 1713SOL    HW216773   3.179   0.444  12.513  0.5035 -0.2464  0.0860
 1714SOL     OW16774   1.191   3.293  12.873  0.3338 -0.0198  0.5065
 1714SOL    HW116775   1.277   3.293  12.916  0.6593 -4.0105 -0.2273
 1714SOL    HW216776   1.215   3.287  12.781  0.1522  0.9456  0.3942
 1715SOL     OW16777   2.036   0.516   4.879 -0.2666 -0.1584  0.3469
 1715SOL    HW116778   2.018   0.557   4.795  2.4540 -0.0813 -0.1833
 1715SOL    HW216779   2.058   0.428   4.847  0.5579  0.4144 -0.6395
 1716SOL     OW16780   0.108   1.675  10.216 -0.2449 -0.4289  0.1154
 1716SOL    HW116781   0.159   1.756  10.225  0.4632 -0.9005  0.3007
 1716SOL    HW216782   0.038   1.695  10.278  0.6038  3.1184 -0.0314
 1717SOL     OW16783   2.046   4.563   3.704 -0.7368 -0.0353  0.5787
 1717SOL    HW116784   2.125   4.617   3.694 -0.0489 -1.5820 -2.0695
 1717SOL    HW216785   2.073   4.487   3.653 -1.4228  0.3631 -0.3730
 1718SOL     OW16786   3.937   0.253   6.873 -1.0109 -0.5877  0.1408
 1718SOL    HW116787   3.947   0.185   6.806  0.1106 -1.7678  1.5058
 1718SOL    HW216788   3.992   0.321   6.834 -0.8482 -0.4011  0.6998
 1719SOL     OW16789   1.736   0.933  17.492  0.0705 -0.2051  0.1497
 1719SOL    HW116790   1.782   0.969  17.567  0.8227 -0.2265 -0.3054
 1719SOL    HW216791   1.809   0.873  17.476  1.4954  1.5399  0.1047
 1720SOL     OW16792   0.788   2.176   6.554  0.3395  0.0461 -0.2483
 1720SOL    HW116793   0.872   2.132   6.541  1.2031  1.6910 -0.2652
 1720SOL    HW216794   0.821   2.265   6.538  0.9405  0.2221  2.0856
 1721SOL     OW16795   2.667   0.247  17.572  0.1591 -0.5901 -0.0972
 1721SOL    HW116796   2.577   0.234  17.541 -0.4596 -2.5903  2.5111
 1721SOL    HW216797   2.675   0.183  17.644  0.6230 -3.0943 -2.3675
 1722SOL     OW16798   4.669   4.135   9.877  0.5424  0.7500  0.4161
 1722SOL    HW116799   4.712   4.091   9.950  0.6223  1.5152  0.8244
 1722SOL    HW216800   4.674   4.225   9.909  3.1224  0.7760 -0.0557
 1723SOL     OW16801   3.673   1.047   4.485  0.1947  0.2126  0.3804
 1723SOL    HW116802   3.717   1.130   4.502 -1.9384  1.5135 -0.4688
 1723SOL    HW216803   3.588   1.063   4.527  0.9879 -0.3791  2.2222
 1724SOL     OW16804   4.383   1.378   3.886  0.0776 -0.4696  0.2030
 1724SOL    HW116805   4.291   1.393   3.909 -0.2746  0.9281 -2.1382
 1724SOL    HW216806   4.371   1.407   3.796 -0.5773 -1.2107  0.0482
 1725SOL     OW16807   2.684   4.304  10.196 -0.4570  0.0853  0.3360
 1725SOL    HW116808   2.664   4.240  10.128 -0.6275  0.3108  0.1716
 1725SOL    HW216809   2.598   4.325  10.233 -0.3355  0.3566  0.4695
 1726SOL     OW16810   4.241   1.069   1.585  0.1391  0.1568  0.4591
 1726SOL    HW116811   4.325   1.029   1.562  0.4500 -0.3800  2.5018
 1726SOL    HW216812   4.195   1.058   1.502  1.5914  0.4315 -0.3775
 1727SOL     OW16813   4.235   3.280   9.867 -0.3661 -0.3586  0.6621
 1727SOL    HW116814   4.145   3.306   9.887 -0.5470 -0.6367  0.2107
 1727SOL    HW216815   4.276   3.361   9.898  0.2935 -0.0642 -1.0039
 1728SOL     OW16816   1.888   1.213  13.576 -0.2376 -0.6150 -0.7553
 1728SOL    HW116817   1.938   1.142  13.617  0.2094  0.5806  0.7885
 1728SOL    HW216818   1.915   1.285  13.634 -0.6204 -1.5974  0.6617
 1729SOL     OW16819   3.448   1.504   7.169  0.2436  0.0052 -0.1454
 1729SOL    HW116820   3.502   1.450   7.111 -0.8560 -1.0536 -0.2093
 1729SOL    HW216821   3.473   1.586   7.127 -0.5821  0.1303 -0.4005
 1730SOL     OW16822   0.762   3.125   2.392  0.5480 -0.3233  0.2216
 1730SOL    HW116823   0.701   3.094   2.326 -1.3472  2.3237  0.7466
 1730SOL    HW216824   0.706   3.144   2.468  1.5129  1.1689  0.5579
 1731SOL     OW16825   3.991   0.955   6.676 -0.4814 -0.1017 -0.2452
 1731SOL    HW116826   3.944   1.013   6.736  0.7478 -0.0872  0.6842
 1731SOL    HW216827   4.078   0.993   6.680 -0.6903  0.2096  1.4223
 1732SOL     OW16828   2.268   2.118   7.504 -0.0294 -0.1859 -0.0420
 1732SOL    HW116829   2.213   2.109   7.426 -0.3314  1.4335 -0.0180
 1732SOL    HW216830   2.323   2.041   7.489 -0.1066  0.3536 -3.0258
 1733SOL     OW16831   2.766   3.472   7.793 -0.2189  0.1738  0.3344
 1733SOL    HW116832   2.708   3.438   7.862  1.1370 -2.3114  0.2260
 1733SOL    HW216833   2.749   3.400   7.733 -1.9823  0.7756  0.0895
 1734SOL     OW16834   4.120   2.684   1.973 -0.3749 -0.1258 -0.1007
 1734SOL    HW116835   4.190   2.619   1.978 -0.5227 -0.1723  1.3026
 1734SOL    HW216836   4.151   2.736   2.046 -1.3272  0.5522 -0.1792
 1735SOL     OW16837   2.253   3.276  12.884 -0.5035 -0.4809  0.3629
 1735SOL    HW116838   2.197   3.353  12.883 -0.0561 -0.1757 -0.7013
 1735SOL    HW216839   2.334   3.310  12.923 -0.8772  0.5225  0.2557
 1736SOL     OW16840   2.977   0.781   4.492  0.7691 -0.4715  0.4541
 1736SOL    HW116841   2.936   0.695   4.503  0.7158 -0.6390 -1.1028
 1736SOL    HW216842   3.027   0.763   4.413  1.8809  0.7264  0.8851
 1737SOL     OW16843   1.286   3.738   1.193  0.1744  0.4480 -0.2635
 1737SOL    HW116844   1.269   3.759   1.101 -0.1423  1.5655  0.0586
 1737SOL    HW216845   1.211   3.686   1.221  0.3768  0.2510 -0.0853
 1738SOL     OW16846   4.560   0.503  10.693 -0.4369  0.1298 -0.2859
 1738SOL    HW116847   4.535   0.456  10.772 -0.6412 -0.9032 -0.9779
 1738SOL    HW216848   4.552   0.430  10.632 -2.0762  0.7879 -0.8401
 1739SOL     OW16849   2.952   0.905   4.948  0.6796  0.3381  0.1758
 1739SOL    HW116850   2.968   0.899   5.042  1.6560  0.7238  0.0321
 1739SOL    HW216851   2.943   1.000   4.942 -3.3242 -0.2423 -2.8721
 1740SOL     OW16852   1.824   0.041   8.558  0.9809  0.1952  0.2640
 1740SOL    HW116853   1.903   0.079   8.521  1.5637  0.6838  2.0381
 1740SOL    HW216854   1.794   0.111   8.616 -2.8554  0.8879 -2.5405
 1741SOL     OW16855   3.290   1.382   2.670 -1.0569 -0.0513 -0.2586
 1741SOL    HW116856   3.260   1.356   2.757  0.0206 -2.3525 -0.5742
 1741SOL    HW216857   3.214   1.359   2.616 -0.8294 -2.5763  0.5288
 1742SOL     OW16858   1.265   2.374   6.962 -0.1455 -0.0931 -0.8132
 1742SOL    HW116859   1.343   2.419   6.992 -0.0118 -1.6438  1.1552
 1742SOL    HW216860   1.235   2.333   7.043 -1.5785  1.5670 -0.5026
 1743SOL     OW16861   1.832   1.433   2.379  0.1986  0.6065 -0.4784
 1743SOL    HW116862   1.881   1.415   2.299  1.6337  0.3603  0.4416
 1743SOL    HW216863   1.907   1.461   2.431  0.0784  1.2788 -0.6656
 1744SOL     OW16864   2.193   1.697   5.771  0.0227 -0.0197  0.2517
 1744SOL    HW116865   2.175   1.654   5.688 -0.2076  1.6541 -0.5672
 1744SOL    HW216866   2.230   1.620   5.814 -2.5956 -1.7363 -0.5544
 1745SOL     OW16867   3.637   1.809   5.265 -0.2316 -0.4069 -0.0749
 1745SOL    HW116868   3.726   1.844   5.263 -0.5836  0.4455 -1.1242
 1745SOL    HW216869   3.654   1.725   5.306 -0.7067 -0.2414  0.4578
 1746SOL     OW16870   4.380   0.126   2.689 -0.2128  0.1976  0.5198
 1746SOL    HW116871   4.443   0.131   2.617 -1.2846  2.1767 -0.3030
 1746SOL    HW216872   4.345   0.215   2.689 -1.4219 -0.2754 -1.5161
 1747SOL     OW16873   2.991   1.980   1.410  0.0136  0.5244 -0.4848
 1747SOL    HW116874   2.988   1.885   1.400  0.9503  0.2511  1.7852
 1747SOL    HW216875   3.054   1.992   1.481  0.7248 -0.6958 -0.9168
 1748SOL     OW16876   1.613   2.170   9.732 -0.9604  0.3561 -0.8092
 1748SOL    HW116877   1.698   2.177   9.690 -0.9682  0.3225 -0.8305
 1748SOL    HW216878   1.588   2.261   9.745 -0.7735  0.1399  1.0440
 1749SOL     OW16879   0.547   0.953   3.672 -0.2286  0.5264 -0.0088
 1749SOL    HW116880   0.596   0.963   3.754  1.0583  0.6248 -0.7881
 1749SOL    HW216881   0.482   0.888   3.698  0.2297 -0.1328 -0.5131
 1750SOL     OW16882   3.949   3.898   7.242 -0.1450 -0.2671  0.7570
 1750SOL    HW116883   3.981   3.923   7.155 -0.5793 -2.6241 -0.0838
 1750SOL    HW216884   3.855   3.889   7.227  0.2151 -0.6418 -1.2287
 1751SOL     OW16885   2.978   1.535   8.256 -0.1122  0.1943 -0.3626
 1751SOL    HW116886   3.041   1.485   8.205 -1.2982 -2.1981  0.5267
 1751SOL    HW216887   3.004   1.625   8.234 -2.1708  0.9364  0.1800
 1752SOL     OW16888   1.748   2.462   5.658  0.0783 -0.4637 -0.1169
 1752SOL    HW116889   1.806   2.391   5.685 -2.1427 -2.8056 -1.4701
 1752SOL    HW216890   1.770   2.529   5.722  1.5288 -0.8403 -0.2160
 1753SOL     OW16891   1.257   0.055   9.344 -0.3654 -0.5429  0.2528
 1753SOL    HW116892   1.269   4.697   9.360 -0.0535 -0.3120  1.3896
 1753SOL    HW216893   1.225   0.042   9.255  0.7594 -0.4588 -0.1614
 1754SOL     OW16894   2.086   4.571   2.930  0.2004  0.2239 -0.3644
 1754SOL    HW116895   2.059   4.530   3.012 -1.2808  0.0995 -0.9140
 1754SOL    HW216896   2.023   4.641   2.918 -0.7969 -0.7713 -0.9433
 1755SOL     OW16897   0.776   1.051  13.204  0.8643 -0.0741 -0.3058
 1755SOL    HW116898   0.692   1.020  13.172 -0.3342  1.0670  1.6875
 1755SOL    HW216899   0.833   1.026  13.131 -0.6613 -1.3294 -1.0661
 1756SOL     OW16900   2.999   2.024  15.273  0.1273  0.3600 -0.0257
 1756SOL    HW116901   3.016   2.079  15.196  0.2039  1.1955  0.5991
 1756SOL    HW216902   3.051   1.949  15.241  0.3293  1.7795 -3.0677
 1757SOL     OW16903   1.734   3.557  11.239 -0.5317 -0.5481  0.5548
 1757SOL    HW116904   1.733   3.547  11.334 -2.7198 -0.0009  0.6065
 1757SOL    HW216905   1.791   3.487  11.207 -0.1934 -0.4907  1.0467
 1758SOL     OW16906   0.816   2.399  12.456 -0.0054 -0.1747  0.2346
 1758SOL    HW116907   0.828   2.360  12.542  1.5559 -1.2617 -0.4699
 1758SOL    HW216908   0.854   2.331  12.400 -0.2726 -1.1987  1.3016
 1759SOL     OW16909   0.852   2.729   8.488 -0.9598 -0.3349 -0.1394
 1759SOL    HW116910   0.908   2.664   8.446  1.2432  1.8276 -0.5137
 1759SOL    HW216911   0.913   2.773   8.547 -1.0843  0.3772 -0.5335
 1760SOL     OW16912   0.858   4.411   6.803 -0.7509  0.1114 -0.2103
 1760SOL    HW116913   0.920   4.355   6.849 -1.3120  0.4730  0.9959
 1760SOL    HW216914   0.780   4.394   6.856 -0.7061 -1.1339 -0.5450
 1761SOL     OW16915   2.273   4.230   4.713 -0.0125  0.2105 -0.1592
 1761SOL    HW116916   2.334   4.287   4.665  1.6809 -0.4060  1.2584
 1761SOL    HW216917   2.286   4.256   4.804  0.5173 -3.2036  0.7111
 1762SOL     OW16918   0.376   3.536   8.996 -0.5521  0.0822 -0.2539
 1762SOL    HW116919   0.444   3.535   9.064 -0.4306 -0.4974 -0.3826
 1762SOL    HW216920   0.311   3.596   9.033  0.2531  1.0218 -0.3831
 1763SOL     OW16921   4.434   0.783  14.297  0.9369  0.3220  0.4654
 1763SOL    HW116922   4.482   0.751  14.374  0.3124 -1.2975  0.1864
 1763SOL    HW216923   4.487   0.856  14.265  1.7897 -0.5155 -0.0476
 1764SOL     OW16924   2.465   0.599  12.798  0.0081  0.0004  0.0370
 1764SOL    HW116925   2.489   0.691  12.804  1.9152 -0.4586 -0.7375
 1764SOL    HW216926   2.500   0.583  12.711 -3.0932  0.6116 -1.3532
 1765SOL     OW16927   2.044   1.241   9.256 -0.2307 -0.2084  0.2302
 1765SOL    HW116928   1.995   1.159   9.265  0.7753 -1.1746 -2.9013
 1765SOL    HW216929   2.016   1.286   9.176  0.2866  0.9800  0.7132
 1766SOL     OW16930   0.522   2.535   7.699 -0.2529 -0.3361  0.2012
 1766SOL    HW116931   0.485   2.496   7.620 -0.1730 -0.3426  0.1669
 1766SOL    HW216932   0.471   2.497   7.770  0.7325 -1.5020  0.2928
 1767SOL     OW16933   1.763   2.008  15.581 -0.2160  0.0739  0.1962
 1767SOL    HW116934   1.698   1.952  15.624  0.6941 -1.2289 -0.1161
 1767SOL    HW216935   1.831   1.986  15.645  0.0274  1.0844  0.2806
 1768SOL     OW16936   0.448   3.844   0.665  0.3072 -0.3415 -0.0269
 1768SOL    HW116937   0.534   3.837   0.622  0.5056 -0.2351  0.3505
 1768SOL    HW216938   0.468   3.827   0.757  1.4449 -0.7244 -0.3366
 1769SOL     OW16939   4.629   0.616   4.504  0.2492 -0.3231  0.6792
 1769SOL    HW116940   4.690   0.669   4.453 -1.0662  0.2165 -0.3368
 1769SOL    HW216941   4.545   0.660   4.494 -0.1156 -1.0992  0.3377
 1770SOL     OW16942   0.031   4.140   7.115  0.2370  0.0055 -0.0024
 1770SOL    HW116943   0.078   4.114   7.195 -2.8384 -0.2607  1.7041
 1770SOL    HW216944   4.722   4.220   7.142 -1.7290 -0.4636 -1.8800
 1771SOL     OW16945   3.212   2.017  15.584  0.1890  0.4952  0.0508
 1771SOL    HW116946   3.288   2.047  15.635 -0.1682 -2.7286  2.5386
 1771SOL    HW216947   3.249   1.949  15.528  1.8938  0.7222  0.8968
 1772SOL     OW16948   0.374   3.667   4.051  0.2152  0.0801 -0.0614
 1772SOL    HW116949   0.441   3.707   4.107  0.0308  0.5945 -0.2076
 1772SOL    HW216950   0.403   3.579   4.075 -0.6401  0.0720  0.9473
 1773SOL     OW16951   2.879   2.643   3.102 -0.3546  0.2977 -0.0639
 1773SOL    HW116952   2.972   2.648   3.079 -0.9329 -0.1839 -2.4730
 1773SOL    HW216953   2.838   2.680   3.024  0.7829 -0.8402 -1.1942
 1774SOL     OW16954   2.407   2.901   7.763  0.3755 -0.4018  0.1026
 1774SOL    HW116955   2.314   2.901   7.784  0.1363 -1.2400 -0.9354
 1774SOL    HW216956   2.439   2.984   7.798 -1.4758  1.5136 -2.7254
 1775SOL     OW16957   4.377   3.102   5.958  0.3034 -0.0308 -0.7375
 1775SOL    HW116958   4.440   3.153   5.907  1.6206 -0.1600  0.7520
 1775SOL    HW216959   4.381   3.162   6.032 -0.7139 -0.5491 -0.2619
 1776SOL     OW16960   0.540   0.268   4.291 -0.4165  0.1413  0.6983
 1776SOL    HW116961   0.568   0.237   4.377  0.7295  0.4405  0.4368
 1776SOL    HW216962   0.448   0.289   4.304 -0.8375 -2.8164  2.5308
 1777SOL     OW16963   3.316   4.019   4.289 -0.1733 -0.0478 -0.2364
 1777SOL    HW116964   3.397   3.996   4.335  1.0169  1.3111 -1.6494
 1777SOL    HW216965   3.344   4.086   4.226 -0.5589 -0.9979 -1.4201
 1778SOL     OW16966   3.909   2.755   7.000  0.1355  0.4190  0.4349
 1778SOL    HW116967   3.831   2.715   7.038 -0.4911 -0.3220 -1.6503
 1778SOL    HW216968   3.918   2.704   6.919  0.0796  1.2702 -0.1131
 1779SOL     OW16969   4.264   3.824   9.087  0.1826  0.0320  0.0615
 1779SOL    HW116970   4.297   3.847   9.173  2.2619  2.8332 -1.4703
 1779SOL    HW216971   4.171   3.810   9.107 -0.3221  2.0922 -0.7517
 1780SOL     OW16972   4.504   0.252  15.064 -0.1489  0.2113 -0.3157
 1780SOL    HW116973   4.491   0.164  15.029  1.0471 -0.9367  2.1382
 1780SOL    HW216974   4.453   0.257  15.145 -3.3026  1.4477 -2.3901
 1781SOL     OW16975   1.628   4.059   6.399  0.3536  0.7187  0.3694
 1781SOL    HW116976   1.634   4.154   6.385 -1.0606  1.1250  2.4080
 1781SOL    HW216977   1.585   4.057   6.485  0.4827  2.1354  0.4767
 1782SOL     OW16978   4.087   1.449   2.594  0.2248 -0.3811 -0.4286
 1782SOL    HW116979   4.169   1.400   2.589  1.0465  0.9768 -0.4270
 1782SOL    HW216980   4.023   1.385   2.565 -2.4347  1.0501  2.3356
 1783SOL     OW16981   2.221   4.322   5.698  0.1087  0.4619  0.0150
 1783SOL    HW116982   2.291   4.276   5.653 -0.5179  0.9331 -1.4282
 1783SOL    HW216983   2.262   4.352   5.779  1.5863 -0.6210 -0.3363
 1784SOL     OW16984   2.749   2.979   6.208  0.2789 -0.1491 -0.0322
 1784SOL    HW116985   2.750   3.068   6.244  0.5942  0.0219 -0.4601
 1784SOL    HW216986   2.836   2.941   6.220 -0.2009 -1.1363  0.3130
 1785SOL     OW16987   2.028   4.256  11.837  0.2167 -0.2865  0.0416
 1785SOL    HW116988   1.934   4.239  11.841 -0.0159  1.2304  1.1529
 1785SOL    HW216989   2.062   4.240  11.926  0.7047  2.2789  0.2940
 1786SOL     OW16990   3.451   0.161   8.865  0.3926 -0.3045  0.4099
 1786SOL    HW116991   3.542   0.133   8.879  1.2438  2.0483 -0.4342
 1786SOL    HW216992   3.414   0.086   8.819  3.5955 -0.5077 -1.8717
 1787SOL     OW16993   3.864   0.388   8.005 -0.3332  0.5146 -0.0230
 1787SOL    HW116994   3.863   0.451   8.077  0.5391  2.7760 -1.9665
 1787SOL    HW216995   3.832   0.450   7.939 -2.2719  1.1445  1.4843
 1788SOL     OW16996   4.063   4.460  12.360 -0.1511 -0.0527 -0.1672
 1788SOL    HW116997   4.022   4.514  12.427 -0.8067  0.9438 -1.3596
 1788SOL    HW216998   4.155   4.453  12.383 -0.7124  0.3594  2.1153
 1789SOL     OW16999   2.208   0.281   3.935  0.7384  0.3020  0.1228
 1789SOL    HW117000   2.292   0.326   3.922 -0.0828  1.6714 -0.4310
 1789SOL    HW217001   2.193   0.256   3.844  0.7343  0.4045  0.0949
 1790SOL     OW17002   1.855   1.557  13.458 -0.0936 -0.0538 -0.0101
 1790SOL    HW117003   1.862   1.599  13.543 -1.7026  2.9935 -1.3739
 1790SOL    HW217004   1.935   1.582  13.413  0.2427  2.7513  2.1459
 1791SOL     OW17005   3.768   0.623   2.414 -0.4123  0.1956 -0.6996
 1791SOL    HW117006   3.825   0.697   2.436 -0.6181 -0.1234  0.9609
 1791SOL    HW217007   3.832   0.557   2.389  0.6659 -0.0981  2.7209
 1792SOL     OW17008   4.564   2.543   9.609 -0.1562  0.3420  0.1560
 1792SOL    HW117009   4.625   2.614   9.630 -0.4967  0.6235  0.1843
 1792SOL    HW217010   4.540   2.583   9.526 -0.8574 -0.9884 -0.2797
 1793SOL     OW17011   3.289   0.997   5.239  0.1279  0.4736  0.2526
 1793SOL    HW117012   3.375   0.956   5.225  0.1582  1.4387 -2.2398
 1793SOL    HW217013   3.261   0.975   5.151 -1.2190  0.9806  0.5614
 1794SOL     OW17014   4.521   1.770   2.040  0.0735  0.1348  0.1382
 1794SOL    HW117015   4.577   1.715   2.095 -0.4137 -1.5110 -1.0193
 1794SOL    HW217016   4.453   1.712   2.007  0.2316 -0.7804  1.4153
 1795SOL     OW17017   4.335   2.908  13.258 -0.8389 -0.3337  0.1314
 1795SOL    HW117018   4.370   2.941  13.176 -0.3985  0.9939  0.8442
 1795SOL    HW217019   4.322   2.814  13.244 -1.8452 -0.5536  2.4560
 1796SOL     OW17020   0.745   2.376  13.523 -0.1056 -0.8007  0.0475
 1796SOL    HW117021   0.798   2.306  13.488  1.9060  0.2485  0.9910
 1796SOL    HW217022   0.797   2.454  13.503 -0.7272 -0.0968  1.1503
 1797SOL     OW17023   0.731   2.920   7.606 -0.2503  0.4774  0.9360
 1797SOL    HW117024   0.671   2.994   7.609 -1.4828 -0.4812  0.3338
 1797SOL    HW217025   0.686   2.878   7.680 -1.8483  1.8209  0.7156
 1798SOL     OW17026   0.545   1.510   7.189  0.4969 -0.1033 -0.9676
 1798SOL    HW117027   0.456   1.474   7.191 -0.5819  2.6081 -0.6409
 1798SOL    HW217028   0.525   1.584   7.246 -2.2942 -3.5028  2.5179
 1799SOL     OW17029   2.120   2.033   6.894 -0.2156 -0.0163  0.0964
 1799SOL    HW117030   2.097   1.941   6.883  2.5136 -0.7601  0.6574
 1799SOL    HW217031   2.082   2.063   6.812 -1.9432 -1.5511  0.3286
 1800SOL     OW17032   1.221   1.282   5.506 -0.1261  0.5959  0.1959
 1800SOL    HW117033   1.188   1.370   5.525 -0.0603  0.8421 -0.8190
 1800SOL    HW217034   1.202   1.226   5.580  0.8604  0.8322  0.6343
 1801SOL     OW17035   2.015   1.584  15.854 -0.4038 -0.3694  0.3768
 1801SOL    HW117036   2.013   1.616  15.764  1.5240 -0.9895  0.0972
 1801SOL    HW217037   1.924   1.580  15.881 -0.4605  0.0882  0.2602
 1802SOL     OW17038   1.493   0.279   3.255  0.3022  0.1308 -0.2474
 1802SOL    HW117039   1.475   0.372   3.242  2.1052  0.5411  0.2419
 1802SOL    HW217040   1.464   0.257   3.166  0.8431  1.3863 -0.7441
 1803SOL     OW17041   4.667   4.471  17.475  0.1112 -0.0469 -0.2928
 1803SOL    HW117042   4.713   4.470  17.559 -0.0081 -0.1610 -0.2288
 1803SOL    HW217043   4.601   4.537  17.498 -1.4253 -1.7185  0.1068
 1804SOL     OW17044   1.798   0.322   6.430 -0.7830 -0.3716  0.8469
 1804SOL    HW117045   1.771   0.351   6.343  0.2391  0.0569  0.6622
 1804SOL    HW217046   1.851   0.244   6.412 -0.3475  0.4136 -1.2710
 1805SOL     OW17047   3.971   3.727  11.549  0.4786 -0.7456  0.6267
 1805SOL    HW117048   4.027   3.682  11.612  1.1116  0.0828  0.6644
 1805SOL    HW217049   4.033   3.783  11.501 -2.2615  0.9238 -0.9691
 1806SOL     OW17050   4.381   4.635   2.204  0.1789  0.0483 -0.0071
 1806SOL    HW117051   4.350   4.648   2.115 -1.0708 -2.3669  0.0722
 1806SOL    HW217052   4.313   4.666   2.263  0.9749 -0.6602  1.3066
 1807SOL     OW17053   3.886   2.001   8.948  0.4730  0.7743  0.7292
 1807SOL    HW117054   3.857   1.923   8.995  1.3342 -0.0612 -0.1165
 1807SOL    HW217055   3.857   1.993   8.857  2.3439 -0.2827  0.2000
 1808SOL     OW17056   2.033   4.230   6.941 -0.1163  0.2343 -0.1035
 1808SOL    HW117057   1.958   4.273   6.901 -0.3756  0.8765  1.0528
 1808SOL    HW217058   2.057   4.168   6.872 -1.8637 -0.1614 -0.3697
 1809SOL     OW17059   3.223   2.177   4.414 -0.2668  0.5192 -0.7968
 1809SOL    HW117060   3.283   2.246   4.385  0.8522  1.2394  3.1822
 1809SOL    HW217061   3.140   2.213   4.384  0.3719  2.2820 -0.4650
 1810SOL     OW17062   0.142   4.028   0.250 -0.2032  0.4965  0.4033
 1810SOL    HW117063   0.205   4.063   0.186 -1.3230  1.2683 -0.2720
 1810SOL    HW217064   0.087   3.972   0.195 -0.4055 -0.5900  1.7106
 1811SOL     OW17065   3.720   0.794   2.156  0.1712 -0.5917  0.2481
 1811SOL    HW117066   3.748   0.769   2.245 -0.9160 -1.6567  0.2803
 1811SOL    HW217067   3.639   0.843   2.173 -1.4152 -3.1196 -0.0599
 1812SOL     OW17068   2.936   1.486   3.920  0.2495 -0.0160  0.2167
 1812SOL    HW117069   2.841   1.488   3.907  0.2029  4.3808  1.3229
 1812SOL    HW217070   2.953   1.567   3.872 -0.6284 -0.9926 -1.7479
 1813SOL     OW17071   1.196   2.340   4.995 -0.5170 -0.1672 -1.0188
 1813SOL    HW117072   1.273   2.394   5.008 -2.1936  2.5120 -2.2037
 1813SOL    HW217073   1.143   2.354   5.074 -0.1991 -1.5828 -0.5570
 1814SOL     OW17074   4.577   4.471   8.389 -0.3423 -0.6914  0.2185
 1814SOL    HW117075   4.535   4.543   8.342 -1.0824 -3.4184 -3.2808
 1814SOL    HW217076   4.569   4.394   8.334  2.8447 -0.8215 -0.0589
 1815SOL     OW17077   0.582   2.905   5.316 -0.3599  0.6372 -0.9805
 1815SOL    HW117078   0.647   2.960   5.359 -0.4492 -0.2351  0.2628
 1815SOL    HW217079   0.586   2.837   5.383 -0.7673 -0.4139 -2.0236
 1816SOL     OW17080   3.241   2.892   8.511  0.4537  0.1204  0.4189
 1816SOL    HW117081   3.157   2.876   8.467  1.2298 -2.8990  0.0482
 1816SOL    HW217082   3.249   2.987   8.498  1.4008  0.3006  2.4087
 1817SOL     OW17083   1.866   4.477   3.117 -0.2572 -0.1000 -0.1346
 1817SOL    HW117084   1.832   4.509   3.034 -2.3710  2.0805  1.5954
 1817SOL    HW217085   1.849   4.382   3.112  1.1217 -0.2657 -1.6585
 1818SOL     OW17086   3.372   0.593   5.060 -0.4269 -0.1924 -0.2258
 1818SOL    HW117087   3.400   0.663   5.118 -1.8322  0.7002 -0.6396
 1818SOL    HW217088   3.430   0.590   4.984  0.6540 -0.5605  0.6038
 1819SOL     OW17089   1.205   1.520   3.027 -0.0940 -0.7060 -0.2687
 1819SOL    HW117090   1.118   1.543   3.059  0.3653 -1.5272  1.5677
 1819SOL    HW217091   1.202   1.424   3.034  1.3149 -0.8758 -2.0110
 1820SOL     OW17092   2.825   2.610   9.121 -0.3165 -0.7794 -0.2363
 1820SOL    HW117093   2.790   2.584   9.036  0.8084 -1.3837 -0.5105
 1820SOL    HW217094   2.766   2.562   9.179 -0.3799 -0.9873 -0.4713
 1821SOL     OW17095   1.189   1.665   1.757 -0.3791  0.6421  0.0413
 1821SOL    HW117096   1.243   1.617   1.820 -0.1418  1.1598  0.2328
 1821SOL    HW217097   1.246   1.691   1.686 -1.1005 -1.0020 -1.1210
 1822SOL     OW17098   3.426   4.297   3.460 -0.0292  0.1038  1.1024
 1822SOL    HW117099   3.485   4.241   3.510  0.0199  0.4621  1.4399
 1822SOL    HW217100   3.348   4.242   3.455 -1.1731  1.7449  0.8499
 1823SOL     OW17101   2.414   1.821  12.077  0.2230  0.0402 -0.5069
 1823SOL    HW117102   2.487   1.786  12.129  0.4916  0.1175 -0.8313
 1823SOL    HW217103   2.454   1.902  12.046  1.1948  0.1444  0.9976
 1824SOL     OW17104   3.947   1.547   5.226 -0.6291  0.1351  0.2554
 1824SOL    HW117105   3.857   1.547   5.261 -0.2612 -0.3539  1.2073
 1824SOL    HW217106   3.944   1.632   5.182 -3.0680  1.1730  2.4413
 1825SOL     OW17107   0.558   1.326  15.804 -0.0255  0.2093  0.3133
 1825SOL    HW117108   0.570   1.413  15.843  1.0676 -0.1039  0.6691
 1825SOL    HW217109   0.612   1.270  15.859  0.7316  2.0193  1.4108
 1826SOL     OW17110   0.224   4.236   9.955 -0.7752 -0.4662  0.1983
 1826SOL    HW117111   0.241   4.202  10.042 -0.3911 -0.5507  0.0889
 1826SOL    HW217112   0.186   4.322   9.977 -1.3963 -0.9339  0.9308
 1827SOL     OW17113   3.227   0.063  10.531  0.1244  0.5779 -0.1021
 1827SOL    HW117114   3.133   0.051  10.543  0.1243 -0.3855 -1.0639
 1827SOL    HW217115   3.236   0.056  10.436 -1.7305  1.2595 -0.3380
 1828SOL     OW17116   0.029   3.550  11.005 -0.0068  0.9644  0.3841
 1828SOL    HW117117   0.008   3.457  11.014  2.0211  0.4008 -0.7555
 1828SOL    HW217118   4.717   3.571  10.924 -0.0398 -2.0949 -0.3996
 1829SOL     OW17119   1.562   4.278   8.687  0.1136  0.6161 -0.0591
 1829SOL    HW117120   1.547   4.201   8.632 -0.1356  2.6376 -2.8578
 1829SOL    HW217121   1.554   4.343   8.616  1.4024 -0.8375 -1.5419
 1830SOL     OW17122   3.319   1.371   5.835  0.1567 -0.3085  0.7189
 1830SOL    HW117123   3.373   1.362   5.913  2.1598  1.9757 -0.3935
 1830SOL    HW217124   3.262   1.296   5.850  1.6645 -1.2607  1.6564
 1831SOL     OW17125   2.915   4.286   0.254  0.2688  0.0120  0.1738
 1831SOL    HW117126   2.998   4.238   0.260  1.2122  1.5274 -0.6766
 1831SOL    HW217127   2.872   4.232   0.320  2.1629  0.6761  1.9731
 1832SOL     OW17128   0.291   1.852  10.844  0.4406  0.5384  0.0028
 1832SOL    HW117129   0.227   1.916  10.874 -0.2253  0.3969 -1.1418
 1832SOL    HW217130   0.243   1.769  10.842 -1.1414  1.4098  1.6606
 1833SOL     OW17131   0.921   1.274   5.727 -0.3864 -0.0816 -0.0795
 1833SOL    HW117132   0.989   1.340   5.734  0.0088 -0.4499 -0.4523
 1833SOL    HW217133   0.881   1.294   5.642 -2.1934  0.8364  0.9749
 1834SOL     OW17134   0.489   4.218   9.866  0.0551  0.3064  0.2999
 1834SOL    HW117135   0.413   4.189   9.916 -0.1589  1.9868  0.9664
 1834SOL    HW217136   0.568   4.178   9.902  0.7289 -0.3547 -1.9363
 1835SOL     OW17137   1.023   3.747   7.761 -0.1317  0.0230  0.2833
 1835SOL    HW117138   0.941   3.732   7.715 -0.7788  0.2200  1.3778
 1835SOL    HW217139   1.098   3.748   7.701  0.0035 -1.0852  0.4316
 1836SOL     OW17140   0.787   2.764  17.087  0.1339 -0.0955 -0.2410
 1836SOL    HW117141   0.872   2.727  17.114 -0.3374  0.0686  1.4582
 1836SOL    HW217142   0.812   2.847  17.048 -0.9054  0.6118  0.6102
 1837SOL     OW17143   0.462   1.183   6.953  0.1543 -0.2711  0.3967
 1837SOL    HW117144   0.373   1.211   6.977 -0.0008 -0.3808 -0.0547
 1837SOL    HW217145   0.474   1.258   6.895  1.5861 -0.5471  0.3363
 1838SOL     OW17146   3.157   4.507   1.508 -0.7124  0.1611  0.1356
 1838SOL    HW117147   3.120   4.418   1.511  0.3012 -0.3021 -1.1296
 1838SOL    HW217148   3.222   4.495   1.439 -0.3885 -2.0195  0.7857
 1839SOL     OW17149   3.677   3.234  17.440  0.3719  0.1351 -0.0043
 1839SOL    HW117150   3.683   3.309  17.382  2.5125  0.0184  0.0666
 1839SOL    HW217151   3.744   3.256  17.505 -0.8483  1.0692  0.9441
 1840SOL     OW17152   0.199   0.200  12.039 -0.2823 -0.5090  0.3208
 1840SOL    HW117153   0.205   0.257  12.116  2.6185  0.3010 -0.4822
 1840SOL    HW217154   0.106   0.211  12.019  0.4015 -1.6490 -3.4618
 1841SOL     OW17155   1.200   3.467   4.714 -0.2899  0.4306 -0.0520
 1841SOL    HW117156   1.175   3.464   4.622 -0.9477  1.9074  0.0860
 1841SOL    HW217157   1.294   3.487   4.716  0.1225 -1.6268  1.1363
 1842SOL     OW17158   1.300   2.238   0.025  0.0541 -0.5082  0.3564
 1842SOL    HW117159   1.364   2.172   0.052  0.0646 -1.1877 -1.3183
 1842SOL    HW217160   1.222   2.185   0.036 -0.0169 -0.1469  1.6367
 1843SOL     OW17161   2.032   2.292   8.843 -0.4251 -0.1346  0.1095
 1843SOL    HW117162   2.098   2.234   8.879 -0.3392  1.0949  1.9529
 1843SOL    HW217163   1.954   2.280   8.898  1.1174 -0.7904  2.1162
 1844SOL     OW17164   0.604   0.780   8.636 -0.0803  0.1161 -0.3140
 1844SOL    HW117165   0.667   0.722   8.679 -0.5027  0.4341  0.7267
 1844SOL    HW217166   0.540   0.781   8.707 -3.0114 -2.2014 -2.9548
 1845SOL     OW17167   3.354   0.437   3.479  0.2526  0.6363  0.2241
 1845SOL    HW117168   3.340   0.346   3.451 -1.6146  0.4052  1.8689
 1845SOL    HW217169   3.304   0.437   3.561 -1.7507  2.5729 -0.9908
 1846SOL     OW17170   0.540   3.002  15.062 -0.2398  0.4179 -0.0332
 1846SOL    HW117171   0.573   2.912  15.064 -0.9983  0.1192 -1.0469
 1846SOL    HW217172   0.622   3.039  15.031  1.4024 -1.6409  1.8303
 1847SOL     OW17173   2.893   4.642   5.120 -0.5655 -0.2633  0.8102
 1847SOL    HW117174   2.830   4.631   5.191  2.4916  1.3673  3.7412
 1847SOL    HW217175   2.939   4.725   5.137 -0.4662 -0.2230  0.3473
 1848SOL     OW17176   2.070   4.733   6.767  0.2792 -0.7865 -0.0109
 1848SOL    HW117177   2.046   0.080   6.809  0.8374 -0.5852 -0.0998
 1848SOL    HW217178   2.125   4.691   6.832  0.0893  2.3550  2.2094
 1849SOL     OW17179   2.689   4.097   3.091 -0.5461 -0.0741 -0.3567
 1849SOL    HW117180   2.676   4.134   3.003  2.8868 -0.8943 -1.1905
 1849SOL    HW217181   2.783   4.080   3.086 -0.4621 -0.2431  1.8647
 1850SOL     OW17182   3.809   3.147   3.878  0.1025 -0.6305 -0.4071
 1850SOL    HW117183   3.798   3.090   3.954 -1.3154 -2.0164 -1.6412
 1850SOL    HW217184   3.889   3.198   3.892 -0.4978 -0.0003  0.6115
 1851SOL     OW17185   0.204   1.788  15.388  0.3914  0.0034 -0.3559
 1851SOL    HW117186   0.110   1.804  15.379  0.2421 -0.6100  0.1941
 1851SOL    HW217187   0.228   1.706  15.345  1.1699 -0.5234  1.0858
 1852SOL     OW17188   4.539   1.295   5.363 -0.0820  0.1307  0.7724
 1852SOL    HW117189   4.524   1.383   5.396  0.8116  1.6765 -2.9185
 1852SOL    HW217190   4.465   1.239   5.382  0.5084 -0.9460 -0.1102
 1853SOL     OW17191   3.617   2.857   1.923 -0.6059 -0.5333 -0.3502
 1853SOL    HW117192   3.590   2.765   1.923 -2.0036 -0.1105 -2.3106
 1853SOL    HW217193   3.691   2.868   1.982 -1.2384 -2.6398  0.8310
 1854SOL     OW17194   1.525   3.753   2.480  0.7785 -0.0375 -0.3515
 1854SOL    HW117195   1.611   3.751   2.521  0.2081 -0.1578  0.8382
 1854SOL    HW217196   1.537   3.685   2.413 -0.2794  0.5492 -1.1319
 1855SOL     OW17197   4.209   0.501   6.528 -0.1720  0.1595 -0.0324
 1855SOL    HW117198   4.203   0.596   6.538 -2.8458  0.0208 -0.3214
 1855SOL    HW217199   4.305   0.496   6.526 -0.2613 -0.9620 -2.2152
 1856SOL     OW17200   1.287   1.291  15.709  0.0274 -0.5155  0.4443
 1856SOL    HW117201   1.257   1.282  15.799 -1.1577  1.2353  0.2246
 1856SOL    HW217202   1.380   1.270  15.709  0.2603  0.4638 -1.7137
 1857SOL     OW17203   0.370   0.556   9.033 -0.2131  0.2550 -0.4374
 1857SOL    HW117204   0.325   0.471   9.037  0.2089 -0.0495 -1.9718
 1857SOL    HW217205   0.459   0.526   9.015 -0.3434  0.3872 -1.3272
 1858SOL     OW17206   3.262   3.470   3.311 -0.2227  0.0134  0.1487
 1858SOL    HW117207   3.169   3.467   3.332 -0.3963  2.3777 -0.2430
 1858SOL    HW217208   3.272   3.379   3.284  1.4568  0.9358 -2.2573
 1859SOL     OW17209   1.309   2.237   3.415  0.2381  0.0766 -0.3922
 1859SOL    HW117210   1.226   2.281   3.400 -0.6439 -0.7339  2.0822
 1859SOL    HW217211   1.336   2.203   3.330  0.0303 -1.7037  0.2553
 1860SOL     OW17212   4.567   1.381  14.915 -0.1053 -0.3076  0.2328
 1860SOL    HW117213   4.563   1.308  14.852 -1.4104  0.6964 -0.8665
 1860SOL    HW217214   4.632   1.432  14.866 -0.5424  0.8234  0.8456
 1861SOL     OW17215   2.331   1.043  14.164  0.5357 -0.4896  0.0964
 1861SOL    HW117216   2.271   1.067  14.235  0.3637  1.2701 -0.6515
 1861SOL    HW217217   2.386   1.120  14.158 -2.0982  1.4865  1.3489
 1862SOL     OW17218   3.901   0.100  16.412 -0.1377 -0.4053  0.0266
 1862SOL    HW117219   3.936   0.048  16.484  0.0752  1.8101  1.5068
 1862SOL    HW217220   3.977   0.124  16.359 -1.1850  0.0394 -1.2788
 1863SOL     OW17221   1.748   1.741  11.772 -0.7130 -0.0122  0.0542
 1863SOL    HW117222   1.682   1.682  11.809 -1.4020 -0.3402 -1.6749
 1863SOL    HW217223   1.803   1.682  11.721 -0.2696 -0.3313  0.9131
 1864SOL     OW17224   0.526   3.365  13.581 -0.2856 -0.1696 -0.3339
 1864SOL    HW117225   0.490   3.277  13.568 -0.2877 -0.2530  0.2072
 1864SOL    HW217226   0.481   3.410  13.509  0.1239 -0.6025 -0.8585
 1865SOL     OW17227   0.007   1.357  10.026  0.1979  0.3865  0.4226
 1865SOL    HW117228   4.663   1.310  10.051  0.4166 -0.1467  0.1282
 1865SOL    HW217229   0.002   1.358   9.930  2.2253  0.5169  0.3125
 1866SOL     OW17230   1.597   3.270   7.123 -0.7225  0.1729  0.3012
 1866SOL    HW117231   1.565   3.193   7.076 -2.1470 -0.1233  1.7702
 1866SOL    HW217232   1.566   3.337   7.062  0.4231 -1.0700 -1.6528
 1867SOL     OW17233   4.085   1.967   7.076  0.4592  0.2208 -0.0673
 1867SOL    HW117234   4.155   1.913   7.114 -0.9063 -0.9442  0.8189
 1867SOL    HW217235   4.014   1.903   7.074  0.6954 -0.1183  1.7896
 1868SOL     OW17236   4.693   4.611   7.026  0.1146 -0.0602  0.0120
 1868SOL    HW117237   4.727   4.624   6.937 -0.7347 -1.3681 -0.5044
 1868SOL    HW217238   4.598   4.610   7.023  0.1275 -0.3067 -0.4552
 1869SOL     OW17239   0.565   2.133   3.393 -0.4843 -0.0443  0.7106
 1869SOL    HW117240   0.568   2.053   3.340 -0.3090  1.0761 -0.9617
 1869SOL    HW217241   0.489   2.109   3.446 -0.7171  0.7408  0.7225
 1870SOL     OW17242   2.216   3.281   2.277  0.0811  0.6353  0.1909
 1870SOL    HW117243   2.252   3.220   2.212 -1.0146  0.0028  0.1769
 1870SOL    HW217244   2.139   3.228   2.297  0.0150  0.0184 -1.6313
 1871SOL     OW17245   0.808   4.727   7.722 -0.6581 -0.1155  0.3514
 1871SOL    HW117246   0.733   4.698   7.774 -1.5678  0.5081 -0.5988
 1871SOL    HW217247   0.857   0.043   7.785 -0.3639  1.1914 -0.9452
 1872SOL     OW17248   2.803   3.705   6.774 -0.0178  0.1626  0.2981
 1872SOL    HW117249   2.836   3.617   6.755 -0.8290  0.3507 -2.0002
 1872SOL    HW217250   2.757   3.713   6.690  0.7872  0.4833 -0.1043
 1873SOL     OW17251   0.825   0.102   7.196 -0.5636 -0.6287 -0.6516
 1873SOL    HW117252   0.868   0.121   7.280  1.2274 -1.1406 -1.4434
 1873SOL    HW217253   0.893   0.131   7.135 -0.8697  0.7613 -0.3384
 1874SOL     OW17254   3.581   3.194  14.251 -0.0355  0.9379  0.0734
 1874SOL    HW117255   3.636   3.246  14.310  1.0021 -0.6785  0.5149
 1874SOL    HW217256   3.557   3.125  14.312 -0.5044  0.0249 -1.1486
 1875SOL     OW17257   4.266   2.297  16.821 -0.3437 -0.6835 -0.4978
 1875SOL    HW117258   4.324   2.345  16.762  1.0163 -2.0475 -0.2793
 1875SOL    HW217259   4.270   2.356  16.896  0.0495  0.1582 -1.1843
 1876SOL     OW17260   2.345   3.866   1.734 -1.0595 -0.0543 -0.2395
 1876SOL    HW117261   2.257   3.834   1.754 -0.0318 -1.4695  1.9389
 1876SOL    HW217262   2.389   3.796   1.686  1.1022 -0.0162  1.6984
 1877SOL     OW17263   2.678   1.717  13.200 -0.4937 -0.3102 -0.2993
 1877SOL    HW117264   2.611   1.772  13.240 -0.8121 -1.8834  1.3367
 1877SOL    HW217265   2.696   1.762  13.118 -0.7093  1.9608  0.9184
 1878SOL     OW17266   4.298   3.504   5.698 -0.4632 -0.3089  0.6290
 1878SOL    HW117267   4.303   3.551   5.781  1.1518  0.5901  0.0194
 1878SOL    HW217268   4.215   3.462   5.718 -0.5731  0.2425  1.3320
 1879SOL     OW17269   3.524   0.995   3.093  0.1554  0.1656 -0.3114
 1879SOL    HW117270   3.620   0.991   3.090  0.0915 -0.2290 -1.8906
 1879SOL    HW217271   3.491   0.929   3.032  1.9979 -1.1936  0.1726
 1880SOL     OW17272   2.984   2.183   0.038 -0.6475  0.6700  0.0594
 1880SOL    HW117273   2.990   2.273   0.069 -1.0110  0.9573 -0.6962
 1880SOL    HW217274   3.036   2.197  17.701  0.8893 -3.3676  0.3260
 1881SOL     OW17275   3.279   1.088   8.276 -0.3357  0.1620  0.2990
 1881SOL    HW117276   3.351   1.074   8.214  0.4586 -2.4260  1.8328
 1881SOL    HW217277   3.305   1.028   8.345 -0.7619 -0.7044 -0.2896
 1882SOL     OW17278   4.492   2.382   6.006  0.5879 -0.3127 -0.3474
 1882SOL    HW117279   4.465   2.368   6.097 -1.9733  0.9950 -0.9091
 1882SOL    HW217280   4.428   2.450   5.986 -2.0391 -2.6814 -0.1596
 1883SOL     OW17281   2.998   0.792  14.650  0.0554  0.4827 -0.5287
 1883SOL    HW117282   3.037   0.861  14.597  1.2274  1.5709  1.7480
 1883SOL    HW217283   2.940   0.744  14.591  2.0308 -2.0310 -0.4642
 1884SOL     OW17284   3.818   2.625   5.322 -0.4885  0.1696 -0.2374
 1884SOL    HW117285   3.850   2.538   5.345 -1.1004  0.2587  0.9540
 1884SOL    HW217286   3.733   2.608   5.282 -0.7863  0.5575  0.2286
 1885SOL     OW17287   0.074   4.675   8.376 -0.2248  0.0032 -0.1421
 1885SOL    HW117288   0.037   4.701   8.460  0.0417 -2.3028  0.6638
 1885SOL    HW217289   0.070   4.582   8.396 -0.2277 -0.2300 -1.2284
 1886SOL     OW17290   3.420   4.134   5.666 -0.8019 -0.8288 -0.7897
 1886SOL    HW117291   3.337   4.180   5.649  0.2185  0.6376 -1.7656
 1886SOL    HW217292   3.401   4.076   5.739 -0.1767  0.9709  0.8053
 1887SOL     OW17293   2.375   2.722   5.631  0.0180 -0.0124 -0.1877
 1887SOL    HW117294   2.457   2.672   5.641 -0.3197 -1.2785 -3.7218
 1887SOL    HW217295   2.325   2.710   5.712  1.6737  0.5593  0.9166
 1888SOL     OW17296   3.748   1.354   9.639  0.4450 -0.2259  0.0393
 1888SOL    HW117297   3.681   1.351   9.571  0.2655 -0.7972  0.2498
 1888SOL    HW217298   3.820   1.304   9.600  1.3052  1.0332 -0.0275
 1889SOL     OW17299   1.966   0.938  16.337 -0.6800  0.0519 -0.1604
 1889SOL    HW117300   1.891   0.993  16.314  2.5573  4.8253  0.8237
 1889SOL    HW217301   1.976   0.884  16.258  0.0451 -1.9812  1.3307
 1890SOL     OW17302   1.245   4.666   0.189 -0.4157 -0.3326 -0.0533
 1890SOL    HW117303   1.239   0.021   0.160  3.4400 -0.3868 -1.0542
 1890SOL    HW217304   1.340   4.657   0.201 -0.2569  0.1342 -0.9433
 1891SOL     OW17305   1.841   0.631   7.993  0.0236 -0.6206  0.7308
 1891SOL    HW117306   1.767   0.682   8.025 -1.1175 -1.9342  0.2092
 1891SOL    HW217307   1.806   0.571   7.927 -0.0715  0.7438 -0.4472
 1892SOL     OW17308   1.602   3.943   4.890  0.0367  0.3175 -0.5095
 1892SOL    HW117309   1.605   4.024   4.941  1.0054  0.7424 -1.2331
 1892SOL    HW217310   1.638   3.874   4.945 -2.5085 -0.7615 -0.1957
 1893SOL     OW17311   3.665   2.598   6.004  0.3844 -0.1105  0.2116
 1893SOL    HW117312   3.642   2.593   5.912 -0.1148 -1.6295  0.4171
 1893SOL    HW217313   3.746   2.547   6.006  1.2721  1.3315  1.2098
 1894SOL     OW17314   1.670   4.300   8.220 -0.2454 -0.0329 -0.0137
 1894SOL    HW117315   1.606   4.286   8.150 -1.7996  0.0671  1.3832
 1894SOL    HW217316   1.740   4.340   8.167 -1.4142  0.9191 -0.8497
 1895SOL     OW17317   2.372   3.645  14.574 -0.2777 -0.0426  0.0194
 1895SOL    HW117318   2.297   3.675  14.626 -0.5093  0.7854 -0.7920
 1895SOL    HW217319   2.376   3.552  14.597  1.5717 -0.6868 -2.9030
 1896SOL     OW17320   2.744   4.586   9.476 -0.6980 -0.0022  0.3046
 1896SOL    HW117321   2.809   4.571   9.545  0.5235  0.9507 -0.6459
 1896SOL    HW217322   2.703   4.661   9.519 -0.3671 -0.2920  1.1251
 1897SOL     OW17323   2.308   0.479   7.093  0.6450 -0.0372 -0.1701
 1897SOL    HW117324   2.327   0.440   7.178  0.5657  1.7815  0.6796
 1897SOL    HW217325   2.393   0.512   7.064  1.4018 -2.1541 -0.3834
 1898SOL     OW17326   4.504   0.433   4.309 -0.0075 -0.4574  0.0929
 1898SOL    HW117327   4.520   0.496   4.379  3.8445 -1.4908  0.1476
 1898SOL    HW217328   4.419   0.395   4.331  0.4881 -1.5707  0.1101
 1899SOL     OW17329   0.940   4.581   2.106 -0.2931  0.2384 -0.4566
 1899SOL    HW117330   0.864   4.550   2.155  1.7695 -1.1174  1.8937
 1899SOL    HW217331   1.006   4.559   2.172 -2.3119  1.5927  2.0361
 1900SOL     OW17332   0.314   3.882   3.247 -0.4259 -0.6396 -0.3262
 1900SOL    HW117333   0.356   3.908   3.330  1.3174  0.1791 -1.4637
 1900SOL    HW217334   0.220   3.875   3.263 -0.3363 -0.7823  0.1469
 1901SOL     OW17335   1.944   3.794  12.354 -0.2752 -0.0513  0.1973
 1901SOL    HW117336   1.915   3.865  12.296  1.4960  2.0990  1.9442
 1901SOL    HW217337   2.014   3.842  12.399 -0.2642 -0.7838  0.9444
 1902SOL     OW17338   3.482   3.448   6.686 -0.1923 -0.7026 -0.3504
 1902SOL    HW117339   3.434   3.432   6.605  0.6489 -0.1473 -0.9644
 1902SOL    HW217340   3.427   3.408   6.754  0.1672  0.5017  0.6531
 1903SOL     OW17341   2.583   4.410   7.648 -0.2201  0.0160 -0.2995
 1903SOL    HW117342   2.490   4.428   7.634 -0.7445 -1.5428  1.0623
 1903SOL    HW217343   2.622   4.493   7.623  0.6415  0.5867  2.9972
 1904SOL     OW17344   2.230   3.461   3.329  0.2100 -0.5844  0.1745
 1904SOL    HW117345   2.311   3.411   3.319 -0.9089 -2.1796 -0.7901
 1904SOL    HW217346   2.253   3.544   3.371  0.4026 -1.0013  0.8863
 1905SOL     OW17347   3.160   4.640  14.055 -0.2885 -0.2870 -0.4183
 1905SOL    HW117348   3.153   4.550  14.088  2.7613  0.1354  1.3932
 1905SOL    HW217349   3.227   4.628  13.987  1.1362  1.0224  0.7687
 1906SOL     OW17350   2.673   0.445   4.000  0.4063 -0.1033 -0.3797
 1906SOL    HW117351   2.599   0.488   3.955  1.0917 -1.0219 -2.3629
 1906SOL    HW217352   2.743   0.440   3.936  0.5792  1.6167 -0.3306
 1907SOL     OW17353   2.154   2.546  11.635  0.2618  0.6862  0.2450
 1907SOL    HW117354   2.216   2.529  11.705 -0.7986 -1.5695  0.6261
 1907SOL    HW217355   2.068   2.536  11.677 -1.1048  0.1902 -2.6934
 1908SOL     OW17356   3.956   4.427   6.159  0.0118  0.5540 -0.8189
 1908SOL    HW117357   3.883   4.466   6.110  0.1830 -0.7594 -2.0984
 1908SOL    HW217358   4.030   4.422   6.099 -0.9291 -0.9750 -1.8451
 1909SOL     OW17359   1.109   4.178   5.849 -0.0829 -0.4338  0.4951
 1909SOL    HW117360   1.094   4.170   5.943 -0.5782 -0.9536  0.3734
 1909SOL    HW217361   1.197   4.215   5.845  0.3649 -1.5149  0.0875
 1910SOL     OW17362   3.064   3.803   5.463 -0.6067  0.0157  1.0529
 1910SOL    HW117363   3.039   3.895   5.451  2.7227  0.7257 -0.4625
 1910SOL    HW217364   3.149   3.807   5.506 -1.3591 -0.0965  2.5492
 1911SOL     OW17365   2.038   3.253   6.318 -0.2991  0.6181  0.4932
 1911SOL    HW117366   1.972   3.185   6.312  0.5346 -0.0729 -1.0285
 1911SOL    HW217367   2.115   3.207   6.351 -1.3911 -0.2493  1.7967
 1912SOL     OW17368   0.894   3.781   3.126 -0.2072  0.1250  0.4125
 1912SOL    HW117369   0.800   3.770   3.145 -0.6605  3.2859  0.0159
 1912SOL    HW217370   0.892   3.876   3.112 -1.5196  0.2095  1.0897
 1913SOL     OW17371   0.524   3.140   3.504 -0.1192 -0.3931 -0.4265
 1913SOL    HW117372   0.520   3.208   3.436  0.4328  0.7258  0.6465
 1913SOL    HW217373   0.513   3.066   3.446  1.0391  1.9435 -3.6170
 1914SOL     OW17374   2.419   2.122   4.295  0.2297  0.1209 -0.4266
 1914SOL    HW117375   2.409   2.047   4.353  2.6086 -0.0554 -0.2644
 1914SOL    HW217376   2.504   2.103   4.256  0.3173 -1.2335  0.4682
 1915SOL     OW17377   2.361   1.405   8.387 -0.3621  0.4242  0.0501
 1915SOL    HW117378   2.378   1.387   8.295  0.7169 -2.0307  0.7249
 1915SOL    HW217379   2.381   1.316   8.417  1.3288  0.6274 -0.4865
 1916SOL     OW17380   4.392   4.711   5.042 -0.0233 -0.6578  0.7434
 1916SOL    HW117381   4.486   4.725   5.048 -0.0351  0.9092 -2.3394
 1916SOL    HW217382   4.368   0.068   5.039 -2.1695 -1.1864  1.4976
 1917SOL     OW17383   2.573   2.029  11.962 -0.1978  0.1708  0.1210
 1917SOL    HW117384   2.551   1.994  11.877  0.6261  2.2842 -0.9718
 1917SOL    HW217385   2.608   2.116  11.942  3.0970 -1.1046  0.4073
 1918SOL     OW17386   1.544   1.700   4.412 -0.0858 -0.2849  0.3355
 1918SOL    HW117387   1.505   1.777   4.453 -0.5775  1.5360 -3.5857
 1918SOL    HW217388   1.474   1.635   4.422 -0.6512  0.6270  2.2833
 1919SOL     OW17389   1.796   1.477   4.146 -0.1681  0.2051 -0.0169
 1919SOL    HW117390   1.752   1.562   4.142 -2.0501 -0.8837 -2.2214
 1919SOL    HW217391   1.818   1.459   4.055  0.0003  0.0872  0.0465
 1920SOL     OW17392   4.295   3.193   6.284  0.2099 -0.2038 -0.1943
 1920SOL    HW117393   4.238   3.184   6.360 -1.1983 -0.8629 -1.3266
 1920SOL    HW217394   4.318   3.100   6.274  1.2052  0.0326 -0.0988
 1921SOL     OW17395   0.054   2.653   8.248  0.2396 -0.4032 -0.4333
 1921SOL    HW117396   0.089   2.565   8.265  1.4323  0.4863  1.6167
 1921SOL    HW217397   0.038   2.689   8.335  0.3704  1.4454 -1.1850
 1922SOL     OW17398   0.144   1.090   6.379  0.5959 -0.6874  0.1384
 1922SOL    HW117399   0.170   1.120   6.291 -0.9697 -0.5801 -0.2795
 1922SOL    HW217400   0.195   1.009   6.389  0.2324 -1.3217 -2.9139
 1923SOL     OW17401   3.556   4.689   9.669 -0.1712  0.3361  0.3316
 1923SOL    HW117402   3.522   4.689   9.758 -0.3305  0.5880  0.2709
 1923SOL    HW217403   3.477   4.652   9.628  0.6440 -1.5609  0.4696
 1924SOL     OW17404   3.344   0.748   4.440 -0.7062 -0.1555  0.6974
 1924SOL    HW117405   3.295   0.673   4.406 -0.0500 -0.3512  0.1884
 1924SOL    HW217406   3.349   0.814   4.371 -1.8471 -0.4835  0.2847
 1925SOL     OW17407   1.398   0.802   9.081  0.1015  0.2602  0.1849
 1925SOL    HW117408   1.430   0.794   9.170 -0.1670 -2.1087  0.0674
 1925SOL    HW217409   1.463   0.758   9.026 -0.5364  0.1176 -0.4565
 1926SOL     OW17410   4.027   3.471   6.526 -0.0152  0.3316  0.5854
 1926SOL    HW117411   3.948   3.432   6.563 -0.5192 -0.7371 -1.6077
 1926SOL    HW217412   3.993   3.552   6.488 -2.7037 -0.2464  1.7385
 1927SOL     OW17413   1.798   0.347   0.005 -0.1710  0.1663 -0.3570
 1927SOL    HW117414   1.721   0.345  17.689 -0.6250 -0.1210  0.2643
 1927SOL    HW217415   1.763   0.367   0.092 -0.9368 -0.2889 -0.5591
 1928SOL     OW17416   3.747   3.739   4.217  0.7390 -0.4082  0.2668
 1928SOL    HW117417   3.711   3.719   4.130  0.1926 -0.4441  0.5038
 1928SOL    HW217418   3.839   3.759   4.201  0.1759  1.5495 -0.6269
 1929SOL     OW17419   3.846   4.519   4.850 -0.2549  0.0790 -0.3499
 1929SOL    HW117420   3.884   4.597   4.890  1.6747  0.3988 -2.8150
 1929SOL    HW217421   3.753   4.541   4.853 -0.2643  0.4447 -3.1620
 1930SOL     OW17422   0.669   0.740  16.049  0.4385  0.1204 -0.4688
 1930SOL    HW117423   0.622   0.691  16.117 -0.6409 -0.5113 -1.6684
 1930SOL    HW217424   0.592   0.780  16.009  1.3091  0.1806 -2.0586
 1931SOL     OW17425   1.921   2.850   2.197 -0.1183  0.8004 -0.1647
 1931SOL    HW117426   1.828   2.862   2.214  0.4416  2.0938  2.0019
 1931SOL    HW217427   1.946   2.812   2.281  1.1281  0.6412 -0.6002
 1932SOL     OW17428   1.480   2.731  13.615  0.4301  0.5100 -0.0871
 1932SOL    HW117429   1.394   2.728  13.657  1.6002  3.5274  2.4771
 1932SOL    HW217430   1.462   2.817  13.578 -0.3106  0.3461 -0.1262
 1933SOL     OW17431   2.730   3.178   2.378 -0.0911  0.5701  0.0107
 1933SOL    HW117432   2.672   3.243   2.417 -2.6870 -1.3998 -0.5036
 1933SOL    HW217433   2.815   3.221   2.375  0.3111 -0.2970 -1.3364
 1934SOL     OW17434   1.094   0.549   9.616  0.2119  0.4060  0.8623
 1934SOL    HW117435   1.050   0.479   9.568  0.7369 -0.1045  1.1237
 1934SOL    HW217436   1.175   0.545   9.566  0.0059 -0.3318  0.5874
 1935SOL     OW17437   3.220   1.339   4.649  0.4147  0.0002 -0.2977
 1935SOL    HW117438   3.258   1.427   4.656 -1.8461  1.0937 -1.4652
 1935SOL    HW217439   3.141   1.344   4.595 -0.2503 -3.6234  0.3572
 1936SOL     OW17440   3.835   1.944   2.966 -0.2474  0.0893  0.2612
 1936SOL    HW117441   3.756   1.889   2.965 -0.6062  0.6246 -0.5453
 1936SOL    HW217442   3.889   1.911   2.895  1.1320  1.5967  0.6028
 1937SOL     OW17443   2.164   1.964   1.966  0.0719  0.1475  0.1474
 1937SOL    HW117444   2.147   2.045   1.919 -0.5106  1.9252  3.4681
 1937SOL    HW217445   2.113   1.897   1.920 -0.8501  0.2182  1.0745
 1938SOL     OW17446   4.160   4.151   3.484 -0.1901  0.1507 -0.1908
 1938SOL    HW117447   4.228   4.215   3.463  0.6953 -1.3305 -1.8180
 1938SOL    HW217448   4.207   4.101   3.550  0.6113  0.0892 -0.8039
 1939SOL     OW17449   1.975   0.911   7.923  0.2643  0.0978  0.6173
 1939SOL    HW117450   1.990   1.003   7.945  1.5031  0.6501 -2.3993
 1939SOL    HW217451   1.883   0.919   7.897  0.5425 -2.4061 -1.1141
 1940SOL     OW17452   4.260   0.394   3.942 -0.1262  0.4274  0.3866
 1940SOL    HW117453   4.256   0.312   3.894  0.9168  0.4449  0.2793
 1940SOL    HW217454   4.168   0.418   3.949  0.6473  2.6757  3.0256
 1941SOL     OW17455   0.690   3.821   0.588 -0.2871  0.3851 -0.2855
 1941SOL    HW117456   0.749   3.894   0.608  2.2401 -1.4323 -1.1797
 1941SOL    HW217457   0.724   3.783   0.507 -2.1651  0.1287 -0.9634
 1942SOL     OW17458   0.776   1.940  15.438 -0.5138  0.9366  0.0549
 1942SOL    HW117459   0.725   1.862  15.417  0.8321 -0.0362  0.3999
 1942SOL    HW217460   0.757   1.959  15.530 -0.4570  3.5561 -0.4738
 1943SOL     OW17461   4.451   3.784   2.093  0.8450  0.2076 -0.2665
 1943SOL    HW117462   4.536   3.774   2.135  0.7872 -0.5619 -0.3241
 1943SOL    HW217463   4.433   3.878   2.097 -0.8731 -0.2037  1.5018
 1944SOL     OW17464   1.038   3.716   5.452 -0.1837 -0.0862 -0.0730
 1944SOL    HW117465   0.978   3.789   5.470 -1.6096 -1.2207 -0.2328
 1944SOL    HW217466   0.980   3.642   5.470  0.6445 -1.0321 -1.3295
 1945SOL     OW17467   4.083   2.869   4.491 -0.3211  0.2157  0.3650
 1945SOL    HW117468   4.010   2.868   4.429  1.9816 -1.3944 -2.3040
 1945SOL    HW217469   4.159   2.844   4.438 -0.5168  1.3093 -0.4447
 1946SOL     OW17470   3.139   3.310  14.569 -0.1744  0.2300 -0.0882
 1946SOL    HW117471   3.082   3.386  14.580 -0.1666  0.2337 -0.0729
 1946SOL    HW217472   3.218   3.356  14.541  0.1881 -0.4505 -0.1823
 1947SOL     OW17473   3.075   1.841  16.854 -0.3404 -0.2835 -0.5234
 1947SOL    HW117474   3.003   1.880  16.804  0.8998  1.0594 -1.2579
 1947SOL    HW217475   3.127   1.808  16.781 -0.1298  0.7067 -0.8273
 1948SOL     OW17476   3.469   2.756   5.803  0.1771  0.2297 -0.1090
 1948SOL    HW117477   3.552   2.731   5.762  0.3788 -0.0812  0.4769
 1948SOL    HW217478   3.407   2.689   5.774  0.9136 -1.3912  2.0618
 1949SOL     OW17479   2.273   3.881   4.483 -0.0529 -0.4350 -0.3402
 1949SOL    HW117480   2.244   3.971   4.502  0.7570  0.1563 -1.8997
 1949SOL    HW217481   2.356   3.888   4.529  0.2570  0.1813 -0.9921
 1950SOL     OW17482   3.524   4.633   9.929 -0.1489 -0.2877 -0.1705
 1950SOL    HW117483   3.458   4.588   9.982 -0.6253  0.3246 -0.2430
 1950SOL    HW217484   3.602   4.595   9.970  0.5366  0.5072 -0.7437
 1951SOL     OW17485   3.167   1.043   8.993  0.2538  0.0860 -0.3421
 1951SOL    HW117486   3.176   1.127   8.949 -1.8931 -0.6746 -2.2397
 1951SOL    HW217487   3.250   1.025   9.037 -0.0546  0.8089  0.5361
 1952SOL     OW17488   3.387   3.191   3.986  0.7402 -0.7715 -0.4934
 1952SOL    HW117489   3.340   3.236   3.916 -1.0584 -2.4159 -0.3374
 1952SOL    HW217490   3.368   3.098   3.975  0.8344 -0.5977 -2.0601
 1953SOL     OW17491   0.785   4.403   5.568  0.2581 -0.0221 -0.5187
 1953SOL    HW117492   0.758   4.314   5.594  3.1554 -0.0565  2.3615
 1953SOL    HW217493   0.740   4.414   5.484  0.0535  0.0316 -0.4032
 1954SOL     OW17494   1.264   4.665  11.645  0.3574 -0.2620 -0.9132
 1954SOL    HW117495   1.293   4.589  11.594  0.3717  0.0538 -1.3787
 1954SOL    HW217496   1.257   4.622  11.730  2.4147  1.3986  0.0762
 1955SOL     OW17497   4.594   2.389  14.618  0.6626  0.0142 -0.1779
 1955SOL    HW117498   4.589   2.406  14.524  3.9048  3.3772  0.2663
 1955SOL    HW217499   4.680   2.352  14.638  1.3199  1.4245 -0.4049
 1956SOL     OW17500   3.629   1.891   7.765  0.4344 -0.1691  0.5020
 1956SOL    HW117501   3.535   1.891   7.778  0.4006 -1.3779  0.1940
 1956SOL    HW217502   3.647   1.803   7.734 -1.0076 -0.6449  1.0531
 1957SOL     OW17503   4.432   0.318   6.340  0.2928  0.0777  0.5005
 1957SOL    HW117504   4.440   0.373   6.418  1.8564 -0.9931  1.1132
 1957SOL    HW217505   4.356   0.264   6.362 -0.3302  0.9762  0.5576
 1958SOL     OW17506   2.235   0.922   3.934  0.1008  0.3771 -0.0372
 1958SOL    HW117507   2.325   0.915   3.968  0.4953 -1.4057 -1.4398
 1958SOL    HW217508   2.190   0.846   3.970  1.3165 -0.1411  0.4174
 1959SOL     OW17509   0.369   0.352   1.211  0.1819 -0.1949  0.0231
 1959SOL    HW117510   0.338   0.262   1.196  0.4702 -0.2311 -0.3621
 1959SOL    HW217511   0.456   0.345   1.172  0.4756  1.0450  0.4565
 1960SOL     OW17512   3.876   2.590  17.430  0.4602 -0.1759 -0.2105
 1960SOL    HW117513   3.898   2.628  17.515  0.6908  1.8640 -1.1719
 1960SOL    HW217514   3.946   2.618  17.371  0.3349 -0.4404 -0.4857
 1961SOL     OW17515   4.160   1.714  13.268 -0.2114  0.3424  0.7636
 1961SOL    HW117516   4.072   1.742  13.292 -1.2097 -2.1094 -0.1030
 1961SOL    HW217517   4.201   1.747  13.348 -0.2911 -1.0600  1.3777
 1962SOL     OW17518   0.602   4.326   0.827  0.3403 -0.1234  0.2197
 1962SOL    HW117519   0.569   4.249   0.781  3.1428  0.1258 -2.1597
 1962SOL    HW217520   0.534   4.339   0.894  0.7387  1.4607  0.3146
 1963SOL     OW17521   1.320   3.455   2.152  0.0685  0.0513  0.0499
 1963SOL    HW117522   1.283   3.536   2.189  0.5863 -0.0975  0.8910
 1963SOL    HW217523   1.275   3.458   2.067  0.3730 -0.4827 -0.1272
 1964SOL     OW17524   0.027   1.196   4.437 -0.0767  0.6210 -0.1156
 1964SOL    HW117525   4.698   1.153   4.380  1.4898 -0.7281 -0.8765
 1964SOL    HW217526   4.728   1.285   4.436 -0.9099  0.3111  0.9971
 1965SOL     OW17527   0.690   2.077   0.770 -0.4318 -0.0320  0.4873
 1965SOL    HW117528   0.642   2.005   0.729  1.2116 -2.4807  2.8669
 1965SOL    HW217529   0.619   2.141   0.765 -0.1432  0.3495  1.2580
 1966SOL     OW17530   1.115   0.200   2.471 -0.0051 -0.3145 -0.2848
 1966SOL    HW117531   1.091   0.276   2.525 -2.6842 -0.6697 -0.9738
 1966SOL    HW217532   1.056   0.212   2.397 -0.3284  0.8895  0.1535
 1967SOL     OW17533   2.548   0.440  13.031 -0.0792  0.5161  0.1949
 1967SOL    HW117534   2.634   0.481  13.020  0.2087 -0.2772 -0.5641
 1967SOL    HW217535   2.491   0.511  13.002 -0.0840 -0.2060 -1.5638
 1968SOL     OW17536   1.023   0.049   5.643 -0.0353  0.0994 -0.2369
 1968SOL    HW117537   1.027   0.143   5.661  0.3147 -0.1105  0.7390
 1968SOL    HW217538   1.051   0.015   5.728 -1.7927 -0.4477  0.1267
 1969SOL     OW17539   4.459   0.548   1.755 -0.2336 -0.0042 -0.2786
 1969SOL    HW117540   4.456   0.518   1.846  0.3092  0.3509 -0.1447
 1969SOL    HW217541   4.441   0.464   1.714 -2.2098 -0.9791  2.5663
 1970SOL     OW17542   1.796   4.318   3.778  0.5808 -0.8055 -0.3472
 1970SOL    HW117543   1.737   4.243   3.769 -2.3821  1.7192 -1.9338
 1970SOL    HW217544   1.849   4.302   3.856  1.2050  1.6971 -0.2316
 1971SOL     OW17545   1.445   1.204   2.446  0.1678  0.2432  0.1709
 1971SOL    HW117546   1.467   1.115   2.472  0.1661 -0.1338 -1.1434
 1971SOL    HW217547   1.530   1.229   2.411  0.2915 -0.5587 -0.0804
 1972SOL     OW17548   2.186   0.431  10.631 -0.2265 -0.4803 -0.1061
 1972SOL    HW117549   2.108   0.383  10.604 -1.3692  1.5311 -0.3762
 1972SOL    HW217550   2.166   0.442  10.724 -1.9937  1.2372 -0.7006
 1973SOL     OW17551   1.993   2.283   4.291 -0.4147  0.0606 -0.0571
 1973SOL    HW117552   2.053   2.269   4.364  1.1548  0.5063 -1.2657
 1973SOL    HW217553   1.965   2.374   4.303 -0.7681 -0.1406  0.6090
 1974SOL     OW17554   1.340   3.412   0.994  0.7531 -0.1691 -0.1669
 1974SOL    HW117555   1.321   3.355   0.920  0.0325  0.1507 -0.2359
 1974SOL    HW217556   1.435   3.420   0.987  0.6658  0.9925 -0.0709
 1975SOL     OW17557   2.054   1.984   4.835  0.3656 -0.0589 -0.4991
 1975SOL    HW117558   2.036   2.055   4.774 -1.5272 -0.9835 -1.0095
 1975SOL    HW217559   1.987   1.930   4.792 -1.4993  2.5360 -0.8518
 1976SOL     OW17560   0.601   0.782  15.387 -0.0337 -0.2096 -0.7774
 1976SOL    HW117561   0.599   0.864  15.436 -0.8352 -1.0631  0.6263
 1976SOL    HW217562   0.636   0.719  15.450  0.1370 -0.7479 -1.4175
 1977SOL     OW17563   3.506   4.508   4.229 -0.8206 -0.0365 -0.3347
 1977SOL    HW117564   3.538   4.461   4.306 -1.2011  0.9622  0.4219
 1977SOL    HW217565   3.420   4.542   4.252 -1.0334 -0.5981 -0.2891
 1978SOL     OW17566   3.418   2.999  15.371 -0.4270 -0.4109  0.3608
 1978SOL    HW117567   3.337   3.042  15.401 -0.8755 -0.1674 -1.1977
 1978SOL    HW217568   3.431   2.954  15.455  2.3922 -0.3647 -0.0637
 1979SOL     OW17569   2.704   1.276   4.346  0.4524 -0.7208 -0.3035
 1979SOL    HW117570   2.798   1.263   4.359  0.5265 -1.2547 -1.3869
 1979SOL    HW217571   2.701   1.371   4.360 -0.4316 -1.1316  2.2680
 1980SOL     OW17572   3.230   1.313   5.068 -0.3848  0.4872  0.1840
 1980SOL    HW117573   3.272   1.322   5.153  1.1652  0.0913 -0.5461
 1980SOL    HW217574   3.205   1.401   5.040  0.7160  0.8591  0.3742
 1981SOL     OW17575   1.881   2.695   8.107 -0.4833 -0.2437 -0.4076
 1981SOL    HW117576   1.940   2.655   8.171 -2.6873 -0.9468  1.2084
 1981SOL    HW217577   1.802   2.640   8.105 -0.6429 -0.0514  0.5674
 1982SOL     OW17578   4.060   0.802   9.306 -0.2685  0.1724 -0.1565
 1982SOL    HW117579   4.006   0.795   9.384  0.9219 -0.4808  0.6120
 1982SOL    HW217580   4.128   0.864   9.333 -0.7617 -0.0045  1.4911
 1983SOL     OW17581   1.673   2.405   9.507  0.0151  0.1990  0.7232
 1983SOL    HW117582   1.713   2.319   9.510  0.5397  0.4118 -0.1550
 1983SOL    HW217583   1.580   2.385   9.505  0.1673 -0.5963  1.7169
 1984SOL     OW17584   1.555   2.197   3.306 -0.4033 -0.6196 -0.4749
 1984SOL    HW117585   1.518   2.182   3.393 -0.9741  0.3097 -0.5700
 1984SOL    HW217586   1.550   2.292   3.298  0.2909 -0.4903  0.6329
 1985SOL     OW17587   3.215   3.800   3.696  0.2372 -0.3089  0.0617
 1985SOL    HW117588   3.294   3.756   3.728  1.3774  0.6893 -1.3973
 1985SOL    HW217589   3.178   3.717   3.665 -0.2812  0.1278 -0.4940
 1986SOL     OW17590   0.358   1.445   1.419  0.4813  0.5260 -0.1869
 1986SOL    HW117591   0.373   1.483   1.332  1.6877  1.7143  0.5282
 1986SOL    HW217592   0.291   1.380   1.400  2.2048 -1.6561  1.1375
 1987SOL     OW17593   2.213   3.438   7.008 -0.2257 -0.4758  0.2083
 1987SOL    HW117594   2.229   3.366   6.947  2.1197 -0.6141  1.0280
 1987SOL    HW217595   2.155   3.491   6.952 -0.4649  0.4791  1.3600
 1988SOL     OW17596   2.718   1.391   9.387 -0.0474  0.3308 -0.3010
 1988SOL    HW117597   2.727   1.352   9.299  1.4552  0.2312 -0.0948
 1988SOL    HW217598   2.775   1.467   9.380  2.1353 -0.9947  3.2735
 1989SOL     OW17599   4.368   0.671  10.626  0.0453 -0.0778 -1.1959
 1989SOL    HW117600   4.396   0.758  10.656  1.9307 -0.4152 -1.9816
 1989SOL    HW217601   4.427   0.608  10.668 -1.6020 -0.8501 -0.0587
 1990SOL     OW17602   1.178   0.046   7.782 -0.4657  0.5767  0.7299
 1990SOL    HW117603   1.246   0.039   7.716  1.0088  1.8927  2.1086
 1990SOL    HW217604   1.180   0.141   7.792 -1.1644  0.6035  0.6595
 1991SOL     OW17605   0.668   1.741   2.325 -0.5599 -0.0468  0.1106
 1991SOL    HW117606   0.720   1.804   2.375  0.3108 -1.1589  0.6146
 1991SOL    HW217607   0.733   1.671   2.325 -0.3320  0.1661 -0.1340
 1992SOL     OW17608   2.099   0.040  11.840 -0.1816  0.1786  0.2783
 1992SOL    HW117609   2.140   4.697  11.805  0.2460  0.7545 -0.5210
 1992SOL    HW217610   2.164   0.071  11.903  0.8552  1.1728 -1.2801
 1993SOL     OW17611   4.209   0.106   8.148 -0.5174  0.1068 -0.3503
 1993SOL    HW117612   4.165   0.178   8.103 -0.5331  0.4681  0.2384
 1993SOL    HW217613   4.135   0.047   8.161 -1.0048  0.1437 -2.9420
 1994SOL     OW17614   1.045   0.994   3.192 -0.5086 -0.7871 -0.1063
 1994SOL    HW117615   0.972   0.933   3.181 -0.7862 -0.1977 -1.5134
 1994SOL    HW217616   1.120   0.940   3.170  0.2286  0.8764 -1.6529
 1995SOL     OW17617   2.373   2.394   5.832  0.1150  0.6331 -0.1264
 1995SOL    HW117618   2.391   2.302   5.810 -1.9517  0.5420 -1.3760
 1995SOL    HW217619   2.279   2.407   5.832  0.3768  2.4040 -1.8343
 1996SOL     OW17620   0.866   0.636   1.535  1.0948 -0.4098  0.1700
 1996SOL    HW117621   0.871   0.635   1.631  1.2544  0.4172  0.1670
 1996SOL    HW217622   0.847   0.727   1.511 -2.7453 -0.6086  2.3597
 1997SOL     OW17623   4.322   1.273   3.491  0.1402  0.6928  0.3256
 1997SOL    HW117624   4.370   1.235   3.564  0.9147 -0.2945 -0.7071
 1997SOL    HW217625   4.305   1.196   3.437 -0.0648  1.6070 -0.9158
 1998SOL     OW17626   0.798   2.456  10.514  0.0677 -0.7022 -0.2287
 1998SOL    HW117627   0.875   2.505  10.486 -1.1238 -0.1711 -2.5974
 1998SOL    HW217628   0.730   2.499  10.462 -0.7650 -3.0817 -1.1521
 1999SOL     OW17629   0.833   0.390   3.260  0.1715 -0.4689 -0.0510
 1999SOL    HW117630   0.860   0.298   3.267 -1.0940 -0.8873 -0.7761
 1999SOL    HW217631   0.912   0.427   3.221 -0.6893 -1.1199 -2.4281
 2000SOL     OW17632   1.941   1.514  10.171 -0.2960 -0.0193  0.0791
 2000SOL    HW117633   1.868   1.573  10.154 -1.1366 -1.0456  0.0864
 2000SOL    HW217634   1.903   1.426  10.162  0.2069 -0.3082  0.7280
 2001SOL     OW17635   3.526   1.341   6.030 -0.4971  1.2167  0.3566
 2001SOL    HW117636   3.575   1.422   6.044  0.6254  1.1359 -3.0471
 2001SOL    HW217637   3.582   1.301   5.963 -1.6336  0.1157  0.0519
 2002SOL     OW17638   2.122   0.098   5.800 -0.7534  0.3585  0.1984
 2002SOL    HW117639   2.102   0.020   5.748  1.7510 -0.9994  1.2275
 2002SOL    HW217640   2.039   0.108   5.846 -0.8759  0.8130 -0.1296
 2003SOL     OW17641   0.793   1.211   6.423  0.1172 -0.2752 -0.2882
 2003SOL    HW117642   0.769   1.128   6.464  0.8175 -0.7269 -0.7886
 2003SOL    HW217643   0.803   1.271   6.498  0.5011  0.4571 -0.9155
 2004SOL     OW17644   0.846   4.146  16.636 -0.9990  0.0292  0.1422
 2004SOL    HW117645   0.796   4.173  16.560  1.7327  4.5556 -0.0441
 2004SOL    HW217646   0.790   4.193  16.697  0.8484  1.3483  0.8106
 2005SOL     OW17647   4.363   4.132   8.788  0.0747  0.0959  0.2528
 2005SOL    HW117648   4.434   4.170   8.736 -1.6545  0.5113 -1.8338
 2005SOL    HW217649   4.369   4.040   8.762  2.3431  0.4740 -0.5818
 2006SOL     OW17650   4.545   3.281   6.133 -0.0550 -0.3595 -0.5434
 2006SOL    HW117651   4.609   3.351   6.149 -1.2372  0.8574 -1.1886
 2006SOL    HW217652   4.490   3.278   6.210 -0.3253 -0.4698 -0.7412
 2007SOL     OW17653   3.758   4.481   9.973  0.0776 -0.0463 -0.4111
 2007SOL    HW117654   3.744   4.419  10.045 -3.5263  3.1350  1.6294
 2007SOL    HW217655   3.853   4.480   9.964  0.1464  1.2384  0.1721
 2008SOL     OW17656   0.463   1.553  16.361 -0.3073  0.5551 -0.5676
 2008SOL    HW117657   0.484   1.493  16.432 -0.4304  0.0365 -0.9697
 2008SOL    HW217658   0.549   1.564  16.320  0.3290 -1.9004  0.1252
 2009SOL     OW17659   1.083   3.784   8.894  0.2836  0.3686  0.1981
 2009SOL    HW117660   1.123   3.698   8.884 -1.3165 -0.4104  0.5434
 2009SOL    HW217661   1.103   3.809   8.985  0.9856  1.6903 -0.3188
 2010SOL     OW17662   3.095   4.063   7.596  0.0221  0.1233  0.4713
 2010SOL    HW117663   3.153   4.122   7.547 -0.9645  0.3672 -0.3886
 2010SOL    HW217664   3.037   4.043   7.523 -0.1350  3.1479 -0.2242
 2011SOL     OW17665   0.975   3.739  15.941 -0.0373 -0.6271  0.3128
 2011SOL    HW117666   0.894   3.748  15.992  1.0423  1.4218  1.6697
 2011SOL    HW217667   1.028   3.691  16.005 -0.7387  0.7206  1.9104
 2012SOL     OW17668   3.421   0.833   7.758 -0.4599 -0.3296 -0.1596
 2012SOL    HW117669   3.465   0.749   7.741 -1.1508 -0.5478 -0.8530
 2012SOL    HW217670   3.365   0.831   7.680 -2.6760 -0.3073  1.4441
 2013SOL     OW17671   0.448   1.400   9.329 -0.3897  0.7943  0.2137
 2013SOL    HW117672   0.510   1.327   9.331  0.2571  1.3033 -2.2240
 2013SOL    HW217673   0.480   1.468   9.388  1.2716  1.0443 -0.9810
 2014SOL     OW17674   1.663   2.894   6.385  0.2128 -0.2631 -0.6643
 2014SOL    HW117675   1.575   2.903   6.349  0.2981 -0.4695 -0.9258
 2014SOL    HW217676   1.692   2.805   6.363 -2.5263 -0.3685 -3.8642
 2015SOL     OW17677   0.823   3.937   5.013  0.0915  0.4451 -0.5080
 2015SOL    HW117678   0.754   3.936   4.947 -1.3587  0.7581  1.0167
 2015SOL    HW217679   0.891   3.887   4.967  0.0341  1.1245 -1.3199
 2016SOL     OW17680   1.976   1.745   3.237  0.1936  0.2179  0.2008
 2016SOL    HW117681   2.035   1.691   3.290  0.8810 -0.3405 -1.1218
 2016SOL    HW217682   1.888   1.719   3.265  0.5569  0.2783  1.3776
 2017SOL     OW17683   2.191   3.432   3.700 -0.4644  0.2393 -0.6002
 2017SOL    HW117684   2.168   3.381   3.623 -1.7802 -0.1434  0.0511
 2017SOL    HW217685   2.164   3.520   3.673 -1.2857  0.0855 -0.2769
 2018SOL     OW17686   4.728   4.709   5.375 -0.0058  0.0961 -0.1534
 2018SOL    HW117687   4.733   4.623   5.416 -0.7855 -0.0773 -0.4223
 2018SOL    HW217688   4.638   4.714   5.343  0.1567 -0.7556 -0.7250
 2019SOL     OW17689   4.190   3.264   4.385 -0.2069 -0.0245 -0.2035
 2019SOL    HW117690   4.262   3.317   4.351  0.7749 -1.7410 -0.7933
 2019SOL    HW217691   4.120   3.323   4.359 -0.1123  0.2240  0.1070
 2020SOL     OW17692   4.214   4.274  11.056 -0.3362 -0.2635 -0.2519
 2020SOL    HW117693   4.259   4.217  10.994  0.9129  2.2564 -1.6331
 2020SOL    HW217694   4.273   4.347  11.073 -0.1558 -0.1808 -1.2300
 2021SOL     OW17695   0.071   4.197  16.121  0.0808  0.0656  0.7465
 2021SOL    HW117696   0.064   4.194  16.216  0.2410  0.4220  0.7719
 2021SOL    HW217697   0.048   4.289  16.103  2.6628  0.2936 -1.4012
 2022SOL     OW17698   1.994   4.028  15.212  0.4951 -0.0099  0.0151
 2022SOL    HW117699   2.073   3.978  15.190  1.5415  0.7758  1.9681
 2022SOL    HW217700   2.034   4.087  15.277 -0.9967 -0.0808  0.9891
 2023SOL     OW17701   3.252   1.876   7.008 -0.3890 -0.2790 -0.0305
 2023SOL    HW117702   3.228   1.842   7.094  0.4719  0.6930  0.5854
 2023SOL    HW217703   3.168   1.860   6.964 -0.0590  1.0739 -1.1851
 2024SOL     OW17704   0.767   0.264   2.881 -0.4758  0.1661 -0.2849
 2024SOL    HW117705   0.679   0.261   2.844  0.8297 -0.9192 -3.3129
 2024SOL    HW217706   0.771   0.179   2.924  2.7776  0.6845  0.4411
 2025SOL     OW17707   0.087   1.483   2.470  0.3332  0.3774  0.2843
 2025SOL    HW117708   0.126   1.543   2.534 -0.9838  0.2547  1.2126
 2025SOL    HW217709   4.733   1.478   2.503  0.2597  0.6839  0.1261
 2026SOL     OW17710   1.189   3.789  16.949 -0.4635 -0.1125  0.0681
 2026SOL    HW117711   1.117   3.810  17.010  0.4987 -1.3841  1.6344
 2026SOL    HW217712   1.217   3.875  16.917 -0.7864 -0.2788 -0.6483
 2027SOL     OW17713   1.997   1.962  11.622  0.2389 -0.8240 -0.3290
 2027SOL    HW117714   1.963   2.050  11.605 -1.3568 -1.3187  0.3751
 2027SOL    HW217715   1.922   1.904  11.630  0.0483 -0.6147 -0.5780
 2028SOL     OW17716   4.530   0.625   4.893  0.4755  0.4300  0.7051
 2028SOL    HW117717   4.436   0.623   4.913  0.1749 -0.8636 -0.8136
 2028SOL    HW217718   4.542   0.536   4.861  1.2906  0.6230  0.4636
 2029SOL     OW17719   2.674   0.237   4.898  0.0383  0.3190 -0.4953
 2029SOL    HW117720   2.629   0.170   4.847  0.7179  0.4233 -1.2480
 2029SOL    HW217721   2.624   0.316   4.876 -1.2946 -0.7266 -1.2232
 2030SOL     OW17722   1.064   0.345   8.180  0.3336  0.5372  0.1408
 2030SOL    HW117723   1.054   0.250   8.177  1.2988  0.3534  2.5109
 2030SOL    HW217724   1.147   0.366   8.223  0.6394 -0.0511 -0.1558
 2031SOL     OW17725   3.934   0.053   7.252  0.0325  0.0999 -0.0865
 2031SOL    HW117726   3.992   0.109   7.303 -2.1517  1.8380  0.4620
 2031SOL    HW217727   3.861   0.050   7.313 -0.4944  0.8973 -0.6672
 2032SOL     OW17728   3.737   3.459   9.972  0.1315 -0.3983 -0.7355
 2032SOL    HW117729   3.726   3.433   9.880  2.9330 -0.1006 -1.1446
 2032SOL    HW217730   3.682   3.537   9.980  0.6038 -0.2746  1.3064
 2033SOL     OW17731   2.869   0.835   3.394  0.3153  0.1416  0.1761
 2033SOL    HW117732   2.838   0.834   3.304  0.9063  1.8359 -0.0529
 2033SOL    HW217733   2.852   0.928   3.414  0.3451 -0.5193  3.3740
 2034SOL     OW17734   0.556   4.463   6.712  0.7733  0.1568  0.3542
 2034SOL    HW117735   0.552   4.551   6.748  1.8087  0.7030 -0.8626
 2034SOL    HW217736   0.582   4.475   6.621  1.7478 -1.7705  0.3678
 2035SOL     OW17737   2.174   3.167   5.735  0.2457 -0.8870  0.7192
 2035SOL    HW117738   2.144   3.096   5.679  0.3172  0.4576 -1.0216
 2035SOL    HW217739   2.180   3.129   5.823  2.5671 -1.5885  0.2707
 2036SOL     OW17740   2.985   0.326   3.068 -0.2479  0.0425 -0.2850
 2036SOL    HW117741   2.905   0.371   3.095 -2.0933 -2.3256 -1.8304
 2036SOL    HW217742   2.990   0.321   2.972  0.1714  1.4023 -0.3344
 2037SOL     OW17743   1.768   2.797   5.617 -0.0637  0.2214 -0.0309
 2037SOL    HW117744   1.803   2.820   5.703 -0.0509  2.5237 -0.6576
 2037SOL    HW217745   1.843   2.747   5.584  0.0736 -0.1034  0.7602
 2038SOL     OW17746   3.689   3.084   8.432 -0.2724  0.2441  0.4254
 2038SOL    HW117747   3.623   3.098   8.500  0.0833  0.1755  0.7827
 2038SOL    HW217748   3.730   3.169   8.416 -1.2078  1.3543  3.9532
 2039SOL     OW17749   2.497   3.764   0.544  0.0566  0.3660  0.1679
 2039SOL    HW117750   2.558   3.699   0.578 -1.1702 -0.4397  0.8488
 2039SOL    HW217751   2.463   3.789   0.630  0.2311 -0.3509  0.4467
 2040SOL     OW17752   3.331   0.953  13.656 -0.4040  0.0343  0.0445
 2040SOL    HW117753   3.290   0.984  13.737  0.6795  1.5038  0.0346
 2040SOL    HW217754   3.299   1.013  13.588  0.1098  0.4042  0.1280
 2041SOL     OW17755   3.262   1.781  16.651  0.1339  0.1196 -0.8179
 2041SOL    HW117756   3.283   1.866  16.612 -0.4395 -0.9250 -3.3622
 2041SOL    HW217757   3.315   1.721  16.599  0.8805  1.0550 -1.1388
 2042SOL     OW17758   0.145   1.238   2.545  0.0283 -0.0663 -0.3486
 2042SOL    HW117759   0.150   1.333   2.534 -0.1165 -0.2323 -1.8291
 2042SOL    HW217760   0.119   1.222   2.454  1.2970 -0.1679 -0.6994
 2043SOL     OW17761   0.674   1.585   6.335  0.4491 -0.0067 -0.0600
 2043SOL    HW117762   0.745   1.528   6.305  0.9940  0.0035  1.2139
 2043SOL    HW217763   0.701   1.600   6.425  0.6008  1.7757 -0.3960
 2044SOL     OW17764   0.140   4.120   3.589 -0.5456  0.2347  0.1502
 2044SOL    HW117765   0.185   4.113   3.673 -1.1469 -0.1126  0.4504
 2044SOL    HW217766   0.166   4.207   3.559  1.1341 -0.1665  0.4706
 2045SOL     OW17767   2.922   0.484   8.171  0.1271 -0.3312  0.1277
 2045SOL    HW117768   2.833   0.456   8.147 -0.6269  0.4698  2.0396
 2045SOL    HW217769   2.949   0.534   8.093 -0.0489  1.3946  1.1737
 2046SOL     OW17770   2.559   4.592   6.248 -0.5471 -0.1576 -0.0361
 2046SOL    HW117771   2.500   4.516   6.253  0.0047 -0.5618  0.3077
 2046SOL    HW217772   2.588   4.598   6.339 -0.3759  3.1203 -0.3129
 2047SOL     OW17773   1.224   1.003  17.538 -0.0409 -0.4345  0.0678
 2047SOL    HW117774   1.205   0.936  17.473 -1.8335  0.6410 -0.5174
 2047SOL    HW217775   1.317   0.989  17.552  0.4934  1.1640 -1.8573
 2048SOL     OW17776   1.205   1.075   5.083  0.0079 -0.1792 -0.2292
 2048SOL    HW117777   1.155   1.133   5.140  0.8192 -1.2125  1.5506
 2048SOL    HW217778   1.139   1.010   5.059 -0.4260  0.4794 -0.8249
 2049SOL     OW17779   4.551   3.875   7.570 -0.0647  0.0515  0.3207
 2049SOL    HW117780   4.532   3.795   7.520  0.3406 -0.0240  0.2912
 2049SOL    HW217781   4.617   3.834   7.625 -0.8215 -1.1277  0.3470
 2050SOL     OW17782   0.332   2.094   3.497  0.3178  0.1827  0.1245
 2050SOL    HW117783   0.306   2.185   3.481  1.4377  0.7767  1.6493
 2050SOL    HW217784   0.245   2.055   3.505  0.7482 -1.2858 -2.1983
 2051SOL     OW17785   0.033   0.328   6.980 -0.4357  0.6759 -0.1093
 2051SOL    HW117786   0.106   0.322   7.042  1.1793  1.3583 -1.9559
 2051SOL    HW217787   0.049   0.407   6.929  1.2690 -0.5170 -1.4405
 2052SOL     OW17788   3.181   1.504   6.944 -0.1511 -0.0748  0.1233
 2052SOL    HW117789   3.089   1.487   6.924  0.1542  0.7616 -2.0191
 2052SOL    HW217790   3.186   1.590   6.901  0.3889  1.0231  2.3844
 2053SOL     OW17791   2.711   1.002   4.672  0.2582 -0.4755 -0.1592
 2053SOL    HW117792   2.637   1.033   4.620 -0.1060  1.3934  1.4288
 2053SOL    HW217793   2.780   1.059   4.640 -0.0610 -1.0280 -1.8156
 2054SOL     OW17794   0.166   0.948   5.864 -0.1187  0.1734  0.4841
 2054SOL    HW117795   0.201   0.921   5.779 -1.6955  1.1927 -0.4818
 2054SOL    HW217796   0.169   0.864   5.910 -0.3326 -0.3638 -0.4650
 2055SOL     OW17797   4.521   1.911   5.493 -0.6812  0.1835  0.0442
 2055SOL    HW117798   4.456   1.896   5.562 -0.6342 -2.0553 -0.3918
 2055SOL    HW217799   4.478   1.982   5.445 -2.4753  0.9235  2.7438
 2056SOL     OW17800   2.738   3.414   7.414 -0.2872  0.1068 -0.2179
 2056SOL    HW117801   2.650   3.452   7.409 -0.1688  0.2517 -1.2738
 2056SOL    HW217802   2.730   3.351   7.485  0.6885  0.6388  0.3680
 2057SOL     OW17803   2.263   3.955  10.899 -0.2899  0.4486  0.2595
 2057SOL    HW117804   2.190   3.982  10.843  0.5868  2.1333 -0.0840
 2057SOL    HW217805   2.211   3.890  10.946 -1.8243  0.1124 -1.8803
 2058SOL     OW17806   0.337   0.747   3.844  0.3279 -0.1053  0.1058
 2058SOL    HW117807   0.406   0.748   3.910  2.0519 -0.3694 -1.7150
 2058SOL    HW217808   0.319   0.653   3.837 -3.6010  0.3204  4.2037
 2059SOL     OW17809   4.543   4.697   6.560  0.7123 -0.4850 -0.4152
 2059SOL    HW117810   4.611   0.013   6.517  0.0678 -0.4812 -1.4268
 2059SOL    HW217811   4.501   4.656   6.484 -1.7634 -0.9472  1.1936
 2060SOL     OW17812   3.186   4.179  17.284 -0.0811 -0.1192  0.0066
 2060SOL    HW117813   3.274   4.142  17.276 -0.4517 -0.6898 -1.4194
 2060SOL    HW217814   3.171   4.172  17.378 -0.9108  0.7920 -0.0617
 2061SOL     OW17815   4.024   3.465  11.382  0.4518 -0.3072 -0.1762
 2061SOL    HW117816   4.065   3.518  11.450  1.6419 -0.2803 -0.9232
 2061SOL    HW217817   3.993   3.533  11.322 -1.1056 -0.1089  0.8469
 2062SOL     OW17818   4.719   4.141  13.977  0.2552  0.0865 -0.2689
 2062SOL    HW117819   0.032   4.216  13.942  0.6408  1.4484  3.1890
 2062SOL    HW217820   4.673   4.187  14.047 -1.0735 -2.5429  0.5750
 2063SOL     OW17821   2.499   1.695   0.881  0.3649 -0.0008  0.6418
 2063SOL    HW117822   2.491   1.790   0.890  1.2874  0.1236  0.2001
 2063SOL    HW217823   2.496   1.684   0.786  0.5298  2.0908  0.3952
 2064SOL     OW17824   0.824   4.565   1.475 -0.9618  0.3063 -0.0349
 2064SOL    HW117825   0.801   4.472   1.474  0.0586  0.0538  0.1850
 2064SOL    HW217826   0.849   4.572   1.383  1.0987 -1.9974  0.3442
 2065SOL     OW17827   3.069   2.465  15.841 -0.5507  0.9208  0.4685
 2065SOL    HW117828   3.097   2.389  15.789 -2.5282 -2.2862  4.1387
 2065SOL    HW217829   3.010   2.508  15.779 -1.5680 -0.7014  0.3099
 2066SOL     OW17830   2.654   1.120   4.082 -0.0558  0.1149  0.2241
 2066SOL    HW117831   2.733   1.128   4.028  0.2811  0.9476  0.8390
 2066SOL    HW217832   2.657   1.192   4.145  0.9351  1.1753 -1.0428
 2067SOL     OW17833   0.193   3.389   3.292  0.5583 -0.3588  0.0795
 2067SOL    HW117834   0.147   3.473   3.296 -2.9980 -2.1338 -2.9605
 2067SOL    HW217835   0.124   3.326   3.271  0.4478  0.0304 -0.7589
 2068SOL     OW17836   1.901   1.848   5.260 -0.2088 -0.1311 -0.0374
 2068SOL    HW117837   1.965   1.891   5.316 -0.6653  0.0331  0.3645
 2068SOL    HW217838   1.955   1.805   5.195  0.2856  0.4213  0.0144
 2069SOL     OW17839   3.025   2.283   2.630 -0.0726  0.0703  0.6042
 2069SOL    HW117840   2.995   2.262   2.541 -1.8434 -0.0204  1.2308
 2069SOL    HW217841   3.026   2.196   2.670  0.7319  0.3956  1.3068
 2070SOL     OW17842   2.270   2.501   3.447 -0.1827  0.1517  0.2110
 2070SOL    HW117843   2.358   2.466   3.463  0.6394  1.1934 -2.0140
 2070SOL    HW217844   2.251   2.459   3.363  0.4896  1.6085 -0.6790
 2071SOL     OW17845   3.179   1.576   5.051  0.3753  0.6581 -0.1814
 2071SOL    HW117846   3.159   1.607   5.139  3.1765 -1.0066  1.0254
 2071SOL    HW217847   3.117   1.633   5.004 -0.9033 -2.3261 -2.1097
 2072SOL     OW17848   0.448   1.713   1.539 -0.8820 -0.0189 -0.1419
 2072SOL    HW117849   0.378   1.738   1.600  1.0705  0.7399  1.8002
 2072SOL    HW217850   0.411   1.640   1.489 -1.2851 -0.8655  1.3652
 2073SOL     OW17851   0.629   1.524   3.113 -0.0981 -0.1214 -0.3111
 2073SOL    HW117852   0.598   1.501   3.200 -0.4448 -1.3342 -0.7451
 2073SOL    HW217853   0.675   1.441   3.097  0.6343 -0.0138  1.2880
 2074SOL     OW17854   0.488   4.352   4.458  0.0647  0.2864 -0.2057
 2074SOL    HW117855   0.478   4.276   4.515  0.3990 -0.2398 -0.8620
 2074SOL    HW217856   0.536   4.407   4.521  1.5977 -0.9971 -0.2567
 2075SOL     OW17857   0.717   2.268   5.748 -0.1485 -0.4702  0.4611
 2075SOL    HW117858   0.721   2.180   5.709 -0.6299  0.5769 -1.9403
 2075SOL    HW217859   0.738   2.251   5.840  0.5978  3.5110  1.0120
 2076SOL     OW17860   3.719   4.669   6.866  0.6614 -0.1331 -0.4131
 2076SOL    HW117861   3.643   4.723   6.846  0.4375 -0.0580  0.6361
 2076SOL    HW217862   3.779   4.694   6.796 -0.8962 -1.8187 -2.3369
 2077SOL     OW17863   4.301   2.326  12.591 -0.3695 -0.2987 -0.9156
 2077SOL    HW117864   4.325   2.238  12.620 -3.1814 -0.9232 -0.4621
 2077SOL    HW217865   4.298   2.377  12.672 -0.0512 -0.5071 -0.7771
 2078SOL     OW17866   0.029   2.642   6.209 -0.7270 -0.0321  0.4444
 2078SOL    HW117867   4.684   2.647   6.259 -1.0125 -4.2977  0.4018
 2078SOL    HW217868   0.068   2.725   6.236  0.6845  0.0639 -1.8879
 2079SOL     OW17869   2.861   4.506   9.239 -0.3215 -0.4534  0.1060
 2079SOL    HW117870   2.910   4.436   9.282 -1.3689 -0.8643  0.6293
 2079SOL    HW217871   2.820   4.548   9.314 -0.0874  1.2702 -0.7216
 2080SOL     OW17872   4.367   4.646  12.852 -0.4156 -0.1521  0.3664
 2080SOL    HW117873   4.371   4.686  12.939  0.3722  2.7852 -1.0301
 2080SOL    HW217874   4.455   4.609  12.856 -0.5944 -0.5847  0.2655
 2081SOL     OW17875   3.129   4.686   7.783  0.2855 -0.1071 -0.4888
 2081SOL    HW117876   3.074   4.614   7.816  0.1943  0.2790  0.1838
 2081SOL    HW217877   3.207   4.642   7.750  1.3913  0.5732  1.2802
 2082SOL     OW17878   3.215   2.800  14.983 -0.5596 -0.0782 -0.9341
 2082SOL    HW117879   3.228   2.763  15.070  1.9148  0.8779 -0.9144
 2082SOL    HW217880   3.298   2.843  14.965  0.7966 -2.2767  0.0551
 2083SOL     OW17881   1.182   2.879  10.771 -1.0045 -0.2450 -0.2789
 2083SOL    HW117882   1.208   2.870  10.679 -0.8656 -3.4113  0.0624
 2083SOL    HW217883   1.197   2.791  10.805  1.1629  0.0674 -0.4136
 2084SOL     OW17884   2.892   1.860   6.987 -0.1396 -0.2564  0.2108
 2084SOL    HW117885   2.932   1.940   7.021  0.3758  0.4525 -2.0886
 2084SOL    HW217886   2.815   1.855   7.045  0.4034 -1.4569  0.8130
 2085SOL     OW17887   4.688   2.352   7.027  0.4224 -0.4648 -0.2912
 2085SOL    HW117888   0.018   2.388   7.086 -1.3692 -0.5073  1.7593
 2085SOL    HW217889   4.723   2.375   6.941  3.0368 -0.6204  0.7278
 2086SOL     OW17890   1.542   1.665   5.311  0.6108  0.0062 -0.0933
 2086SOL    HW117891   1.507   1.688   5.397 -3.8525 -1.6861 -1.4463
 2086SOL    HW217892   1.565   1.749   5.271 -0.6339  0.3425 -0.1221
 2087SOL     OW17893   3.516   4.718  14.424 -0.2231  0.2443  0.6182
 2087SOL    HW117894   3.441   0.029  14.458 -0.5580  0.3424 -0.2441
 2087SOL    HW217895   3.470   4.635  14.410  0.3383  0.5782 -3.2748
 2088SOL     OW17896   4.366   0.473  16.151  0.0606  0.4168 -0.1565
 2088SOL    HW117897   4.301   0.543  16.154 -0.9492 -0.5951  1.2685
 2088SOL    HW217898   4.413   0.482  16.068  1.8723  1.2490  0.9633
 2089SOL     OW17899   3.377   1.062  10.870  0.0133  0.1049  0.3104
 2089SOL    HW117900   3.447   1.005  10.839  1.0429  1.5943 -0.1282
 2089SOL    HW217901   3.417   1.070  10.956  0.0365 -0.3755  0.3389
 2090SOL     OW17902   0.984   3.120   5.525  0.8754  0.1860 -0.1036
 2090SOL    HW117903   1.023   3.033   5.514  1.6424  0.4202  0.8560
 2090SOL    HW217904   1.060   3.170   5.496  1.5412 -0.4046  0.6322
 2091SOL     OW17905   0.969   4.650   9.229  0.1797 -0.4936 -0.3624
 2091SOL    HW117906   1.031   4.674   9.161 -0.1419 -0.3143 -0.5939
 2091SOL    HW217907   0.960   4.555   9.222  2.2312 -0.7381  0.5502
 2092SOL     OW17908   2.685   1.653   1.803  1.2338 -0.1614  0.2523
 2092SOL    HW117909   2.670   1.737   1.761  1.7943 -0.2917 -0.2054
 2092SOL    HW217910   2.592   1.640   1.821  1.3004  1.1447  1.5173
 2093SOL     OW17911   2.017   1.837   2.402  0.1024  0.1739 -0.1393
 2093SOL    HW117912   2.091   1.807   2.349 -0.8123 -1.9943 -0.2065
 2093SOL    HW217913   2.054   1.884   2.476 -0.6948  1.8238 -0.7944
 2094SOL     OW17914   2.448   2.940   8.395 -0.3765  0.2676  0.3277
 2094SOL    HW117915   2.447   2.998   8.319  2.1726  1.8810  1.5464
 2094SOL    HW217916   2.397   2.985   8.462 -0.4997  0.7232 -0.0777
 2095SOL     OW17917   1.104   0.113   3.138  0.2721  0.0724 -0.2631
 2095SOL    HW117918   1.030   0.095   3.196  1.8187  0.7600  1.9200
 2095SOL    HW217919   1.175   0.093   3.198 -1.0156 -0.4699  1.0863
 2096SOL     OW17920   0.150   4.601  10.329 -0.2533  0.3115  0.6232
 2096SOL    HW117921   0.201   4.645  10.398 -0.7958  1.7715  0.0797
 2096SOL    HW217922   0.099   4.675  10.298 -1.0394 -0.6657 -0.3822
 2097SOL     OW17923   3.911   0.263   4.540  0.2178 -0.5679  0.9657
 2097SOL    HW117924   3.881   0.323   4.607 -0.6195 -1.7561  1.6581
 2097SOL    HW217925   3.992   0.241   4.586  0.3320 -1.3914  0.3890
 2098SOL     OW17926   2.627   4.410   5.878 -0.4307  0.3182  0.1255
 2098SOL    HW117927   2.721   4.393   5.878 -0.5636 -0.4537 -0.2006
 2098SOL    HW217928   2.603   4.318   5.891  1.3903 -0.5548 -2.7020
 2099SOL     OW17929   0.945   2.344   2.883 -0.6235 -0.2937  0.1710
 2099SOL    HW117930   0.906   2.431   2.895 -0.1493 -0.3331  2.0160
 2099SOL    HW217931   0.876   2.298   2.932  0.9588 -4.6264 -1.6310
 2100SOL     OW17932   2.861   4.264   6.303 -0.5151 -0.5562 -0.0961
 2100SOL    HW117933   2.822   4.178   6.287  1.2457 -1.2232 -0.8038
 2100SOL    HW217934   2.802   4.294   6.372  0.0324  0.3506 -0.0276
 2101SOL     OW17935   2.349   2.234  12.075  0.4404 -0.2703  0.0600
 2101SOL    HW117936   2.407   2.159  12.059 -1.3757 -1.9694  1.4136
 2101SOL    HW217937   2.265   2.194  12.053  1.9795 -2.0830 -2.6022
 2102SOL     OW17938   1.326   0.314   4.265 -0.4937 -0.2460  0.0248
 2102SOL    HW117939   1.327   0.259   4.343 -0.3826 -1.6808 -0.9768
 2102SOL    HW217940   1.256   0.376   4.286  0.4159  0.2013  1.6759
 2103SOL     OW17941   3.514   3.924   6.087 -0.3535  0.3923 -0.0853
 2103SOL    HW117942   3.488   3.919   5.996 -1.6097 -2.5861  0.4265
 2103SOL    HW217943   3.439   3.890   6.136 -1.0087  0.1207 -1.2935
 2104SOL     OW17944   2.149   4.478   7.522  0.1686  0.0340  0.1817
 2104SOL    HW117945   2.214   4.521   7.577  0.3984 -0.2737  0.1554
 2104SOL    HW217946   2.204   4.420   7.469 -1.4189 -1.9477  0.6741
 2105SOL     OW17947   1.445   1.789  17.734 -0.3572 -0.5813 -0.5763
 2105SOL    HW117948   1.540   1.801  17.727 -0.0795 -2.5871 -0.1044
 2105SOL    HW217949   1.412   1.825  17.652 -3.8746  0.9968  1.5561
 2106SOL     OW17950   4.355   1.110  12.697 -0.1039  0.6965 -0.5415
 2106SOL    HW117951   4.422   1.155  12.748  0.0109  0.1003 -0.1761
 2106SOL    HW217952   4.385   1.020  12.707  1.3477  1.2689  0.2416
 2107SOL     OW17953   1.035   4.221   7.326 -0.6740  0.6988  0.2485
 2107SOL    HW117954   1.108   4.196   7.382 -0.8099  2.4202  1.1938
 2107SOL    HW217955   0.985   4.270   7.391 -2.5129 -2.2173  1.0054
 2108SOL     OW17956   1.692   3.544  11.508  0.3026  0.5811  0.0036
 2108SOL    HW117957   1.630   3.617  11.513  1.0684  1.3070 -0.8800
 2108SOL    HW217958   1.634   3.472  11.533  0.6821 -0.0827 -1.0083
 2109SOL     OW17959   4.090   4.094   0.248  0.3983  0.9856  0.0148
 2109SOL    HW117960   4.022   4.063   0.188  1.2970 -3.2610  1.2552
 2109SOL    HW217961   4.169   4.092   0.193  0.0241  0.6921 -0.5011
 2110SOL     OW17962   4.561   3.694   7.002  0.4258 -0.4654  0.6864
 2110SOL    HW117963   4.624   3.734   7.062 -0.6949  1.0322  0.8495
 2110SOL    HW217964   4.538   3.771   6.951 -0.6191 -0.2034  1.5586
 2111SOL     OW17965   2.854   1.572  10.629 -0.7479 -0.6110 -0.3723
 2111SOL    HW117966   2.915   1.498  10.635  0.3307  0.3812  1.0215
 2111SOL    HW217967   2.896   1.636  10.687  2.4492 -1.6703 -1.5289
 2112SOL     OW17968   2.288   0.437   8.110 -0.1319  0.0967  0.0879
 2112SOL    HW117969   2.308   0.524   8.077  0.1822 -0.3744 -0.9578
 2112SOL    HW217970   2.338   0.442   8.192  0.1188 -0.6979 -0.0204
 2113SOL     OW17971   3.229   0.257  17.033  0.2426 -0.4138 -0.4622
 2113SOL    HW117972   3.175   0.269  17.112  1.0308 -1.9757  0.3183
 2113SOL    HW217973   3.168   0.276  16.962 -1.8801 -2.8809  0.7003
 2114SOL     OW17974   1.700   1.679   8.929  0.3216  0.4283 -0.2495
 2114SOL    HW117975   1.659   1.674   8.843 -3.8342  0.3027  1.7552
 2114SOL    HW217976   1.632   1.717   8.985  0.8411  1.5756 -0.4120
 2115SOL     OW17977   4.009   2.822   5.276  0.1205 -0.3795 -0.0804
 2115SOL    HW117978   3.942   2.756   5.293  0.7546 -0.7302  1.1003
 2115SOL    HW217979   4.032   2.785   5.190  1.8093  0.7731 -0.1185
 2116SOL     OW17980   4.099   2.909  16.495 -0.0335  0.2523  0.0181
 2116SOL    HW117981   4.054   2.993  16.505 -1.7706 -0.7277  0.4238
 2116SOL    HW217982   4.025   2.858  16.461  0.7529 -1.1371  0.4122
 2117SOL     OW17983   2.622   4.439   1.757 -0.0838  0.2802 -0.2212
 2117SOL    HW117984   2.674   4.476   1.687 -1.3516  0.2809 -1.1602
 2117SOL    HW217985   2.551   4.397   1.709  0.3023 -0.9144  0.2282
 2118SOL     OW17986   4.548   3.166   6.718  0.0439  0.0404  0.5615
 2118SOL    HW117987   4.539   3.238   6.655  0.5194 -0.5485 -0.1841
 2118SOL    HW217988   4.544   3.204   6.806 -0.2242 -1.3265  1.1376
 2119SOL     OW17989   1.722   2.503   9.242 -0.1471 -0.0279 -0.1011
 2119SOL    HW117990   1.716   2.479   9.335 -0.4311 -1.0678 -0.3871
 2119SOL    HW217991   1.746   2.595   9.246  0.3034 -0.0873 -1.5267
 2120SOL     OW17992   1.438   4.697   5.496 -0.4461  0.1004 -0.3131
 2120SOL    HW117993   1.388   0.008   5.429  0.6969 -0.0983 -1.3129
 2120SOL    HW217994   1.453   4.617   5.445 -1.2335 -0.0242 -0.3470
 2121SOL     OW17995   1.648   1.719   4.123  0.5995 -0.2857  0.5299
 2121SOL    HW117996   1.619   1.724   4.214  1.7372 -1.0002  0.9261
 2121SOL    HW217997   1.567   1.721   4.073  0.1413 -1.1686  1.2391
 2122SOL     OW17998   1.772   0.796  11.685 -0.2873  0.0009 -0.3567
 2122SOL    HW117999   1.787   0.782  11.778 -3.9210  2.2591  0.5729
 2122SOL    HW218000   1.738   0.709  11.667  1.0778 -0.7408  0.6740
 2123SOL     OW18001   1.740   1.663   3.352 -0.6814 -0.4854 -1.1937
 2123SOL    HW118002   1.664   1.613   3.323 -0.6712 -1.0227 -0.2921
 2123SOL    HW218003   1.715   1.670   3.444 -0.8577 -1.3629 -1.1710
 2124SOL     OW18004   3.674   3.538   9.579  0.0832  0.3811 -0.1106
 2124SOL    HW118005   3.656   3.452   9.617 -1.0205  1.0435  0.8520
 2124SOL    HW218006   3.714   3.503   9.499  1.2601  0.6037  0.3785
 2125SOL     OW18007   3.857   2.239   1.437 -0.6655 -0.3478 -0.1478
 2125SOL    HW118008   3.780   2.296   1.439  1.2202  2.1913 -0.3315
 2125SOL    HW218009   3.927   2.296   1.408 -1.7629  0.4686 -1.1945
 2126SOL     OW18010   2.382   0.415   3.581  0.3440  0.3269 -1.0702
 2126SOL    HW118011   2.432   0.486   3.540 -1.0596  1.8123 -0.2076
 2126SOL    HW218012   2.315   0.470   3.621  2.2017  0.4035  1.9445
 2127SOL     OW18013   2.713   1.728   9.606 -0.2455 -0.0297 -0.5248
 2127SOL    HW118014   2.803   1.760   9.619 -0.9759  1.2490  1.2904
 2127SOL    HW218015   2.676   1.776   9.680 -0.9800 -0.2303 -0.7652
 2128SOL     OW18016   1.467   4.101  17.037  0.0317  0.6124 -0.0336
 2128SOL    HW118017   1.508   4.023  17.074  0.2443 -0.4242 -2.4878
 2128SOL    HW218018   1.407   4.129  17.106  2.6481  0.7282  2.2264
 2129SOL     OW18019   2.329   1.677   7.422  0.0959 -0.6703  0.0778
 2129SOL    HW118020   2.276   1.726   7.360  0.8164  0.0263  0.0245
 2129SOL    HW218021   2.355   1.751   7.478  0.5804 -0.6329 -0.2013
 2130SOL     OW18022   2.715   3.693  15.785 -0.0060  0.6514  0.3377
 2130SOL    HW118023   2.802   3.702  15.747  0.4776 -1.5236  0.9262
 2130SOL    HW218024   2.664   3.667  15.708 -0.9849  1.2248  0.7839
 2131SOL     OW18025   4.407   4.572   8.857 -0.5885  0.1838  0.0234
 2131SOL    HW118026   4.323   4.535   8.886 -1.7761  2.4746 -0.5293
 2131SOL    HW218027   4.458   4.538   8.931  1.4524  3.3778  0.0749
 2132SOL     OW18028   0.260   2.891   1.599  0.3852 -0.0263  0.1711
 2132SOL    HW118029   0.330   2.895   1.664 -1.7135 -0.8976  2.4682
 2132SOL    HW218030   0.254   2.795   1.592 -0.8243  0.0220  0.4746
 2133SOL     OW18031   3.623   0.414   3.441  0.1626 -0.1634  0.0110
 2133SOL    HW118032   3.652   0.436   3.529 -1.3601  1.6655  0.0604
 2133SOL    HW218033   3.531   0.439   3.444  0.4395  1.0073 -0.7718
 2134SOL     OW18034   1.096   2.697   6.855  0.0767  0.6008 -0.1860
 2134SOL    HW118035   1.164   2.656   6.802 -1.8950 -0.7627 -1.6350
 2134SOL    HW218036   1.142   2.777   6.882  1.8124  0.0243 -1.4695
 2135SOL     OW18037   3.262   4.583   4.322  0.7467  0.0314 -0.0665
 2135SOL    HW118038   3.188   4.522   4.316  0.4811  0.0349  3.6235
 2135SOL    HW218039   3.210   4.658   4.291  2.1399  1.9276  2.2179
 2136SOL     OW18040   4.010   2.751   9.481 -0.0893  0.0513  0.2857
 2136SOL    HW118041   3.993   2.845   9.480  0.2028  0.1140  1.3090
 2136SOL    HW218042   3.929   2.709   9.509 -0.9643  1.4446 -0.1866
 2137SOL     OW18043   2.886   2.301   7.512 -0.0949 -0.0278  0.7481
 2137SOL    HW118044   2.889   2.238   7.584 -0.9677 -2.3121 -1.2247
 2137SOL    HW218045   2.898   2.240   7.440  2.9659  1.9458 -0.4142
 2138SOL     OW18046   3.078   4.305  13.561 -0.8004  0.2276 -0.8658
 2138SOL    HW118047   3.065   4.257  13.643  1.0442 -1.3173 -1.4720
 2138SOL    HW218048   3.155   4.355  13.590 -3.7758  3.0598  2.2155
 2139SOL     OW18049   3.522   0.645  11.416  0.0998  0.2831 -0.0666
 2139SOL    HW118050   3.519   0.572  11.478  2.9906 -0.4766 -0.8515
 2139SOL    HW218051   3.485   0.716  11.468  1.4869  0.3426  0.8162
 2140SOL     OW18052   0.738   2.604   0.435 -0.3449 -0.4578  0.7554
 2140SOL    HW118053   0.707   2.660   0.506  0.0082 -0.2225  0.7255
 2140SOL    HW218054   0.808   2.663   0.404 -1.8084  0.1048 -1.4719
 2141SOL     OW18055   1.725   1.811  17.680  0.0100  0.1873 -0.0595
 2141SOL    HW118056   1.807   1.843  17.641  1.6871 -1.2756  2.2885
 2141SOL    HW218057   1.733   1.719  17.657 -1.0282  0.9845 -3.5946
 2142SOL     OW18058   4.244   1.017   9.433  0.2422  0.2564  0.1879
 2142SOL    HW118059   4.321   1.006   9.378 -0.6522  2.8297 -1.5473
 2142SOL    HW218060   4.204   1.090   9.387  0.3186 -0.1646 -0.5413
 2143SOL     OW18061   1.558   4.398  13.809  0.0994  0.3057  0.3212
 2143SOL    HW118062   1.653   4.387  13.817  0.3811  0.6744 -2.2459
 2143SOL    HW218063   1.551   4.362  13.720  4.0132  0.3348 -0.0057
 2144SOL     OW18064   2.598   1.233   5.444  0.0620  0.0225 -0.7440
 2144SOL    HW118065   2.653   1.290   5.497 -0.1927 -0.0490 -0.4044
 2144SOL    HW218066   2.640   1.147   5.448 -1.9822 -0.9507  0.0333
 2145SOL     OW18067   2.376   1.878   6.041 -0.0288 -0.2113 -0.2064
 2145SOL    HW118068   2.409   1.790   6.024  2.2315  0.9098 -1.5910
 2145SOL    HW218069   2.292   1.860   6.084 -0.2600  0.1396 -0.5173
 2146SOL     OW18070   4.618   2.281   9.504 -0.0581 -0.1934  0.8952
 2146SOL    HW118071   4.667   2.341   9.447  2.0236 -1.1564  1.6821
 2146SOL    HW218072   4.587   2.349   9.563  1.3837 -0.0769  1.5115
 2147SOL     OW18073   2.745   1.887  10.790  0.3209 -0.0021  0.2710
 2147SOL    HW118074   2.657   1.860  10.815  0.5845 -0.6325  0.5195
 2147SOL    HW218075   2.746   1.977  10.822  0.0330  0.4926 -1.0828
 2148SOL     OW18076   0.624   4.346   6.950  0.1722 -0.5277  0.5709
 2148SOL    HW118077   0.594   4.393   6.872 -0.1957 -3.4125 -1.0509
 2148SOL    HW218078   0.652   4.413   7.012  1.4221 -0.8181  0.3161
 2149SOL     OW18079   0.752   0.430   0.812  0.3673 -0.1544 -0.1195
 2149SOL    HW118080   0.656   0.429   0.813  0.4189 -1.5539  3.0687
 2149SOL    HW218081   0.764   0.524   0.798 -0.6477  0.2837  1.9665
 2150SOL     OW18082   1.587   1.509   7.071 -0.1025  0.9591  0.1510
 2150SOL    HW118083   1.502   1.546   7.051 -1.2004 -2.0334 -0.7641
 2150SOL    HW218084   1.598   1.461   6.989  0.1710  0.2429  0.5999
 2151SOL     OW18085   1.999   1.324  15.197  0.5292  0.4269  0.1103
 2151SOL    HW118086   2.006   1.362  15.110  0.6358  0.1479 -0.0032
 2151SOL    HW218087   2.025   1.399  15.251  1.3504  0.8663 -0.8869
 2152SOL     OW18088   3.112   3.615   6.454  0.2991 -0.2767 -0.0793
 2152SOL    HW118089   3.183   3.552   6.464 -0.9652 -1.7695 -0.4703
 2152SOL    HW218090   3.114   3.638   6.361 -2.4046 -1.9739 -0.5517
 2153SOL     OW18091   4.644   0.317   6.131  0.7743  0.2621  0.2357
 2153SOL    HW118092   4.598   0.319   6.214  1.0570  0.5665  0.3836
 2153SOL    HW218093   4.708   0.250   6.153  0.4839 -1.1419 -3.0404
 2154SOL     OW18094   3.558   4.128   2.067  0.0925  0.3306  0.3293
 2154SOL    HW118095   3.484   4.189   2.065  0.0982  0.2489 -2.3191
 2154SOL    HW218096   3.573   4.114   1.973 -0.5623  2.6058 -0.1128
 2155SOL     OW18097   4.278   1.021   5.705  0.3211 -0.2798  0.3164
 2155SOL    HW118098   4.306   1.069   5.783 -0.5917 -1.3103  1.2874
 2155SOL    HW218099   4.360   1.005   5.658 -0.8725  1.3259 -2.2802
 2156SOL     OW18100   1.084   2.019   7.861  0.8253  0.4105 -0.0114
 2156SOL    HW118101   1.090   2.052   7.772 -2.6698 -0.8915 -0.7707
 2156SOL    HW218102   1.012   2.073   7.895 -0.8866 -2.8305  1.5843
 2157SOL     OW18103   2.313   0.607   4.599 -0.6639 -0.3439 -0.2980
 2157SOL    HW118104   2.274   0.520   4.594 -0.6835 -0.3854  0.4857
 2157SOL    HW218105   2.291   0.654   4.519 -1.0622 -0.8659 -0.4973
 2158SOL     OW18106   2.770   0.718  13.198  0.4968  0.4811  0.1849
 2158SOL    HW118107   2.722   0.800  13.184 -1.0558 -0.7893 -1.7446
 2158SOL    HW218108   2.724   0.667  13.264 -0.3832  0.6823 -0.2765
 2159SOL     OW18109   1.638   2.329   4.355 -0.4321 -0.3170 -0.1511
 2159SOL    HW118110   1.703   2.399   4.346 -1.2694  0.0103 -3.4673
 2159SOL    HW218111   1.647   2.299   4.446  1.2032  1.6624  0.3376
 2160SOL     OW18112   3.856   2.102   4.476 -0.7746  0.3649  0.1842
 2160SOL    HW118113   3.822   2.061   4.556 -1.6228 -0.1780 -0.4525
 2160SOL    HW218114   3.787   2.167   4.467 -0.8102  0.0471 -1.8891
 2161SOL     OW18115   3.549   3.307   8.697 -0.6251 -0.4780  0.5342
 2161SOL    HW118116   3.528   3.388   8.744 -1.3011 -0.1247 -0.3839
 2161SOL    HW218117   3.560   3.332   8.605 -2.0862  0.7717  0.6987
 2162SOL     OW18118   1.878   1.420   4.408 -0.3356 -0.2067 -0.0982
 2162SOL    HW118119   1.903   1.423   4.316  0.6354 -0.6800  0.1519
 2162SOL    HW218120   1.966   1.410   4.445  0.6212 -1.2716 -2.7484
 2163SOL     OW18121   4.701   3.401   6.322 -0.4007  0.3870 -0.6033
 2163SOL    HW118122   0.057   3.380   6.342 -0.9775 -1.1841  0.4353
 2163SOL    HW218123   4.699   3.496   6.318  1.8253  0.4966  0.6407
 2164SOL     OW18124   3.407   4.261   8.980  0.1952  0.3421 -0.4241
 2164SOL    HW118125   3.490   4.252   9.027  0.6878  2.3665 -0.9040
 2164SOL    HW218126   3.440   4.286   8.894 -0.5230 -1.5205 -1.2399
 2165SOL     OW18127   3.909   3.291   4.645  0.4249 -0.1607  0.0388
 2165SOL    HW118128   3.838   3.236   4.612 -1.1840  1.0348  1.5502
 2165SOL    HW218129   3.902   3.365   4.584 -2.2795  1.8607  2.8274
 2166SOL     OW18130   3.523   3.709   7.295  0.2241  1.1382 -0.2757
 2166SOL    HW118131   3.494   3.651   7.365 -1.0502  0.4652 -1.3607
 2166SOL    HW218132   3.595   3.665   7.250 -0.8581  0.1246 -1.0003
 2167SOL     OW18133   1.418   1.085   8.411 -0.4611  0.0596  0.5114
 2167SOL    HW118134   1.460   1.130   8.484  0.2309 -1.4043  1.0070
 2167SOL    HW218135   1.351   1.041   8.464 -1.8126 -0.1660 -1.3534
 2168SOL     OW18136   2.983   1.493  11.646  0.4491  0.0351 -0.0358
 2168SOL    HW118137   3.031   1.564  11.604 -1.2769  0.8165 -0.7133
 2168SOL    HW218138   3.056   1.456  11.696  0.3938 -2.0817 -1.5268
 2169SOL     OW18139   3.080   1.303  10.062  0.3494 -0.3414 -0.0449
 2169SOL    HW118140   3.142   1.285   9.992  0.5602  1.0106 -0.2042
 2169SOL    HW218141   2.999   1.305  10.011  1.4442 -1.8753 -1.8693
 2170SOL     OW18142   0.842   3.302  12.043 -0.0406  0.3147  0.1508
 2170SOL    HW118143   0.863   3.350  12.124  0.5074 -0.9394  0.7672
 2170SOL    HW218144   0.902   3.348  11.984 -0.3257 -0.1786 -0.5134
 2171SOL     OW18145   0.230   0.908   5.609 -0.2477 -0.3168  0.0104
 2171SOL    HW118146   0.323   0.927   5.613  0.0020 -1.4170 -0.7033
 2171SOL    HW218147   0.225   0.813   5.598 -0.2434 -0.3753  0.5200
 2172SOL     OW18148   1.157   2.030  10.263 -0.5033 -0.2133 -0.2116
 2172SOL    HW118149   1.181   2.067  10.348 -1.5311  1.7173 -0.7536
 2172SOL    HW218150   1.083   2.085  10.237 -0.6545 -0.1334  0.3997
 2173SOL     OW18151   2.499   2.264   7.469  0.4451  0.2415 -0.1779
 2173SOL    HW118152   2.458   2.347   7.494 -0.3613 -0.2367  0.0910
 2173SOL    HW218153   2.431   2.204   7.500 -0.3265  0.8321 -0.7232
 2174SOL     OW18154   4.481   2.404   7.861  0.6031 -0.0855 -0.3096
 2174SOL    HW118155   4.419   2.469   7.892  1.8286  1.1250 -0.3875
 2174SOL    HW218156   4.545   2.405   7.932  0.8176 -0.5232 -0.4978
 2175SOL     OW18157   3.286   2.406  16.029  0.1728  0.2152 -0.4028
 2175SOL    HW118158   3.314   2.493  16.003 -0.5673  0.6526  0.2630
 2175SOL    HW218159   3.196   2.416  15.997 -0.3119 -1.1990  0.4951
 2176SOL     OW18160   2.624   4.545   3.190  0.4081  0.5727 -0.3811
 2176SOL    HW118161   2.560   4.596   3.140 -0.6824  1.4648  1.8909
 2176SOL    HW218162   2.692   4.536   3.123 -0.3652 -0.2267 -1.0380
 2177SOL     OW18163   2.101   0.066   7.603 -0.4469  0.1007 -0.4909
 2177SOL    HW118164   2.165   0.006   7.640  0.7016  2.3353  1.1379
 2177SOL    HW218165   2.128   0.153   7.632  1.3767 -1.5509  2.6705
 2178SOL     OW18166   2.560   2.703   8.313  0.2331 -0.0554  0.7372
 2178SOL    HW118167   2.524   2.788   8.339 -1.2138  0.2895 -2.3344
 2178SOL    HW218168   2.594   2.726   8.226 -1.1756 -1.0673 -0.0898
 2179SOL     OW18169   1.554   3.297   3.973  0.2955  0.0194  0.1721
 2179SOL    HW118170   1.614   3.371   3.972 -0.9494  1.0145 -0.9269
 2179SOL    HW218171   1.562   3.276   4.066 -0.3478 -0.2367  0.1746
 2180SOL     OW18172   2.710   3.356   7.128  0.2068 -0.1857 -0.5747
 2180SOL    HW118173   2.788   3.410   7.139 -1.0415  1.4268  0.2863
 2180SOL    HW218174   2.678   3.360   7.218 -0.2928 -0.2894 -0.7447
 2181SOL     OW18175   4.434   0.390   7.268 -0.2809 -0.1531  0.5118
 2181SOL    HW118176   4.464   0.441   7.343  1.2725 -1.5651  0.8450
 2181SOL    HW218177   4.516   0.362   7.229 -0.6108 -0.2527 -0.1174
 2182SOL     OW18178   4.121   4.660   9.852 -0.5678 -0.4305  0.4024
 2182SOL    HW118179   4.186   4.604   9.895  0.2203  0.4144  0.3007
 2182SOL    HW218180   4.124   4.632   9.761 -0.6848  1.1010 -0.0579
 2183SOL     OW18181   4.564   2.892   2.534  0.3092 -0.2296  0.4442
 2183SOL    HW118182   4.592   2.907   2.625 -0.1428  1.4776  0.2867
 2183SOL    HW218183   4.473   2.920   2.539  0.0814 -0.7163 -1.1557
 2184SOL     OW18184   4.520   2.304   1.990  0.3370  0.1879 -0.5474
 2184SOL    HW118185   4.519   2.228   1.931 -1.6635 -0.6022  0.4939
 2184SOL    HW218186   4.565   2.269   2.067 -0.3867 -1.4036 -0.8387
 2185SOL     OW18187   4.185   4.704   4.627 -0.2011  0.2135 -0.2654
 2185SOL    HW118188   4.201   0.063   4.632 -0.8994  0.2542  1.4681
 2185SOL    HW218189   4.090   4.702   4.632 -0.2772 -0.9973 -2.2898
 2186SOL     OW18190   3.914   1.895   0.058  0.1648  0.0456  0.0018
 2186SOL    HW118191   3.838   1.855   0.015 -0.3424  0.0674  0.8729
 2186SOL    HW218192   3.915   1.846   0.141 -0.5907 -1.1680 -0.7072
 2187SOL     OW18193   2.662   4.719  15.251  0.4063  0.1592  0.1990
 2187SOL    HW118194   2.577   4.680  15.273  0.5622 -1.4798 -2.0112
 2187SOL    HW218195   2.653   0.067  15.296  0.4162  1.1601 -1.6275
 2188SOL     OW18196   2.812   1.058   1.286  0.0817 -1.2198  0.3834
 2188SOL    HW118197   2.772   1.141   1.262  0.6636 -1.4342 -1.3750
 2188SOL    HW218198   2.901   1.090   1.293 -1.1048  2.2137 -0.6173
 2189SOL     OW18199   2.138   3.305  11.898 -0.0369  0.4425  0.0778
 2189SOL    HW118200   2.163   3.320  11.807 -1.8893  1.4430 -0.2614
 2189SOL    HW218201   2.146   3.395  11.928 -0.4592  0.5534 -0.1469
 2190SOL     OW18202   1.338   3.703   6.976 -0.4819 -0.2814 -0.3536
 2190SOL    HW118203   1.364   3.785   6.934 -0.2271 -0.1165  0.1280
 2190SOL    HW218204   1.260   3.685   6.924 -0.0858 -2.5862 -0.1370
 2191SOL     OW18205   2.052   4.157  12.109 -0.2937 -0.1853 -0.3779
 2191SOL    HW118206   2.016   4.223  12.168 -0.5383  1.1163 -1.9784
 2191SOL    HW218207   2.003   4.087  12.153 -3.3129  2.9230  1.2091
 2192SOL     OW18208   2.763   3.256   8.184 -1.2016 -0.6809  0.6194
 2192SOL    HW118209   2.765   3.213   8.269 -1.0053 -0.0681  0.9255
 2192SOL    HW218210   2.832   3.203   8.145 -1.6556 -0.5597 -0.3610
 2193SOL     OW18211   3.340   1.824   7.961  0.0314  0.4990 -0.3586
 2193SOL    HW118212   3.267   1.854   7.907  0.2818 -0.2679 -1.1401
 2193SOL    HW218213   3.308   1.817   8.051  2.3718 -2.1331  0.2763
 2194SOL     OW18214   3.834   2.488  14.937  0.4882  0.3019  0.5050
 2194SOL    HW118215   3.751   2.454  14.971  0.4240 -0.1049 -0.0666
 2194SOL    HW218216   3.816   2.580  14.957 -0.3160 -0.1974  2.0835
 2195SOL     OW18217   2.241   0.875   7.861 -0.0433 -0.7410 -0.2385
 2195SOL    HW118218   2.145   0.867   7.860 -0.1002  0.6794 -3.5829
 2195SOL    HW218219   2.265   0.783   7.872  4.4164  0.3812 -0.8338
 2196SOL     OW18220   1.522   2.942   4.816 -0.1605 -0.2319  0.1428
 2196SOL    HW118221   1.610   2.944   4.777 -0.9266 -1.4365 -1.6423
 2196SOL    HW218222   1.470   2.962   4.738  1.0564 -2.9885 -1.3697
 2197SOL     OW18223   0.803   1.043   4.314 -0.0519 -0.9042 -0.3498
 2197SOL    HW118224   0.713   1.068   4.332  0.0172 -0.4430 -0.6504
 2197SOL    HW218225   0.854   1.077   4.388  0.4176  1.2115 -1.6543
 2198SOL     OW18226   2.904   4.439  16.510 -0.2831 -0.1251  0.2073
 2198SOL    HW118227   2.896   4.426  16.415 -2.4631 -5.6711  1.1492
 2198SOL    HW218228   2.986   4.489  16.515 -0.8619  0.8773 -0.4657
 2199SOL     OW18229   1.162   0.062   8.434  0.1226  0.0791  0.1376
 2199SOL    HW118230   1.244   0.033   8.473  0.9650  1.1946 -0.8144
 2199SOL    HW218231   1.114   4.720   8.464  0.5655  0.4144  1.6615
 2200SOL     OW18232   2.541   1.749   8.962  0.3557 -0.2539 -0.3680
 2200SOL    HW118233   2.571   1.711   9.044 -0.0431 -0.6048 -0.3804
 2200SOL    HW218234   2.506   1.835   8.983 -1.0782 -0.3848 -2.1281
 2201SOL     OW18235   2.697   4.679  16.381 -0.1547 -0.3087  0.2928
 2201SOL    HW118236   2.624   4.653  16.438  0.4841 -0.5931  0.9837
 2201SOL    HW218237   2.714   4.596  16.337 -1.5372 -0.9633  0.9988
 2202SOL     OW18238   2.209   0.537   2.690 -0.5247  0.6589 -0.6351
 2202SOL    HW118239   2.212   0.631   2.709 -1.7008  1.4139 -4.3493
 2202SOL    HW218240   2.244   0.539   2.601  0.0062 -1.1378 -0.4598
 2203SOL     OW18241   2.153   0.314   7.683  0.5223  0.9029  0.2265
 2203SOL    HW118242   2.236   0.356   7.704  0.6069  0.7683  0.1629
 2203SOL    HW218243   2.102   0.333   7.761 -0.5034  0.0004 -0.2163
 2204SOL     OW18244   3.721   1.903  12.387 -0.0215 -0.3986  0.0330
 2204SOL    HW118245   3.698   1.947  12.469  2.6366 -0.7034  0.9452
 2204SOL    HW218246   3.789   1.841  12.416 -0.5434 -0.3880  1.2745
 2205SOL     OW18247   0.348   1.170   3.821  0.3406 -0.0373 -0.3287
 2205SOL    HW118248   0.361   1.250   3.873 -2.7927  1.6850 -2.1876
 2205SOL    HW218249   0.372   1.102   3.884  0.9895  1.9092  1.5194
 2206SOL     OW18250   3.060   1.719   3.874 -0.0034 -0.1665 -0.0554
 2206SOL    HW118251   3.006   1.763   3.939 -0.2564  1.3091 -1.2638
 2206SOL    HW218252   3.144   1.705   3.916  0.4646  3.2537  0.0927
 2207SOL     OW18253   2.526   0.663   1.333 -0.2069 -0.2117  0.1314
 2207SOL    HW118254   2.543   0.756   1.325 -0.2053  0.0225  2.6434
 2207SOL    HW218255   2.595   0.612   1.290 -1.2063 -1.2112 -0.3013
 2208SOL     OW18256   2.221   1.271   7.611  0.3112 -0.0677  0.6591
 2208SOL    HW118257   2.220   1.367   7.610 -0.3537 -0.0848 -0.1602
 2208SOL    HW218258   2.237   1.255   7.704  0.5611  2.1131  1.0044
 2209SOL     OW18259   0.082   2.064  17.517  0.2426 -0.0172 -0.7320
 2209SOL    HW118260   4.729   2.069  17.480 -0.7666 -2.3493  1.3274
 2209SOL    HW218261   0.093   2.147  17.563 -1.6938 -0.1758  0.0390
 2210SOL     OW18262   0.745   1.202  15.958 -0.2616  0.0558 -0.0134
 2210SOL    HW118263   0.705   1.169  16.038 -0.6959 -0.3623 -0.4054
 2210SOL    HW218264   0.813   1.139  15.936 -0.9140 -0.8367  0.5530
 2211SOL     OW18265   3.244   4.199   9.506 -0.5404  0.4843  0.7017
 2211SOL    HW118266   3.197   4.115   9.503 -1.8858  1.2576 -0.2002
 2211SOL    HW218267   3.228   4.223   9.597  0.6636 -2.0481  1.5967
 2212SOL     OW18268   2.807   1.847  11.990  0.4343  0.1934 -0.1825
 2212SOL    HW118269   2.762   1.802  12.061 -0.4046 -1.0883 -1.5401
 2212SOL    HW218270   2.790   1.941  12.002  0.0706 -0.2314  2.5028
 2213SOL     OW18271   0.480   3.224  17.534  0.5536 -0.0471  0.1929
 2213SOL    HW118272   0.399   3.176  17.520  0.6057  0.0290 -0.3826
 2213SOL    HW218273   0.528   3.149  17.498  1.8978  0.6196  0.5670
 2214SOL     OW18274   0.518   4.508   1.304  0.0701 -0.2236  0.2393
 2214SOL    HW118275   0.584   4.459   1.352  0.6029  0.5486  0.3061
 2214SOL    HW218276   0.440   4.474   1.348 -1.2165 -1.0938 -2.7045
 2215SOL     OW18277   4.040   4.258  10.246  0.0278  0.5143  0.3201
 2215SOL    HW118278   4.049   4.248  10.341 -2.4014 -0.2315  0.4619
 2215SOL    HW218279   4.058   4.167  10.223  2.1007  0.8587  0.5656
 2216SOL     OW18280   2.691   3.644   8.169  0.4479 -0.2161  0.1765
 2216SOL    HW118281   2.781   3.612   8.175  1.0220  1.4772  0.7135
 2216SOL    HW218282   2.704   3.731   8.132  0.2373 -0.9079 -1.5269
 2217SOL     OW18283   3.335   3.664  12.325 -0.4141  0.3188  0.2134
 2217SOL    HW118284   3.351   3.596  12.260 -0.8917  0.6737 -0.2697
 2217SOL    HW218285   3.245   3.644  12.352 -0.4161 -1.5260 -1.1623
 2218SOL     OW18286   3.542   4.135   5.268 -0.7124 -0.3314  0.5009
 2218SOL    HW118287   3.597   4.213   5.268 -2.4059  0.8797 -1.8358
 2218SOL    HW218288   3.550   4.106   5.359 -0.7216 -2.3130 -0.1167
 2219SOL     OW18289   0.140   0.082   2.928 -0.0652 -1.1069  0.0202
 2219SOL    HW118290   0.145   0.139   3.005 -0.7565 -0.9838 -0.0301
 2219SOL    HW218291   0.150   0.137   2.850 -0.0752  0.5721  1.2164
 2220SOL     OW18292   3.320   3.014   2.540  0.3882  0.3452  0.4266
 2220SOL    HW118293   3.404   2.976   2.568  1.1653 -0.0093 -2.4215
 2220SOL    HW218294   3.343   3.050   2.455 -0.0365  2.0676  1.0549
 2221SOL     OW18295   1.540   4.114   5.384  0.0936 -0.6034  0.3503
 2221SOL    HW118296   1.567   4.118   5.476  1.1448 -0.7617  0.0515
 2221SOL    HW218297   1.460   4.064   5.400 -1.4068  1.7061  0.0734
 2222SOL     OW18298   2.133   3.819  17.128 -0.4610  0.1530  0.1001
 2222SOL    HW118299   2.195   3.835  17.199  0.5456 -0.3952 -0.6519
 2222SOL    HW218300   2.142   3.904  17.084 -0.2280 -1.0666 -2.1874
 2223SOL     OW18301   2.150   2.700   7.796 -0.0529 -0.4011  0.1502
 2223SOL    HW118302   2.236   2.658   7.792  0.6830  1.3492 -2.3369
 2223SOL    HW218303   2.100   2.631   7.839 -1.8248  1.7168  1.5221
 2224SOL     OW18304   3.043   2.128  11.871 -0.4634 -0.1547 -0.5427
 2224SOL    HW118305   3.036   2.068  11.797 -1.8906 -1.4507  0.6422
 2224SOL    HW218306   3.128   2.168  11.854 -0.8487  0.5127 -0.9050
 2225SOL     OW18307   3.609   3.492   7.577  0.4390 -0.1681  0.4907
 2225SOL    HW118308   3.692   3.481   7.622 -0.4305 -0.4385  2.0255
 2225SOL    HW218309   3.576   3.402   7.576 -0.6325  0.2272  0.2768
 2226SOL     OW18310   3.099   3.919   4.145 -0.1666 -0.2809  0.0223
 2226SOL    HW118311   3.129   3.838   4.104  0.6798  0.8083 -1.5211
 2226SOL    HW218312   3.175   3.946   4.196 -0.7156 -0.4368  0.9139
 2227SOL     OW18313   2.386   2.497  12.458 -0.3562  0.6697  0.4406
 2227SOL    HW118314   2.450   2.458  12.399 -1.2961  3.1622 -2.2301
 2227SOL    HW218315   2.307   2.454  12.426 -0.3280  0.5146  0.5798
 2228SOL     OW18316   2.637   0.507  14.014 -0.3734  0.0796 -0.5109
 2228SOL    HW118317   2.634   0.412  14.028 -0.2726 -0.3563 -3.5511
 2228SOL    HW218318   2.583   0.516  13.936  1.9787  0.1551 -2.1094
 2229SOL     OW18319   2.574   3.110   9.093 -0.2714  0.0287  0.3754
 2229SOL    HW118320   2.560   3.048   9.165  0.9815 -0.8517 -0.1570
 2229SOL    HW218321   2.662   3.145   9.103  0.1769 -0.6506 -1.2198
 2230SOL     OW18322   0.779   2.943   9.372 -0.5101 -0.4109 -0.5616
 2230SOL    HW118323   0.832   2.982   9.303 -1.0683  0.4789 -0.4874
 2230SOL    HW218324   0.761   3.026   9.416  0.7821 -0.1063 -0.5917
 2231SOL     OW18325   4.422   0.612   5.661 -0.2510 -0.4111  0.3186
 2231SOL    HW118326   4.409   0.531   5.710 -1.5420 -0.6442 -0.4225
 2231SOL    HW218327   4.402   0.677   5.728  3.0256  0.2085  0.6838
 2232SOL     OW18328   3.705   1.025  16.749  0.1743 -0.1385  0.6352
 2232SOL    HW118329   3.745   1.112  16.750  0.3411 -0.2079 -0.6504
 2232SOL    HW218330   3.772   0.977  16.700 -1.3626 -1.3205 -0.3185
 2233SOL     OW18331   2.095   1.654   9.274 -0.2017 -0.2248 -0.8079
 2233SOL    HW118332   2.037   1.600   9.328  2.4926 -1.4407  0.8314
 2233SOL    HW218333   2.069   1.625   9.186  1.1501 -1.5285 -0.7763
 2234SOL     OW18334   3.748   1.561  17.466  0.6862 -0.4467 -0.5760
 2234SOL    HW118335   3.725   1.608  17.546 -0.4377 -0.3746 -0.9502
 2234SOL    HW218336   3.703   1.481  17.494  0.2950 -0.5904 -1.6491
 2235SOL     OW18337   0.357   2.061   7.344  0.3013  0.3543 -0.1666
 2235SOL    HW118338   0.290   2.007   7.303  0.3328  1.8744 -2.2531
 2235SOL    HW218339   0.411   2.094   7.272  0.4495  0.0365 -0.2011
 2236SOL     OW18340   3.266   3.058   2.151 -0.0020  0.6947  0.2187
 2236SOL    HW118341   3.242   3.151   2.151 -0.1274  0.6640  1.8845
 2236SOL    HW218342   3.279   3.050   2.056  4.0236 -1.8482  0.9991
 2237SOL     OW18343   4.723   2.968   4.811  0.1487 -0.1088  0.3223
 2237SOL    HW118344   4.703   3.032   4.743  3.8114 -1.8888 -2.4697
 2237SOL    HW218345   0.036   3.006   4.884 -0.6517  0.6854  0.4369
 2238SOL     OW18346   4.722   4.138   2.523  0.1598  0.1144  0.1995
 2238SOL    HW118347   4.684   4.051   2.522  0.3775  0.0165  0.4356
 2238SOL    HW218348   4.649   4.198   2.535 -0.1368 -0.0930 -0.6071
 2239SOL     OW18349   4.353   4.451  16.392 -0.2583  0.2102 -0.4287
 2239SOL    HW118350   4.326   4.421  16.478 -1.4922 -2.6130 -1.8253
 2239SOL    HW218351   4.278   4.502  16.359  0.5843  2.2709  0.8125
 2240SOL     OW18352   4.377   2.367   3.256  0.5222 -0.1765  0.3767
 2240SOL    HW118353   4.411   2.279   3.272  0.6325 -0.3574 -0.8895
 2240SOL    HW218354   4.286   2.345   3.277  0.4761 -1.7960 -1.5638
 2241SOL     OW18355   2.915   4.203   3.481 -0.2239  0.4388 -0.3141
 2241SOL    HW118356   2.856   4.224   3.554 -0.7204 -0.3138 -0.4940
 2241SOL    HW218357   2.889   4.269   3.417  2.0592  0.4866 -1.1708
 2242SOL     OW18358   3.240   2.001  14.527  0.2036 -0.4065  0.0179
 2242SOL    HW118359   3.327   1.961  14.530 -0.6963 -2.2282  1.6538
 2242SOL    HW218360   3.273   2.083  14.564 -0.2385 -0.3617  0.3132
 2243SOL     OW18361   1.512   2.331   8.231 -0.2322 -0.8364 -0.5099
 2243SOL    HW118362   1.461   2.351   8.152  0.2792 -0.0531 -0.6512
 2243SOL    HW218363   1.473   2.247   8.253 -0.0890 -1.0452 -1.0559
 2244SOL     OW18364   2.681   3.958  15.872 -0.0902  0.2163  0.5119
 2244SOL    HW118365   2.770   3.992  15.878 -0.0761  0.7260 -2.6400
 2244SOL    HW218366   2.693   3.876  15.824  0.7753  0.3331  0.5276
 2245SOL     OW18367   2.510   3.380   6.326 -0.0729  0.1511  0.3234
 2245SOL    HW118368   2.492   3.409   6.237  0.8652 -0.7782 -0.1818
 2245SOL    HW218369   2.456   3.434   6.382  0.4650 -0.2688  1.2471
 2246SOL     OW18370   2.841   1.334   6.758  0.7244  0.1325  0.2326
 2246SOL    HW118371   2.805   1.336   6.846  0.7990 -0.5232  0.2789
 2246SOL    HW218372   2.778   1.275   6.715  1.6591  2.0005 -3.7620
 2247SOL     OW18373   3.309   3.486   7.257 -0.6337  0.0529 -0.4344
 2247SOL    HW118374   3.389   3.524   7.220 -0.4614 -0.5765 -0.7236
 2247SOL    HW218375   3.254   3.475   7.179  1.1211  1.7944 -1.9251
 2248SOL     OW18376   3.798   3.162   8.827  1.0673 -0.4333 -0.5065
 2248SOL    HW118377   3.829   3.103   8.758 -0.9619  1.0861 -2.6979
 2248SOL    HW218378   3.728   3.212   8.787  1.6604  0.2283 -0.7147
 2249SOL     OW18379   4.084   3.918  16.931 -0.6278  0.0971 -0.6298
 2249SOL    HW118380   4.159   3.954  16.884 -0.8207 -0.2359 -1.1853
 2249SOL    HW218381   4.033   3.879  16.861 -0.7875  0.8190 -0.9095
 2250SOL     OW18382   0.023   1.901   8.071  0.2996 -0.3252 -0.4863
 2250SOL    HW118383   4.704   1.826   8.048  0.6781 -1.4867  2.4488
 2250SOL    HW218384   0.083   1.900   7.997 -1.2446  0.5193 -1.7484
 2251SOL     OW18385   3.422   4.470  14.339 -0.5174 -0.7830  0.1151
 2251SOL    HW118386   3.464   4.437  14.260  0.7253  0.3777  0.3086
 2251SOL    HW218387   3.363   4.397  14.362 -0.1987 -1.5435 -1.4792
 2252SOL     OW18388   1.859   3.834  15.091 -0.0410  0.1671 -0.1188
 2252SOL    HW118389   1.904   3.900  15.143  0.0254  0.1421 -0.1434
 2252SOL    HW218390   1.863   3.754  15.144 -2.6216  0.5284  0.6045
 2253SOL     OW18391   0.968   4.337   9.409 -0.4457  0.5602 -0.4355
 2253SOL    HW118392   0.877   4.365   9.400 -0.4004  1.3361  1.3867
 2253SOL    HW218393   0.965   4.326   9.504  1.5156  4.3919  0.0855
 2254SOL     OW18394   0.212   3.377   2.140  0.0405 -0.6717 -0.2248
 2254SOL    HW118395   0.190   3.417   2.225  0.1794  2.9055 -1.8546
 2254SOL    HW218396   0.192   3.453   2.085  0.9596 -0.8619 -0.8186
 2255SOL     OW18397   2.665   3.280  13.157 -0.0371  0.3215 -0.1766
 2255SOL    HW118398   2.729   3.209  13.168  0.9003  1.1259 -0.4813
 2255SOL    HW218399   2.628   3.292  13.245 -5.0798 -1.3897 -2.0535
 2256SOL     OW18400   0.410   2.041   9.594  0.1023  0.3144 -0.7090
 2256SOL    HW118401   0.338   1.978   9.594  0.3757  0.0020  1.1403
 2256SOL    HW218402   0.370   2.127   9.583 -2.1070 -0.5781  0.4327
 2257SOL     OW18403   3.184   1.558  16.989  0.2918 -0.0824  0.4622
 2257SOL    HW118404   3.273   1.525  16.979  0.0229  0.2962 -3.1686
 2257SOL    HW218405   3.194   1.644  16.948 -2.0702 -0.0725 -0.0606
 2258SOL     OW18406   4.056   2.611  13.629 -0.0512 -0.4407 -0.3711
 2258SOL    HW118407   4.017   2.586  13.712  4.3390  0.0216  1.8621
 2258SOL    HW218408   3.989   2.575  13.570  0.5163  0.5496 -1.6315
 2259SOL     OW18409   3.957   3.861  11.888 -0.1222 -0.5707 -0.4021
 2259SOL    HW118410   3.974   3.859  11.983  0.4538  1.5344 -0.4650
 2259SOL    HW218411   3.876   3.910  11.876  1.5122  2.3705  0.5337
 2260SOL     OW18412   4.476   1.796   1.527  0.2778  0.4533 -0.3115
 2260SOL    HW118413   4.548   1.740   1.497  0.7793  2.0789 -2.1234
 2260SOL    HW218414   4.530   1.863   1.570  1.1877  0.8047 -1.9870
 2261SOL     OW18415   1.055   0.612   2.293  0.2954  0.2333  0.2724
 2261SOL    HW118416   1.055   0.580   2.203 -0.9549  0.3842  0.2163
 2261SOL    HW218417   1.056   0.707   2.288 -0.5504  0.2375  0.0694
 2262SOL     OW18418   1.379   2.830  11.739 -0.2166  0.0375  0.4176
 2262SOL    HW118419   1.427   2.814  11.658 -0.1448 -1.2487  0.7205
 2262SOL    HW218420   1.450   2.831  11.804  1.2353  0.1200 -1.1785
 2263SOL     OW18421   2.823   3.105  13.392 -0.3665  0.2665  0.0079
 2263SOL    HW118422   2.825   3.089  13.297 -0.3266 -1.1609  0.2459
 2263SOL    HW218423   2.736   3.144  13.392 -1.1016 -1.3626  1.2363
 2264SOL     OW18424   3.047   3.768  10.319  0.1519  0.2865 -0.5751
 2264SOL    HW118425   2.988   3.837  10.350  2.5017  1.1884  1.8758
 2264SOL    HW218426   2.994   3.730  10.249 -2.7775 -0.3209  1.9821
 2265SOL     OW18427   0.541   0.848   4.284 -0.3584  0.3046  0.1044
 2265SOL    HW118428   0.500   0.866   4.369  2.7220  1.1351  1.4050
 2265SOL    HW218429   0.624   0.893   4.298 -1.0076  1.5375 -0.0271
 2266SOL     OW18430   2.870   3.518   2.503 -0.7092 -0.1130  0.4075
 2266SOL    HW118431   2.794   3.568   2.534 -0.2356  1.8296 -1.5654
 2266SOL    HW218432   2.935   3.584   2.478  0.3004 -1.6010 -0.9234
 2267SOL     OW18433   4.497   2.778   3.719 -0.1634 -0.1393  0.3312
 2267SOL    HW118434   4.454   2.794   3.635  2.0118 -1.2932 -0.9936
 2267SOL    HW218435   4.501   2.869   3.746 -2.5568  0.8687 -2.7149
 2268SOL     OW18436   1.348   0.353   5.164 -0.1285  0.1095 -0.5809
 2268SOL    HW118437   1.375   0.362   5.073 -0.1987 -1.1718 -0.7276
 2268SOL    HW218438   1.259   0.317   5.160 -0.4485  0.6482  1.3955
 2269SOL     OW18439   2.918   1.760  15.711  0.1181  0.2059 -0.9480
 2269SOL    HW118440   2.824   1.762  15.729  0.2447 -0.1118 -0.2275
 2269SOL    HW218441   2.946   1.752  15.803 -0.5473 -2.3740 -0.9621
 2270SOL     OW18442   2.072   1.141   5.013  0.4190  0.1882  0.4227
 2270SOL    HW118443   1.992   1.088   5.015  0.3988  0.2078  0.2083
 2270SOL    HW218444   2.132   1.101   5.075  2.1672 -1.3930 -2.2790
 2271SOL     OW18445   4.346   3.461   7.987  0.6021  0.1797  0.6975
 2271SOL    HW118446   4.348   3.447   7.893 -0.8391  0.2829  0.6567
 2271SOL    HW218447   4.366   3.372   8.017 -0.5101  0.4365  2.1874
 2272SOL     OW18448   2.373   0.896  13.102 -0.0071 -0.2529 -0.2681
 2272SOL    HW118449   2.385   0.804  13.124  0.5653  0.0724  0.7921
 2272SOL    HW218450   2.278   0.890  13.092 -0.0266  0.3781 -0.4483
 2273SOL     OW18451   3.512   2.116  12.270  0.1740  0.2466 -0.6436
 2273SOL    HW118452   3.463   2.172  12.332  2.3145 -1.0683  2.2354
 2273SOL    HW218453   3.489   2.030  12.306  2.5689  0.2741  0.9165
 2274SOL     OW18454   2.243   4.372   5.963 -0.0277 -0.0767  0.0527
 2274SOL    HW118455   2.271   4.416   6.043  1.9133  0.8272 -1.1196
 2274SOL    HW218456   2.215   4.285   5.993  0.4514 -0.6759 -1.2183
 2275SOL     OW18457   1.015   3.013   3.068  0.2714 -0.0683  0.1712
 2275SOL    HW118458   0.997   2.951   3.139 -1.8061  2.2459  1.7013
 2275SOL    HW218459   0.931   3.059   3.058 -0.4265 -1.3587  0.1425
 2276SOL     OW18460   4.707   3.186   3.273 -0.3881 -0.2739  0.4334
 2276SOL    HW118461   4.710   3.158   3.182  1.1859 -1.3323  0.8111
 2276SOL    HW218462   4.647   3.260   3.276  0.1387  0.0685  3.4117
 2277SOL     OW18463   3.950   0.174   8.688  0.3432  0.0687 -0.4255
 2277SOL    HW118464   3.950   0.264   8.723 -3.5482 -0.0344 -0.2256
 2277SOL    HW218465   4.011   0.183   8.615  1.6473  2.8290  0.9944
 2278SOL     OW18466   2.222   1.101   0.780  0.3870 -0.3239 -0.0390
 2278SOL    HW118467   2.187   1.181   0.818 -3.0290 -1.7216 -0.2276
 2278SOL    HW218468   2.147   1.044   0.799 -0.3301  1.0632  1.2747
 2279SOL     OW18469   1.497   1.397   4.978 -0.2981  0.2448  0.0280
 2279SOL    HW118470   1.537   1.470   4.931  0.1150  0.5649  0.8837
 2279SOL    HW218471   1.572   1.344   5.003  0.8371  1.4989 -0.7116
 2280SOL     OW18472   2.727   3.557   4.214  0.9081  0.1635 -0.0554
 2280SOL    HW118473   2.699   3.581   4.125  0.2848 -2.2169 -0.5026
 2280SOL    HW218474   2.820   3.576   4.226  0.5227  0.6450  2.1319
 2281SOL     OW18475   2.003   2.473   8.223  0.5402  0.0412 -0.0967
 2281SOL    HW118476   1.981   2.381   8.240 -1.1857  0.4353 -0.1980
 2281SOL    HW218477   2.058   2.490   8.299  0.3419 -0.5538  0.1811
 2282SOL     OW18478   3.538   2.627   2.648  0.5372 -0.1672 -0.2199
 2282SOL    HW118479   3.560   2.577   2.727 -2.5498  1.5619  1.7106
 2282SOL    HW218480   3.547   2.564   2.576 -1.0743 -1.0893  0.3906
 2283SOL     OW18481   0.283   4.546   1.942  0.7942 -0.7023  0.1890
 2283SOL    HW118482   0.220   4.474   1.947  0.2048 -0.2128 -0.0589
 2283SOL    HW218483   0.307   4.540   1.850 -0.7790  0.0787 -0.2709
 2284SOL     OW18484   3.229   0.642  13.716 -0.5979  0.1540 -0.3186
 2284SOL    HW118485   3.246   0.718  13.660  0.8081  0.1156  0.0626
 2284SOL    HW218486   3.138   0.622  13.693  0.1910 -3.7728  0.0473
 2285SOL     OW18487   4.013   2.097   6.818  0.1462 -0.0948 -0.3811
 2285SOL    HW118488   4.067   2.088   6.897  0.6176 -4.8254 -1.2004
 2285SOL    HW218489   4.035   2.009   6.784  0.3124  0.0771 -0.7225
 2286SOL     OW18490   0.667   4.267  16.810  0.1764  0.0788  0.2006
 2286SOL    HW118491   0.739   4.311  16.856  0.2929 -0.0965  0.1850
 2286SOL    HW218492   0.597   4.326  16.840 -0.6625 -0.2687 -1.0428
 2287SOL     OW18493   1.706   1.466   0.419 -0.2071  0.1432  0.0206
 2287SOL    HW118494   1.725   1.530   0.351 -0.8914 -0.4262 -0.7162
 2287SOL    HW218495   1.613   1.486   0.433 -0.2106 -0.5054  0.9572
 2288SOL     OW18496   3.836   4.541  17.657  0.1736 -0.3271 -0.3093
 2288SOL    HW118497   3.932   4.540  17.651  0.2915 -0.5355  1.6507
 2288SOL    HW218498   3.809   4.451  17.673 -1.0937  0.1165  0.0469
 2289SOL     OW18499   0.447   3.013   4.934  0.0693  0.3910 -0.5739
 2289SOL    HW118500   0.396   3.086   4.899  0.7772  0.5414 -1.2945
 2289SOL    HW218501   0.488   3.042   5.016 -1.5778 -0.2438  0.4745
 2290SOL     OW18502   1.456   2.450   1.830 -0.4402  0.2719  0.2254
 2290SOL    HW118503   1.469   2.522   1.892 -2.7230  0.7283  0.1601
 2290SOL    HW218504   1.365   2.430   1.850 -0.4840  0.1796 -0.0716
 2291SOL     OW18505   1.500   0.229   2.948 -0.7442 -0.8522 -0.0857
 2291SOL    HW118506   1.577   0.243   2.893  1.2976  0.9682  3.2516
 2291SOL    HW218507   1.432   0.227   2.880  0.6813 -0.8086 -1.5076
 2292SOL     OW18508   4.557   1.798   3.004 -0.7020  0.0192 -0.2130
 2292SOL    HW118509   4.562   1.894   3.007  1.5044 -0.1773  2.2442
 2292SOL    HW218510   4.516   1.777   3.088 -0.3448 -0.7193 -0.2291
 2293SOL     OW18511   1.955   1.115   5.325  0.2316  0.3377 -0.4853
 2293SOL    HW118512   2.021   1.167   5.278 -0.4103  2.6292  1.1544
 2293SOL    HW218513   1.938   1.169   5.402  0.2030  1.4985 -1.3245
 2294SOL     OW18514   4.654   2.512   0.984 -0.3389  0.4415 -0.3352
 2294SOL    HW118515   4.723   2.466   1.031 -1.6782  0.8675  2.0789
 2294SOL    HW218516   4.643   2.459   0.905  0.3066 -1.7253  1.0212
 2295SOL     OW18517   1.260   3.477  11.635  0.1697  0.2116 -0.1560
 2295SOL    HW118518   1.178   3.516  11.665  0.6771  1.1316  0.0428
 2295SOL    HW218519   1.302   3.489  11.720 -1.1196  1.7374  0.2623
 2296SOL     OW18520   3.415   0.334   8.672  0.5766 -0.2659  0.3530
 2296SOL    HW118521   3.432   0.285   8.752  1.3383  0.8955  0.8915
 2296SOL    HW218522   3.499   0.370   8.646  0.9093 -0.7676  0.7321
 2297SOL     OW18523   2.539   2.440   3.144 -0.1051  0.7242  0.3421
 2297SOL    HW118524   2.454   2.481   3.131 -1.4485 -2.6395 -1.5118
 2297SOL    HW218525   2.532   2.367   3.082 -0.3145  1.3484 -0.3807
 2298SOL     OW18526   2.759   0.455   7.813 -0.3143 -0.2566 -0.2443
 2298SOL    HW118527   2.852   0.433   7.811 -0.2458  0.0701 -0.7771
 2298SOL    HW218528   2.741   0.508   7.735  0.7625 -0.2086 -0.4512
 2299SOL     OW18529   4.634   2.747   5.679 -0.0926  0.3784  0.3939
 2299SOL    HW118530   4.650   2.762   5.586 -2.9057  0.6580 -0.0295
 2299SOL    HW218531   4.558   2.804   5.684  0.8009  1.6477 -0.5773
 2300SOL     OW18532   3.306   1.223   7.441 -0.3030  0.3868  0.0317
 2300SOL    HW118533   3.281   1.132   7.426  2.0380 -0.1027 -0.9041
 2300SOL    HW218534   3.231   1.259   7.394 -1.0560  1.6426  2.1514
 2301SOL     OW18535   4.432   0.851  12.754 -0.3206 -0.3317 -0.2485
 2301SOL    HW118536   4.377   0.773  12.765 -1.6739  0.2665 -2.7073
 2301SOL    HW218537   4.507   0.804  12.718 -1.7336 -1.1286 -2.1588
 2302SOL     OW18538   1.302   3.989   1.984  0.2297  0.1655 -0.3966
 2302SOL    HW118539   1.316   3.898   2.009 -3.3690 -0.3526 -0.3216
 2302SOL    HW218540   1.250   4.025   2.055  0.6128  2.5633 -1.3441
 2303SOL     OW18541   4.338   0.362  15.302 -0.1006 -0.2004  0.2160
 2303SOL    HW118542   4.336   0.455  15.282 -1.6719 -0.0833  0.9268
 2303SOL    HW218543   4.269   0.341  15.240  0.2171 -3.5924  1.0098
 2304SOL     OW18544   1.605   2.524  13.480  0.4716  0.3996 -0.1515
 2304SOL    HW118545   1.698   2.544  13.480 -0.4670  4.6383 -2.5629
 2304SOL    HW218546   1.569   2.592  13.536 -2.0729 -1.5016  0.5572
 2305SOL     OW18547   0.890   0.493  15.753  0.0644  0.2724 -0.3252
 2305SOL    HW118548   0.813   0.470  15.804  0.3367  0.5624  0.2157
 2305SOL    HW218549   0.960   0.486  15.819  0.5761 -0.6524 -0.9676
 2306SOL     OW18550   3.507   4.312   0.813 -0.2667  0.0550  0.1575
 2306SOL    HW118551   3.546   4.385   0.765  2.5383 -2.6204 -1.6305
 2306SOL    HW218552   3.456   4.364   0.876  0.2518  0.6446  0.0851
 2307SOL     OW18553   3.456   2.206   1.911 -0.5136  0.7995 -0.2822
 2307SOL    HW118554   3.444   2.260   1.990  1.0725  1.5842 -0.5894
 2307SOL    HW218555   3.456   2.272   1.842  1.5875  2.3292  1.1523
 2308SOL     OW18556   0.597   3.551   2.879  0.2222  0.1049 -0.0006
 2308SOL    HW118557   0.647   3.624   2.842  0.1444 -0.7914 -1.8592
 2308SOL    HW218558   0.520   3.606   2.895 -0.2472 -0.4036 -0.5380
 2309SOL     OW18559   2.799   3.959  11.247 -0.2667  0.3020  0.0312
 2309SOL    HW118560   2.717   3.913  11.229 -0.8148  1.6031 -0.7423
 2309SOL    HW218561   2.852   3.926  11.174 -0.1150 -2.0900  1.2040
 2310SOL     OW18562   4.448   0.800   5.866 -0.1619 -0.4478 -0.5207
 2310SOL    HW118563   4.510   0.869   5.891  0.8667  0.0557 -4.3594
 2310SOL    HW218564   4.365   0.818   5.911  0.4273 -2.1405  1.2290
 2311SOL     OW18565   1.643   1.140   1.131  0.0598 -0.2188  0.7713
 2311SOL    HW118566   1.676   1.227   1.109  0.3457  0.0784  2.4204
 2311SOL    HW218567   1.674   1.115   1.218  2.2889 -1.9501 -0.5044
 2312SOL     OW18568   0.723   0.702   5.398 -0.7759  0.1189  0.0484
 2312SOL    HW118569   0.702   0.795   5.402  1.1897  0.4622  2.6571
 2312SOL    HW218570   0.810   0.696   5.358  0.4144  0.5599  2.5579
 2313SOL     OW18571   3.355   2.528  17.433 -0.1136  0.2185 -0.2287
 2313SOL    HW118572   3.363   2.533  17.338 -1.8836  2.7070 -0.2508
 2313SOL    HW218573   3.431   2.577  17.464 -1.3899  1.1103  1.5254
 2314SOL     OW18574   0.500   0.216   3.319  0.0132  0.0813  0.3564
 2314SOL    HW118575   0.578   0.213   3.374  0.9686  0.4173 -0.9680
 2314SOL    HW218576   0.522   0.303   3.285 -1.3019  0.2345 -0.0957
 2315SOL     OW18577   0.860   2.283   5.407 -0.2300  0.1814  0.1417
 2315SOL    HW118578   0.808   2.260   5.330  0.5394  0.4318 -0.4538
 2315SOL    HW218579   0.913   2.205   5.398 -0.7400 -0.3618  1.7989
 2316SOL     OW18580   4.360   2.878   1.439 -0.0605  0.4986  0.4083
 2316SOL    HW118581   4.378   2.917   1.354 -0.4007 -0.5611 -0.1435
 2316SOL    HW218582   4.388   2.954   1.489  0.5113  0.9721 -0.6378
 2317SOL     OW18583   4.543   1.249   4.251 -0.0586 -0.0469  0.0474
 2317SOL    HW118584   4.556   1.338   4.218 -0.7054  0.1318  0.2759
 2317SOL    HW218585   4.545   1.195   4.172 -2.4186 -4.3382  2.8728
 2318SOL     OW18586   2.160   1.969   3.397 -0.4123  0.1301 -0.4649
 2318SOL    HW118587   2.196   1.952   3.484 -0.3335  2.0521 -0.1163
 2318SOL    HW218588   2.071   1.985   3.430 -0.8618 -1.4703 -0.9236
 2319SOL     OW18589   1.338   1.201   3.604 -0.1879  0.4955  0.3376
 2319SOL    HW118590   1.301   1.269   3.548  1.2116 -0.1719 -1.3711
 2319SOL    HW218591   1.429   1.213   3.580  0.2520  1.7954  2.6924
 2320SOL     OW18592   1.849   0.794   3.468 -0.5917  0.0964 -0.7762
 2320SOL    HW118593   1.846   0.711   3.516 -0.0164  0.9040  0.6706
 2320SOL    HW218594   1.757   0.818   3.457 -0.9873 -0.6892  0.9127
 2321SOL     OW18595   3.244   2.282  11.992  0.2589  0.3209  0.0354
 2321SOL    HW118596   3.199   2.228  12.057  0.7518  0.7154  0.7025
 2321SOL    HW218597   3.333   2.284  12.028 -1.1958 -0.3854  3.6662
 2322SOL     OW18598   3.488   3.590  13.700 -0.3182 -0.6200 -0.0870
 2322SOL    HW118599   3.527   3.639  13.628 -2.0054 -0.0682 -0.6203
 2322SOL    HW218600   3.540   3.605  13.779 -0.7473 -0.3858  0.1509
 2323SOL     OW18601   2.051   0.006   0.975  0.1566 -0.6120  0.7757
 2323SOL    HW118602   2.060   4.646   0.967 -0.9164 -0.4911 -1.7644
 2323SOL    HW218603   2.064   0.037   0.885  3.1967 -0.3604  1.3016
 2324SOL     OW18604   0.642   4.631   9.648 -0.0983  0.0065 -0.2203
 2324SOL    HW118605   0.664   4.541   9.626  0.1279 -0.3943  1.6291
 2324SOL    HW218606   0.731   4.648   9.680  0.7386 -0.5786 -2.2184
 2325SOL     OW18607   2.063   2.843  14.105  0.3925 -0.2860 -0.2046
 2325SOL    HW118608   1.993   2.887  14.056 -0.2982 -2.2279 -0.9269
 2325SOL    HW218609   2.030   2.757  14.130 -0.8940  0.5385  0.9033
 2326SOL     OW18610   4.477   2.833   4.421  0.4064  0.4921 -0.2009
 2326SOL    HW118611   4.415   2.803   4.354 -1.1350  0.1805  1.3870
 2326SOL    HW218612   4.549   2.770   4.416  1.8585  2.0060  1.8077
 2327SOL     OW18613   3.920   4.343   6.424 -0.4677  0.0513 -0.4069
 2327SOL    HW118614   3.889   4.371   6.338 -0.8694 -2.7446 -1.1668
 2327SOL    HW218615   3.837   4.339   6.471  0.3895 -1.1449  1.0074
 2328SOL     OW18616   0.731   1.485   4.743 -0.4538  0.6816  0.6427
 2328SOL    HW118617   0.689   1.541   4.809 -0.9607 -2.2833  2.8148
 2328SOL    HW218618   0.757   1.415   4.803  1.1499  1.1448  0.4767
 2329SOL     OW18619   1.835   1.256   6.104 -0.4031 -0.2427  0.6100
 2329SOL    HW118620   1.777   1.192   6.064 -0.0913 -2.0091  2.9725
 2329SOL    HW218621   1.887   1.194   6.156  0.8077  0.4723  0.2464
 2330SOL     OW18622   3.236   2.948   0.344  0.4223  0.2537  0.0255
 2330SOL    HW118623   3.246   2.859   0.313  0.3021  0.0690  0.5091
 2330SOL    HW218624   3.261   2.940   0.436 -1.8352  0.7841  0.6917
 2331SOL     OW18625   3.392   3.107  16.193  0.0141 -0.7477  0.0252
 2331SOL    HW118626   3.400   3.056  16.112  1.9299 -1.3895  0.6199
 2331SOL    HW218627   3.424   3.194  16.171  0.0830 -0.6367  0.5578
 2332SOL     OW18628   0.885   0.800   5.741  0.4189 -0.4803  0.1519
 2332SOL    HW118629   0.842   0.882   5.764  2.8139  1.2793 -1.5732
 2332SOL    HW218630   0.823   0.756   5.683  1.2835 -0.9773 -0.3982
 2333SOL     OW18631   0.029   4.544   4.601  0.2233  0.2646 -0.0877
 2333SOL    HW118632   0.102   4.570   4.658  0.8562  0.0755 -0.8085
 2333SOL    HW218633   0.005   4.634   4.580 -2.6987 -0.3584  0.6150
 2334SOL     OW18634   0.129   2.674   6.705 -0.6767  0.2140 -0.0695
 2334SOL    HW118635   0.038   2.654   6.725 -1.5944  2.6810 -1.8197
 2334SOL    HW218636   0.131   2.621   6.626 -0.1167  0.0633  0.0423
 2335SOL     OW18637   2.183   0.965   7.278  0.4998 -0.4598  0.5335
 2335SOL    HW118638   2.130   0.950   7.199  1.1337 -1.9510  0.3924
 2335SOL    HW218639   2.110   0.996   7.331  0.5809  0.4086  0.1437
 2336SOL     OW18640   2.047   0.628  13.255  0.0056 -0.9623  0.0452
 2336SOL    HW118641   2.076   0.565  13.320  1.1846  1.3603  1.7595
 2336SOL    HW218642   1.993   0.571  13.200 -1.1121 -0.4226  0.5686
 2337SOL     OW18643   1.362   1.721   9.283  0.1148 -0.0979  0.3654
 2337SOL    HW118644   1.270   1.715   9.257  0.4754 -0.3706 -0.8364
 2337SOL    HW218645   1.360   1.718   9.379 -0.9120 -0.3897  0.3332
 2338SOL     OW18646   2.884   2.556   8.196  0.1420 -0.4447  0.3055
 2338SOL    HW118647   2.810   2.502   8.168 -0.6833  0.0709  1.5257
 2338SOL    HW218648   2.942   2.487   8.227 -0.5894 -1.6855 -1.0372
 2339SOL     OW18649   0.137   4.222   4.400  0.4927 -0.0664 -0.2814
 2339SOL    HW118650   0.052   4.259   4.424  1.1916  0.3822  1.5090
 2339SOL    HW218651   0.168   4.193   4.486 -0.0341 -2.5438 -0.9221
 2340SOL     OW18652   3.475   3.771   9.431 -0.4292  0.3991 -0.3338
 2340SOL    HW118653   3.461   3.685   9.471 -2.2334  0.8534  0.0360
 2340SOL    HW218654   3.453   3.764   9.338  0.4485  1.7388 -0.6447
 2341SOL     OW18655   4.210   0.679  14.206  0.0256 -0.7288  0.5318
 2341SOL    HW118656   4.294   0.708  14.242  0.2960 -0.6956 -0.1412
 2341SOL    HW218657   4.221   0.711  14.117 -1.0304 -1.7147  0.0553
 2342SOL     OW18658   4.730   2.913   2.306 -0.6021  0.0330  0.5181
 2342SOL    HW118659   0.020   2.998   2.343  0.2119  0.0914 -0.1817
 2342SOL    HW218660   4.671   2.887   2.377 -0.3550 -0.2068  0.6354
 2343SOL     OW18661   0.545   3.717  11.662  0.8989  0.1214  0.1964
 2343SOL    HW118662   0.456   3.739  11.687 -0.2692 -2.1988 -1.8854
 2343SOL    HW218663   0.582   3.804  11.645  1.8752 -0.2057  0.5955
 2344SOL     OW18664   0.448   3.337   2.367  0.0857  0.4543  1.0317
 2344SOL    HW118665   0.467   3.345   2.274 -0.6622 -0.3443  0.8085
 2344SOL    HW218666   0.501   3.407   2.405  0.7987  1.3121 -1.6103
 2345SOL     OW18667   3.715   2.990   2.829  0.0977 -0.1116 -0.1694
 2345SOL    HW118668   3.726   3.036   2.912 -1.3024  0.7851 -0.4811
 2345SOL    HW218669   3.802   3.002   2.790  0.1395  1.4993  0.4473
 2346SOL     OW18670   0.463   4.658   9.287  0.9021 -0.3590  0.0823
 2346SOL    HW118671   0.475   4.587   9.223  1.7540 -1.7922  1.8370
 2346SOL    HW218672   0.545   4.707   9.282  0.0185  1.0286 -0.7453
 2347SOL     OW18673   2.215   2.381   6.229 -0.0510  0.2360  0.0870
 2347SOL    HW118674   2.213   2.300   6.279 -1.8522  0.0288 -0.3063
 2347SOL    HW218675   2.123   2.401   6.210  0.2835  1.0098 -0.7837
 2348SOL     OW18676   1.235   0.157  13.162  0.1380  0.1926  0.1648
 2348SOL    HW118677   1.295   0.227  13.189 -0.7446  0.9452  0.1798
 2348SOL    HW218678   1.255   0.176  13.070  0.6747 -1.5495 -0.0730
 2349SOL     OW18679   0.549   3.667   9.332  0.4639 -0.0996  0.2782
 2349SOL    HW118680   0.548   3.588   9.277  0.2248 -2.7667  4.0616
 2349SOL    HW218681   0.573   3.625   9.415  3.3873  0.1143 -0.4424
 2350SOL     OW18682   2.216   1.073   1.980  0.2673  0.1149  0.8226
 2350SOL    HW118683   2.128   1.084   1.945  1.5559 -0.7952 -2.6667
 2350SOL    HW218684   2.231   0.981   1.959 -1.0687 -0.6962  3.4094
 2351SOL     OW18685   0.967   1.187   7.112  0.3209 -0.2466 -0.0412
 2351SOL    HW118686   0.916   1.130   7.053  3.0383 -0.7340 -1.9209
 2351SOL    HW218687   0.897   1.247   7.139  0.4998 -0.4950  0.9445
 2352SOL     OW18688   1.561   2.015   9.953 -0.0060  0.1077 -0.2666
 2352SOL    HW118689   1.654   2.013   9.971  0.2965  2.1487 -1.5996
 2352SOL    HW218690   1.561   2.058   9.867 -0.9916 -0.4328 -0.5441
 2353SOL     OW18691   1.245   0.982   6.938  0.4095  0.5721 -0.0351
 2353SOL    HW118692   1.339   0.973   6.920  0.6548  1.3018  0.8879
 2353SOL    HW218693   1.219   1.042   6.868 -1.6049 -1.5386 -1.0786
 2354SOL     OW18694   3.314   3.786  17.397 -0.8506  0.6596 -0.5787
 2354SOL    HW118695   3.339   3.775  17.489  0.4168 -0.7196 -1.0732
 2354SOL    HW218696   3.377   3.856  17.379  0.7748 -0.6350 -0.0410
 2355SOL     OW18697   0.482   1.441   3.351 -0.1765 -0.0262 -0.2771
 2355SOL    HW118698   0.437   1.465   3.432  0.4467 -0.5756  0.2314
 2355SOL    HW218699   0.426   1.474   3.281 -1.5424  1.4396  1.5406
 2356SOL     OW18700   1.910   0.779   2.569 -0.5002  0.5359  0.2318
 2356SOL    HW118701   1.953   0.693   2.562  2.4155  1.9043  1.1375
 2356SOL    HW218702   1.872   0.764   2.656 -1.7395 -0.9179 -0.5663
 2357SOL     OW18703   0.226   4.575   5.167 -0.1305  0.2802 -0.3493
 2357SOL    HW118704   0.146   4.627   5.177 -0.7987 -1.5870  4.0105
 2357SOL    HW218705   0.252   4.560   5.258  1.9588  0.0805 -0.9907
 2358SOL     OW18706   1.896   3.022   3.195 -0.3987 -0.4786 -0.0858
 2358SOL    HW118707   1.811   3.040   3.234 -0.1255  0.5266  0.0405
 2358SOL    HW218708   1.860   2.972   3.122  2.0114 -1.4032 -0.6464
 2359SOL     OW18709   2.302   3.733   2.903 -0.2150  0.2094 -0.0816
 2359SOL    HW118710   2.268   3.769   2.821 -1.0094  2.7504  1.3722
 2359SOL    HW218711   2.250   3.780   2.967 -0.3855  1.6098 -1.2429
 2360SOL     OW18712   4.130   2.062   0.100  0.1692  0.3563 -0.1344
 2360SOL    HW118713   4.133   2.158   0.102  2.4205  0.3013 -1.4044
 2360SOL    HW218714   4.051   2.036   0.055 -0.3717  2.1635 -0.2465
 2361SOL     OW18715   4.399   4.510   4.195  0.0872 -0.2543 -0.5808
 2361SOL    HW118716   4.342   4.549   4.262  0.1446 -0.9983 -0.0957
 2361SOL    HW218717   4.465   4.463   4.246  0.4497 -0.9900 -1.7371
 2362SOL     OW18718   1.277   1.581   9.538 -0.1816  0.1651 -0.2134
 2362SOL    HW118719   1.215   1.538   9.480 -1.3954  1.7259 -0.0864
 2362SOL    HW218720   1.326   1.508   9.576 -0.9576 -0.2622 -0.0337
 2363SOL     OW18721   3.225   2.796   8.071 -0.1065  0.2118  0.2474
 2363SOL    HW118722   3.134   2.789   8.099 -0.5894 -1.3633 -1.7210
 2363SOL    HW218723   3.223   2.876   8.018 -0.6393 -0.6402 -1.0132
 2364SOL     OW18724   2.078   0.388   8.304 -0.6956 -0.4228 -0.1160
 2364SOL    HW118725   2.095   0.477   8.273  1.8408 -0.7007  0.4718
 2364SOL    HW218726   2.141   0.342   8.250  0.6684  2.2740 -0.8001
 2365SOL     OW18727   3.275   1.480   4.337 -0.7519 -0.2993  0.3180
 2365SOL    HW118728   3.191   1.466   4.294  0.5079 -0.3683 -2.1546
 2365SOL    HW218729   3.330   1.500   4.261 -0.4910  1.1829  0.9008
 2366SOL     OW18730   0.329   4.141   0.035 -0.1966  0.5706  0.9718
 2366SOL    HW118731   0.400   4.110  17.721 -0.2643 -0.2232  1.3212
 2366SOL    HW218732   0.373   4.217   0.074 -1.1984  1.4101  0.4561
 2367SOL     OW18733   4.281   1.401   9.973  0.0980 -0.0344  0.1207
 2367SOL    HW118734   4.241   1.319   9.947  1.3996 -1.2956  2.1586
 2367SOL    HW218735   4.205   1.447  10.009 -0.3960 -1.2419  0.6008
 2368SOL     OW18736   1.258   4.593   9.704 -0.0942  0.3325  0.8190
 2368SOL    HW118737   1.350   4.568   9.692 -0.0083  1.4514 -0.9206
 2368SOL    HW218738   1.259   4.686   9.680 -3.0099  0.1875  0.1066
 2369SOL     OW18739   2.638   4.041   5.465 -0.0207  0.3907 -0.6118
 2369SOL    HW118740   2.702   4.056   5.535 -0.0141  0.1301 -0.5604
 2369SOL    HW218741   2.603   4.126   5.441  0.0353  0.6494  0.2236
 2370SOL     OW18742   0.184   4.712  13.706  0.4723  0.4949 -0.2687
 2370SOL    HW118743   0.237   0.034  13.651 -1.7510  2.3019 -0.5013
 2370SOL    HW218744   0.260   4.672  13.749 -0.9544 -2.1133 -0.1717
 2371SOL     OW18745   4.364   0.410   5.823 -0.0391  0.1713  0.1960
 2371SOL    HW118746   4.319   0.328   5.801 -2.4126  1.3019  0.8418
 2371SOL    HW218747   4.314   0.438   5.900  1.8953  1.4744  0.9648
 2372SOL     OW18748   3.168   0.229   8.969  0.2893  0.0345  0.1704
 2372SOL    HW118749   3.170   0.135   8.986 -1.2048 -0.3332 -1.7626
 2372SOL    HW218750   3.262   0.243   8.955  0.1428 -0.4898 -1.3633
 2373SOL     OW18751   0.754   1.188   3.886  0.0535  0.2040 -0.1140
 2373SOL    HW118752   0.740   1.102   3.927 -0.2083  0.1756 -0.2592
 2373SOL    HW218753   0.779   1.243   3.961 -0.5319 -0.6648  0.7328
 2374SOL     OW18754   2.926   3.694  13.851  0.5328  0.0910  0.3245
 2374SOL    HW118755   2.832   3.706  13.838  0.4307 -2.4413 -1.2490
 2374SOL    HW218756   2.938   3.612  13.803  0.9787  0.4387 -0.1541
 2375SOL     OW18757   0.139   4.258  13.774 -0.4273  0.3637 -0.1062
 2375SOL    HW118758   0.099   4.335  13.734 -1.9705 -0.2528  0.2588
 2375SOL    HW218759   0.097   4.190  13.721 -2.5399  0.0751  1.9356
 2376SOL     OW18760   2.326   4.573   0.857 -0.6684 -0.2377  0.1386
 2376SOL    HW118761   2.246   4.521   0.861  0.6314 -2.0872  1.7693
 2376SOL    HW218762   2.299   4.662   0.880 -3.0800  0.1663 -4.2908
 2377SOL     OW18763   3.928   2.981   7.851  0.3053 -0.0488 -0.2817
 2377SOL    HW118764   3.951   2.900   7.806 -0.4379  0.2495 -1.2005
 2377SOL    HW218765   3.877   2.946   7.923 -0.6624  2.5370  0.2750
 2378SOL     OW18766   0.466   4.272   2.392  0.4293  0.0638 -0.4833
 2378SOL    HW118767   0.374   4.265   2.419  0.6988  2.4598  1.0949
 2378SOL    HW218768   0.461   4.231   2.306 -1.2555 -0.7963  0.0212
 2379SOL     OW18769   3.419   0.406   7.933 -0.2162  0.3820  0.3816
 2379SOL    HW118770   3.354   0.465   7.971  0.1281  0.0660  1.4416
 2379SOL    HW218771   3.461   0.461   7.866 -5.2003  1.6030 -1.7522
 2380SOL     OW18772   2.425   0.293   2.159  0.2104  0.4128  1.0778
 2380SOL    HW118773   2.386   0.215   2.199 -4.3311 -0.1404 -4.5340
 2380SOL    HW218774   2.510   0.267   2.124 -0.1550  1.0574 -0.2838
 2381SOL     OW18775   3.448   3.690   3.358 -0.2247  0.5822  0.5504
 2381SOL    HW118776   3.403   3.606   3.342  1.8221 -0.5133  0.5869
 2381SOL    HW218777   3.380   3.755   3.375 -1.3299  0.0146 -1.6665
 2382SOL     OW18778   3.629   4.235  11.019  0.3650 -0.5300  0.4153
 2382SOL    HW118779   3.568   4.196  10.957  2.0277 -0.4003 -1.2860
 2382SOL    HW218780   3.714   4.207  10.986 -0.1345 -3.3335  1.5034
 2383SOL     OW18781   2.192   2.683   5.189  0.3033 -0.3887  0.1842
 2383SOL    HW118782   2.218   2.664   5.099 -1.2009 -0.8752 -0.1393
 2383SOL    HW218783   2.278   2.667   5.228  0.0610 -0.6684  0.6117
 2384SOL     OW18784   4.270   4.470   4.982 -0.2444 -0.2472 -0.1569
 2384SOL    HW118785   4.346   4.418   5.009  1.1070  2.0219  0.4043
 2384SOL    HW218786   4.294   4.563   4.989  1.6306 -0.8070  0.8120
 2385SOL     OW18787   0.207   0.958   8.241  0.5505 -0.0336 -0.1150
 2385SOL    HW118788   0.209   0.914   8.156  0.5641  2.3736 -1.3488
 2385SOL    HW218789   0.172   0.891   8.301  2.0070 -0.9557 -0.2997
 2386SOL     OW18790   4.214   3.478   3.876 -0.6819 -0.2934  0.6006
 2386SOL    HW118791   4.223   3.513   3.965 -0.6471  0.7103  0.2069
 2386SOL    HW218792   4.150   3.413   3.906 -0.3756 -0.7211  0.3250
 2387SOL     OW18793   3.730   3.584   6.528 -0.5082 -0.0779 -0.2705
 2387SOL    HW118794   3.733   3.492   6.553  1.6221  0.3408  0.9842
 2387SOL    HW218795   3.641   3.588   6.493 -0.3578  0.1786 -0.6275
 2388SOL     OW18796   0.683   2.765   3.748  0.4971  0.8512  0.3461
 2388SOL    HW118797   0.674   2.744   3.841  1.8440 -0.1889  0.2417
 2388SOL    HW218798   0.670   2.858   3.729  1.7887  0.9963  0.2032
 2389SOL     OW18799   3.226   0.875  11.185  0.1750 -0.2720 -0.6509
 2389SOL    HW118800   3.190   0.936  11.120  0.4509  0.0320 -0.5175
 2389SOL    HW218801   3.203   0.787  11.157  0.8860 -1.0692  1.2975
 2390SOL     OW18802   3.475   0.384   1.746 -0.5323  0.0505  0.1610
 2390SOL    HW118803   3.455   0.414   1.835  2.9271  1.2182  0.5398
 2390SOL    HW218804   3.517   0.302   1.768 -0.1676  0.7896  2.2080
 2391SOL     OW18805   4.553   1.310   5.089  0.2248 -0.4939 -0.3049
 2391SOL    HW118806   4.549   1.296   5.184 -0.0416 -0.1827 -0.2702
 2391SOL    HW218807   4.568   1.220   5.061  0.0312 -0.9334  0.9888
 2392SOL     OW18808   2.228   1.566  10.817 -0.3247  0.1469  0.2850
 2392SOL    HW118809   2.266   1.558  10.729  0.9167  0.9555  0.7450
 2392SOL    HW218810   2.223   1.474  10.844  0.6533 -0.1307 -0.4689
 2393SOL     OW18811   0.250   4.088   5.403  0.0368 -0.3086 -0.9021
 2393SOL    HW118812   0.234   4.117   5.493  0.5829  0.8536 -1.1790
 2393SOL    HW218813   0.171   4.037   5.381 -0.1096  0.6431 -2.5529
 2394SOL     OW18814   3.034   3.936   4.483 -0.0872  0.4189  0.0194
 2394SOL    HW118815   3.115   3.902   4.446 -1.1174 -0.2703 -1.5916
 2394SOL    HW218816   3.009   3.974   4.398  0.4683 -1.5276 -0.9990
 2395SOL     OW18817   4.265   0.843   3.638 -0.5169  0.1660 -0.0614
 2395SOL    HW118818   4.206   0.918   3.645  0.7783  1.0881  0.7514
 2395SOL    HW218819   4.328   0.865   3.705 -0.0505 -0.1263 -0.4015
 2396SOL     OW18820   4.091   2.680   6.149  0.3734  0.4676  0.5304
 2396SOL    HW118821   4.059   2.759   6.106  1.1049  1.0372  1.0501
 2396SOL    HW218822   4.016   2.621   6.146 -1.7450  2.9773  3.8812
 2397SOL     OW18823   1.136   1.340   4.452 -0.3006  0.2854  0.0481
 2397SOL    HW118824   1.097   1.365   4.535  0.6356 -1.5824  1.0490
 2397SOL    HW218825   1.191   1.266   4.478  0.7113  0.7185 -0.8484
 2398SOL     OW18826   2.743   4.433   8.376 -0.6516  0.2031 -0.2507
 2398SOL    HW118827   2.734   4.374   8.301 -1.3572 -0.4095  0.3145
 2398SOL    HW218828   2.685   4.508   8.364  1.1023  1.9567  2.1211
 2399SOL     OW18829   2.254   0.897   8.223 -0.7706  0.4311  0.0721
 2399SOL    HW118830   2.161   0.909   8.205 -0.5964 -1.5358 -2.0372
 2399SOL    HW218831   2.255   0.912   8.318  1.7183 -1.3825  0.3471
 2400SOL     OW18832   3.828   4.058   1.914  0.4238  0.1355  0.2549
 2400SOL    HW118833   3.837   3.979   1.862 -2.6060  0.7200 -1.1537
 2400SOL    HW218834   3.736   4.081   1.902  0.5438  0.1053 -0.7177
 2401SOL     OW18835   4.532   0.863  12.995 -0.1266 -0.4532  0.3084
 2401SOL    HW118836   4.503   0.886  12.906  1.6208 -0.7610 -0.3508
 2401SOL    HW218837   4.451   0.822  13.024  0.3988 -0.7165  1.3955
 2402SOL     OW18838   4.638   3.892   7.999 -0.2425  0.2520 -0.2284
 2402SOL    HW118839   4.569   3.931   7.946 -0.6936 -2.0358 -1.3387
 2402SOL    HW218840   4.637   3.806   7.957 -0.6036  1.4006 -2.5901
 2403SOL     OW18841   3.411   3.431  16.357 -0.5402 -0.1173  0.2226
 2403SOL    HW118842   3.363   3.503  16.318 -1.6872 -0.2852  1.3700
 2403SOL    HW218843   3.463   3.409  16.279  1.8985  0.1914  1.7446
 2404SOL     OW18844   4.105   1.275   8.360 -0.5194  0.1930  0.2381
 2404SOL    HW118845   4.087   1.191   8.318  2.6514  0.5249 -1.7447
 2404SOL    HW218846   4.198   1.288   8.343 -0.1075 -2.4335  0.5670
 2405SOL     OW18847   0.800   3.948   7.628  0.0101  0.0866 -0.3274
 2405SOL    HW118848   0.711   3.915   7.623 -0.4529  1.3503 -0.3545
 2405SOL    HW218849   0.786   4.019   7.691  1.5796 -0.5297  0.7389
 2406SOL     OW18850   2.660   3.869   3.864  0.6428 -0.4739 -0.0741
 2406SOL    HW118851   2.680   3.782   3.829  0.9920 -0.0145 -1.0142
 2406SOL    HW218852   2.741   3.920   3.872  0.6044 -0.3853 -0.2634
 2407SOL     OW18853   2.957   3.068   3.164  0.4292  0.6388  0.4985
 2407SOL    HW118854   3.007   3.002   3.117 -0.3606  0.5854 -0.2750
 2407SOL    HW218855   2.880   3.082   3.109 -0.2330  3.0265  2.0324
 2408SOL     OW18856   4.220   1.098   6.433  0.5517 -0.1811 -0.4876
 2408SOL    HW118857   4.238   1.065   6.522 -0.2947  0.1750 -0.1824
 2408SOL    HW218858   4.291   1.160   6.414  0.4950 -0.2710 -0.9723
 2409SOL     OW18859   2.330   2.248   1.671  0.3588 -0.1987 -0.0388
 2409SOL    HW118860   2.320   2.293   1.754  0.7202  0.4085 -0.3268
 2409SOL    HW218861   2.419   2.212   1.675  0.8063  1.1068  1.8519
 2410SOL     OW18862   3.679   3.098   9.549  0.3654  0.2223 -0.2473
 2410SOL    HW118863   3.755   3.090   9.492 -1.1216 -1.5118 -1.9888
 2410SOL    HW218864   3.621   3.036   9.505  1.6744 -2.0540  1.1816
 2411SOL     OW18865   4.277   2.788  12.785  0.2039 -0.5428 -0.0572
 2411SOL    HW118866   4.324   2.843  12.848 -0.3168 -0.4605  0.2665
 2411SOL    HW218867   4.284   2.825  12.697  1.5084  1.5247  0.9071
 2412SOL     OW18868   3.096   2.008   7.456 -0.7858 -0.0759 -0.1265
 2412SOL    HW118869   3.112   1.941   7.389 -2.4879 -0.0397 -0.5686
 2412SOL    HW218870   3.001   2.015   7.456 -0.9309 -2.0328 -1.3042
 2413SOL     OW18871   2.215   1.071  11.272 -0.1268  0.8562  0.0239
 2413SOL    HW118872   2.286   1.081  11.336 -0.0831 -0.2764  0.1500
 2413SOL    HW218873   2.191   1.162  11.251  2.2895  0.9638 -2.2457
 2414SOL     OW18874   4.010   3.810   5.506 -0.6379 -0.5685 -0.2702
 2414SOL    HW118875   4.101   3.840   5.506 -0.3078 -1.5441  2.3348
 2414SOL    HW218876   3.983   3.818   5.415  0.8495  0.7967 -0.5973
 2415SOL     OW18877   2.306   2.135   8.642  0.4750  0.3734  0.0911
 2415SOL    HW118878   2.235   2.191   8.675 -0.0185 -0.2722  0.1160
 2415SOL    HW218879   2.362   2.206   8.610  0.0440  1.3454  1.4765
 2416SOL     OW18880   4.326   1.542   2.348  0.7782  0.5379 -0.0683
 2416SOL    HW118881   4.334   1.636   2.334  1.5918  0.5567  0.5350
 2416SOL    HW218882   4.355   1.489   2.274 -0.2465 -0.3282  0.1458
 2417SOL     OW18883   3.658   1.582   6.017 -0.3017  0.0730 -0.1234
 2417SOL    HW118884   3.602   1.657   5.993  0.9814  1.3715  0.9379
 2417SOL    HW218885   3.708   1.571   5.936 -1.6786  3.0259 -1.4136
 2418SOL     OW18886   1.646   0.333   4.728  0.1352  0.0273  0.5772
 2418SOL    HW118887   1.621   0.316   4.638 -0.3455  1.2733  0.4681
 2418SOL    HW218888   1.735   0.299   4.738  0.3722  0.6386  0.5218
 2419SOL     OW18889   3.191   2.264  15.724  0.7851  0.5197  0.2095
 2419SOL    HW118890   3.172   2.193  15.663  0.4710 -0.1970  1.1468
 2419SOL    HW218891   3.268   2.295  15.676  1.4105 -2.4428 -0.6591
 2420SOL     OW18892   4.657   1.598   3.525  0.0535  0.2503  0.3264
 2420SOL    HW118893   4.732   1.657   3.528  1.1903 -1.0475 -2.5570
 2420SOL    HW218894   4.701   1.514   3.513  1.6947  1.0707  0.5182
 2421SOL     OW18895   1.480   0.071   5.790  0.1081 -0.0200 -0.1693
 2421SOL    HW118896   1.396   0.096   5.752 -0.9942 -1.7222  1.1278
 2421SOL    HW218897   1.509   0.010   5.723 -0.2784 -0.7390  0.3200
 2422SOL     OW18898   4.412   4.267  10.477 -0.3195 -0.1855  0.6160
 2422SOL    HW118899   4.464   4.197  10.516 -0.5394 -0.7177 -0.0426
 2422SOL    HW218900   4.335   4.254  10.532  0.5026 -1.6455  1.4189
 2423SOL     OW18901   0.563   3.351  16.580 -0.3305  0.1932 -0.2583
 2423SOL    HW118902   0.516   3.432  16.601 -2.2417 -0.7869 -0.7080
 2423SOL    HW218903   0.629   3.343  16.649  0.1640 -1.6622 -0.9508
 2424SOL     OW18904   1.666   0.979   7.517  0.4338  0.0195  0.1224
 2424SOL    HW118905   1.642   1.068   7.490 -0.6304 -0.4042 -0.3253
 2424SOL    HW218906   1.611   0.922   7.464 -1.1452 -0.9539  2.7735
 2425SOL     OW18907   4.208   3.456   5.045  0.0828 -0.4078  0.1579
 2425SOL    HW118908   4.174   3.387   4.988  2.1544 -1.2126 -0.1171
 2425SOL    HW218909   4.234   3.516   4.975 -1.3566 -1.6117 -1.3967
 2426SOL     OW18910   3.904   4.440   8.512 -0.5471  0.1728  0.1353
 2426SOL    HW118911   3.996   4.422   8.529 -0.2794 -0.3171 -1.8957
 2426SOL    HW218912   3.907   4.523   8.560 -1.8310 -0.1424  0.7686
 2427SOL     OW18913   4.305   3.969   1.223  0.2822  0.3503  0.3364
 2427SOL    HW118914   4.354   4.015   1.155  1.7948 -1.6141  0.0638
 2427SOL    HW218915   4.290   4.044   1.280 -2.7089 -0.3902  0.5318
 2428SOL     OW18916   2.207   3.223   4.500 -0.0916 -0.1338 -0.1499
 2428SOL    HW118917   2.243   3.253   4.417 -2.4134  0.1433 -1.0606
 2428SOL    HW218918   2.152   3.296   4.528 -2.1285 -1.5466 -0.3862
 2429SOL     OW18919   3.153   1.465  13.208  0.1550  0.4648 -0.0452
 2429SOL    HW118920   3.082   1.513  13.164 -0.3807 -0.6138 -0.3649
 2429SOL    HW218921   3.115   1.467  13.295 -0.3291  2.7823 -0.3253
 2430SOL     OW18922   1.111   3.484  10.193 -0.2195  0.3929  0.5658
 2430SOL    HW118923   1.029   3.496  10.242 -0.1815  1.0163  0.4740
 2430SOL    HW218924   1.163   3.549  10.239  2.6818 -0.2709 -1.7437
 2431SOL     OW18925   1.208   0.371   3.593 -0.1277  0.2698  0.2318
 2431SOL    HW118926   1.232   0.413   3.511 -2.6266  1.0507 -0.0897
 2431SOL    HW218927   1.252   0.287   3.578 -1.2764 -0.0133 -1.4985
 2432SOL     OW18928   4.667   3.317   5.313  0.3645 -0.0450  0.0593
 2432SOL    HW118929   4.603   3.367   5.263 -0.4290 -1.4017 -0.2849
 2432SOL    HW218930   4.733   3.290   5.250  1.7993  1.6671  0.8459
 2433SOL     OW18931   0.265   4.003  17.236  0.1261 -0.6257  0.1174
 2433SOL    HW118932   0.179   4.010  17.278  1.1340  0.6450  1.9633
 2433SOL    HW218933   0.266   4.061  17.159 -0.3989  0.5300  0.9905
 2434SOL     OW18934   1.739   2.280   2.586 -0.1458  0.1119 -0.1207
 2434SOL    HW118935   1.801   2.210   2.607 -0.1992 -0.4913 -1.9684
 2434SOL    HW218936   1.695   2.253   2.506 -0.3505 -1.0909  0.3888
 2435SOL     OW18937   3.705   1.742  17.263 -0.4919  0.8683  0.0677
 2435SOL    HW118938   3.718   1.670  17.325 -2.0927 -0.4240 -1.0885
 2435SOL    HW218939   3.784   1.791  17.285  0.0078 -0.8318  2.0712
 2436SOL     OW18940   2.376   0.223  17.661  0.1542  0.0265 -0.1047
 2436SOL    HW118941   2.405   0.153  17.719 -2.9951 -1.1073  0.0997
 2436SOL    HW218942   2.389   0.299  17.718 -1.1266 -0.5581  0.9361
 2437SOL     OW18943   0.511   2.747  11.030 -0.0281 -0.1664 -0.7175
 2437SOL    HW118944   0.443   2.797  10.985  0.9476  1.1150 -0.7912
 2437SOL    HW218945   0.468   2.666  11.056  0.4710  0.4976  2.1630
 2438SOL     OW18946   3.901   1.954   7.790  0.4666  0.4093 -0.7793
 2438SOL    HW118947   3.905   2.011   7.867 -1.1945  0.3073 -0.6194
 2438SOL    HW218948   3.808   1.943   7.769  0.0532  1.5802  0.4498
 2439SOL     OW18949   0.920   3.828   1.291  0.0899  0.2682 -0.0598
 2439SOL    HW118950   0.961   3.766   1.351 -0.6347  0.2742  0.4340
 2439SOL    HW218951   0.980   3.812   1.217 -0.5585 -0.9224 -0.3184
 2440SOL     OW18952   0.006   2.266   1.344  0.1207 -0.2858  0.0244
 2440SOL    HW118953   4.719   2.351   1.381  2.6674 -0.1691  1.3083
 2440SOL    HW218954   0.061   2.296   1.272 -0.6469  0.2624 -0.3293
 2441SOL     OW18955   1.602   1.058  17.281 -0.7428  0.3852  0.0640
 2441SOL    HW118956   1.648   1.132  17.319 -1.4836  1.1811 -0.5992
 2441SOL    HW218957   1.605   0.987  17.346 -1.4082  0.3379  0.0431
 2442SOL     OW18958   0.085   0.991  10.761  0.0932 -0.2640 -0.0582
 2442SOL    HW118959   0.116   1.000  10.851  0.5946 -2.8261  0.0238
 2442SOL    HW218960   0.077   0.897  10.744  0.7813 -0.3362  0.0206
 2443SOL     OW18961   3.245   2.361   0.092 -0.3331 -0.4928  0.1172
 2443SOL    HW118962   3.162   2.409   0.090 -0.4180 -0.7450 -2.7203
 2443SOL    HW218963   3.224   2.312   0.172  2.7796  0.8371  1.7303
 2444SOL     OW18964   0.747   3.777   8.009  0.4925  0.3772  0.1668
 2444SOL    HW118965   0.728   3.844   8.075  0.0135  0.4184 -0.0122
 2444SOL    HW218966   0.827   3.820   7.981  0.2216  0.0408 -1.1131
 2445SOL     OW18967   3.403   0.068   4.118  0.3635 -0.2680 -0.6944
 2445SOL    HW118968   3.481   0.051   4.169  0.0602 -0.8539 -0.4339
 2445SOL    HW218969   3.437   0.099   4.034 -0.4149  0.2573 -0.8216
 2446SOL     OW18970   1.642   2.864   2.290  0.3126  0.2410 -0.1826
 2446SOL    HW118971   1.636   2.821   2.376 -0.2948  0.3696 -0.1606
 2446SOL    HW218972   1.550   2.883   2.275  0.1264 -1.2683 -0.9766
 2447SOL     OW18973   0.415   3.269   7.892  0.1125  0.4078 -0.1350
 2447SOL    HW118974   0.368   3.259   7.975  1.5664 -1.2960  0.4823
 2447SOL    HW218975   0.341   3.250   7.834  1.8600 -0.8253 -1.9456
 2448SOL     OW18976   1.696   0.557  17.460  0.7134 -0.0707  0.3115
 2448SOL    HW118977   1.624   0.613  17.487  1.7584  1.0280  0.7943
 2448SOL    HW218978   1.659   0.475  17.493  1.4990 -0.5809 -0.0533
 2449SOL     OW18979   2.715   4.601   2.380 -0.6097 -0.0220 -0.0713
 2449SOL    HW118980   2.718   4.506   2.377 -0.7634 -0.0680  1.2443
 2449SOL    HW218981   2.639   4.617   2.323 -0.7918  0.8378  0.4040
 2450SOL     OW18982   1.236   0.968   6.480  0.1756 -0.3490 -0.2402
 2450SOL    HW118983   1.176   0.904   6.441  1.4766 -0.6427 -1.7727
 2450SOL    HW218984   1.193   1.054   6.483  0.4155 -0.2613  0.8385
 2451SOL     OW18985   4.322   4.361   3.050 -0.0863  0.4975 -0.2399
 2451SOL    HW118986   4.287   4.283   3.006 -3.0724  1.3330  0.6540
 2451SOL    HW218987   4.272   4.432   3.012  0.5468  1.6519  1.0809
 2452SOL     OW18988   3.950   3.707   3.378 -0.2682 -0.0147  0.2473
 2452SOL    HW118989   4.011   3.719   3.451  2.1348 -0.7511 -1.6414
 2452SOL    HW218990   3.897   3.640   3.422 -1.9122  2.1002  1.5001
 2453SOL     OW18991   3.681   4.040  13.418  0.5252 -0.7094  0.5771
 2453SOL    HW118992   3.710   4.102  13.485 -1.4389  0.6329  0.1708
 2453SOL    HW218993   3.588   4.064  13.414  0.2748 -1.4970  1.4977
 2454SOL     OW18994   1.728   2.615  17.187 -0.2982 -0.4201 -0.2853
 2454SOL    HW118995   1.636   2.638  17.181 -0.1899 -0.2845 -1.6145
 2454SOL    HW218996   1.747   2.613  17.093 -0.3448  2.3338 -0.3604
 2455SOL     OW18997   2.511   1.685   5.683  0.5152  0.0618 -0.6844
 2455SOL    HW118998   2.595   1.720   5.715 -0.1832  0.3205  0.8931
 2455SOL    HW218999   2.476   1.668   5.771 -0.4580 -2.2402 -1.5090
 2456SOL     OW19000   2.482   0.206   2.770 -0.2759  0.3664  0.2656
 2456SOL    HW119001   2.407   0.261   2.793 -1.6886 -1.4633  0.0663
 2456SOL    HW219002   2.514   0.158   2.846  0.6620  2.5831  1.2467
 2457SOL     OW19003   1.276   0.316  10.529  0.3763 -0.5873 -0.1572
 2457SOL    HW119004   1.250   0.238  10.580  0.8834  0.2592  1.4085
 2457SOL    HW219005   1.341   0.359  10.585  1.7450 -0.9875 -1.4573
 2458SOL     OW19006   4.718   0.461  17.242 -0.8157  0.0714 -0.2508
 2458SOL    HW119007   4.703   0.417  17.326 -1.5037  2.8270  1.0783
 2458SOL    HW219008   4.630   0.500  17.233 -0.7098  0.4285  0.2688
 2459SOL     OW19009   0.209   3.002   7.298 -0.0751  0.3717 -0.8651
 2459SOL    HW119010   0.218   2.958   7.213 -1.7558  0.0941 -0.9007
 2459SOL    HW219011   0.123   3.044   7.304 -0.5579 -0.7854  0.2587
 2460SOL     OW19012   0.470   0.616   8.484  0.0036  0.0318  0.1597
 2460SOL    HW119013   0.515   0.693   8.519  0.2567  1.2941 -2.9853
 2460SOL    HW219014   0.475   0.555   8.558  0.4905 -1.2050 -0.8941
 2461SOL     OW19015   2.656   0.566  12.315 -0.5454  0.2481 -0.0394
 2461SOL    HW119016   2.708   0.498  12.273 -2.5238 -1.6980  0.6293
 2461SOL    HW219017   2.630   0.609  12.234  0.4690  1.0123  0.0448
 2462SOL     OW19018   4.138   3.012   9.870 -0.3025  0.1522  0.4392
 2462SOL    HW119019   4.167   3.103   9.879 -0.1637  0.1511  0.0327
 2462SOL    HW219020   4.065   2.997   9.930 -0.2279  0.5110  0.6206
 2463SOL     OW19021   4.067   0.910   1.037 -0.0303 -0.1965  0.2030
 2463SOL    HW119022   4.137   0.861   0.994  0.8634  1.1525  0.1342
 2463SOL    HW219023   3.997   0.845   1.051 -0.1496  0.5890  3.1879
 2464SOL     OW19024   1.089   0.453   5.351 -0.3254  0.4799  0.2596
 2464SOL    HW119025   1.049   0.436   5.436 -4.3801 -4.9426 -2.7389
 2464SOL    HW219026   1.065   0.379   5.295 -1.5457  0.3145  1.0190
 2465SOL     OW19027   3.676   2.964   6.651  0.4466 -0.2756 -0.3829
 2465SOL    HW119028   3.660   2.874   6.680  0.4334 -0.9677 -2.5582
 2465SOL    HW219029   3.725   2.950   6.570 -0.2085  1.2270 -1.0323
 2466SOL     OW19030   2.479   2.332   5.480 -0.2124 -0.2985 -0.0895
 2466SOL    HW119031   2.571   2.358   5.474 -0.0440 -0.2144  2.7943
 2466SOL    HW219032   2.492   2.242   5.449  0.2398 -0.2145 -0.1448
 2467SOL     OW19033   1.062   1.815   2.527 -0.0353 -0.3071  0.0063
 2467SOL    HW119034   0.998   1.745   2.521  0.2781 -0.6802  0.9829
 2467SOL    HW219035   1.086   1.810   2.620 -1.5441  1.7925  0.5302
 2468SOL     OW19036   3.882   0.453  14.512 -0.0940  0.6660 -0.3115
 2468SOL    HW119037   3.844   0.538  14.533  0.0280  0.5084  0.5738
 2468SOL    HW219038   3.973   0.473  14.489  0.5379 -1.4098  0.3009
 2469SOL     OW19039   3.513   1.711   7.052 -0.0314  0.3651 -0.3572
 2469SOL    HW119040   3.562   1.793   7.057  0.9280 -0.2249  0.0012
 2469SOL    HW219041   3.437   1.732   6.998 -1.8884 -0.8618  1.8067
 2470SOL     OW19042   1.757   0.565   0.595  0.5885  0.4659 -1.0433
 2470SOL    HW119043   1.780   0.533   0.682 -0.7451  0.2748 -0.7740
 2470SOL    HW219044   1.843   0.570   0.553  2.2139  4.2022  2.7101
 2471SOL     OW19045   2.660   0.769   5.236 -0.1740 -0.8381  0.8092
 2471SOL    HW119046   2.604   0.837   5.197 -1.6206 -0.1728  4.0452
 2471SOL    HW219047   2.672   0.707   5.165  1.1026  0.5203 -0.1722
 2472SOL     OW19048   4.684   3.695   4.203 -0.1793 -0.2623  0.7222
 2472SOL    HW119049   0.026   3.648   4.233  0.1716  0.5573  1.0981
 2472SOL    HW219050   4.687   3.774   4.256  0.3009 -0.1783  0.5638
 2473SOL     OW19051   2.043   4.557   5.699  0.0405  0.1037 -0.1273
 2473SOL    HW119052   2.096   4.516   5.631 -0.7182 -0.8375 -0.1339
 2473SOL    HW219053   2.016   4.472   5.733  0.2458  0.0387 -0.1270
 2474SOL     OW19054   4.446   3.983   4.561 -0.2105 -0.0015  0.0940
 2474SOL    HW119055   4.436   4.057   4.502  0.7014  0.1464  0.1246
 2474SOL    HW219056   4.428   3.906   4.507 -0.1884  0.5726 -0.7286
 2475SOL     OW19057   4.623   1.356   1.798  0.0522 -0.5921  0.3000
 2475SOL    HW119058   4.680   1.396   1.732 -1.5713  0.3197 -0.5369
 2475SOL    HW219059   4.540   1.348   1.752  0.0163 -0.4748  0.3440
 2476SOL     OW19060   3.884   3.434   7.089 -0.4346  0.9373 -0.0881
 2476SOL    HW119061   3.948   3.505   7.088  1.9083 -1.0828  2.7621
 2476SOL    HW219062   3.844   3.453   7.005 -0.5844  1.1452  0.0330
 2477SOL     OW19063   1.752   0.508  16.430 -0.2925 -0.4664  0.5719
 2477SOL    HW119064   1.745   0.604  16.432 -0.8181 -0.4980  0.3126
 2477SOL    HW219065   1.835   0.496  16.384 -1.4852  1.2322 -2.0294
 2478SOL     OW19066   2.098   4.167   3.094  0.0387  0.5354 -0.8525
 2478SOL    HW119067   2.147   4.247   3.108 -2.4198  1.8265  0.3774
 2478SOL    HW219068   2.146   4.107   3.152 -2.3220  0.3876  0.9524
 2479SOL     OW19069   2.908   4.618   3.446 -0.1598 -0.2909 -0.4382
 2479SOL    HW119070   2.989   4.635   3.496 -1.1845  1.5572  0.6085
 2479SOL    HW219071   2.902   4.707   3.410  2.2303 -0.3704 -1.0570
 2480SOL     OW19072   3.424   2.495   7.185  0.8480 -0.2141 -0.4637
 2480SOL    HW119073   3.377   2.576   7.206 -0.1790 -1.0605  0.4225
 2480SOL    HW219074   3.407   2.501   7.091  2.6616  0.7171 -0.7411
 2481SOL     OW19075   1.439   4.042   6.615  0.1672  0.2033 -1.1231
 2481SOL    HW119076   1.445   4.070   6.706 -0.6445  1.8069 -1.5575
 2481SOL    HW219077   1.432   3.947   6.621  0.5267  0.1910 -0.8900
 2482SOL     OW19078   2.019   1.469   6.193 -0.5776  0.1891  0.2237
 2482SOL    HW119079   2.066   1.444   6.272  1.6177 -2.2265 -1.8731
 2482SOL    HW219080   1.970   1.388   6.179 -0.3133  0.0806 -0.0523
 2483SOL     OW19081   0.082   0.429  10.554 -0.6963  0.1719  0.6857
 2483SOL    HW119082   0.130   0.444  10.636 -0.7116 -1.9964  1.1051
 2483SOL    HW219083   4.735   0.389  10.583 -0.9760 -0.4378 -0.9394
 2484SOL     OW19084   2.355   3.080   6.657 -0.3962  0.0469  0.0823
 2484SOL    HW119085   2.399   3.071   6.741  1.5259 -0.6475 -0.9998
 2484SOL    HW219086   2.353   2.990   6.625 -1.3616 -0.0282  0.3636
 2485SOL     OW19087   3.348   4.289   8.460 -0.7085 -0.1571  0.1027
 2485SOL    HW119088   3.331   4.376   8.497 -2.5401  0.1121 -1.3751
 2485SOL    HW219089   3.260   4.264   8.431 -0.9389  0.9397 -0.1543
 2486SOL     OW19090   1.579   2.755   6.680  0.2048  0.1574  0.2066
 2486SOL    HW119091   1.672   2.768   6.699  0.3899 -0.9593  0.0347
 2486SOL    HW219092   1.556   2.843   6.650 -1.9192 -0.2850  0.5963
 2487SOL     OW19093   4.523   3.305   5.838 -0.0427  0.0465 -0.0032
 2487SOL    HW119094   4.593   3.348   5.888  1.5589 -0.0098 -2.1753
 2487SOL    HW219095   4.451   3.365   5.857  1.4653  1.9204 -0.1092
 2488SOL     OW19096   4.300   4.310  14.647 -0.3824 -0.3397 -0.4781
 2488SOL    HW119097   4.317   4.223  14.610  1.2047 -0.3572  0.3050
 2488SOL    HW219098   4.278   4.365  14.571 -1.1792 -0.7761 -0.5599
 2489SOL     OW19099   4.455   2.122   3.288 -0.8319 -0.5819 -0.1006
 2489SOL    HW119100   4.415   2.064   3.222 -1.9167  0.9277 -0.7858
 2489SOL    HW219101   4.493   2.058   3.348 -2.2391 -1.5575 -0.2272
 2490SOL     OW19102   3.521   1.239  11.775 -0.4146 -0.3715 -0.0348
 2490SOL    HW119103   3.477   1.323  11.759  2.4419  1.2820  0.7901
 2490SOL    HW219104   3.587   1.237  11.706 -1.6720 -1.8270 -1.1736
 2491SOL     OW19105   1.383   2.376   7.973  0.7006  0.3987  0.3333
 2491SOL    HW119106   1.297   2.335   7.981  0.8325  0.1811  0.6168
 2491SOL    HW219107   1.374   2.431   7.895 -3.1322  1.5166  1.5609
 2492SOL     OW19108   3.476   1.381   2.174  0.4898 -0.3230 -0.1469
 2492SOL    HW119109   3.462   1.350   2.263  2.0858  1.7905  0.8677
 2492SOL    HW219110   3.412   1.321   2.138  0.0785 -1.0736  1.8280
 2493SOL     OW19111   0.430   3.232   6.709  0.2838 -0.2122  0.0484
 2493SOL    HW119112   0.496   3.298   6.727 -1.4698  1.5663 -0.0341
 2493SOL    HW219113   0.354   3.267   6.757 -0.0777 -0.2539 -0.4972
 2494SOL     OW19114   2.900   1.349   7.472 -0.2448 -0.2315 -0.3163
 2494SOL    HW119115   2.845   1.427   7.472  3.0091  2.0873  0.9981
 2494SOL    HW219116   2.848   1.269   7.467  0.7793 -1.0947  2.6453
 2495SOL     OW19117   0.112   3.259   5.124  0.5582  0.3887 -0.2440
 2495SOL    HW119118   0.172   3.290   5.192  0.9288 -0.7894 -0.0306
 2495SOL    HW219119   0.166   3.245   5.046  0.3632  2.8239 -0.8036
 2496SOL     OW19120   2.844   1.668  10.079 -0.0308 -0.6838 -0.3036
 2496SOL    HW119121   2.758   1.707  10.068  0.5177  1.0709  1.6313
 2496SOL    HW219122   2.832   1.647  10.172  2.2025  0.3654  0.2197
 2497SOL     OW19123   3.166   0.793  11.917  0.1316  0.0468  0.2934
 2497SOL    HW119124   3.163   0.766  11.825  0.1464  0.4970  0.1606
 2497SOL    HW219125   3.083   0.760  11.949  0.3432 -1.1992 -0.4533
 2498SOL     OW19126   0.021   0.226   8.168  0.2802 -0.1552  0.2712
 2498SOL    HW119127   0.076   0.162   8.124  1.0701  1.9998 -1.8523
 2498SOL    HW219128   4.670   0.187   8.158  0.4161 -0.4389  0.2102
 2499SOL     OW19129   3.241   2.668   4.824  0.0878  0.5184 -0.1376
 2499SOL    HW119130   3.298   2.744   4.837 -1.6234  1.3193  2.6429
 2499SOL    HW219131   3.259   2.607   4.896  3.8802  0.7798 -0.8688
 2500SOL     OW19132   0.147   0.756   7.715  0.1589  0.5896  0.5668
 2500SOL    HW119133   0.180   0.763   7.805  2.6207  0.5237 -0.3427
 2500SOL    HW219134   0.074   0.700   7.743 -1.5579  2.2860 -0.5635
 2501SOL     OW19135   0.294   0.141   9.326 -0.2666  0.1863 -0.3171
 2501SOL    HW119136   0.350   0.180   9.393  0.4804 -0.6437 -0.4491
 2501SOL    HW219137   0.356   0.070   9.308  1.1328  1.0466  1.1466
 2502SOL     OW19138   1.185   4.184   9.895 -0.1819 -0.4115  0.0464
 2502SOL    HW119139   1.161   4.233   9.974  0.3422 -0.5091  0.2639
 2502SOL    HW219140   1.276   4.194   9.867 -0.1365 -1.8138 -0.3058
 2503SOL     OW19141   1.383   0.343   7.257  0.1083 -0.3998  0.3073
 2503SOL    HW119142   1.439   0.280   7.211  0.6882  0.5239 -0.2564
 2503SOL    HW219143   1.441   0.419   7.264 -1.0782  0.7523 -1.9506
 2504SOL     OW19144   0.855   0.704   4.069  0.3265  0.5912  0.3258
 2504SOL    HW119145   0.927   0.647   4.041 -0.6462 -0.8691  0.7555
 2504SOL    HW219146   0.802   0.637   4.113 -0.5764  1.3658  0.4084
 2505SOL     OW19147   4.016   1.993   8.615  0.4830 -0.5076  0.1012
 2505SOL    HW119148   3.990   2.079   8.581  0.6663 -0.4606  0.0790
 2505SOL    HW219149   4.110   2.008   8.608  0.2552  1.5365  1.5944
 2506SOL     OW19150   1.889   1.804   3.911 -0.0561  0.1298 -0.6135
 2506SOL    HW119151   1.902   1.838   4.000 -2.1734  0.2934 -0.3644
 2506SOL    HW219152   1.794   1.798   3.917 -0.0530 -0.4485 -1.2210
 2507SOL     OW19153   3.456   2.807  10.829 -0.5838 -0.1377 -0.3755
 2507SOL    HW119154   3.408   2.887  10.850  0.7740  0.4309  0.5572
 2507SOL    HW219155   3.455   2.755  10.910 -0.5292  0.4081 -0.0221
 2508SOL     OW19156   3.337   2.127   4.814 -0.4164  0.1936 -0.5261
 2508SOL    HW119157   3.354   2.174   4.895  0.6713  0.2990 -0.8147
 2508SOL    HW219158   3.262   2.075   4.843 -1.1025  2.4844  1.7816
 2509SOL     OW19159   4.012   3.317   3.970  0.4090  0.1107 -0.2462
 2509SOL    HW119160   4.048   3.229   3.977 -0.4168 -0.1622  0.4920
 2509SOL    HW219161   4.020   3.345   4.061  1.0992 -0.8162 -0.0248
 2510SOL     OW19162   3.688   1.212   5.849  0.4081 -0.2955 -0.0327
 2510SOL    HW119163   3.739   1.163   5.914  1.4765  0.7395 -0.0723
 2510SOL    HW219164   3.761   1.221   5.788  0.3345  0.6280  0.0173
 2511SOL     OW19165   4.588   0.172   5.032 -0.6889  0.2577  0.2632
 2511SOL    HW119166   4.572   0.251   4.980  1.3583 -0.8967 -2.1243
 2511SOL    HW219167   4.674   0.193   5.067 -0.8833  2.1298 -0.3596
 2512SOL     OW19168   2.876   3.118  12.859 -0.2100 -0.1385  0.4461
 2512SOL    HW119169   2.783   3.100  12.840 -1.0904  2.3879  2.4303
 2512SOL    HW219170   2.922   3.071  12.790  2.1110 -0.6580  2.3625
 2513SOL     OW19171   0.282   0.580   1.923 -0.5207 -0.5377  0.7715
 2513SOL    HW119172   0.206   0.528   1.949  0.0403 -1.3214  0.8396
 2513SOL    HW219173   0.247   0.622   1.845  0.1809 -1.0967  0.1585
 2514SOL     OW19174   3.513   2.118   3.142  0.1953 -0.0288  0.0662
 2514SOL    HW119175   3.566   2.183   3.095 -1.2852  2.3897  1.6994
 2514SOL    HW219176   3.574   2.086   3.208  1.2496  0.6878 -0.5570
 2515SOL     OW19177   1.850   3.290   5.851  0.1995  0.3858  0.0961
 2515SOL    HW119178   1.859   3.259   5.761 -1.6225 -2.3124  0.8269
 2515SOL    HW219179   1.938   3.319   5.875  1.4366 -2.2857 -1.1822
 2516SOL     OW19180   1.074   2.082  12.777  0.2866  0.1948  0.1637
 2516SOL    HW119181   1.062   2.005  12.720  0.8866 -0.7502  1.3131
 2516SOL    HW219182   1.155   2.118  12.741  0.0888  1.1279  0.6698
 2517SOL     OW19183   2.972   2.095   7.092  0.1040  0.1655 -0.3568
 2517SOL    HW119184   2.945   2.131   7.177 -1.7104 -3.7733  0.7018
 2517SOL    HW219185   3.058   2.135   7.084 -0.1691  0.5337 -1.3566
 2518SOL     OW19186   2.775   3.142  16.254 -0.0661 -0.2190 -0.3217
 2518SOL    HW119187   2.687   3.178  16.242  0.8316  1.5831 -1.6271
 2518SOL    HW219188   2.775   3.056  16.214 -1.1871 -1.5577  2.5644
 2519SOL     OW19189   2.007   2.131  17.088 -0.2982 -0.3565 -0.3107
 2519SOL    HW119190   2.053   2.076  17.152 -0.9399 -0.1568  0.3261
 2519SOL    HW219191   2.083   2.157  17.036 -0.1262 -1.1358 -0.4478
 2520SOL     OW19192   0.815   3.973   8.620  0.1514 -0.2786  0.1236
 2520SOL    HW119193   0.836   3.913   8.550 -1.3392  0.2506 -0.7792
 2520SOL    HW219194   0.757   3.918   8.674 -0.8146  2.0546  1.4854
 2521SOL     OW19195   2.669   0.468  17.736 -0.0013  0.3591  0.4347
 2521SOL    HW119196   2.673   0.384  17.691  0.8269  0.2823  0.6507
 2521SOL    HW219197   2.675   0.532  17.665 -0.0038  0.2264  0.3152
 2522SOL     OW19198   3.254   4.594   5.692  0.2478 -0.0508 -0.0404
 2522SOL    HW119199   3.338   4.553   5.674 -0.5082 -1.3387 -0.6889
 2522SOL    HW219200   3.238   4.552   5.776  0.4015 -0.2925 -0.1334
 2523SOL     OW19201   2.586   3.471   1.780  0.4228  0.0947  0.5365
 2523SOL    HW119202   2.609   3.539   1.844  0.1423  1.7964 -1.1782
 2523SOL    HW219203   2.664   3.416   1.787  0.3602  0.2975  2.7620
 2524SOL     OW19204   2.566   1.311   5.751  0.1211 -0.0107  0.1399
 2524SOL    HW119205   2.584   1.347   5.838  0.0938  0.6706 -0.1413
 2524SOL    HW219206   2.634   1.359   5.705  1.3067  0.2326  2.1276
 2525SOL     OW19207   3.713   3.784  15.386 -0.2278 -0.2836  0.2685
 2525SOL    HW119208   3.775   3.764  15.455  0.3916 -1.0733 -0.5088
 2525SOL    HW219209   3.702   3.704  15.333 -0.1041 -0.1605  0.0538
 2526SOL     OW19210   4.521   3.507   5.524 -0.7569  0.2386 -0.0076
 2526SOL    HW119211   4.457   3.508   5.595 -0.8375 -2.5624 -0.0406
 2526SOL    HW219212   4.534   3.413   5.516 -1.9042  0.2235 -1.6961
 2527SOL     OW19213   0.895   0.929  12.961 -0.1469 -0.0475  0.2937
 2527SOL    HW119214   0.845   0.956  12.883  2.5756  0.8274 -1.1340
 2527SOL    HW219215   0.865   0.840  12.980 -1.2036  0.2286 -0.0710
 2528SOL     OW19216   3.136   0.318   2.022 -0.1772 -0.4809 -0.0892
 2528SOL    HW119217   3.172   0.344   2.106 -0.2534 -2.2976  0.5015
 2528SOL    HW219218   3.219   0.284   1.989 -0.4428  0.5176 -1.8266
 2529SOL     OW19219   0.358   1.928   9.167  0.2844  0.7751  0.3129
 2529SOL    HW119220   0.274   1.883   9.163 -0.0533  1.3268  1.1405
 2529SOL    HW219221   0.383   1.938   9.075  0.6901  0.1314  0.3553
 2530SOL     OW19222   2.614   1.310  10.336  0.2013  0.3509 -0.0383
 2530SOL    HW119223   2.611   1.259  10.255 -2.7986 -1.7045  1.3316
 2530SOL    HW219224   2.703   1.300  10.370 -0.3117 -2.0255  0.6006
 2531SOL     OW19225   2.929   4.080  10.763  0.1565 -0.0602 -0.1603
 2531SOL    HW119226   2.886   4.088  10.848  0.7195  1.6439 -0.0382
 2531SOL    HW219227   2.850   4.076  10.709  1.3016  0.4343 -1.8954
 2532SOL     OW19228   1.597   2.829   8.258 -0.0876 -0.4134  0.2805
 2532SOL    HW119229   1.531   2.894   8.232 -0.5845 -0.8759  0.3822
 2532SOL    HW219230   1.615   2.787   8.174  0.4161  0.8930 -0.2637
 2533SOL     OW19231   1.158   4.520   8.960 -0.2853 -0.5388 -0.2938
 2533SOL    HW119232   1.243   4.486   8.931 -1.0063 -2.5073 -0.1462
 2533SOL    HW219233   1.141   4.465   9.036 -0.9302  1.1383  0.7617
 2534SOL     OW19234   4.582   1.321  11.326  0.2685  0.3693 -0.6242
 2534SOL    HW119235   4.605   1.370  11.405 -1.0193 -1.3759  0.8363
 2534SOL    HW219236   4.632   1.240  11.335 -1.2115 -0.0668  3.8388
 2535SOL     OW19237   3.060   3.865   2.602  0.2552  0.3153  0.1363
 2535SOL    HW119238   3.079   3.822   2.518  1.3029 -1.4076  1.2708
 2535SOL    HW219239   3.146   3.905   2.618  0.3098  0.3131 -0.1498
 2536SOL     OW19240   2.161   0.301   9.038  0.1289 -0.6656 -0.0816
 2536SOL    HW119241   2.078   0.309   8.991 -0.3593  0.4335  0.9554
 2536SOL    HW219242   2.227   0.293   8.969  1.7026  0.6790  1.2680
 2537SOL     OW19243   0.935   2.132   4.268 -0.1798  0.2041 -0.1090
 2537SOL    HW119244   0.900   2.160   4.183 -0.5536 -2.6372 -0.9200
 2537SOL    HW219245   0.917   2.212   4.316 -1.6205  0.0031 -0.2929
 2538SOL     OW19246   2.758   4.457  12.367 -0.2990  0.3042  0.1823
 2538SOL    HW119247   2.798   4.372  12.349  0.4035  1.2462 -2.6557
 2538SOL    HW219248   2.699   4.426  12.435 -1.8286  2.2084 -0.2998
 2539SOL     OW19249   2.968   0.724  17.075 -0.3238  0.2530 -0.2726
 2539SOL    HW119250   3.030   0.738  17.146 -0.5663  2.9443 -0.5852
 2539SOL    HW219251   2.913   0.658  17.117 -0.5199 -0.4360 -1.6136
 2540SOL     OW19252   1.434   2.073   4.317  0.4179  0.3234  0.0820
 2540SOL    HW119253   1.422   2.163   4.347  0.8829  0.8160 -1.2166
 2540SOL    HW219254   1.418   2.081   4.223 -0.4197 -1.2409  0.0787
 2541SOL     OW19255   3.502   3.077   5.370 -0.0203 -0.7130 -0.6966
 2541SOL    HW119256   3.477   2.996   5.414  1.7941 -2.1043 -2.2655
 2541SOL    HW219257   3.594   3.089   5.392 -0.2870 -0.8777  0.4957
 2542SOL     OW19258   0.004   0.390   4.906 -0.4816  0.3701 -0.0718
 2542SOL    HW119259   0.075   0.328   4.890  1.0947  2.3873 -0.8721
 2542SOL    HW219260   0.034   0.444   4.979 -0.2812  3.4169 -2.4159
 2543SOL     OW19261   4.406   0.192   9.342  0.4066 -0.0808  0.0455
 2543SOL    HW119262   4.357   0.117   9.307 -0.0021 -0.1871  0.8469
 2543SOL    HW219263   4.378   0.177   9.432 -2.0663  0.5711 -0.6135
 2544SOL     OW19264   0.184   0.191   4.088  0.3424  0.4105 -0.0093
 2544SOL    HW119265   0.092   0.203   4.067  0.4152  0.3411 -0.3543
 2544SOL    HW219266   0.224   0.272   4.057  2.6036 -0.5326  0.4102
 2545SOL     OW19267   1.296   2.416  15.194  0.4622 -0.0561 -0.0583
 2545SOL    HW119268   1.331   2.455  15.274  2.4448 -1.8094 -0.0699
 2545SOL    HW219269   1.370   2.370  15.154  0.0588  2.4644 -3.6852
 2546SOL     OW19270   3.387   3.236   0.708  0.4408 -0.1128 -0.5586
 2546SOL    HW119271   3.306   3.287   0.719 -0.2466 -1.0754 -1.1712
 2546SOL    HW219272   3.433   3.252   0.790 -0.5250  0.4624 -0.1314
 2547SOL     OW19273   1.248   3.017   7.813 -0.1903  0.1183  0.1140
 2547SOL    HW119274   1.166   3.061   7.834 -0.8248 -0.6436 -0.7934
 2547SOL    HW219275   1.265   2.958   7.886  0.7140  0.4064  0.1420
 2548SOL     OW19276   1.979   0.266   2.961  0.1694  0.0528  0.0536
 2548SOL    HW119277   1.947   0.298   2.877  1.4404  0.0199 -0.4340
 2548SOL    HW219278   1.966   0.340   3.020  1.2732  1.7083 -1.7908
 2549SOL     OW19279   2.356   4.283   4.989 -0.1922 -0.1558 -0.6168
 2549SOL    HW119280   2.391   4.301   5.076 -0.8759 -1.1769 -0.1411
 2549SOL    HW219281   2.440   4.258   4.949  0.5080 -0.4587  1.0651
 2550SOL     OW19282   3.250   3.237   3.478  0.0781 -0.1909 -0.1411
 2550SOL    HW119283   3.344   3.229   3.494  0.1277  0.8698  0.0843
 2550SOL    HW219284   3.223   3.188   3.556 -1.2997  1.3622  0.3428
 2551SOL     OW19285   3.143   2.745   1.961 -0.2450 -0.3042 -0.4286
 2551SOL    HW119286   3.169   2.827   1.918 -1.1113 -0.7561 -1.8317
 2551SOL    HW219287   3.165   2.763   2.052  1.1995  1.0129 -1.0337
 2552SOL     OW19288   0.962   0.183   9.000  0.1291  0.6371  0.0933
 2552SOL    HW119289   1.045   0.191   8.952  0.0427  1.5000  0.0955
 2552SOL    HW219290   0.943   0.089   8.993 -0.2622  0.5678  2.1663
 2553SOL     OW19291   3.528   3.459   0.654 -0.1108  0.1279 -0.0719
 2553SOL    HW119292   3.590   3.433   0.723 -3.3692 -0.9487  2.4147
 2553SOL    HW219293   3.477   3.379   0.666 -0.3357 -0.1760 -3.0655
 2554SOL     OW19294   2.660   3.698   7.703 -0.0574  0.8315  0.0749
 2554SOL    HW119295   2.569   3.695   7.734 -0.0337 -0.4672  0.0575
 2554SOL    HW219296   2.689   3.627   7.761 -1.9172  0.9331  1.1165
 2555SOL     OW19297   2.489   3.905   4.601  0.2573  0.3662 -0.0648
 2555SOL    HW119298   2.518   3.932   4.688  0.1193  0.2383  0.0202
 2555SOL    HW219299   2.565   3.928   4.548  1.2710 -1.1914  0.7216
 2556SOL     OW19300   2.079   2.627   4.369  0.2160 -0.1010  0.0748
 2556SOL    HW119301   2.126   2.710   4.374 -1.0379  0.7852 -2.7498
 2556SOL    HW219302   2.134   2.579   4.307  0.4621 -1.2009  1.1568
 2557SOL     OW19303   1.121   3.167   6.034 -0.1278  0.9297 -0.3769
 2557SOL    HW119304   1.188   3.220   5.990  0.0124  0.0312 -1.2583
 2557SOL    HW219305   1.122   3.204   6.122 -0.1656 -1.7947  0.7702
 2558SOL     OW19306   4.027   4.077   6.057 -0.2769  0.4097 -0.3255
 2558SOL    HW119307   3.971   4.154   6.074  1.0624  1.6193 -1.3907
 2558SOL    HW219308   3.977   4.006   6.097  4.0784 -0.6876  3.1510
 2559SOL     OW19309   0.188   1.923  10.238 -0.0882 -0.2079 -0.2515
 2559SOL    HW119310   0.248   1.946  10.167 -1.6727  0.8222 -1.2757
 2559SOL    HW219311   0.136   2.003  10.233  0.6946  0.2162 -1.5239
 2560SOL     OW19312   3.239   3.459   4.248 -0.4670 -0.1899 -0.2150
 2560SOL    HW119313   3.203   3.372   4.263  0.2984 -0.2561  1.2322
 2560SOL    HW219314   3.328   3.441   4.280  0.3356  0.0812 -2.3043
 2561SOL     OW19315   1.986   0.194   3.587 -0.1902 -0.2001 -0.1558
 2561SOL    HW119316   1.969   0.216   3.495 -2.3698 -3.0219 -0.4458
 2561SOL    HW219317   1.932   0.116   3.601  0.7726 -0.8741 -0.2480
 2562SOL     OW19318   2.809   4.346   5.103 -0.0704  0.3459 -0.1364
 2562SOL    HW119319   2.841   4.371   5.190  0.2486  3.1748 -1.0725
 2562SOL    HW219320   2.856   4.265   5.083  1.9381  1.7392 -1.1169
 2563SOL     OW19321   0.816   0.799   3.149  0.0893  0.5043  0.0868
 2563SOL    HW119322   0.770   0.844   3.220  1.9440 -0.2340  1.7460
 2563SOL    HW219323   0.765   0.835   3.077  0.3604  0.6732 -0.0212
 2564SOL     OW19324   0.776   1.164  17.120 -0.0525  0.3109  0.0867
 2564SOL    HW119325   0.836   1.148  17.047 -1.8581 -1.3105 -1.0543
 2564SOL    HW219326   0.787   1.253  17.152  0.2162  0.6629 -0.9647
 2565SOL     OW19327   2.563   2.575  15.121 -0.1571 -0.0108 -0.2621
 2565SOL    HW119328   2.592   2.643  15.060 -0.6419  0.6289  0.2194
 2565SOL    HW219329   2.484   2.616  15.158  0.4433  0.5846  0.3576
 2566SOL     OW19330   3.255   0.464   5.652  0.3945 -0.5823 -0.0373
 2566SOL    HW119331   3.277   0.426   5.567 -0.8201 -2.0664  0.3169
 2566SOL    HW219332   3.204   0.391   5.687  0.2213 -0.6149 -0.3562
 2567SOL     OW19333   2.887   1.924   3.261  0.1357 -0.3261  0.1511
 2567SOL    HW119334   2.828   1.984   3.305 -1.8742 -1.0171 -1.5940
 2567SOL    HW219335   2.963   1.968   3.299 -1.5916  1.0728  1.9570
 2568SOL     OW19336   3.793   1.867   9.824  0.1102  0.1377 -0.3901
 2568SOL    HW119337   3.814   1.845   9.734 -1.9798  0.9099 -1.0685
 2568SOL    HW219338   3.698   1.858   9.833  0.1183 -0.2459 -0.6651
 2569SOL     OW19339   0.229   2.778  11.980 -0.0414  0.2654 -0.0091
 2569SOL    HW119340   0.142   2.740  11.980  0.5482 -1.0982 -0.6132
 2569SOL    HW219341   0.220   2.871  11.999 -3.7198 -0.2191  0.4777
 2570SOL     OW19342   4.331   3.003   6.661  0.0033 -0.2658  0.1988
 2570SOL    HW119343   4.403   3.012   6.599 -0.8621  0.6406 -0.6852
 2570SOL    HW219344   4.372   3.066   6.720 -1.0831  0.3765  0.2670
 2571SOL     OW19345   2.186   3.824  15.171 -0.1289  0.3486 -0.1212
 2571SOL    HW119346   2.280   3.814  15.185 -0.5947 -0.7864  2.2314
 2571SOL    HW219347   2.171   3.762  15.100 -0.7076  0.4817 -0.1161
 2572SOL     OW19348   3.563   1.268   3.920  0.3198 -0.0822  0.5272
 2572SOL    HW119349   3.521   1.255   3.835  1.6412 -1.7444  0.1336
 2572SOL    HW219350   3.491   1.252   3.981 -1.1280  0.3178 -1.0898
 2573SOL     OW19351   4.338   2.073   5.880  0.6612 -0.0615 -0.4707
 2573SOL    HW119352   4.328   2.168   5.883  2.2637  0.0689  0.8642
 2573SOL    HW219353   4.336   2.060   5.975 -0.1235 -0.7258 -0.5694
 2574SOL     OW19354   2.116   2.677   6.788  0.4085 -0.2225 -0.4744
 2574SOL    HW119355   2.126   2.700   6.880  1.2411  1.1497 -0.9065
 2574SOL    HW219356   2.183   2.731   6.747  1.6496 -0.9778  0.5338
 2575SOL     OW19357   2.135   2.808   3.085 -0.3371  0.6992  0.0452
 2575SOL    HW119358   2.152   2.902   3.087 -0.5535  0.7371  0.0438
 2575SOL    HW219359   2.057   2.794   3.032  1.3112 -1.8180 -1.7243
 2576SOL     OW19360   3.855   2.971   8.631 -0.3715  0.4459 -0.8050
 2576SOL    HW119361   3.910   2.898   8.603 -0.6603  0.1773 -0.6725
 2576SOL    HW219362   3.818   3.004   8.550 -3.1833  1.4662  0.8964
 2577SOL     OW19363   0.128   2.945   6.811  0.3260 -0.2570 -0.1583
 2577SOL    HW119364   0.151   2.863   6.769 -2.4281 -0.0511 -2.1092
 2577SOL    HW219365   0.034   2.926   6.820 -0.1155  0.1919 -3.7835
 2578SOL     OW19366   2.502   3.681   2.184  0.0135 -0.0759 -0.6130
 2578SOL    HW119367   2.426   3.718   2.140 -0.4018 -1.4720 -1.0785
 2578SOL    HW219368   2.471   3.590   2.187 -1.3850  0.4492  0.9661
 2579SOL     OW19369   0.413   1.701  11.102  0.4974 -1.0553  0.3538
 2579SOL    HW119370   0.332   1.701  11.154  0.0066 -1.4604 -0.4073
 2579SOL    HW219371   0.375   1.660  11.024  0.3666 -0.6118  0.1812
 2580SOL     OW19372   2.083   3.578   3.134  0.0286  0.0727  0.2863
 2580SOL    HW119373   2.123   3.509   3.185 -1.3020 -0.0349  1.1880
 2580SOL    HW219374   2.134   3.655   3.160 -0.7108  1.0105 -0.9703
 2581SOL     OW19375   2.035   1.619   1.212  0.4260  0.2854  0.3363
 2581SOL    HW119376   2.013   1.632   1.305 -1.9819 -3.3510  0.2826
 2581SOL    HW219377   2.077   1.533   1.221 -0.1256 -0.0832 -0.6596
 2582SOL     OW19378   4.059   1.335   7.835 -0.4301  0.4239  0.3316
 2582SOL    HW119379   4.067   1.344   7.740  0.0846 -0.2855  0.3028
 2582SOL    HW219380   4.116   1.401   7.874 -0.0869  0.1452  0.3095
 2583SOL     OW19381   3.093   1.340  17.147  0.3705 -0.1115  0.3234
 2583SOL    HW119382   3.169   1.344  17.205  0.0422  2.3156  0.5728
 2583SOL    HW219383   3.125   1.401  17.081 -0.4328 -0.4625 -0.3895
 2584SOL     OW19384   2.644   0.552   9.274 -0.4424 -0.2821  0.0709
 2584SOL    HW119385   2.683   0.465   9.258  0.9860  0.1167  1.3823
 2584SOL    HW219386   2.583   0.573   9.204  0.3936 -0.2652 -0.6619
 2585SOL     OW19387   4.649   3.100   3.042  0.1271 -0.4968 -0.4395
 2585SOL    HW119388   4.581   3.033   3.042 -0.8760  0.4984  1.7024
 2585SOL    HW219389   4.609   3.162   2.981 -2.7311  0.0691  2.0003
 2586SOL     OW19390   0.980   1.416   2.800 -0.1548  0.2054  0.0391
 2586SOL    HW119391   1.040   1.385   2.732  0.0986 -1.5151  1.0378
 2586SOL    HW219392   0.952   1.334   2.842 -0.3338  0.5462  0.5906
 2587SOL     OW19393   4.119   1.868   3.886 -0.0583 -0.2177  0.1414
 2587SOL    HW119394   4.210   1.892   3.902 -0.4792  2.1754 -1.0836
 2587SOL    HW219395   4.125   1.779   3.922 -0.7112 -0.8141 -1.1831
 2588SOL     OW19396   0.525   3.700   4.883  0.3727 -0.2617  0.9083
 2588SOL    HW119397   0.559   3.626   4.932  0.1561 -0.5368  0.6469
 2588SOL    HW219398   0.481   3.668   4.804  2.7266 -0.0685 -0.4559
 2589SOL     OW19399   3.336   0.725   0.865 -0.6731 -0.0167 -0.3086
 2589SOL    HW119400   3.343   0.659   0.796  0.9818 -0.1020 -0.0556
 2589SOL    HW219401   3.251   0.701   0.901  0.4078 -0.7087  1.8041
 2590SOL     OW19402   0.567   4.533   2.516 -0.0056  0.8852  0.3917
 2590SOL    HW119403   0.611   4.512   2.598  0.9608 -0.9894 -0.6130
 2590SOL    HW219404   0.506   4.460   2.503 -1.2574  1.6288  2.0982
 2591SOL     OW19405   1.517   0.760   8.604  0.3799  0.0587 -0.3099
 2591SOL    HW119406   1.554   0.833   8.654  1.1533 -2.7840  3.2293
 2591SOL    HW219407   1.581   0.750   8.533  0.5796  0.3693 -0.1758
 2592SOL     OW19408   3.708   0.317   9.339  0.1145 -0.5311  0.3037
 2592SOL    HW119409   3.645   0.317   9.412  1.0537 -0.0158  1.1037
 2592SOL    HW219410   3.651   0.302   9.264  0.6342  0.3860 -0.2698
 2593SOL     OW19411   0.465   3.266   3.256  0.1092  0.4761  0.0250
 2593SOL    HW119412   0.384   3.313   3.276  2.0431  3.6889  0.2387
 2593SOL    HW219413   0.427   3.186   3.220 -1.5715  0.8761  0.8737
 2594SOL     OW19414   1.370   1.755   5.495  0.3692 -0.0588  0.3639
 2594SOL    HW119415   1.292   1.718   5.453  0.6241  0.0759 -0.2316
 2594SOL    HW219416   1.361   1.848   5.472 -0.3909 -0.5131 -1.1922
 2595SOL     OW19417   1.635   2.034   9.045  0.6387  0.5363  0.1879
 2595SOL    HW119418   1.601   2.073   8.964 -0.5402  1.9400  1.3586
 2595SOL    HW219419   1.584   1.953   9.049 -0.6674  1.4212  1.6338
 2596SOL     OW19420   3.935   2.034   8.038  0.3416  0.0793  0.3909
 2596SOL    HW119421   3.903   1.945   8.056 -0.2886  0.1830 -0.1986
 2596SOL    HW219422   4.010   2.040   8.097  0.0383  0.6382  0.7101
 2597SOL     OW19423   1.952   3.101   8.010 -0.1487 -0.2468 -0.4544
 2597SOL    HW119424   1.861   3.072   8.006 -1.0079  2.4999 -0.6657
 2597SOL    HW219425   1.953   3.183   8.059  1.6054 -0.9750  0.7624
 2598SOL     OW19426   2.299   0.925   4.663  0.2411  0.2869 -0.1795
 2598SOL    HW119427   2.332   0.849   4.710 -1.3393  0.6874  1.5643
 2598SOL    HW219428   2.235   0.889   4.602  0.2027 -0.8726  0.5622
 2599SOL     OW19429   0.486   1.155  13.343  0.1183 -0.1801 -0.1484
 2599SOL    HW119430   0.467   1.119  13.256 -0.4993  0.3047 -0.2111
 2599SOL    HW219431   0.518   1.244  13.331  1.9550 -0.8454 -0.1345
 2600SOL     OW19432   0.123   2.324   6.798 -0.2158 -0.3733  0.5398
 2600SOL    HW119433   0.098   2.373   6.720 -0.7843 -1.2883  0.1576
 2600SOL    HW219434   0.216   2.342   6.809 -0.5065  0.5061  1.6636
 2601SOL     OW19435   4.679   1.355  11.578 -0.7526 -0.1028 -0.2483
 2601SOL    HW119436   0.028   1.309  11.577 -1.1315 -0.9230  3.6027
 2601SOL    HW219437   4.697   1.427  11.638 -0.7413 -2.6567  2.8246
 2602SOL     OW19438   1.436   3.733   5.590 -0.5354 -0.2392 -0.6245
 2602SOL    HW119439   1.448   3.672   5.517  1.1821 -0.6011 -0.0383
 2602SOL    HW219440   1.388   3.799   5.540 -0.5556 -1.3413 -2.0472
 2603SOL     OW19441   4.280   3.854   8.154 -0.0159  0.3404 -0.6333
 2603SOL    HW119442   4.191   3.827   8.129 -0.7166  2.3257 -0.2024
 2603SOL    HW219443   4.267   3.856   8.248  1.2190 -1.6641 -0.3907
 2604SOL     OW19444   2.604   1.826   2.259 -0.0699  0.0244 -0.5492
 2604SOL    HW119445   2.603   1.896   2.194 -0.7715 -1.7088 -2.4146
 2604SOL    HW219446   2.555   1.755   2.216  0.7400 -0.4369 -0.7170
 2605SOL     OW19447   0.664   3.382   4.316 -0.3251 -0.2084 -0.1114
 2605SOL    HW119448   0.685   3.398   4.408  1.7217  2.6276 -1.0730
 2605SOL    HW219449   0.683   3.297   4.276  2.8028  0.9505 -1.0520
 2606SOL     OW19450   2.545   2.631   1.368  0.5786 -0.2225  0.2773
 2606SOL    HW119451   2.618   2.638   1.429  1.0066  0.4693 -0.3132
 2606SOL    HW219452   2.499   2.550   1.391 -0.0211  0.3154  0.9580
 2607SOL     OW19453   3.266   2.601  15.237 -0.2454  0.3138 -0.2119
 2607SOL    HW119454   3.339   2.662  15.227  0.1718 -0.2291 -0.4675
 2607SOL    HW219455   3.297   2.517  15.205 -0.4098  0.1823 -0.0249
 2608SOL     OW19456   2.643   0.175   8.808  0.4409 -0.0774  0.1397
 2608SOL    HW119457   2.735   0.153   8.822  0.4288  0.2607  0.7476
 2608SOL    HW219458   2.601   0.174   8.894  3.4218 -0.0950  1.5719
 2609SOL     OW19459   2.499   1.694   5.217  0.3734 -0.3015  0.2159
 2609SOL    HW119460   2.424   1.731   5.262  0.1737 -1.5782  0.9329
 2609SOL    HW219461   2.463   1.612   5.183  1.6497 -1.6247  2.0728
 2610SOL     OW19462   2.280   2.133   8.180  0.1098  0.1247 -0.5453
 2610SOL    HW119463   2.319   2.057   8.136 -1.3632 -1.5478  1.0664
 2610SOL    HW219464   2.340   2.201   8.149  2.4149 -0.6642  2.2116
 2611SOL     OW19465   1.071   0.127   1.812 -0.1452 -0.2344  0.0643
 2611SOL    HW119466   1.117   0.192   1.759  2.7924 -0.4813  2.3057
 2611SOL    HW219467   1.069   0.049   1.756  1.9544  0.2367 -0.6565
 2612SOL     OW19468   2.553   1.060   8.215  0.2467 -0.0297  0.2673
 2612SOL    HW119469   2.610   1.000   8.167 -0.5501 -0.9543  0.4757
 2612SOL    HW219470   2.613   1.128   8.248 -0.0585 -0.3176  1.4141
 2613SOL     OW19471   0.276   1.146   4.372  0.2168 -0.6985 -0.3966
 2613SOL    HW119472   0.248   1.121   4.284  0.3508  0.1794 -0.6977
 2613SOL    HW219473   0.194   1.180   4.407 -0.3260 -1.9187 -0.5177
 2614SOL     OW19474   3.449   3.686   8.668  0.9863  0.1348 -0.3038
 2614SOL    HW119475   3.421   3.670   8.578  0.0241  1.6487 -0.2662
 2614SOL    HW219476   3.393   3.763   8.682  1.8194  0.8531 -0.9396
 2615SOL     OW19477   0.422   3.375   4.135 -0.1142  0.5544  0.0447
 2615SOL    HW119478   0.342   3.327   4.115  0.7997 -0.5879 -0.8523
 2615SOL    HW219479   0.475   3.301   4.166 -2.3060 -1.0940 -0.1279
 2616SOL     OW19480   0.822   2.164   8.493 -0.2012 -0.1751 -0.3523
 2616SOL    HW119481   0.746   2.193   8.544 -0.0737 -0.6209  0.0997
 2616SOL    HW219482   0.784   2.115   8.420  0.1931 -2.8923  1.2163
 2617SOL     OW19483   3.755   2.648   3.511 -0.2047 -0.1521 -0.3931
 2617SOL    HW119484   3.754   2.704   3.588 -0.7155  0.6067 -0.9591
 2617SOL    HW219485   3.687   2.685   3.455 -1.4402 -1.6487  0.1263
 2618SOL     OW19486   4.602   2.667   2.262 -0.3581 -0.4721 -0.2337
 2618SOL    HW119487   4.674   2.728   2.250 -0.2260 -0.7509 -0.8829
 2618SOL    HW219488   4.532   2.721   2.298 -1.5032 -1.7988 -0.4428
 2619SOL     OW19489   2.515   1.021   6.618  0.1053 -0.3084  0.4535
 2619SOL    HW119490   2.493   1.114   6.620  0.1135 -0.2982  0.1164
 2619SOL    HW219491   2.429   0.984   6.600  1.3848 -1.9381 -2.3104
 2620SOL     OW19492   2.141   2.962   7.879 -0.8488 -0.3594 -0.2316
 2620SOL    HW119493   2.111   2.871   7.869 -1.8190 -0.1867  1.1863
 2620SOL    HW219494   2.071   3.010   7.922 -0.2018  1.0431 -0.7326
 2621SOL     OW19495   3.382   1.637   5.467 -0.1692 -0.3257 -0.3760
 2621SOL    HW119496   3.333   1.719   5.464 -0.3927 -0.4844 -1.0674
 2621SOL    HW219497   3.402   1.631   5.561 -0.3079  0.4345 -0.2930
 2622SOL     OW19498   1.564   0.358   7.889  0.0158 -0.4985 -0.0668
 2622SOL    HW119499   1.479   0.399   7.877 -0.1730 -0.3448  1.8427
 2622SOL    HW219500   1.533   0.269   7.906 -0.1503 -0.5476 -0.6011
 2623SOL     OW19501   2.878   4.501   2.630 -0.3090 -0.3620  0.5994
 2623SOL    HW119502   2.851   4.482   2.540 -1.2316 -2.5170  1.3230
 2623SOL    HW219503   2.804   4.545   2.672 -0.6346  1.0767 -1.4670
 2624SOL     OW19504   1.055   2.726   6.508 -0.4578 -0.4648  0.3453
 2624SOL    HW119505   1.091   2.781   6.438 -2.2942  0.0897 -0.1569
 2624SOL    HW219506   1.000   2.785   6.559 -0.1151  2.4637 -2.6786
 2625SOL     OW19507   3.069   0.895   3.156 -0.1071  0.2735  0.4088
 2625SOL    HW119508   3.162   0.900   3.178 -0.3037 -0.2232  1.3618
 2625SOL    HW219509   3.033   0.971   3.201  0.6724  0.0086  1.4911
 2626SOL     OW19510   4.151   0.849   5.250 -0.2072 -0.6302 -0.2272
 2626SOL    HW119511   4.111   0.906   5.184  0.9887 -1.9088 -2.0730
 2626SOL    HW219512   4.221   0.811   5.195  1.3373  1.7045  0.1430
 2627SOL     OW19513   1.765   2.425  11.463  0.0926 -0.1248  0.1651
 2627SOL    HW119514   1.784   2.515  11.490 -2.5087  0.4990 -0.0210
 2627SOL    HW219515   1.718   2.440  11.381 -0.5933  0.2751  0.6258
 2628SOL     OW19516   1.207   3.014   2.869 -0.1367 -0.0381  0.2361
 2628SOL    HW119517   1.135   3.008   2.932  0.1116  0.1664  0.5323
 2628SOL    HW219518   1.277   3.064   2.909  0.2391 -0.8270  0.5753
 2629SOL     OW19519   4.441   2.616   5.297 -0.4281  0.1086 -0.1531
 2629SOL    HW119520   4.468   2.620   5.206  1.1419 -1.3352  0.2475
 2629SOL    HW219521   4.502   2.675   5.343 -1.4647  0.8397  0.2992
 2630SOL     OW19522   1.396   0.908   9.638  0.2716  0.0161  0.5720
 2630SOL    HW119523   1.317   0.878   9.683  0.6179 -1.2686  0.3035
 2630SOL    HW219524   1.386   1.003   9.629  1.2843 -0.1381 -2.1767
 2631SOL     OW19525   4.415   3.388   4.304  0.4146 -0.0277  0.3445
 2631SOL    HW119526   4.478   3.424   4.366  0.2763  1.3844 -0.3379
 2631SOL    HW219527   4.427   3.446   4.229  3.2270  1.7964  2.2425
 2632SOL     OW19528   0.372   2.191   2.889  0.3408 -0.1846 -0.6772
 2632SOL    HW119529   0.385   2.230   2.803  1.2967  2.5865  0.7422
 2632SOL    HW219530   0.400   2.101   2.873  1.8730 -0.1892  1.9185
 2633SOL     OW19531   2.875   1.780  14.706 -0.5966  0.5502 -0.3283
 2633SOL    HW119532   2.871   1.794  14.611 -0.8556  0.9671 -0.2558
 2633SOL    HW219533   2.800   1.722  14.716 -1.2326  1.2935 -0.7471
 2634SOL     OW19534   0.838   3.544   4.046  0.5678 -0.2413  0.1745
 2634SOL    HW119535   0.831   3.448   4.050 -0.3679 -0.2610 -1.7146
 2634SOL    HW219536   0.931   3.544   4.066  0.1796 -1.5812  1.9759
 2635SOL     OW19537   3.064   1.166   1.316  0.0578  0.0180  0.5350
 2635SOL    HW119538   3.128   1.209   1.374  1.4415 -0.5471 -0.5639
 2635SOL    HW219539   3.121   1.152   1.240 -0.4608  3.9119 -0.5680
 2636SOL     OW19540   1.718   2.531   7.098 -0.3272 -0.0334 -0.1985
 2636SOL    HW119541   1.771   2.514   7.021  0.3776 -1.1257  0.5130
 2636SOL    HW219542   1.722   2.445   7.141 -3.2301  0.5532  1.2069
 2637SOL     OW19543   3.017   1.785   8.976  0.2384  0.1302 -0.4886
 2637SOL    HW119544   2.994   1.870   8.937 -2.2424 -0.7122 -0.8373
 2637SOL    HW219545   2.931   1.757   9.006  0.4486 -0.7359 -0.7006
 2638SOL     OW19546   0.248   2.522   4.446  0.4439 -0.0802  0.1465
 2638SOL    HW119547   0.274   2.440   4.404  1.7761  1.5751 -2.2204
 2638SOL    HW219548   0.263   2.499   4.538  0.5609  0.6293  0.3002
 2639SOL     OW19549   4.003   2.165   3.487  0.5446 -0.1736 -0.4136
 2639SOL    HW119550   3.948   2.225   3.537  1.1016  0.2510 -0.3128
 2639SOL    HW219551   3.944   2.091   3.474 -0.4933  0.1612  2.2958
 2640SOL     OW19552   1.631   4.087   3.762 -0.3360 -0.4985 -0.2149
 2640SOL    HW119553   1.591   4.077   3.849 -0.8495  0.7977 -0.2985
 2640SOL    HW219554   1.617   4.005   3.716 -0.2229 -1.2940  1.1598
 2641SOL     OW19555   0.718   1.069   3.269 -0.7277  0.1954  0.1806
 2641SOL    HW119556   0.675   1.135   3.215 -1.2955 -1.4376 -1.3757
 2641SOL    HW219557   0.673   1.078   3.353 -0.7334  0.5822  0.1327
 2642SOL     OW19558   1.169   1.748  10.226 -0.4939 -0.0997 -0.8003
 2642SOL    HW119559   1.262   1.747  10.248 -0.6168  1.6176 -0.2352
 2642SOL    HW219560   1.156   1.842  10.238 -2.4568 -0.3928 -0.6602
 2643SOL     OW19561   4.697   4.630   4.101 -0.5800 -0.4807  0.3911
 2643SOL    HW119562   4.617   4.623   4.153 -0.2424 -0.5888  0.9027
 2643SOL    HW219563   4.661   4.701   4.048 -1.1297 -2.3568 -1.7680
 2644SOL     OW19564   0.585   3.500   0.320 -0.0263 -0.1770  0.2639
 2644SOL    HW119565   0.518   3.521   0.255  1.5268  0.0486 -1.2910
 2644SOL    HW219566   0.536   3.448   0.383 -0.8027  1.2205  0.8016
 2645SOL     OW19567   0.960   1.506   6.516 -0.1024  0.0923  0.0116
 2645SOL    HW119568   0.987   1.462   6.597  1.7611  0.7136 -0.2769
 2645SOL    HW219569   0.887   1.556   6.554 -0.2505 -1.0829  1.2591
 2646SOL     OW19570   3.428   1.665   2.079  0.0626  0.7050  0.1380
 2646SOL    HW119571   3.453   1.606   2.150  2.1263 -1.3955 -2.3119
 2646SOL    HW219572   3.501   1.724   2.098  0.6947  0.1557 -0.5559
 2647SOL     OW19573   4.504   0.966  16.755 -0.4212  0.0755  0.0683
 2647SOL    HW119574   4.476   0.985  16.844 -0.6706 -1.3088  0.2816
 2647SOL    HW219575   4.566   1.039  16.752  1.7440 -1.7403  0.4572
 2648SOL     OW19576   0.674   1.491   8.233  0.4203 -0.1233 -0.8143
 2648SOL    HW119577   0.598   1.501   8.290  0.0042  0.6550 -1.5101
 2648SOL    HW219578   0.712   1.407   8.261  2.1601  1.0307  0.3147
 2649SOL     OW19579   3.757   4.730   3.236  0.3461 -0.1844 -0.2185
 2649SOL    HW119580   3.808   4.701   3.311  1.0954  1.2585 -0.1674
 2649SOL    HW219581   3.765   4.651   3.182  0.0461 -0.4454  0.1134
 2650SOL     OW19582   3.888   1.000  17.521 -0.0558 -0.2280 -0.3343
 2650SOL    HW119583   3.889   0.965  17.610 -2.0376  0.7462  0.0642
 2650SOL    HW219584   3.892   1.092  17.547  0.8846 -0.5706  0.7476
 2651SOL     OW19585   4.566   2.496  14.365  0.0300  0.3912  0.2779
 2651SOL    HW119586   4.510   2.570  14.344 -0.3752 -0.2016 -0.7349
 2651SOL    HW219587   4.553   2.430  14.297 -2.3067 -1.0616  2.1360
 2652SOL     OW19588   2.892   4.676  13.529  0.5898 -0.0297 -0.2950
 2652SOL    HW119589   2.867   4.591  13.564  0.4658 -0.7993 -2.2432
 2652SOL    HW219590   2.939   4.637  13.456  0.5464 -0.2142 -0.2230
 2653SOL     OW19591   3.719   0.241  12.884 -0.1756  0.4041 -0.0314
 2653SOL    HW119592   3.641   0.231  12.939 -1.6258  1.2464 -1.9332
 2653SOL    HW219593   3.782   0.188  12.934 -1.6594 -2.0179 -0.7319
 2654SOL     OW19594   1.106   4.438   3.323 -0.3686 -0.7111 -0.1624
 2654SOL    HW119595   1.179   4.414   3.265 -0.3048 -1.1164  0.0871
 2654SOL    HW219596   1.101   4.356   3.371  0.1113 -0.5570  0.1456
 2655SOL     OW19597   0.642   1.633   1.742 -0.5738  0.4254  0.1673
 2655SOL    HW119598   0.604   1.636   1.654 -0.4615 -2.9205  0.0029
 2655SOL    HW219599   0.586   1.561   1.772  0.6162 -0.5147  0.1448
 2656SOL     OW19600   4.212   3.817   7.263 -0.2739  0.4111 -0.1095
 2656SOL    HW119601   4.118   3.837   7.261 -0.8298 -2.3027 -0.8952
 2656SOL    HW219602   4.222   3.785   7.352  2.4277 -0.6527 -0.8095
 2657SOL     OW19603   2.875   2.990   1.444  0.0160 -0.1577  0.4694
 2657SOL    HW119604   2.883   3.019   1.353 -0.7432 -2.0965 -0.2100
 2657SOL    HW219605   2.787   3.021   1.468  0.8381  1.3741  1.4855
 2658SOL     OW19606   4.159   2.609  14.527 -0.1517 -0.0887  0.2990
 2658SOL    HW119607   4.114   2.582  14.607  0.2010 -1.2960  0.0894
 2658SOL    HW219608   4.248   2.589  14.557 -0.2961 -0.6714  0.3322
 2659SOL     OW19609   2.429   0.416  17.482  0.0287 -0.0823 -0.1082
 2659SOL    HW119610   2.389   0.363  17.552 -0.1578  0.4325  0.1781
 2659SOL    HW219611   2.365   0.487  17.478 -0.9590 -1.1225 -2.8142
 2660SOL     OW19612   2.515   2.512   3.718 -0.0274  0.0858 -0.1650
 2660SOL    HW119613   2.425   2.489   3.694  0.8425 -1.9829 -1.4958
 2660SOL    HW219614   2.562   2.474   3.643 -1.2147 -0.3722 -0.6681
 2661SOL     OW19615   3.929   2.474   3.841  0.0648 -0.1768  0.0582
 2661SOL    HW119616   3.916   2.566   3.866  1.3670 -0.4861  1.8693
 2661SOL    HW219617   4.019   2.462   3.872 -0.0786 -0.0436  0.5320
 2662SOL     OW19618   3.249   0.418  10.888 -0.6115  0.1205 -0.4419
 2662SOL    HW119619   3.223   0.408  10.797 -0.8170 -1.0953 -0.2482
 2662SOL    HW219620   3.187   0.366  10.939 -0.6629 -1.0875 -1.7288
 2663SOL     OW19621   4.504   3.342   9.121 -0.2382  0.6142 -0.2633
 2663SOL    HW119622   4.438   3.410   9.107  0.4487  0.8919 -2.0924
 2663SOL    HW219623   4.479   3.310   9.208  2.6504 -0.3306  0.2058
 2664SOL     OW19624   1.221   4.193  11.413 -0.2499  0.3541  0.0810
 2664SOL    HW119625   1.317   4.182  11.412 -0.1337  1.5150 -1.2270
 2664SOL    HW219626   1.219   4.249  11.336 -1.3875  2.2652  1.4965
 2665SOL     OW19627   4.601   3.622  10.204 -0.1220 -0.0570  0.4152
 2665SOL    HW119628   4.562   3.608  10.291 -1.9132  2.6742  0.0642
 2665SOL    HW219629   4.661   3.692  10.228 -0.1588  0.4640 -1.0481
 2666SOL     OW19630   3.702   2.874   8.857  0.4125 -0.0673  0.2214
 2666SOL    HW119631   3.768   2.913   8.799  0.2575 -0.7901 -0.4403
 2666SOL    HW219632   3.631   2.938   8.855 -0.2700 -0.8230  0.4498
 2667SOL     OW19633   3.990   2.634   1.516 -0.1347  0.5088 -0.2562
 2667SOL    HW119634   3.965   2.624   1.608  0.2763  1.0511 -0.0867
 2667SOL    HW219635   4.041   2.557   1.493  0.5117  0.4987  1.2116
 2668SOL     OW19636   0.818   1.303  16.700 -0.4678  0.3181  0.2310
 2668SOL    HW119637   0.761   1.237  16.740 -1.7829  2.0080  1.1606
 2668SOL    HW219638   0.898   1.284  16.748 -0.7060 -1.3874 -0.0366
 2669SOL     OW19639   0.978   2.378   6.253  0.4324 -0.2689 -0.4462
 2669SOL    HW119640   1.059   2.395   6.204  0.5730  0.2212 -0.0511
 2669SOL    HW219641   0.968   2.286   6.231  0.8868 -0.7907  1.5649
 2670SOL     OW19642   4.029   1.652   3.307  0.0477 -0.6153 -0.1295
 2670SOL    HW119643   4.097   1.640   3.372  0.7286  1.6541 -0.4248
 2670SOL    HW219644   4.071   1.702   3.237 -1.7243  3.6447  1.8874
 2671SOL     OW19645   4.406   3.402   5.196  0.4388  0.3621  0.3624
 2671SOL    HW119646   4.385   3.476   5.254  0.1981  0.5200  0.0733
 2671SOL    HW219647   4.325   3.410   5.145  0.4026  1.0061  0.5144
 2672SOL     OW19648   2.905   0.968  17.410 -0.0117 -0.0903  0.2747
 2672SOL    HW119649   2.994   0.951  17.379 -0.0760 -0.8386  0.4899
 2672SOL    HW219650   2.907   0.902  17.480 -0.2449 -1.8346 -1.3703
 2673SOL     OW19651   4.216   0.593   0.316  0.3617 -0.1401 -0.0707
 2673SOL    HW119652   4.256   0.621   0.399  1.6470 -1.1371 -0.3570
 2673SOL    HW219653   4.128   0.566   0.344  0.8855 -0.5123  1.2227
 2674SOL     OW19654   3.617   4.252   8.109  0.0013 -0.0644  0.2583
 2674SOL    HW119655   3.617   4.283   8.199  0.8015  0.2075  0.1621
 2674SOL    HW219656   3.696   4.297   8.079 -1.1454 -0.0806 -2.7532
 2675SOL     OW19657   1.641   1.116  15.576 -0.2063  0.0242 -0.5716
 2675SOL    HW119658   1.729   1.083  15.593 -0.4008 -0.5416 -0.6770
 2675SOL    HW219659   1.627   1.175  15.650  0.8142 -0.5021  0.0488
 2676SOL     OW19660   3.016   1.697   4.234 -0.3237  0.0041 -0.3764
 2676SOL    HW119661   3.039   1.696   4.327  1.0896 -0.0976 -0.7240
 2676SOL    HW219662   2.971   1.612   4.228  0.6615 -0.5997  0.7186
 2677SOL     OW19663   3.367   1.844   7.490  0.2847  0.4264  0.2499
 2677SOL    HW119664   3.345   1.918   7.546  1.1440  0.1840  0.9089
 2677SOL    HW219665   3.340   1.773   7.550  3.5652 -0.3137  0.8421
 2678SOL     OW19666   1.104   1.672   9.151 -0.8006 -0.2660  0.4825
 2678SOL    HW119667   1.114   1.577   9.144  0.8534 -0.1809  1.6791
 2678SOL    HW219668   1.016   1.681   9.186 -0.7647  0.5793  0.3450
 2679SOL     OW19669   2.458   3.615   1.597  0.2485  0.6603  0.1614
 2679SOL    HW119670   2.380   3.560   1.608  1.6305 -0.9654  1.8232
 2679SOL    HW219671   2.511   3.569   1.662  1.5505  0.5817 -0.9468
 2680SOL     OW19672   3.992   1.049   8.250 -0.1356  0.2527  0.2009
 2680SOL    HW119673   4.023   0.987   8.184  1.0974  0.9285  0.1424
 2680SOL    HW219674   3.977   0.987   8.321 -0.5815 -0.9843 -0.9756
 2681SOL     OW19675   0.694   3.295   7.961 -0.1437  0.0453 -0.0404
 2681SOL    HW119676   0.710   3.377   8.007  2.5655 -0.5230  0.0261
 2681SOL    HW219677   0.609   3.312   7.921  0.5963 -0.0012 -1.6582
 2682SOL     OW19678   0.999   3.213   7.331  0.0253  0.0087 -0.4538
 2682SOL    HW119679   0.930   3.273   7.359  1.5544  1.5153  0.1634
 2682SOL    HW219680   1.040   3.185   7.413 -1.9334  2.1757  1.2500
 2683SOL     OW19681   4.514   3.193   1.802  0.0271 -0.2231  0.0223
 2683SOL    HW119682   4.544   3.113   1.847  0.3849 -1.4724 -2.4236
 2683SOL    HW219683   4.575   3.249   1.850  1.1089 -1.0948 -0.3095
 2684SOL     OW19684   0.260   2.134   8.569 -0.0026 -0.0257 -0.5985
 2684SOL    HW119685   0.332   2.166   8.624 -0.7576 -0.8229  0.8537
 2684SOL    HW219686   0.195   2.203   8.579 -0.4831 -0.6398  0.5199
 2685SOL     OW19687   1.671   4.611   6.251 -0.0429  1.0097  0.0095
 2685SOL    HW119688   1.751   4.649   6.214  0.5376  0.2967  0.5304
 2685SOL    HW219689   1.602   4.652   6.199 -1.4952 -1.1719  0.2270
 2686SOL     OW19690   3.575   0.895   2.483  0.0128 -0.1351  0.3261
 2686SOL    HW119691   3.597   0.811   2.523  1.7569  0.7532  1.2440
 2686SOL    HW219692   3.534   0.954   2.546 -1.7317 -1.1521  0.1378
 2687SOL     OW19693   1.502   1.167   0.836  0.2541 -0.7220  0.3796
 2687SOL    HW119694   1.549   1.208   0.763  0.1286  0.1161  0.7676
 2687SOL    HW219695   1.515   1.074   0.815  0.4320 -0.8303  0.9808
 2688SOL     OW19696   1.750   3.981   5.655 -0.0360  0.0403  0.2654
 2688SOL    HW119697   1.787   3.930   5.727  1.1210  1.2677  0.5291
 2688SOL    HW219698   1.657   3.985   5.679 -0.8092 -0.7418 -2.5365
 2689SOL     OW19699   3.522   0.491   6.271 -0.1277 -0.1082 -0.0991
 2689SOL    HW119700   3.582   0.530   6.208  1.7300  1.1972  2.4997
 2689SOL    HW219701   3.462   0.563   6.293  0.8089  0.7970 -0.5541
 2690SOL     OW19702   2.097   1.316  17.351  0.5935 -0.7203 -0.1683
 2690SOL    HW119703   2.186   1.338  17.377 -0.0301  1.3167  0.1960
 2690SOL    HW219704   2.108   1.223  17.329  0.1786 -0.3699 -1.8730
 2691SOL     OW19705   0.078   2.532   8.916  0.2443 -0.4752 -0.1251
 2691SOL    HW119706   0.138   2.599   8.949 -0.3166  0.3572 -0.7906
 2691SOL    HW219707   0.112   2.452   8.957  0.4081 -0.5174 -0.3475
 2692SOL     OW19708   2.924   1.789   2.115 -0.6574  0.8604  0.6266
 2692SOL    HW119709   2.977   1.809   2.192 -0.8208 -4.2010  2.0717
 2692SOL    HW219710   2.840   1.831   2.136 -0.7568  0.9282  0.0795
 2693SOL     OW19711   0.555   0.790  12.751  0.8438  0.3144 -0.7914
 2693SOL    HW119712   0.474   0.783  12.801  1.0847  2.1704 -0.1164
 2693SOL    HW219713   0.521   0.755  12.669  1.9028  0.7492 -1.4198
 2694SOL     OW19714   3.204   1.719  16.177 -0.2102  0.4135  0.5761
 2694SOL    HW119715   3.230   1.657  16.245 -1.7054  0.6249  1.3326
 2694SOL    HW219716   3.203   1.808  16.214  1.1694  0.8623 -0.4894
 2695SOL     OW19717   0.270   4.025  16.005 -0.6451 -0.2980 -0.1852
 2695SOL    HW119718   0.216   4.093  16.045 -0.0995 -0.3284  0.6186
 2695SOL    HW219719   0.250   4.047  15.914  0.8456  0.0456 -0.4364
 2696SOL     OW19720   2.535   1.311  13.817 -0.0358 -0.1794  0.1766
 2696SOL    HW119721   2.465   1.283  13.759 -0.7904  2.2492 -0.0840
 2696SOL    HW219722   2.587   1.368  13.759 -0.4789 -0.5703 -0.6036
 2697SOL     OW19723   4.012   2.316  10.114 -0.5154 -0.2306  0.0100
 2697SOL    HW119724   3.924   2.292  10.144 -0.5676 -0.8694 -0.6562
 2697SOL    HW219725   4.038   2.387  10.172  0.6724 -1.0457  0.4836
 2698SOL     OW19726   1.163   2.844   0.683  0.1443  0.5600  0.1323
 2698SOL    HW119727   1.179   2.865   0.591  1.3000 -0.3996  0.1191
 2698SOL    HW219728   1.244   2.878   0.720  0.4258 -0.0680  0.0967
 2699SOL     OW19729   3.608   0.811   8.996 -0.8493 -0.3441 -0.2417
 2699SOL    HW119730   3.675   0.803   9.065 -0.8093 -0.3301 -0.2789
 2699SOL    HW219731   3.640   0.758   8.923  2.6038 -0.7317  1.5056
 2700SOL     OW19732   3.498   3.969  17.345  0.5420 -0.2422  0.0483
 2700SOL    HW119733   3.570   4.009  17.394  0.5461 -0.9765  0.6515
 2700SOL    HW219734   3.502   4.012  17.260 -1.1238 -0.8576 -0.3427
 2701SOL     OW19735   1.592   2.978   4.310  0.0963 -0.1504 -0.2920
 2701SOL    HW119736   1.583   2.889   4.278 -2.0485  0.5439 -1.6559
 2701SOL    HW219737   1.686   2.989   4.295  0.1466 -0.9887 -0.5391
 2702SOL     OW19738   0.296   2.840   9.072  0.2203 -0.7229  0.4038
 2702SOL    HW119739   0.377   2.890   9.074  1.7999 -3.1407 -2.0558
 2702SOL    HW219740   0.249   2.886   9.003  1.4339 -1.9401 -1.2457
 2703SOL     OW19741   0.312   0.848   6.286  0.5204 -0.9194  0.0908
 2703SOL    HW119742   0.259   0.900   6.226 -0.7513 -2.8987 -0.5228
 2703SOL    HW219743   0.272   0.761   6.287 -2.3676  0.4409  1.0604
 2704SOL     OW19744   2.665   0.439   2.794 -0.2008 -0.7074 -0.2802
 2704SOL    HW119745   2.706   0.508   2.847 -0.9232  0.5582 -1.3648
 2704SOL    HW219746   2.582   0.431   2.839  0.3463  1.0019  1.0234
 2705SOL     OW19747   0.490   1.880   6.448 -0.1559 -0.0120  0.1517
 2705SOL    HW119748   0.495   1.966   6.490 -1.6592 -0.7638  1.8694
 2705SOL    HW219749   0.568   1.887   6.393 -0.7474 -0.2569 -0.7174
 2706SOL     OW19750   1.316   2.765   7.642  0.5144 -0.1041  0.3476
 2706SOL    HW119751   1.308   2.794   7.551  2.9653 -1.7512 -0.4015
 2706SOL    HW219752   1.270   2.835   7.688  0.9264  0.1761  0.3373
 2707SOL     OW19753   0.777   3.548   8.860  0.1109  0.1663 -0.1420
 2707SOL    HW119754   0.721   3.472   8.844 -0.7151  1.2190 -2.3439
 2707SOL    HW219755   0.826   3.519   8.936 -2.9529 -1.2441  1.2730
 2708SOL     OW19756   0.123   1.776   9.070 -0.2824 -0.1819 -0.5411
 2708SOL    HW119757   0.069   1.714   9.119 -1.0206  0.2210 -0.8416
 2708SOL    HW219758   0.126   1.734   8.984  0.7465 -0.2751 -0.4540
 2709SOL     OW19759   1.310   0.940   4.314 -0.1768 -0.4000 -0.1049
 2709SOL    HW119760   1.237   0.988   4.276 -1.1585 -1.4399  0.4702
 2709SOL    HW219761   1.262   0.907   4.389  1.1201  1.2598  1.4463
 2710SOL     OW19762   2.175   4.248   9.876 -0.2536  0.6643  0.1891
 2710SOL    HW119763   2.269   4.228   9.871 -0.5808 -0.8542  0.0604
 2710SOL    HW219764   2.151   4.183   9.942 -2.1728 -1.7835 -2.9211
 2711SOL     OW19765   2.519   4.574   8.938  0.3735  0.0215 -0.1377
 2711SOL    HW119766   2.503   4.567   8.844 -1.2383  2.9157 -0.1036
 2711SOL    HW219767   2.443   4.625   8.966 -0.2751 -0.9860 -0.0621
 2712SOL     OW19768   0.891   1.658   8.711 -0.1895 -0.2903 -0.0089
 2712SOL    HW119769   0.921   1.749   8.707  1.9650 -0.9699  0.6083
 2712SOL    HW219770   0.973   1.614   8.734  0.1144  0.6641  0.7066
 2713SOL     OW19771   3.150   2.146  12.198 -0.5331 -0.2060 -0.0022
 2713SOL    HW119772   3.163   2.157  12.292 -1.2052 -1.0889  0.1945
 2713SOL    HW219773   3.212   2.076  12.179 -0.6039  0.2648 -2.0637
 2714SOL     OW19774   2.241   1.462   1.340  0.1915 -0.2871 -0.3317
 2714SOL    HW119775   2.238   1.525   1.412  0.6661  1.3901 -1.7893
 2714SOL    HW219776   2.163   1.408   1.354 -0.6942  1.1333  0.2298
 2715SOL     OW19777   1.821   3.417   6.481 -0.0704 -0.1961  0.2602
 2715SOL    HW119778   1.759   3.344   6.485  0.0017 -0.2917 -0.5010
 2715SOL    HW219779   1.887   3.385   6.420 -0.3566 -0.6746  0.2025
 2716SOL     OW19780   1.433   1.634   5.745  0.2690  0.6855  0.8516
 2716SOL    HW119781   1.520   1.675   5.739 -0.0342  1.2728  0.5350
 2716SOL    HW219782   1.386   1.677   5.674 -1.0848 -1.4266  0.4723
 2717SOL     OW19783   3.607   2.890   6.023 -0.1756 -0.6729 -0.3316
 2717SOL    HW119784   3.701   2.899   6.005 -0.2500  0.1835 -0.2617
 2717SOL    HW219785   3.574   2.807   5.987  0.4928 -1.3746  0.6461
 2718SOL     OW19786   0.244   1.458  10.124 -0.0086  0.0614 -0.1206
 2718SOL    HW119787   0.167   1.411  10.094 -0.3157  0.7569 -0.4301
 2718SOL    HW219788   0.211   1.540  10.162 -0.6981 -0.5991  0.7216
 2719SOL     OW19789   1.135   1.181  15.506 -0.5516  0.0440  0.8366
 2719SOL    HW119790   1.198   1.219  15.568  0.1687 -1.0076  0.7531
 2719SOL    HW219791   1.180   1.099  15.485  0.7378  0.8192  0.5242
 2720SOL     OW19792   1.096   0.264  17.474 -0.1644  0.2611  0.2217
 2720SOL    HW119793   1.184   0.285  17.442  0.5534  0.6350  2.4687
 2720SOL    HW219794   1.058   0.351  17.458  1.5849  0.6897 -1.6488
 2721SOL     OW19795   3.269   1.598   3.976  0.7006  1.0525 -0.1206
 2721SOL    HW119796   3.347   1.550   4.006 -1.9375 -2.0324  1.8439
 2721SOL    HW219797   3.223   1.528   3.929 -0.6504  2.3583 -0.7260
 2722SOL     OW19798   3.994   1.625   8.635  0.2033 -0.1758  0.4013
 2722SOL    HW119799   3.903   1.627   8.604  0.2274 -0.3227  0.3191
 2722SOL    HW219800   3.985   1.569   8.712  0.2935 -0.2558  0.3542
 2723SOL     OW19801   2.502   1.750   0.634 -0.2037 -0.0371  0.5627
 2723SOL    HW119802   2.490   1.843   0.614  1.2840  0.0612  0.1214
 2723SOL    HW219803   2.499   1.709   0.547  2.2906 -0.9060  0.8904
 2724SOL     OW19804   2.630   1.863   9.834 -0.3130 -0.4992 -0.0396
 2724SOL    HW119805   2.616   1.774   9.868  0.1645 -0.4092  0.3852
 2724SOL    HW219806   2.663   1.914   9.908  0.5154 -0.7714 -0.2211
 2725SOL     OW19807   1.895   0.203   5.444 -0.3604  0.6033 -0.0263
 2725SOL    HW119808   1.860   0.128   5.395  0.1148 -1.2156  2.3997
 2725SOL    HW219809   1.846   0.200   5.526 -0.7098  1.3075 -0.2108
 2726SOL     OW19810   3.553   2.109   7.959  0.0332  0.0937 -0.1506
 2726SOL    HW119811   3.475   2.125   7.906  1.7388  0.1679 -2.6048
 2726SOL    HW219812   3.618   2.085   7.893 -0.3071 -1.3640  0.0608
 2727SOL     OW19813   0.710   2.798  14.799 -0.0328 -0.2429  0.2263
 2727SOL    HW119814   0.733   2.808  14.892 -2.6300  0.2646  0.8017
 2727SOL    HW219815   0.623   2.834  14.786 -0.1269 -0.9072 -0.9849
 2728SOL     OW19816   1.760   2.295   2.973  0.1614 -0.3865  0.0913
 2728SOL    HW119817   1.775   2.357   3.045  0.0953  0.1157 -0.3318
 2728SOL    HW219818   1.704   2.234   3.021  0.6351  0.6143  1.9063
 2729SOL     OW19819   3.095   0.735   4.252  0.9417 -0.2939 -0.2816
 2729SOL    HW119820   3.076   0.789   4.176 -1.3124  0.6924  0.9979
 2729SOL    HW219821   3.059   0.651   4.222 -1.8136 -0.1782  2.7140
 2730SOL     OW19822   1.996   3.796   3.878 -0.0650 -0.1333  0.5111
 2730SOL    HW119823   1.960   3.840   3.801  1.0658  0.9592  0.6120
 2730SOL    HW219824   1.971   3.859   3.946  0.0862  0.0593  0.3890
 2731SOL     OW19825   3.617   1.532  11.471  0.8200 -0.1829 -0.5157
 2731SOL    HW119826   3.705   1.494  11.475  1.0134  0.4025  0.5109
 2731SOL    HW219827   3.608   1.563  11.561  3.5654  0.5501 -0.5002
 2732SOL     OW19828   0.492   1.845  16.449  0.3653 -0.0793  0.1524
 2732SOL    HW119829   0.579   1.805  16.456  0.4798  0.2872  0.7665
 2732SOL    HW219830   0.427   1.778  16.473  1.7007 -0.6039  2.2878
 2733SOL     OW19831   1.867   4.665  12.762 -0.5554 -0.0496 -0.4700
 2733SOL    HW119832   1.962   4.664  12.753 -0.5337 -0.1339 -0.2393
 2733SOL    HW219833   1.865   4.615  12.844  1.0398 -0.0968 -0.4610
 2734SOL     OW19834   0.782   0.237   3.777 -0.2231  0.0650  0.6557
 2734SOL    HW119835   0.816   0.272   3.859  0.7465 -2.0036  1.1384
 2734SOL    HW219836   0.838   0.291   3.722  1.2426 -1.3411  0.7614
 2735SOL     OW19837   4.262   3.075   9.272  1.0375  0.1220  0.3407
 2735SOL    HW119838   4.218   3.101   9.191 -0.1549 -0.3091  0.8428
 2735SOL    HW219839   4.237   2.983   9.284 -0.0785  0.5428  1.2664
 2736SOL     OW19840   3.488   2.855  14.647 -0.4982 -0.5375  0.1660
 2736SOL    HW119841   3.581   2.878  14.645 -0.8632  1.0564  1.8174
 2736SOL    HW219842   3.487   2.778  14.589  0.1624 -1.3620  1.2481
 2737SOL     OW19843   1.059   4.664   5.942 -0.2729  0.6855  0.1619
 2737SOL    HW119844   1.023   4.580   5.912  0.2546  0.3444  0.4928
 2737SOL    HW219845   1.128   4.626   5.997  1.4248  3.4344 -0.0969
 2738SOL     OW19846   3.042   3.717   9.674  0.4300  0.1619  0.3959
 2738SOL    HW119847   3.019   3.731   9.583  2.1362  0.5305  0.0144
 2738SOL    HW219848   3.135   3.699   9.660 -0.5996 -4.0095 -1.1074
 2739SOL     OW19849   3.339   1.313   1.769 -0.6130 -0.0456 -0.8089
 2739SOL    HW119850   3.307   1.223   1.778  0.7283 -0.2161  2.0174
 2739SOL    HW219851   3.432   1.301   1.790 -1.0542 -1.1931  0.4743
 2740SOL     OW19852   4.018   0.486   5.032 -0.3849  0.3942 -0.5649
 2740SOL    HW119853   3.982   0.524   5.112  0.4539 -0.2006  0.0887
 2740SOL    HW219854   3.953   0.526   4.974 -0.4931  2.6231  1.1048
 2741SOL     OW19855   1.504   4.132   5.117  0.4884  0.3272  0.1116
 2741SOL    HW119856   1.411   4.119   5.134  0.2695  2.5703  0.6344
 2741SOL    HW219857   1.538   4.153   5.204  1.1528 -2.7598  0.5719
 2742SOL     OW19858   3.586   2.696  13.543 -0.7909 -0.0601 -0.3636
 2742SOL    HW119859   3.626   2.713  13.458  0.2119 -0.5402  0.0121
 2742SOL    HW219860   3.631   2.754  13.604 -1.0132  0.4901 -0.7241
 2743SOL     OW19861   3.556   0.143   5.203 -0.4212 -0.3230  0.1122
 2743SOL    HW119862   3.588   0.210   5.142  3.2635 -3.2277 -1.1622
 2743SOL    HW219863   3.636   0.131   5.255 -0.9082 -1.1298  0.6707
 2744SOL     OW19864   1.890   4.650   6.082 -0.1500  0.0010 -0.5341
 2744SOL    HW119865   1.864   4.721   6.023 -0.2629  2.2461  2.1972
 2744SOL    HW219866   1.980   4.677   6.097 -0.6364  1.9982 -1.1538
 2745SOL     OW19867   0.570   1.511   4.973  0.3349  0.4692 -0.1704
 2745SOL    HW119868   0.498   1.447   4.978 -1.4220  2.4224 -0.7267
 2745SOL    HW219869   0.614   1.494   5.056 -0.0469  3.2315  0.5710
 2746SOL     OW19870   0.843   3.419   7.386  0.1937 -0.4390 -1.0558
 2746SOL    HW119871   0.748   3.418   7.373  0.2144  1.0218 -1.2989
 2746SOL    HW219872   0.860   3.501   7.433 -1.0711  0.6267 -2.4600
 2747SOL     OW19873   4.486   2.090   5.077  0.4328  0.2567 -0.6791
 2747SOL    HW119874   4.425   2.115   5.008 -0.0226  1.0410  0.0081
 2747SOL    HW219875   4.544   2.026   5.035  0.0144 -1.2619  1.0435
 2748SOL     OW19876   4.065   3.822   2.307  0.1647 -0.1352 -0.0627
 2748SOL    HW119877   4.143   3.767   2.302 -0.3310 -0.7732 -0.6857
 2748SOL    HW219878   4.048   3.833   2.214  0.7758  0.4714 -0.1031
 2749SOL     OW19879   0.122   1.067   2.997 -0.6386  0.0893 -0.1286
 2749SOL    HW119880   0.182   1.127   2.951 -0.9643 -0.5568 -1.3920
 2749SOL    HW219881   0.057   1.132   3.023  0.3366  2.1846 -2.8272
 2750SOL     OW19882   4.579   1.476   6.110 -0.3462 -0.5499  0.0410
 2750SOL    HW119883   4.609   1.430   6.031  0.8443 -1.5463  1.0675
 2750SOL    HW219884   4.533   1.405   6.154 -0.3340 -0.1559  0.6876
 2751SOL     OW19885   1.769   1.163   2.991 -0.1372 -0.0626 -0.1686
 2751SOL    HW119886   1.790   1.251   3.024 -1.8291  0.1621  0.2789
 2751SOL    HW219887   1.790   1.188   2.901  0.3569 -0.9950 -0.3080
 2752SOL     OW19888   2.617   0.590  12.583 -0.7565  0.3342 -0.8757
 2752SOL    HW119889   2.704   0.551  12.600 -0.9915 -0.8284 -2.3089
 2752SOL    HW219890   2.611   0.552  12.496  0.0022 -0.8822 -0.4122
 2753SOL     OW19891   2.238   0.663   4.303 -0.0422  0.1231 -0.5612
 2753SOL    HW119892   2.175   0.601   4.267  0.7377 -0.6721 -0.5795
 2753SOL    HW219893   2.277   0.706   4.226  0.4627 -1.6069 -1.2780
 2754SOL     OW19894   4.666   0.341  16.111 -0.1189 -0.1147  0.1134
 2754SOL    HW119895   4.618   0.415  16.072  0.5071 -0.1424 -0.7044
 2754SOL    HW219896   4.631   0.335  16.200 -0.4190 -0.7206 -0.0447
 2755SOL     OW19897   4.186   2.400  12.382  0.7432  0.4844  0.0051
 2755SOL    HW119898   4.262   2.444  12.344 -0.5203  0.6349 -2.3758
 2755SOL    HW219899   4.229   2.357  12.456 -0.8567  1.1451  1.3459
 2756SOL     OW19900   2.638   4.237  15.982 -0.0988 -0.2040 -0.5788
 2756SOL    HW119901   2.583   4.167  15.946  0.1925  0.1657 -1.7147
 2756SOL    HW219902   2.634   4.298  15.909  1.3106 -0.1377 -0.6045
 2757SOL     OW19903   3.538   3.088  14.504  0.1248  0.3082 -1.1677
 2757SOL    HW119904   3.449   3.069  14.475  0.6733 -1.4628 -1.6591
 2757SOL    HW219905   3.552   3.027  14.577 -0.3008  1.1054 -0.4257
 2758SOL     OW19906   3.713   2.747  14.972 -0.2823 -0.3434 -0.3713
 2758SOL    HW119907   3.669   2.828  14.945  1.8450 -0.5269 -4.3386
 2758SOL    HW219908   3.725   2.764  15.065 -1.6234  1.6465 -0.5514
 2759SOL     OW19909   3.688   3.839   7.565 -0.3453 -0.2762  0.1431
 2759SOL    HW119910   3.665   3.894   7.491 -0.4666  0.3844  0.6696
 2759SOL    HW219911   3.612   3.781   7.565  0.3484 -1.2158 -2.5381
 2760SOL     OW19912   0.648   3.974   3.719  1.0647  0.8356  0.5212
 2760SOL    HW119913   0.717   3.987   3.654  0.2714 -0.6354 -0.6150
 2760SOL    HW219914   0.685   3.910   3.779 -1.5304  2.3363  3.7512
 2761SOL     OW19915   1.818   3.312   3.658  0.2148  0.3112 -0.5434
 2761SOL    HW119916   1.829   3.404   3.682  0.5172 -0.0064  0.5554
 2761SOL    HW219917   1.895   3.290   3.607  0.3501  0.5938 -0.4617
 2762SOL     OW19918   1.695   0.612   1.061 -0.6565  0.3332  0.2291
 2762SOL    HW119919   1.661   0.701   1.059  1.7588  1.2330 -1.4221
 2762SOL    HW219920   1.746   0.600   0.981  2.3542  1.5547  1.9617
 2763SOL     OW19921   1.097   0.395   3.130  0.2708  0.2055  0.4963
 2763SOL    HW119922   1.051   0.421   3.050  2.3870 -0.2492 -0.8839
 2763SOL    HW219923   1.115   0.302   3.116  0.6038  0.4588 -0.7845
 2764SOL     OW19924   0.274   2.550   6.272 -0.1894  0.3731 -0.4218
 2764SOL    HW119925   0.286   2.642   6.293 -0.8724  0.2383  0.5393
 2764SOL    HW219926   0.188   2.560   6.232 -0.4913 -1.1633 -0.1938
 2765SOL     OW19927   1.844   4.184   7.842 -0.2068 -0.1765 -0.0834
 2765SOL    HW119928   1.769   4.243   7.839  0.2408  0.3135 -1.8136
 2765SOL    HW219929   1.885   4.214   7.761 -0.5549  2.0111  0.5633
 2766SOL     OW19930   4.293   1.228  17.692  0.4306 -0.3275  0.2956
 2766SOL    HW119931   4.348   1.238  17.614  0.2824 -1.1296  0.0867
 2766SOL    HW219932   4.343   1.162  17.740  1.0259  0.0301  0.1594
 2767SOL     OW19933   1.554   3.224   5.170  0.2426 -0.1845 -0.5383
 2767SOL    HW119934   1.634   3.274   5.187  1.1397 -1.4563 -1.0333
 2767SOL    HW219935   1.588   3.137   5.152  3.5944  0.5830  2.0969
 2768SOL     OW19936   1.349   0.037   3.277  0.5541  0.1505 -0.0587
 2768SOL    HW119937   1.291   0.052   3.352 -0.1226 -2.4435 -0.0756
 2768SOL    HW219938   1.414   0.107   3.282 -0.8295  1.3520  1.0750
 2769SOL     OW19939   1.925   1.090   0.532  0.0388  0.3587 -0.1528
 2769SOL    HW119940   1.973   1.081   0.614 -0.1267 -1.8552 -0.2965
 2769SOL    HW219941   1.959   1.169   0.491 -1.3175  0.3837 -1.2462
 2770SOL     OW19942   0.635   4.431   3.464  0.3826 -0.5101 -0.2122
 2770SOL    HW119943   0.588   4.363   3.513  1.7405 -0.3419  1.3521
 2770SOL    HW219944   0.726   4.401   3.477  0.5779  0.1436 -0.1016
 2771SOL     OW19945   2.695   1.950   3.760 -0.0372  0.0800 -0.2327
 2771SOL    HW119946   2.623   2.004   3.730 -0.3257 -0.0273  0.2818
 2771SOL    HW219947   2.741   2.014   3.813  1.0457 -2.3954  1.8072
 2772SOL     OW19948   2.599   2.447  11.559 -0.0668  0.5658  0.0949
 2772SOL    HW119949   2.522   2.394  11.540 -0.3455  1.5193 -1.3570
 2772SOL    HW219950   2.670   2.384  11.549 -0.6952 -0.1264  0.0268
 2773SOL     OW19951   4.275   4.144   5.945 -0.4865 -0.1985  0.7970
 2773SOL    HW119952   4.252   4.229   5.908  1.8138 -0.1619 -0.5998
 2773SOL    HW219953   4.194   4.128   5.993 -1.3271  0.1918 -0.4925
 2774SOL     OW19954   4.580   4.054   1.813  0.2183 -0.5492  0.5100
 2774SOL    HW119955   4.521   3.979   1.824 -0.5446 -0.2238 -1.4045
 2774SOL    HW219956   4.649   4.015   1.867  1.0342 -0.4559 -0.4598
 2775SOL     OW19957   2.136   1.754   6.806 -0.0915  0.4710  0.9148
 2775SOL    HW119958   2.227   1.725   6.805 -0.2524 -0.0232  0.0782
 2775SOL    HW219959   2.106   1.700   6.732 -0.2860  1.0106  0.6018
 2776SOL     OW19960   0.738   0.758  10.250  0.3985  0.1531  0.1155
 2776SOL    HW119961   0.816   0.705  10.264  0.6821  0.6712  0.4969
 2776SOL    HW219962   0.728   0.796  10.337  3.4692  0.7781  0.2138
 2777SOL     OW19963   0.183   0.366  10.294  0.4026  0.2331  0.1092
 2777SOL    HW119964   0.154   0.450  10.258  0.7183  0.7503  1.0381
 2777SOL    HW219965   0.158   0.385  10.384 -2.2797  1.2760 -0.8779
 2778SOL     OW19966   1.437   2.617   8.393  0.7692 -0.7232  0.1065
 2778SOL    HW119967   1.476   2.539   8.355  1.5362  1.1909 -3.0575
 2778SOL    HW219968   1.492   2.684   8.352 -0.5831 -0.2739 -0.9868
 2779SOL     OW19969   0.832   2.231   5.991  0.4616 -0.1027  0.3476
 2779SOL    HW119970   0.880   2.305   5.955  0.2729 -0.3683 -0.4479
 2779SOL    HW219971   0.892   2.206   6.061  1.6037  1.0524 -0.2204
 2780SOL     OW19972   2.270   3.861   8.640  0.5460 -0.1160 -0.1909
 2780SOL    HW119973   2.254   3.955   8.633 -0.6580 -0.0774  2.9790
 2780SOL    HW219974   2.203   3.839   8.704  0.5139  0.3460 -0.0647
 2781SOL     OW19975   0.861   2.513   4.854  0.2376 -0.2656 -0.1880
 2781SOL    HW119976   0.830   2.603   4.862  2.0806  0.5136 -1.6698
 2781SOL    HW219977   0.957   2.519   4.851  0.1733  1.2358  0.6595
 2782SOL     OW19978   2.234   3.988  11.280 -0.2939  0.1781 -0.4151
 2782SOL    HW119979   2.236   4.084  11.282 -1.1533  0.2092 -1.2792
 2782SOL    HW219980   2.321   3.967  11.313 -0.0811  1.5077 -0.1250
 2783SOL     OW19981   2.361   1.589  14.877 -0.7566 -0.2021 -0.2508
 2783SOL    HW119982   2.326   1.636  14.953  1.2854 -0.1287  0.6509
 2783SOL    HW219983   2.311   1.619  14.801 -0.4385  1.4861  0.1994
 2784SOL     OW19984   0.722   2.858   7.336 -0.1434  0.0768 -0.5044
 2784SOL    HW119985   0.714   2.843   7.430  0.1957  1.0437 -0.3183
 2784SOL    HW219986   0.631   2.844   7.310  0.3051 -2.8853 -0.4086
 2785SOL     OW19987   2.395   3.050  15.535  0.0806  0.5592  0.3537
 2785SOL    HW119988   2.331   2.988  15.570 -0.3297  0.4742 -0.5464
 2785SOL    HW219989   2.472   3.016  15.581  0.2700  0.9726  0.3411
 2786SOL     OW19990   1.093   3.508   4.122  0.3612  0.0080 -0.4194
 2786SOL    HW119991   1.079   3.413   4.120 -2.4655  0.4328 -0.9228
 2786SOL    HW219992   1.188   3.511   4.112  0.2011  0.1663 -1.9042
 2787SOL     OW19993   3.250   3.900   3.112  0.4934 -0.4018 -0.0199
 2787SOL    HW119994   3.241   3.806   3.100  0.8980 -0.8448  3.1928
 2787SOL    HW219995   3.333   3.906   3.065  0.3929 -0.1320 -0.1659
 2788SOL     OW19996   0.824   0.957   8.584 -0.2263  0.6289  0.3161
 2788SOL    HW119997   0.803   1.051   8.586 -1.1366  0.4663 -1.8455
 2788SOL    HW219998   0.741   0.913   8.601  1.2576 -2.0907  0.4699
 2789SOL     OW19999   3.264   3.514  13.173  0.3113 -0.0274  0.3116
 2789SOL    HW120000   3.350   3.475  13.185  0.1258 -0.4648  0.2067
 2789SOL    HW220001   3.236   3.476  13.256 -1.1399 -2.2807 -1.1924
 2790SOL     OW20002   4.181   3.750   1.092 -0.3771  0.0067  0.6357
 2790SOL    HW120003   4.222   3.830   1.127  0.0145  0.7123 -1.4860
 2790SOL    HW220004   4.104   3.747   1.149  0.1283  0.3589  1.3496
 2791SOL     OW20005   1.441   3.194   6.124  0.1104  0.2911  0.0564
 2791SOL    HW120006   1.421   3.227   6.036  2.4503  0.1000 -0.5473
 2791SOL    HW220007   1.366   3.238   6.163  1.6861  2.1858  0.9741
 2792SOL     OW20008   3.876   3.061   4.986  0.0814 -0.0679 -0.2564
 2792SOL    HW120009   3.784   3.044   4.963  0.2872 -0.2991 -0.9063
 2792SOL    HW220010   3.926   3.033   4.909  1.7721  0.4349  0.6672
 2793SOL     OW20011   3.047   1.786   9.372 -0.3854  0.0482 -0.1628
 2793SOL    HW120012   3.040   1.814   9.463  2.5263  0.4186 -0.0334
 2793SOL    HW220013   2.966   1.736   9.366 -0.6662  0.5400 -0.4752
 2794SOL     OW20014   0.066   3.037   3.758 -0.0883 -0.0168 -0.0339
 2794SOL    HW120015   0.075   3.075   3.671  3.7988 -1.9892 -0.4892
 2794SOL    HW220016   4.709   3.016   3.767 -0.5289  1.6379 -0.8026
 2795SOL     OW20017   2.790   3.747   5.094 -0.2354  0.1336  0.2824
 2795SOL    HW120018   2.812   3.836   5.123  0.0984  0.1735 -0.0842
 2795SOL    HW220019   2.839   3.747   5.011 -1.1886  1.4801 -0.2772
 2796SOL     OW20020   2.753   1.000   9.401  0.2450  0.2724 -0.5756
 2796SOL    HW120021   2.703   1.056   9.342  0.3837  0.7023 -0.2796
 2796SOL    HW220022   2.785   0.932   9.341  0.0496  0.3497 -0.7672
 2797SOL     OW20023   3.241   3.323   3.818 -0.1749 -0.1423 -0.3346
 2797SOL    HW120024   3.264   3.383   3.747  0.0529 -0.0046 -0.1426
 2797SOL    HW220025   3.192   3.374   3.882 -2.2732 -1.0192 -1.2473
 2798SOL     OW20026   2.571   2.872  10.304 -0.0937  0.3685 -0.2295
 2798SOL    HW120027   2.557   2.796  10.360  1.8717 -0.6009 -1.0668
 2798SOL    HW220028   2.664   2.860  10.285 -0.2585  0.0033 -0.8005
 2799SOL     OW20029   0.439   3.251   8.330  0.4926  0.4351 -0.3434
 2799SOL    HW120030   0.375   3.239   8.400 -1.4293 -0.2192 -2.1966
 2799SOL    HW220031   0.392   3.216   8.254  2.6546 -1.4165 -0.8221
 2800SOL     OW20032   2.291   2.594  15.236 -0.3273 -0.4228 -0.2467
 2800SOL    HW120033   2.295   2.511  15.282  1.1700  0.1837  0.7333
 2800SOL    HW220034   2.197   2.603  15.246 -0.3655 -0.4599 -0.5735
 2801SOL     OW20035   2.359   4.274   0.665 -0.5286  0.6159 -0.2647
 2801SOL    HW120036   2.367   4.178   0.667 -0.4342  0.6591  2.0770
 2801SOL    HW220037   2.270   4.281   0.632 -0.2579  0.3538 -1.0557
 2802SOL     OW20038   4.151   0.968   3.005 -0.0391 -0.1257 -0.3966
 2802SOL    HW120039   4.204   1.024   2.949  0.2809 -0.7425 -0.7022
 2802SOL    HW220040   4.121   1.035   3.067  1.2842 -3.1637  3.4988
 2803SOL     OW20041   3.613   0.052   2.567 -0.1438 -0.2372  0.4663
 2803SOL    HW120042   3.654   4.703   2.586  3.6379  1.6440  0.6605
 2803SOL    HW220043   3.695   0.101   2.555  0.0033 -0.3812  0.8941
 2804SOL     OW20044   3.146   3.166   4.631 -0.5781  0.1413  0.2546
 2804SOL    HW120045   3.186   3.155   4.717 -1.7846 -2.2576  0.5285
 2804SOL    HW220046   3.110   3.077   4.633 -2.4239  0.8875  0.4190
 2805SOL     OW20047   3.842   1.402  12.508  0.3709  0.3901 -0.3697
 2805SOL    HW120048   3.932   1.400  12.477 -0.2230 -2.5230 -1.9256
 2805SOL    HW220049   3.803   1.323  12.471  0.3393  0.1318  0.2157
 2806SOL     OW20050   0.876   4.573   3.998  0.1252 -0.2564  0.2419
 2806SOL    HW120051   0.970   4.553   4.000  0.1661 -0.1965 -1.2364
 2806SOL    HW220052   0.838   4.487   3.983  0.5967 -0.2086 -1.2243
 2807SOL     OW20053   2.561   1.341   0.679  0.2279 -0.6779  0.2317
 2807SOL    HW120054   2.575   1.268   0.618 -1.8584 -0.1323 -0.9141
 2807SOL    HW220055   2.600   1.408   0.622  1.4349 -0.1340  1.7076
 2808SOL     OW20056   4.345   4.287   8.065 -0.1929  0.8898  0.1915
 2808SOL    HW120057   4.299   4.237   7.998  0.3273 -1.7431  1.8000
 2808SOL    HW220058   4.367   4.371   8.026 -0.1744  0.5265 -0.5728
 2809SOL     OW20059   3.330   1.925  12.089 -0.3483  0.2606  0.2608
 2809SOL    HW120060   3.315   1.872  12.011 -1.0504  0.3301  0.3453
 2809SOL    HW220061   3.423   1.918  12.109 -0.6865 -2.8988  0.6636
 2810SOL     OW20062   2.866   3.120  13.128 -0.7940 -0.2837 -0.6728
 2810SOL    HW120063   2.908   3.203  13.104  0.6135 -0.5803  0.7171
 2810SOL    HW220064   2.855   3.086  13.039 -0.7842  1.5502 -1.3781
 2811SOL     OW20065   0.144   0.349   7.514 -0.1111  0.3661  0.1278
 2811SOL    HW120066   0.237   0.364   7.496 -0.2208  0.5609 -0.2659
 2811SOL    HW220067   0.100   0.319   7.435 -1.8651  1.0845  0.8393
 2812SOL     OW20068   2.674   1.796  11.062  0.0277 -0.2730  0.0987
 2812SOL    HW120069   2.611   1.795  10.990 -0.1777 -2.5032  0.3131
 2812SOL    HW220070   2.727   1.719  11.044 -0.2451  0.0852 -2.2244
 2813SOL     OW20071   3.023   0.335   7.798  0.0498 -0.3990  0.0075
 2813SOL    HW120072   3.083   0.405   7.823 -0.1694  0.5486 -2.1342
 2813SOL    HW220073   3.057   0.266   7.855 -0.6753  0.1271  1.0807
 2814SOL     OW20074   2.414   4.557   1.868  0.2327 -0.0087  0.2801
 2814SOL    HW120075   2.497   4.521   1.837 -0.3048 -0.0944 -1.0543
 2814SOL    HW220076   2.402   4.504   1.946 -0.1314 -0.8929 -0.3813
 2815SOL     OW20077   4.660   1.562   5.116  0.0529 -0.0744 -0.7800
 2815SOL    HW120078   4.645   1.468   5.107  2.0616 -0.4620 -0.1286
 2815SOL    HW220079   4.632   1.578   5.206 -1.6512  0.6342 -1.4572
 2816SOL     OW20080   3.920   2.154   3.104  0.3699 -0.1548  0.5497
 2816SOL    HW120081   3.897   2.239   3.066  1.7564  0.3168  0.7776
 2816SOL    HW220082   3.900   2.085   3.042  1.3197  0.7836 -0.8000
 2817SOL     OW20083   3.273   1.701   6.227 -0.2387  0.1330 -0.0280
 2817SOL    HW120084   3.263   1.761   6.153 -2.1775 -0.9185 -0.6330
 2817SOL    HW220085   3.311   1.623   6.186  0.3425 -1.2593  3.1618
 2818SOL     OW20086   4.246   2.947   7.730 -0.3559 -0.0473 -0.8902
 2818SOL    HW120087   4.329   2.994   7.733 -1.1140  1.1633  1.0501
 2818SOL    HW220088   4.189   3.022   7.742 -0.2625  0.1736 -1.8272
 2819SOL     OW20089   4.681   1.762   7.579  0.0736  0.2636 -0.2330
 2819SOL    HW120090   4.608   1.796   7.527 -0.6850 -0.1580  0.5582
 2819SOL    HW220091   4.639   1.784   7.662 -0.6161 -1.8849 -0.0235
 2820SOL     OW20092   2.909   3.630   8.460 -0.0948  0.0426  0.1937
 2820SOL    HW120093   2.896   3.705   8.402 -0.6810 -0.8404 -0.7995
 2820SOL    HW220094   2.986   3.661   8.508  1.3927 -3.8852  0.3712
 2821SOL     OW20095   1.437   3.811  10.735 -0.3165 -0.0588  0.4346
 2821SOL    HW120096   1.401   3.885  10.685 -0.5355 -1.1391 -0.9978
 2821SOL    HW220097   1.412   3.735  10.682 -2.3124  0.0050  1.2992
 2822SOL     OW20098   4.494   0.143   2.409  0.0449  0.2842  0.0214
 2822SOL    HW120099   4.464   0.145   2.318 -0.9149 -0.6674  0.3204
 2822SOL    HW220100   4.481   0.233   2.439  1.0207 -0.8595  3.7628
 2823SOL     OW20101   2.152   3.870   7.436 -0.4778  0.5229  0.5537
 2823SOL    HW120102   2.164   3.963   7.456 -0.7519  0.6928 -0.0844
 2823SOL    HW220103   2.237   3.837   7.466 -0.8130 -2.9468 -2.3645
 2824SOL     OW20104   1.863   2.775   6.681 -0.5211 -0.1228  0.0741
 2824SOL    HW120105   1.891   2.684   6.677 -0.7454 -0.2315  1.0987
 2824SOL    HW220106   1.925   2.802   6.748 -0.6216  0.8662 -0.2270
 2825SOL     OW20107   2.978   3.235  12.248 -0.4760  0.1408  0.1885
 2825SOL    HW120108   2.958   3.307  12.306  0.2507 -1.0322  1.8882
 2825SOL    HW220109   3.068   3.222  12.279 -0.4753  0.9311  0.5140
 2826SOL     OW20110   0.439   3.345   2.766 -0.1273  0.4192 -0.0688
 2826SOL    HW120111   0.393   3.304   2.839 -0.9875 -0.2446 -0.9887
 2826SOL    HW220112   0.492   3.409   2.813  2.5002 -0.1722 -2.2005
 2827SOL     OW20113   2.708   0.156   4.190  0.0848  0.2382  0.5052
 2827SOL    HW120114   2.742   0.239   4.155  0.7532 -0.3447 -0.2111
 2827SOL    HW220115   2.746   0.094   4.128 -2.1161  0.0975 -0.7036
 2828SOL     OW20116   0.510   0.786  11.197  0.0188  0.0755 -0.3060
 2828SOL    HW120117   0.526   0.867  11.150  0.4125 -0.5653 -1.2697
 2828SOL    HW220118   0.567   0.734  11.140 -0.1997  0.7597 -1.1476
 2829SOL     OW20119   4.604   4.682   1.927 -0.8447  0.0390  0.1786
 2829SOL    HW120120   4.634   0.032   1.896 -1.7253  0.2524 -0.0814
 2829SOL    HW220121   4.644   4.685   2.014  0.7912 -1.9311 -0.5297
 2830SOL     OW20122   1.239   0.540  13.691 -0.0359 -0.0274  0.1814
 2830SOL    HW120123   1.171   0.505  13.633  0.5894 -1.6759  0.4641
 2830SOL    HW220124   1.224   0.483  13.766  1.2738 -1.2793 -0.5187
 2831SOL     OW20125   1.523   4.658   9.317  0.5349  0.1910  0.4254
 2831SOL    HW120126   1.513   4.572   9.357 -0.2640 -1.3187 -3.0115
 2831SOL    HW220127   1.544   4.717   9.389  0.2244  0.1296  0.5643
 2832SOL     OW20128   1.949   1.032   4.115  0.6272 -0.0739 -0.3021
 2832SOL    HW120129   1.855   1.029   4.097  0.8050  0.5731 -1.3343
 2832SOL    HW220130   1.987   0.960   4.066  1.5951  0.5914 -0.5452
 2833SOL     OW20131   1.859   1.374   9.055 -0.1174 -0.6318  0.1286
 2833SOL    HW120132   1.939   1.418   9.024 -1.8691  1.5463 -1.3584
 2833SOL    HW220133   1.801   1.451   9.053  2.0563  0.9880 -0.7902
 2834SOL     OW20134   2.022   1.584   3.476  0.3964 -0.3815  0.6679
 2834SOL    HW120135   2.092   1.534   3.518  0.1896  0.0684  1.5541
 2834SOL    HW220136   1.989   1.640   3.546 -1.1140  1.4260 -1.5058
 2835SOL     OW20137   3.849   0.922   7.586 -0.1973  0.2880 -0.2695
 2835SOL    HW120138   3.774   0.966   7.546 -1.6136 -2.3225 -0.5321
 2835SOL    HW220139   3.872   0.863   7.513  0.4244  0.8862 -0.5509
 2836SOL     OW20140   3.074   0.022   4.240 -0.1925  0.0033  0.4723
 2836SOL    HW120141   2.984   4.733   4.261 -1.1840  0.3846 -3.2753
 2836SOL    HW220142   3.090   0.115   4.255  2.9813 -0.8261  2.4129
 2837SOL     OW20143   2.028   3.152  10.650 -0.0152 -0.1401  0.5659
 2837SOL    HW120144   2.012   3.116  10.563 -1.0600  1.1661  0.2202
 2837SOL    HW220145   2.115   3.115  10.666  0.2309 -1.0220 -2.8929
 2838SOL     OW20146   2.009   4.067  14.051  0.5968  0.3823 -0.0312
 2838SOL    HW120147   2.090   4.094  14.095 -0.3104 -0.1761  1.9690
 2838SOL    HW220148   1.961   4.043  14.130  0.4670  0.1067 -0.1964
 2839SOL     OW20149   0.768   1.394   2.580  0.1398 -0.4012 -0.3421
 2839SOL    HW120150   0.706   1.378   2.652  0.0823 -0.7744 -0.4739
 2839SOL    HW220151   0.848   1.346   2.602  0.8615  1.2524  0.6748
 2840SOL     OW20152   3.931   2.073  15.291 -0.4869 -0.3019  0.0952
 2840SOL    HW120153   3.917   2.110  15.203  0.1589  0.7244  0.4190
 2840SOL    HW220154   3.953   1.982  15.273 -0.5284 -0.0247 -1.4167
 2841SOL     OW20155   2.985   1.525   9.752 -0.0539  0.3170 -0.6609
 2841SOL    HW120156   3.043   1.588   9.794 -0.2040  1.2545 -1.8415
 2841SOL    HW220157   3.051   1.489   9.693 -0.3389  2.5179 -2.3102
 2842SOL     OW20158   4.111   0.410   6.755  0.0233 -0.5567 -0.1153
 2842SOL    HW120159   4.086   0.500   6.779 -1.4253 -1.0273  0.1755
 2842SOL    HW220160   4.130   0.426   6.662 -1.0022 -0.7619 -0.3588
 2843SOL     OW20161   1.682   1.011   0.573  0.1817  0.7045 -0.1271
 2843SOL    HW120162   1.698   1.104   0.558  1.2228  0.2865 -1.6242
 2843SOL    HW220163   1.772   0.981   0.564  0.1782  1.0204 -1.3198
 2844SOL     OW20164   4.653   2.469   1.807 -0.6790  0.2243 -0.0095
 2844SOL    HW120165   4.728   2.421   1.771 -0.1361  1.7779 -0.9614
 2844SOL    HW220166   4.620   2.409   1.874 -0.1204 -1.2215 -1.0307
 2845SOL     OW20167   0.863   2.867   4.097 -0.0412  0.0647 -0.5689
 2845SOL    HW120168   0.894   2.892   4.010  0.4930 -0.3913 -0.5116
 2845SOL    HW220169   0.801   2.799   4.070  1.1262 -0.9500 -0.7254
 2846SOL     OW20170   2.839   4.259  14.033 -0.2241  0.7156  0.5497
 2846SOL    HW120171   2.767   4.283  14.091  0.1462  3.3415 -0.0873
 2846SOL    HW220172   2.851   4.167  14.055 -0.7005  1.1236  2.4657
 2847SOL     OW20173   4.178   3.236  17.464 -0.0405  1.0909 -0.3657
 2847SOL    HW120174   4.173   3.260  17.372  2.4800  1.0198 -0.5153
 2847SOL    HW220175   4.134   3.309  17.508 -0.0841  0.0282  1.3705
 2848SOL     OW20176   0.949   3.724  15.317  0.7972  0.6408 -0.2697
 2848SOL    HW120177   0.974   3.808  15.278  3.9627 -1.1867 -2.1900
 2848SOL    HW220178   0.927   3.748  15.407  1.8954 -0.6192  0.3267
 2849SOL     OW20179   3.066   2.724   2.837  0.3990  0.2342 -0.5603
 2849SOL    HW120180   3.010   2.664   2.787 -0.0899 -1.2756  1.7992
 2849SOL    HW220181   3.056   2.799   2.778 -0.4275 -0.6357 -1.5294
 2850SOL     OW20182   2.616   0.121   9.853 -0.0807  0.7435  0.4692
 2850SOL    HW120183   2.663   0.204   9.854  0.8805  0.2011  0.0439
 2850SOL    HW220184   2.588   0.119   9.945  0.7915  1.4400  0.7466
 2851SOL     OW20185   3.809   0.831   0.158 -0.2626 -0.7181  0.2370
 2851SOL    HW120186   3.893   0.855   0.119  0.1079 -0.1180  1.4089
 2851SOL    HW220187   3.757   0.853   0.081  1.0868 -0.3912 -0.5741
 2852SOL     OW20188   0.771   4.102  14.303 -0.2238 -0.0261  0.9624
 2852SOL    HW120189   0.848   4.127  14.354  0.1670  0.7945 -0.0250
 2852SOL    HW220190   0.739   4.049  14.376 -0.2816  0.3859  1.2405
 2853SOL     OW20191   2.296   0.080   2.260  0.1395  0.2124 -0.0190
 2853SOL    HW120192   2.213   0.033   2.266  1.2116 -1.4908  1.4096
 2853SOL    HW220193   2.315   0.090   2.353 -3.3099 -0.8650  0.8007
 2854SOL     OW20194   0.715   3.374  17.556  0.0588  0.2497 -0.3542
 2854SOL    HW120195   0.629   3.332  17.556  0.6420 -0.9331  1.0186
 2854SOL    HW220196   0.734   3.393  17.647 -0.4348 -0.5774 -0.0789
 2855SOL     OW20197   3.568   2.383  10.385 -0.3550  0.8994 -0.5938
 2855SOL    HW120198   3.628   2.322  10.341 -0.0711  1.8525 -1.5462
 2855SOL    HW220199   3.492   2.329  10.406  1.3634 -1.5092 -0.5037
 2856SOL     OW20200   2.041   2.816   7.017 -0.1006  0.4093 -0.6410
 2856SOL    HW120201   2.040   2.796   7.111  0.0826  1.4258 -0.4295
 2856SOL    HW220202   2.069   2.907   7.020  0.8916 -0.0036  3.2572
 2857SOL     OW20203   1.826   0.354  12.204 -0.2990  0.4222 -0.1925
 2857SOL    HW120204   1.756   0.289  12.193  1.7423 -1.4743 -1.8842
 2857SOL    HW220205   1.831   0.344  12.299  0.8274 -3.2622 -0.6471
 2858SOL     OW20206   1.079   0.513   0.787  0.2175 -1.0237 -0.5876
 2858SOL    HW120207   1.117   0.547   0.706  1.0376  1.8459  1.0218
 2858SOL    HW220208   1.050   0.596   0.825  1.2807 -0.8923 -0.0820
 2859SOL     OW20209   3.979   3.545  10.647  0.0290 -0.2231  0.1460
 2859SOL    HW120210   3.971   3.454  10.618 -0.9056 -0.8946  2.5362
 2859SOL    HW220211   3.939   3.582  10.568  1.6094  0.3327 -0.3909
 2860SOL     OW20212   3.359   4.115   7.590  0.3694  0.6566 -0.2963
 2860SOL    HW120213   3.450   4.093   7.610 -0.0345  0.6254  1.5299
 2860SOL    HW220214   3.330   4.167   7.665 -1.2474 -0.0358 -0.4270
 2861SOL     OW20215   1.025   1.353   8.483  0.6783 -0.2522  0.1508
 2861SOL    HW120216   0.995   1.280   8.429 -0.4605  1.6568 -1.7717
 2861SOL    HW220217   1.026   1.320   8.573  2.1535 -2.8827 -0.8270
 2862SOL     OW20218   2.768   4.484   2.983  0.1600  0.4917  0.1830
 2862SOL    HW120219   2.826   4.425   2.935 -1.7920 -0.1106 -1.4862
 2862SOL    HW220220   2.719   4.527   2.912 -0.4368 -0.8906 -0.2401
 2863SOL     OW20221   2.406   1.568   3.452  0.0665  0.1745  0.0193
 2863SOL    HW120222   2.372   1.638   3.397  1.6105  1.3314  0.5229
 2863SOL    HW220223   2.343   1.558   3.523 -0.3371  0.6435 -0.2737
 2864SOL     OW20224   0.813   4.432  13.661 -0.2761  0.1046 -0.2076
 2864SOL    HW120225   0.803   4.380  13.581 -0.4057 -0.0909 -0.0672
 2864SOL    HW220226   0.799   4.360  13.723 -2.1641 -0.5666 -1.3948
 2865SOL     OW20227   1.418   2.418   9.509 -0.2917 -0.0402 -0.3606
 2865SOL    HW120228   1.333   2.397   9.547  0.5820 -1.3842  0.8351
 2865SOL    HW220229   1.392   2.477   9.438  1.5611 -0.8508 -1.7111
 2866SOL     OW20230   0.355   3.757   3.787 -0.3346  0.4310 -0.3318
 2866SOL    HW120231   0.365   3.710   3.870  3.3371  1.6459 -0.1023
 2866SOL    HW220232   0.374   3.846   3.818  2.3806 -0.8339  1.6516
 2867SOL     OW20233   3.508   4.402  16.023 -0.1862  0.5182 -0.1419
 2867SOL    HW120234   3.577   4.466  16.007  0.0272 -0.0743 -1.6342
 2867SOL    HW220235   3.436   4.465  16.028  1.3837  2.4092 -1.3308
 2868SOL     OW20236   0.434   0.578   4.795 -0.1544 -0.6040  0.1357
 2868SOL    HW120237   0.374   0.632   4.847  1.5215 -0.0732  1.5199
 2868SOL    HW220238   0.467   0.640   4.730  0.5370 -1.2210 -0.1043
 2869SOL     OW20239   4.418   2.128   2.489 -0.4334 -0.0459 -0.2760
 2869SOL    HW120240   4.391   2.217   2.512  0.7868  0.3081 -0.2386
 2869SOL    HW220241   4.371   2.122   2.405  1.5689  0.0081 -1.3912
 2870SOL     OW20242   3.935   0.613   6.180  0.4343 -0.3587  0.1412
 2870SOL    HW120243   3.991   0.676   6.227 -0.9870  0.2675  0.9734
 2870SOL    HW220244   3.940   0.536   6.235 -5.0265 -1.4459 -0.9729
 2871SOL     OW20245   2.755   2.721   4.160  0.1527 -0.1434 -0.0731
 2871SOL    HW120246   2.845   2.753   4.157  0.3591 -0.7114 -0.0226
 2871SOL    HW220247   2.733   2.715   4.067  1.7231  0.0609 -0.4428
 2872SOL     OW20248   0.929   0.883   1.936 -0.7602  0.2389 -0.1130
 2872SOL    HW120249   0.996   0.922   1.880 -3.1413  0.7939 -2.5972
 2872SOL    HW220250   0.868   0.845   1.873 -1.0556  2.8678 -1.4298
 2873SOL     OW20251   0.454   0.863   5.969  0.0639  0.3383  0.2165
 2873SOL    HW120252   0.403   0.791   6.006 -0.7250  1.0455  0.5137
 2873SOL    HW220253   0.422   0.944   6.009 -1.9140 -1.6975  2.7219
 2874SOL     OW20254   3.439   2.915   8.697  0.0698 -0.1337  0.4749
 2874SOL    HW120255   3.371   2.921   8.630  1.2734 -1.8383 -0.8948
 2874SOL    HW220256   3.475   2.832   8.666 -0.5593 -0.6477  1.1214
 2875SOL     OW20257   2.717   4.441  16.202  0.3258  0.1199 -0.4026
 2875SOL    HW120258   2.732   4.458  16.109  0.3890  2.9671  0.1431
 2875SOL    HW220259   2.633   4.395  16.196 -0.7093  1.8744  0.7567
 2876SOL     OW20260   0.116   3.429   4.853  0.2815 -1.1807  0.0737
 2876SOL    HW120261   0.029   3.391   4.837  1.1533 -3.0240 -0.3069
 2876SOL    HW220262   0.118   3.489   4.779  0.4947  0.0790  1.0969
 2877SOL     OW20263   0.270   1.402   7.990  0.0614 -0.2303 -0.3199
 2877SOL    HW120264   0.298   1.355   7.911  0.2475  1.1835 -1.0930
 2877SOL    HW220265   0.248   1.328   8.047  1.6430  0.4958  1.2558
 2878SOL     OW20266   1.884   1.820  14.591  0.1270 -0.3236  0.1605
 2878SOL    HW120267   1.852   1.849  14.506  0.1347  0.4919  0.4309
 2878SOL    HW220268   1.884   1.902  14.641  1.5944 -0.8080  0.9652
 2879SOL     OW20269   3.304   0.345   4.788  0.1119 -0.2218  0.4875
 2879SOL    HW120270   3.367   0.418   4.791 -2.6579  2.1510  0.9679
 2879SOL    HW220271   3.243   0.382   4.724  0.6401 -0.7808 -0.3333
 2880SOL     OW20272   1.282   4.339   1.806 -0.4689 -0.1508 -0.1813
 2880SOL    HW120273   1.357   4.388   1.772 -0.8737 -0.0076 -0.8675
 2880SOL    HW220274   1.252   4.403   1.871  0.3283 -0.4818  0.5148
 2881SOL     OW20275   0.317   2.654   6.900  0.6927  0.1284  0.2495
 2881SOL    HW120276   0.284   2.668   6.811 -1.7537 -1.4447  0.8995
 2881SOL    HW220277   0.284   2.725   6.956 -0.1119 -0.7788  0.9242
 2882SOL     OW20278   0.158   0.217  16.124  0.2103  0.3087  0.1239
 2882SOL    HW120279   0.088   0.282  16.128 -1.1881 -1.1630 -0.3784
 2882SOL    HW220280   0.122   0.137  16.161  2.3757  0.1461  1.9125
 2883SOL     OW20281   2.287   0.469   6.452  0.0001  0.1391  0.2560
 2883SOL    HW120282   2.269   0.479   6.358  0.8165  1.6661  0.2612
 2883SOL    HW220283   2.228   0.396   6.473 -1.1666  0.9179 -0.3390
 2884SOL     OW20284   4.161   2.371   0.102  0.1037 -0.3117 -0.1770
 2884SOL    HW120285   4.156   2.467   0.101  0.5278 -0.2882 -0.0496
 2884SOL    HW220286   4.080   2.342   0.060  0.4713  0.0702 -1.1560
 2885SOL     OW20287   0.661   3.409  15.085  0.1604 -0.1087  0.2902
 2885SOL    HW120288   0.693   3.332  15.038 -1.2561  0.4677 -1.6047
 2885SOL    HW220289   0.720   3.405  15.160 -0.0127 -0.1168  0.4278
 2886SOL     OW20290   1.554   0.963   2.546 -0.1215  0.3965  1.1351
 2886SOL    HW120291   1.570   0.907   2.622  0.8984  1.3054  1.5998
 2886SOL    HW220292   1.633   1.018   2.548 -1.7431  2.6437  2.2109
 2887SOL     OW20293   2.042   1.302   5.801  0.5932  0.5884  0.4974
 2887SOL    HW120294   1.976   1.370   5.785 -2.3093 -2.2124  0.5768
 2887SOL    HW220295   2.113   1.325   5.740  0.7506 -1.4095 -0.0516
 2888SOL     OW20296   0.362   2.786   6.034 -0.5306  0.3659 -0.2689
 2888SOL    HW120297   0.296   2.838   6.080 -0.3302  1.7220 -1.5296
 2888SOL    HW220298   0.314   2.755   5.958  0.9741 -0.2476 -0.9595
 2889SOL     OW20299   4.632   4.669   3.648 -0.4263  0.0616 -0.7162
 2889SOL    HW120300   4.694   4.718   3.702  0.3399 -0.8331 -0.7886
 2889SOL    HW220301   4.618   4.721   3.569 -2.5969 -1.0063 -1.0445
 2890SOL     OW20302   0.553   0.072  10.386  0.2944  0.3894 -0.0617
 2890SOL    HW120303   0.578   4.717  10.369  1.0607  0.5731  0.0976
 2890SOL    HW220304   0.619   0.125  10.341  0.1294 -0.1090 -0.8724
 2891SOL     OW20305   3.487   0.542  12.195 -0.2804 -0.3893  0.1821
 2891SOL    HW120306   3.564   0.596  12.211  0.7985 -2.0746  0.6272
 2891SOL    HW220307   3.448   0.527  12.281  2.1329 -0.1297  1.3136
 2892SOL     OW20308   2.839   4.113  13.376 -0.5737 -0.4427 -0.2735
 2892SOL    HW120309   2.840   4.197  13.331  0.5794 -0.7050 -0.7420
 2892SOL    HW220310   2.916   4.075  13.334 -1.3267  0.4282 -2.4076
 2893SOL     OW20311   1.366   3.827   4.825 -0.0301 -0.9117 -0.2443
 2893SOL    HW120312   1.450   3.868   4.845 -0.5862 -0.2346  0.7571
 2893SOL    HW220313   1.372   3.821   4.730 -1.2913 -0.4615 -0.3483
 2894SOL     OW20314   2.943   4.724   6.249 -0.2456  0.2217 -0.4680
 2894SOL    HW120315   2.912   0.078   6.238 -0.0649  0.4589  0.9335
 2894SOL    HW220316   2.895   4.685   6.176 -1.1642 -2.1623  1.3943
 2895SOL     OW20317   0.932   4.665   8.913  0.1248 -0.2194  0.1055
 2895SOL    HW120318   1.004   4.602   8.904 -1.6250 -1.7601 -3.2252
 2895SOL    HW220319   0.865   4.628   8.856 -3.6862  2.7729  2.6839
 2896SOL     OW20320   2.889   3.822   7.941 -0.3199  0.1963 -0.2581
 2896SOL    HW120321   2.891   3.907   7.897 -0.7119 -0.1471 -0.9376
 2896SOL    HW220322   2.812   3.851   7.990 -1.1081 -0.7929 -0.9141
 2897SOL     OW20323   0.805   4.353   3.120  0.1286 -0.8996  0.4934
 2897SOL    HW120324   0.835   4.440   3.148  1.4368 -0.9297 -0.7386
 2897SOL    HW220325   0.711   4.365   3.127  0.2078  0.7020 -0.9326
 2898SOL     OW20326   3.123   2.656   1.493 -0.3619 -0.1553 -0.1649
 2898SOL    HW120327   3.159   2.706   1.420 -2.2797  1.7592  0.1963
 2898SOL    HW220328   3.107   2.571   1.452 -0.6813  0.1600 -0.6974
 2899SOL     OW20329   2.330   2.130   0.607  0.2459  0.3834  0.8332
 2899SOL    HW120330   2.330   2.218   0.571  1.0824 -0.3512 -0.9403
 2899SOL    HW220331   2.280   2.136   0.689  0.3685 -0.5790  0.9854
 2900SOL     OW20332   1.478   3.914   4.522  0.1810 -0.4075 -0.5686
 2900SOL    HW120333   1.497   4.008   4.520 -1.8621  0.0240  0.5977
 2900SOL    HW220334   1.562   3.877   4.548  1.1151  3.3114  1.6633
 2901SOL     OW20335   2.939   0.453   7.523  0.1036 -0.6033 -0.5588
 2901SOL    HW120336   2.963   0.400   7.599 -0.0817  0.5487  0.3109
 2901SOL    HW220337   2.939   0.387   7.454 -0.7030 -0.2367 -0.9053
 2902SOL     OW20338   0.869   0.830  10.787 -0.1895 -0.6892 -0.0953
 2902SOL    HW120339   0.825   0.792  10.864 -1.7421  1.2897 -0.0175
 2902SOL    HW220340   0.841   0.781  10.710 -0.1686 -2.7185  1.1990
 2903SOL     OW20341   1.935   3.543  12.468 -0.9219  0.3131 -0.6472
 2903SOL    HW120342   2.012   3.513  12.421 -1.2043  0.2871 -1.0993
 2903SOL    HW220343   1.945   3.634  12.439  1.1912  0.2778  0.0011
 2904SOL     OW20344   3.777   1.779   1.282  0.0093  0.5477  0.2559
 2904SOL    HW120345   3.863   1.775   1.324  0.7757 -1.5278 -1.4668
 2904SOL    HW220346   3.785   1.721   1.206  0.6177  1.8374 -0.6556
 2905SOL     OW20347   2.059   2.445   7.858  0.0316 -0.4243  0.6862
 2905SOL    HW120348   2.038   2.408   7.944 -1.2366 -0.7490  0.2348
 2905SOL    HW220349   2.124   2.381   7.831 -0.1881 -0.6984  0.8034
 2906SOL     OW20350   3.611   0.718   3.860 -0.0534 -0.0055  0.0837
 2906SOL    HW120351   3.537   0.773   3.835 -0.9729 -1.5917 -0.7076
 2906SOL    HW220352   3.586   0.706   3.951  0.7059  0.1244  0.3066
 2907SOL     OW20353   4.371   3.176   7.128 -0.0936 -0.3304  0.3109
 2907SOL    HW120354   4.395   3.112   7.195  1.0741 -0.6761 -0.4251
 2907SOL    HW220355   4.333   3.124   7.058  1.7127  1.0460 -1.6901
 2908SOL     OW20356   1.539   4.266   4.686  0.3405 -0.0219  0.3336
 2908SOL    HW120357   1.454   4.259   4.730  0.0814 -0.8821 -0.2986
 2908SOL    HW220358   1.599   4.283   4.758  3.7723 -0.8561 -2.3246
 2909SOL     OW20359   0.617   2.765   7.783  0.8220 -0.1069  0.2199
 2909SOL    HW120360   0.578   2.683   7.754 -0.1247 -0.0458  1.3092
 2909SOL    HW220361   0.626   2.746   7.877  0.0437 -5.5451 -0.7641
 2910SOL     OW20362   0.338   4.273   7.007 -0.1490  0.0972  0.0718
 2910SOL    HW120363   0.258   4.249   7.054  0.1518  0.5540  0.8200
 2910SOL    HW220364   0.324   4.367   6.996  1.7711  0.3328 -0.4107
 2911SOL     OW20365   3.704   4.540   4.001  0.5233  0.3372 -0.2250
 2911SOL    HW120366   3.667   4.589   4.074  1.2709 -1.4843  1.3719
 2911SOL    HW220367   3.737   4.466   4.053 -1.7333 -1.1311 -0.8910
 2912SOL     OW20368   1.925   4.026  16.604 -0.2827 -0.3722  0.5880
 2912SOL    HW120369   1.923   3.939  16.644  0.4566 -0.6487  0.0344
 2912SOL    HW220370   1.933   4.087  16.677 -0.2694 -0.4803  0.6767
 2913SOL     OW20371   0.957   3.496   6.006  0.2424 -0.1448  0.2319
 2913SOL    HW120372   0.888   3.443   6.045  0.8742 -0.8987  0.3348
 2913SOL    HW220373   0.951   3.451   5.922 -0.2597 -0.8600  0.6487
 2914SOL     OW20374   4.164   2.001   0.363  0.0218 -0.3507 -0.2224
 2914SOL    HW120375   4.087   2.057   0.376 -1.0594 -2.4187  2.3174
 2914SOL    HW220376   4.166   2.001   0.267  0.3150 -1.3338 -0.2156
 2915SOL     OW20377   3.841   3.114   5.906 -0.2451 -0.0404 -0.1886
 2915SOL    HW120378   3.910   3.179   5.894  1.0004 -1.6443 -1.6962
 2915SOL    HW220379   3.792   3.125   5.825 -0.7251  0.7267  0.1999
 2916SOL     OW20380   0.869   3.295  16.711 -0.0615 -0.1761 -0.1237
 2916SOL    HW120381   0.914   3.357  16.769 -1.1290 -0.1525  0.6754
 2916SOL    HW220382   0.862   3.220  16.769 -2.1804  4.1104  5.1825
 2917SOL     OW20383   3.304   2.066  12.854  0.4680 -0.7019 -0.0343
 2917SOL    HW120384   3.249   2.113  12.792 -0.1357  0.5572  1.4328
 2917SOL    HW220385   3.308   2.125  12.930  0.0843 -0.9889  0.2108
 2918SOL     OW20386   1.757   0.651  11.333 -0.5219  0.4042 -0.6693
 2918SOL    HW120387   1.664   0.628  11.332 -0.5660  0.5816 -0.6453
 2918SOL    HW220388   1.795   0.564  11.321 -1.1590 -0.4277  3.4238
 2919SOL     OW20389   1.336   0.180  16.672 -0.3453 -0.3986  0.0690
 2919SOL    HW120390   1.373   0.252  16.621  1.3780 -0.0777  1.7474
 2919SOL    HW220391   1.317   0.220  16.757  1.5752 -0.2487  0.4370
 2920SOL     OW20392   3.140   2.991   6.126  0.0245 -0.4136 -0.2114
 2920SOL    HW120393   3.111   2.902   6.147 -0.6571 -0.1164  0.0931
 2920SOL    HW220394   3.062   3.023   6.080  0.3899  0.9889  0.1588
 2921SOL     OW20395   3.182   3.265   1.431  0.3498  0.4560  0.1223
 2921SOL    HW120396   3.123   3.341   1.426 -1.0623 -0.6888 -0.5692
 2921SOL    HW220397   3.211   3.260   1.340 -0.8813  1.8434 -0.3506
 2922SOL     OW20398   4.512   3.207   2.846 -0.4453  0.0394  0.0848
 2922SOL    HW120399   4.424   3.240   2.863 -0.3142 -0.6012  1.9942
 2922SOL    HW220400   4.549   3.290   2.817  0.9870 -0.4256  0.5891
 2923SOL     OW20401   0.026   3.515  10.030  0.1796 -0.2314  0.0610
 2923SOL    HW120402   4.704   3.566  10.086 -0.4898 -2.6076  1.5140
 2923SOL    HW220403   0.052   3.580   9.965  1.9575 -2.9522 -1.9158
 2924SOL     OW20404   0.037   3.214  12.828 -0.8269  0.6120 -0.0671
 2924SOL    HW120405   0.105   3.163  12.872 -1.1484  2.1748  2.2427
 2924SOL    HW220406   4.703   3.152  12.809  0.6955 -1.8784  2.5782
 2925SOL     OW20407   3.021   0.592   5.818 -0.7012 -0.2511 -0.1745
 2925SOL    HW120408   2.931   0.576   5.792 -0.0507 -0.7625 -2.0891
 2925SOL    HW220409   3.069   0.549   5.747 -1.6391  0.5096 -1.2720
 2926SOL     OW20410   4.134   2.243   5.099 -0.5310 -0.7486  0.5177
 2926SOL    HW120411   4.048   2.277   5.074 -0.8017  1.1067  3.8735
 2926SOL    HW220412   4.151   2.291   5.180 -1.0302  2.6543 -1.4019
 2927SOL     OW20413   3.071   4.036   7.099  0.1215  0.2599 -0.7231
 2927SOL    HW120414   2.977   4.049   7.113  0.3392  0.4323  0.5592
 2927SOL    HW220415   3.065   3.940   7.098 -1.7028  0.3455  0.1813
 2928SOL     OW20416   2.966   3.612  10.099 -0.6340 -0.0555  0.0690
 2928SOL    HW120417   3.014   3.541  10.056 -1.9604  1.0327 -3.1820
 2928SOL    HW220418   2.915   3.654  10.030 -0.7201  0.8925  0.7005
 2929SOL     OW20419   2.356   3.036   7.233  0.5472 -0.0429  0.0846
 2929SOL    HW120420   2.407   3.025   7.314  0.5469 -1.4305 -0.1151
 2929SOL    HW220421   2.416   2.992   7.173  2.6494  1.8854  0.7391
 2930SOL     OW20422   4.082   4.587   3.118  0.1242  0.7825 -0.2866
 2930SOL    HW120423   4.170   4.623   3.101  0.5966 -0.7562 -1.0689
 2930SOL    HW220424   4.103   4.529   3.191 -2.5155 -1.8900 -1.7006
 2931SOL     OW20425   1.034   2.986  15.722  0.2419  0.1849 -0.3875
 2931SOL    HW120426   1.008   2.931  15.647  0.6479  1.1165 -1.2106
 2931SOL    HW220427   1.053   3.068  15.676  1.5261  0.3624  0.4680
 2932SOL     OW20428   1.712   1.161   2.415 -0.0501  0.1362 -0.2858
 2932SOL    HW120429   1.761   1.242   2.428 -0.6472  0.5966 -0.8875
 2932SOL    HW220430   1.781   1.108   2.453 -0.1573 -0.1442 -0.4804
 2933SOL     OW20431   4.172   3.227   6.528  0.0645  0.2753 -0.0832
 2933SOL    HW120432   4.113   3.300   6.544 -0.6451  0.2682 -2.5965
 2933SOL    HW220433   4.163   3.172   6.606  0.4763 -2.3245 -1.8707
 2934SOL     OW20434   2.061   2.231   1.606  0.1011 -0.0257  0.2919
 2934SOL    HW120435   2.156   2.234   1.599 -0.1001  0.9099 -2.1022
 2934SOL    HW220436   2.055   2.236   1.701 -0.1360  3.3397  0.1125
 2935SOL     OW20437   1.263   0.166   3.850  0.8077 -0.4410  0.3267
 2935SOL    HW120438   1.291   0.090   3.799  0.5598  0.4134 -1.0796
 2935SOL    HW220439   1.262   0.236   3.785  0.1889 -2.8934 -2.3136
 2936SOL     OW20440   0.238   3.891   9.735  0.1214  0.3387  0.3350
 2936SOL    HW120441   0.310   3.849   9.688 -0.6314 -0.5391 -0.0290
 2936SOL    HW220442   0.241   3.978   9.695  2.4021  0.4572  0.7716
 2937SOL     OW20443   0.820   3.340   6.561  0.4659 -0.4934 -0.4218
 2937SOL    HW120444   0.910   3.355   6.590 -0.0128  0.7879  0.3805
 2937SOL    HW220445   0.817   3.249   6.532 -1.9926 -0.3711 -0.5337
 2938SOL     OW20446   3.511   0.274  14.289  0.0099  0.5208  0.3532
 2938SOL    HW120447   3.499   0.215  14.214  0.3226  2.8137 -1.4926
 2938SOL    HW220448   3.493   0.358  14.248 -0.6456  0.2538  0.0854
 2939SOL     OW20449   3.454   2.576   6.506 -0.0341  0.0631  0.4754
 2939SOL    HW120450   3.401   2.647   6.543 -0.7638 -0.3848  0.2850
 2939SOL    HW220451   3.541   2.614   6.517 -0.4456  0.8382  1.0057
 2940SOL     OW20452   0.159   2.796   4.690  0.2221  0.1161 -0.1371
 2940SOL    HW120453   0.096   2.857   4.728  0.0889  0.7750 -1.4388
 2940SOL    HW220454   0.181   2.756   4.775  1.8059  1.4704  0.0861
 2941SOL     OW20455   0.923   4.263   3.703  0.1517  0.2449  0.7615
 2941SOL    HW120456   0.916   4.249   3.798  0.6812  0.1055  0.7845
 2941SOL    HW220457   0.913   4.173   3.669  0.2760  0.3693  0.3957
 2942SOL     OW20458   4.399   0.357   4.809 -0.0209  0.3469 -0.6037
 2942SOL    HW120459   4.356   0.336   4.892 -0.3566 -3.0168 -1.6342
 2942SOL    HW220460   4.440   0.277   4.776 -1.1766 -0.6880  0.4666
 2943SOL     OW20461   3.672   3.675  11.729 -0.2295 -0.3518 -0.0110
 2943SOL    HW120462   3.721   3.756  11.741  0.0082 -0.2839 -1.4685
 2943SOL    HW220463   3.599   3.717  11.682 -0.9318  1.8107  2.9833
 2944SOL     OW20464   0.587   1.408   1.223 -0.3640  0.1118 -0.1059
 2944SOL    HW120465   0.566   1.499   1.202  1.3750  0.2411 -1.3169
 2944SOL    HW220466   0.645   1.410   1.299 -1.3112 -2.1599  0.6761
 2945SOL     OW20467   3.151   1.659  12.897  0.8750  0.3298  0.4331
 2945SOL    HW120468   3.139   1.714  12.975  0.3547 -0.2948  0.7935
 2945SOL    HW220469   3.231   1.609  12.916  0.5279 -0.3181  0.1801
 2946SOL     OW20470   2.654   3.260  11.412 -0.2408 -0.1363  0.2156
 2946SOL    HW120471   2.657   3.263  11.508 -0.9438 -3.7762  0.3676
 2946SOL    HW220472   2.713   3.331  11.386 -2.2787  1.1969 -0.7528
 2947SOL     OW20473   2.857   3.172  14.197  0.0500 -0.0748  0.2833
 2947SOL    HW120474   2.826   3.098  14.249 -1.0818 -2.4070 -3.6519
 2947SOL    HW220475   2.826   3.135  14.114 -0.8837 -1.6560  1.3575
 2948SOL     OW20476   4.244   2.107   8.452  0.1143 -0.1554 -0.3229
 2948SOL    HW120477   4.338   2.106   8.433  0.1191 -0.0171 -0.3089
 2948SOL    HW220478   4.226   2.201   8.446 -1.6645 -0.3921  1.4833
 2949SOL     OW20479   1.576   1.520  13.420 -0.4650  0.3238  0.4579
 2949SOL    HW120480   1.668   1.517  13.445 -1.0248 -0.8132  2.3724
 2949SOL    HW220481   1.578   1.544  13.327  0.7462  0.9084  0.6433
 2950SOL     OW20482   2.305   2.493   7.542  0.1210  0.3138  0.0974
 2950SOL    HW120483   2.252   2.519   7.467  1.7470  0.6253 -0.9362
 2950SOL    HW220484   2.378   2.554   7.531 -0.3324  0.6836 -0.8933
 2951SOL     OW20485   0.088   4.464   3.730  0.5829 -0.1909  0.6443
 2951SOL    HW120486   0.033   4.535   3.696 -1.2179 -1.3934  1.0461
 2951SOL    HW220487   0.172   4.487   3.692  1.6470 -3.0534  1.3148
 2952SOL     OW20488   1.205   1.041  16.005  0.0440  0.6343 -0.5503
 2952SOL    HW120489   1.127   1.048  15.950  1.1709  3.0222 -1.8127
 2952SOL    HW220490   1.162   0.991  16.075  1.4215 -1.6241 -1.3192
 2953SOL     OW20491   1.217   1.857  10.542 -0.5083 -0.1464 -0.5654
 2953SOL    HW120492   1.284   1.882  10.605 -0.3614 -0.3700 -0.6351
 2953SOL    HW220493   1.260   1.774  10.523 -2.0004 -0.7127 -1.4971
 2954SOL     OW20494   1.057   4.303  15.853  0.3511  0.4818 -0.1257
 2954SOL    HW120495   1.143   4.275  15.883  0.9503  2.4559  0.0213
 2954SOL    HW220496   1.081   4.357  15.777  0.3415 -0.8808 -1.0989
 2955SOL     OW20497   0.961   3.138   3.880  0.0492  0.1185 -0.1912
 2955SOL    HW120498   1.008   3.090   3.813 -0.2144 -2.0522  1.1773
 2955SOL    HW220499   0.900   3.189   3.826 -0.0522 -1.0334 -1.1521
 2956SOL     OW20500   4.261   1.470  13.174  0.3862 -0.6588 -0.2263
 2956SOL    HW120501   4.284   1.474  13.267 -0.5272 -1.1145  0.0282
 2956SOL    HW220502   4.218   1.556  13.170 -0.6861 -1.1477  0.5082
 2957SOL     OW20503   2.780   2.699   3.461  0.2807 -0.8816  0.1113
 2957SOL    HW120504   2.844   2.763   3.429 -0.2357 -0.3284  0.1973
 2957SOL    HW220505   2.725   2.690   3.384 -1.3163 -2.0692  1.3866
 2958SOL     OW20506   4.501   2.066   8.390  0.4416  0.1592 -0.4713
 2958SOL    HW120507   4.467   1.985   8.353 -2.6573  1.8699 -1.3932
 2958SOL    HW220508   4.594   2.053   8.409  0.6726  2.9257  0.2761
 2959SOL     OW20509   1.538   0.187   8.269  0.1686 -0.2774 -0.0382
 2959SOL    HW120510   1.477   0.261   8.279  0.8672  0.6950 -2.8148
 2959SOL    HW220511   1.611   0.230   8.223  0.2271  0.3299  0.6232
 2960SOL     OW20512   1.658   0.366  10.665  0.8749  1.2649  0.0727
 2960SOL    HW120513   1.680   0.459  10.679 -1.0160  1.9119 -1.1982
 2960SOL    HW220514   1.564   0.379  10.652  1.0180 -0.4550 -2.6123
 2961SOL     OW20515   3.873   2.124   7.205 -0.0223  0.0384  0.0581
 2961SOL    HW120516   3.938   2.081   7.150 -0.0721  1.0488 -0.8008
 2961SOL    HW220517   3.930   2.158   7.274  1.2140  0.0393 -0.9778
 2962SOL     OW20518   2.732   2.496   1.038  0.5500  0.2176  0.1062
 2962SOL    HW120519   2.786   2.460   1.108  0.0300 -0.1162  0.3375
 2962SOL    HW220520   2.785   2.492   0.958  0.5821  1.6058  0.0552
 2963SOL     OW20521   4.599   0.757   7.465  0.1745 -0.5663 -0.3109
 2963SOL    HW120522   4.617   0.741   7.372 -2.8958  0.9042 -1.1577
 2963SOL    HW220523   4.579   0.851   7.463 -0.8296 -0.7684  0.4002
 2964SOL     OW20524   1.044   1.852   6.208 -0.5373 -0.2971  0.2734
 2964SOL    HW120525   1.048   1.756   6.214  0.7506 -0.1909  1.2139
 2964SOL    HW220526   1.071   1.863   6.299 -0.4553  0.8379  0.1107
 2965SOL     OW20527   0.014   4.212   3.048  0.1126  0.2237  0.3138
 2965SOL    HW120528   4.735   4.306   3.038  3.0186  0.7185  0.6636
 2965SOL    HW220529   4.669   4.180   3.008  0.2558 -0.0089  0.2133
 2966SOL     OW20530   0.905   1.150  13.414 -0.2640  0.0606  0.4527
 2966SOL    HW120531   0.933   1.096  13.487 -0.6257 -0.9056 -0.1317
 2966SOL    HW220532   0.858   1.084  13.364  0.0295  0.8122 -0.8175
 2967SOL     OW20533   1.438   4.479  16.526 -0.3609  0.1120  0.2347
 2967SOL    HW120534   1.487   4.422  16.586 -1.6427 -0.5563  0.6511
 2967SOL    HW220535   1.362   4.492  16.582 -0.6696 -3.2350  0.6050
 2968SOL     OW20536   0.377   1.570  10.356 -0.0834  0.3610  0.5510
 2968SOL    HW120537   0.428   1.622  10.418 -1.3723 -0.9452  2.7061
 2968SOL    HW220538   0.287   1.562  10.388 -1.3701  1.9800 -2.6023
 2969SOL     OW20539   3.074   1.529  12.555 -0.7117  0.0956  0.2954
 2969SOL    HW120540   3.112   1.541  12.468  2.1543  2.6925  1.9150
 2969SOL    HW220541   3.033   1.612  12.579 -1.4270 -0.1535 -0.0800
 2970SOL     OW20542   0.764   3.724   0.342  0.5579 -0.3774  0.6670
 2970SOL    HW120543   0.722   3.639   0.333  1.2361 -0.6725  0.3275
 2970SOL    HW220544   0.707   3.780   0.289  1.6584 -1.1108 -1.2488
 2971SOL     OW20545   0.217   1.339  12.307 -0.1976  0.0712 -0.2352
 2971SOL    HW120546   0.139   1.303  12.351 -0.6352 -0.7845 -1.7081
 2971SOL    HW220547   0.288   1.305  12.361 -0.9815 -2.7524 -0.9625
 2972SOL     OW20548   3.538   3.965   8.114 -0.5904 -0.1210  0.2961
 2972SOL    HW120549   3.458   3.971   8.061 -0.6909  0.7945  0.5534
 2972SOL    HW220550   3.557   4.055   8.141 -0.2675  0.1389 -0.7887
 2973SOL     OW20551   1.305   2.322   4.368  0.0651  0.3164  0.3813
 2973SOL    HW120552   1.221   2.342   4.409  0.4060  1.8149  0.3517
 2973SOL    HW220553   1.297   2.359   4.279 -0.7847 -1.4819 -0.2847
 2974SOL     OW20554   3.121   2.159   5.869 -0.0653 -0.6140 -0.0101
 2974SOL    HW120555   3.135   2.087   5.807  1.3098 -0.5026  0.1566
 2974SOL    HW220556   3.054   2.208   5.821  1.1993  0.9864 -0.1319
 2975SOL     OW20557   0.837   2.367  13.812  0.0335  0.0694 -0.0527
 2975SOL    HW120558   0.746   2.377  13.784 -0.2925 -1.2917  0.4752
 2975SOL    HW220559   0.831   2.296  13.877  0.1814 -0.0346 -0.1511
 2976SOL     OW20560   3.673   2.361  11.184 -0.6557 -0.0012  0.7728
 2976SOL    HW120561   3.757   2.399  11.210  1.0501 -1.0938 -3.0926
 2976SOL    HW220562   3.658   2.399  11.097  0.3259 -1.3470  0.0248
 2977SOL     OW20563   1.909   2.480  11.747 -0.0642  0.1435 -0.3466
 2977SOL    HW120564   1.876   2.449  11.831  1.2435 -0.7360 -0.1691
 2977SOL    HW220565   1.844   2.547  11.726  1.5529  2.0789  0.8314
 2978SOL     OW20566   4.603   2.380   5.360 -0.5897  0.0620  0.3341
 2978SOL    HW120567   4.559   2.464   5.345 -0.6664 -0.2793 -1.3642
 2978SOL    HW220568   4.547   2.338   5.425 -0.3042 -0.6231  0.1309
 2979SOL     OW20569   1.104   2.384   7.188 -0.4051  0.2607 -0.3292
 2979SOL    HW120570   1.150   2.437   7.253 -0.6453 -1.2765  1.0780
 2979SOL    HW220571   1.038   2.444   7.154 -2.2057 -2.6622 -1.9514
 2980SOL     OW20572   3.939   0.830   6.437 -0.1411  0.0485  0.5229
 2980SOL    HW120573   3.843   0.831   6.428 -0.4151  2.4862  3.6989
 2980SOL    HW220574   3.945   0.838   6.532  0.0644 -2.6259  0.7416
 2981SOL     OW20575   1.198   2.264   2.926  0.1909 -0.7730 -0.7604
 2981SOL    HW120576   1.110   2.300   2.922 -0.4336 -1.8888  2.6419
 2981SOL    HW220577   1.186   2.197   2.994 -1.2656  0.7413  0.4640
 2982SOL     OW20578   3.522   3.356   0.205 -0.0364  0.0498 -0.4895
 2982SOL    HW120579   3.503   3.441   0.245  0.7782  0.6801 -1.4328
 2982SOL    HW220580   3.617   3.366   0.202  0.1823 -1.6649  0.8058
 2983SOL     OW20581   0.469   3.102   5.197 -0.7820 -0.2630  0.1693
 2983SOL    HW120582   0.410   3.141   5.261  2.1710  2.5604  1.1363
 2983SOL    HW220583   0.501   3.026   5.246 -0.2799 -1.6286 -2.2692
 2984SOL     OW20584   3.559   0.794  17.452  0.2541 -0.2853 -0.3873
 2984SOL    HW120585   3.523   0.869  17.405  1.0176 -1.2351 -2.4997
 2984SOL    HW220586   3.536   0.720  17.395  0.5991 -1.3457  0.8399
 2985SOL     OW20587   0.104   0.115   3.699 -0.2990  0.5592 -0.4743
 2985SOL    HW120588   0.162   0.174   3.746  0.0683 -0.5252  0.4530
 2985SOL    HW220589   0.121   0.140   3.609  0.3096 -0.5103 -0.6537
 2986SOL     OW20590   0.494   1.847  15.561 -0.0361  0.8338 -0.4509
 2986SOL    HW120591   0.401   1.870  15.555  0.1194  1.7545  0.8426
 2986SOL    HW220592   0.509   1.875  15.651 -0.3915  0.6065 -0.3218
 2987SOL     OW20593   3.560   0.449  10.832 -0.0056 -0.1198  0.1358
 2987SOL    HW120594   3.485   0.424  10.886  0.2138  1.0725  0.9889
 2987SOL    HW220595   3.606   0.495  10.903  1.0943 -2.8306  1.2007
 2988SOL     OW20596   3.236   1.597   2.274  0.4193  0.2617  0.5424
 2988SOL    HW120597   3.275   1.623   2.190  0.7871 -1.9270  0.0315
 2988SOL    HW220598   3.155   1.551   2.252  0.6572  0.0961  0.0024
 2989SOL     OW20599   1.801   2.886   3.982  0.1747 -0.1378 -0.2507
 2989SOL    HW120600   1.708   2.878   4.005  0.4757  0.2662  1.1319
 2989SOL    HW220601   1.804   2.969   3.934  0.7406 -0.9504 -1.5902
 2990SOL     OW20602   0.084   3.847   5.428  0.1407  0.3678 -0.0900
 2990SOL    HW120603   0.032   3.792   5.370  1.4720 -0.0915 -0.8522
 2990SOL    HW220604   0.025   3.856   5.503  0.5291 -0.1222  0.2786
 2991SOL     OW20605   3.167   2.595  17.606  0.0855 -0.0593  0.0679
 2991SOL    HW120606   3.221   2.549  17.542 -1.3533  0.3807 -1.4434
 2991SOL    HW220607   3.203   2.683  17.611 -1.6200  0.5016  2.5061
 2992SOL     OW20608   2.068   4.361   6.306 -0.7332 -0.0608 -0.1346
 2992SOL    HW120609   2.007   4.362   6.379 -0.2200  0.8069  0.2842
 2992SOL    HW220610   2.058   4.274   6.266 -0.1698 -0.3511  0.3640
 2993SOL     OW20611   4.631   3.266   8.314 -0.8075  0.1300  0.2010
 2993SOL    HW120612   4.539   3.282   8.334 -1.2530 -0.9600 -0.9740
 2993SOL    HW220613   4.627   3.172   8.334  1.1670 -0.3674 -1.7171
 2994SOL     OW20614   2.106   2.262   7.038 -0.1702 -0.4872 -0.1750
 2994SOL    HW120615   2.101   2.204   7.114  0.2352 -1.0932 -0.6149
 2994SOL    HW220616   2.094   2.196   6.970  0.7186 -1.3912  0.5427
 2995SOL     OW20617   2.520   2.888   7.076  0.0657 -0.0626  0.6223
 2995SOL    HW120618   2.480   2.892   6.989  0.3678 -1.8075  0.4166
 2995SOL    HW220619   2.615   2.896   7.061 -0.0896  3.8540  1.7209
 2996SOL     OW20620   3.161   2.931  16.984  0.3568  0.2082 -0.6310
 2996SOL    HW120621   3.251   2.948  16.956  1.1171 -2.9379 -0.0954
 2996SOL    HW220622   3.115   2.933  16.900 -1.3650  1.8860  0.3604
 2997SOL     OW20623   4.056   0.332   9.101  0.1497 -0.1027 -0.2901
 2997SOL    HW120624   4.078   0.425   9.104 -2.9921  0.5687  2.5947
 2997SOL    HW220625   3.980   0.324   9.044 -0.0160  2.4450 -0.4463
 2998SOL     OW20626   1.191   0.750   5.458  0.0431 -0.3211  0.1605
 2998SOL    HW120627   1.208   0.694   5.534 -1.8415  1.1840  1.7124
 2998SOL    HW220628   1.235   0.833   5.479  0.6580 -0.5887 -0.0763
 2999SOL     OW20629   1.206   0.026   9.074  0.3025 -0.3243  0.0122
 2999SOL    HW120630   1.237   0.098   9.019 -1.2599  0.8784  0.7165
 2999SOL    HW220631   1.196   4.690   9.011 -0.2874 -0.6789  0.5075
 3000SOL     OW20632   3.785   2.157   5.101  0.0365 -0.2965  0.1890
 3000SOL    HW120633   3.706   2.191   5.142 -0.4528 -1.4303  0.1785
 3000SOL    HW220634   3.815   2.238   5.060 -2.7372 -0.2331 -1.7422
 3001SOL     OW20635   4.272   1.905   5.630 -0.3940  0.3603  0.2555
 3001SOL    HW120636   4.283   1.944   5.717 -1.2734  0.4654  0.3257
 3001SOL    HW220637   4.192   1.950   5.602  0.5052  0.1271 -2.6392
 3002SOL     OW20638   3.919   4.209   7.296 -0.2436  0.4549 -0.7477
 3002SOL    HW120639   3.893   4.290   7.339 -1.0092  1.0905 -2.4066
 3002SOL    HW220640   3.885   4.230   7.209  0.9379  0.1048 -1.3026
 3003SOL     OW20641   4.056   2.870  14.401 -0.8025  0.1911  0.2203
 3003SOL    HW120642   3.984   2.871  14.338  0.5465  0.2091 -1.3478
 3003SOL    HW220643   4.058   2.775  14.416 -3.4933 -0.4336 -3.2938
 3004SOL     OW20644   3.523   1.565   6.776 -0.6801 -0.1894  0.8707
 3004SOL    HW120645   3.581   1.592   6.847  1.3594  0.1377 -0.9250
 3004SOL    HW220646   3.503   1.475   6.805  0.6210 -0.5919  0.5230
 3005SOL     OW20647   1.276   3.782   5.810  0.0667 -0.3637  0.3767
 3005SOL    HW120648   1.211   3.826   5.755 -0.2504  1.2355  2.0139
 3005SOL    HW220649   1.353   3.789   5.753 -0.4343  1.4853 -0.0717
 3006SOL     OW20650   2.726   2.198  16.695 -0.3327 -0.0272 -0.6593
 3006SOL    HW120651   2.774   2.115  16.690  1.1268  0.6012  2.7909
 3006SOL    HW220652   2.746   2.226  16.784 -1.2551 -0.9670 -0.1577
 3007SOL     OW20653   3.518   4.001   8.705 -0.0723 -0.6856 -0.5248
 3007SOL    HW120654   3.534   4.027   8.614  3.1100  0.5764  0.3871
 3007SOL    HW220655   3.590   4.051   8.742  0.5594 -1.1073 -1.1907
 3008SOL     OW20656   1.702   1.054  16.548  0.4134  0.1832  0.0759
 3008SOL    HW120657   1.623   1.062  16.494  0.1277 -1.1158  0.3083
 3008SOL    HW220658   1.763   1.112  16.502 -1.1992  1.6775 -0.1990
 3009SOL     OW20659   3.472   0.594   4.783  0.6535 -1.1846  0.5369
 3009SOL    HW120660   3.504   0.673   4.827 -0.6939 -1.3605  1.8044
 3009SOL    HW220661   3.496   0.606   4.691  1.4574 -0.5462  0.8235
 3010SOL     OW20662   2.295   3.545  16.233 -0.2084 -0.0176  0.4365
 3010SOL    HW120663   2.373   3.555  16.287  0.2933  0.6753 -0.4201
 3010SOL    HW220664   2.288   3.630  16.189 -3.8384  0.2088  1.4801
 3011SOL     OW20665   1.017   1.436   2.297  0.3978 -0.2704  0.5210
 3011SOL    HW120666   1.028   1.473   2.209 -0.8728 -0.6641  0.1893
 3011SOL    HW220667   1.080   1.364   2.302 -1.2592 -1.8337 -0.7471
 3012SOL     OW20668   3.211   2.061  15.934 -0.0927  0.2243 -0.1909
 3012SOL    HW120669   3.176   2.135  15.884  1.0606 -0.4171 -1.9344
 3012SOL    HW220670   3.295   2.042  15.891  0.3941 -1.9812  1.7012
 3013SOL     OW20671   3.186   0.051  15.863 -0.3686  0.2750 -0.3737
 3013SOL    HW120672   3.158   0.080  15.776 -1.7735  1.1937  0.3903
 3013SOL    HW220673   3.181   4.692  15.870  2.1788  0.2551  1.4017
 3014SOL     OW20674   3.241   1.160   6.618 -0.3253 -0.3393  0.5593
 3014SOL    HW120675   3.285   1.244   6.632 -0.9600 -0.0189  0.6687
 3014SOL    HW220676   3.235   1.122   6.705  0.2373 -0.7056  0.4354
 3015SOL     OW20677   0.167   3.754   1.458  0.2869 -0.8796 -0.3088
 3015SOL    HW120678   0.255   3.723   1.437 -0.7539 -3.3837 -0.9588
 3015SOL    HW220679   0.115   3.684   1.418 -0.0479 -0.8713  0.1127
 3016SOL     OW20680   3.305   3.056   4.298 -0.5301 -0.2814 -0.2894
 3016SOL    HW120681   3.355   3.135   4.316 -1.2105  0.0403  0.1692
 3016SOL    HW220682   3.234   3.100   4.252  0.0541  2.4226  1.4718
 3017SOL     OW20683   2.698   3.651   1.966  0.0340 -0.3885  0.2735
 3017SOL    HW120684   2.624   3.675   2.023  1.6811  2.4007  1.2327
 3017SOL    HW220685   2.759   3.722   1.985 -1.1896  0.7227  0.0656
 3018SOL     OW20686   4.654   0.861   7.174 -0.7729 -0.0746 -0.2176
 3018SOL    HW120687   4.713   0.903   7.111 -1.6288 -0.2560 -1.1424
 3018SOL    HW220688   4.687   0.771   7.182 -0.6167 -0.2494 -2.8733
 3019SOL     OW20689   3.761   0.065  17.657 -0.4346 -0.1904  0.2314
 3019SOL    HW120690   3.777   4.710  17.630  0.7161  0.0623  0.0684
 3019SOL    HW220691   3.847   0.103  17.671 -0.7652  0.2214  1.1138
 3020SOL     OW20692   0.127   0.458   8.818  0.6183  0.0048 -0.3603
 3020SOL    HW120693   0.140   0.479   8.911 -1.6254 -0.9863  0.1835
 3020SOL    HW220694   0.034   0.479   8.824  0.3187 -1.7380  0.9700
 3021SOL     OW20695   0.322   4.601   3.627 -0.1991  0.1543 -0.0159
 3021SOL    HW120696   0.299   4.681   3.581 -0.7991 -1.5898 -2.7459
 3021SOL    HW220697   0.400   4.623   3.678 -0.0560  1.3540 -0.7453
 3022SOL     OW20698   2.751   0.928   6.543  0.0791 -0.2729  0.0997
 3022SOL    HW120699   2.658   0.943   6.561 -0.3172 -0.7127 -1.6169
 3022SOL    HW220700   2.743   0.877   6.463  0.5338  0.4050 -0.3829
 3023SOL     OW20701   3.025   2.222   4.058 -0.1565  0.1803 -0.4699
 3023SOL    HW120702   3.042   2.130   4.079 -4.2033 -0.2961  0.6970
 3023SOL    HW220703   3.004   2.206   3.966  0.9797  0.0959 -0.7188
 3024SOL     OW20704   0.623   3.175  11.395 -0.8658 -0.3406  0.4130
 3024SOL    HW120705   0.533   3.148  11.414 -0.9833 -0.3805 -0.1896
 3024SOL    HW220706   0.671   3.106  11.439  1.3790  0.5474 -0.6421
 3025SOL     OW20707   3.247   0.140   7.167 -0.3575  0.4946 -0.6021
 3025SOL    HW120708   3.254   0.175   7.256 -1.3232  0.2241 -0.4154
 3025SOL    HW220709   3.151   0.139   7.164 -0.4227 -1.4825  1.4768
 3026SOL     OW20710   2.310   2.519   2.627 -0.0201 -0.6809 -0.2359
 3026SOL    HW120711   2.254   2.555   2.558  1.0206 -0.1611 -0.8160
 3026SOL    HW220712   2.240   2.482   2.680 -0.4494 -0.5992 -0.7418
 3027SOL     OW20713   4.112   0.359   1.859 -0.0587  0.4201  0.1927
 3027SOL    HW120714   4.033   0.363   1.805  1.3247 -1.7017 -1.9889
 3027SOL    HW220715   4.131   0.450   1.881 -1.8931  1.1037 -1.0763
 3028SOL     OW20716   1.585   3.378  12.646 -0.0444  0.0155  0.4898
 3028SOL    HW120717   1.508   3.333  12.681  0.6004  1.2158  3.4188
 3028SOL    HW220718   1.538   3.430  12.581  1.9795  0.8495 -0.2943
 3029SOL     OW20719   1.054   1.419   2.019 -0.1298 -0.1616  0.1559
 3029SOL    HW120720   1.051   1.326   2.038 -0.2234 -0.3712 -0.8806
 3029SOL    HW220721   0.975   1.424   1.965  1.8101  1.0580 -2.5134
 3030SOL     OW20722   2.243   2.685   4.906 -0.5550 -0.5405  0.3059
 3030SOL    HW120723   2.287   2.704   4.823 -0.7814  0.1265  0.3411
 3030SOL    HW220724   2.215   2.773   4.931 -1.1334 -0.8629  0.7865
 3031SOL     OW20725   0.628   2.932  11.566 -0.1730  0.5835  0.0579
 3031SOL    HW120726   0.534   2.918  11.569 -0.3352  1.0649 -2.7912
 3031SOL    HW220727   0.648   2.894  11.480  0.5466 -0.0737  0.5228
 3032SOL     OW20728   3.687   3.925   2.216 -0.5729 -0.4817  0.0995
 3032SOL    HW120729   3.727   4.000   2.259 -0.7923 -0.5805  0.4724
 3032SOL    HW220730   3.664   3.967   2.133 -0.1318 -0.1784  0.1305
 3033SOL     OW20731   3.334   3.650   4.886  0.4478  0.1412 -0.4256
 3033SOL    HW120732   3.311   3.701   4.964  0.2930 -1.2510  0.4380
 3033SOL    HW220733   3.358   3.716   4.821  1.2677 -0.9982 -1.2623
 3034SOL     OW20734   3.387   0.179  13.949  0.5094 -0.2662  0.6683
 3034SOL    HW120735   3.391   0.107  14.012 -5.2616 -1.0644  0.1101
 3034SOL    HW220736   3.449   0.248  13.975 -0.1663 -0.0711  1.7526
 3035SOL     OW20737   3.397   2.415   4.416 -0.0623 -0.4120 -0.0540
 3035SOL    HW120738   3.369   2.507   4.417 -2.0491 -1.0091 -0.6329
 3035SOL    HW220739   3.390   2.401   4.322 -2.2528 -0.9038  0.1911
 3036SOL     OW20740   0.705   1.393   6.733 -0.5670 -0.5374 -0.4145
 3036SOL    HW120741   0.671   1.478   6.705 -1.0345 -0.3801  0.6404
 3036SOL    HW220742   0.625   1.344   6.754  0.1856 -1.1034  1.1116
 3037SOL     OW20743   1.801   2.822  11.042 -0.4417 -0.3107 -0.0501
 3037SOL    HW120744   1.856   2.892  11.009  0.2763 -0.8912 -0.0937
 3037SOL    HW220745   1.770   2.877  11.114 -0.1552  0.3439 -0.4366
 3038SOL     OW20746   1.249   2.326  11.898  0.0379 -0.2446  0.3228
 3038SOL    HW120747   1.240   2.323  11.993  2.6467 -0.5086  0.5667
 3038SOL    HW220748   1.327   2.375  11.875  0.6288 -0.0589  2.6943
 3039SOL     OW20749   0.454   3.949   2.998  0.0962  0.4600  0.1544
 3039SOL    HW120750   0.399   4.023   2.971 -0.2039  0.0546 -0.3464
 3039SOL    HW220751   0.421   3.919   3.083 -0.1259 -0.3415 -0.2174
 3040SOL     OW20752   3.212   2.951  16.006 -0.0969  0.2730  0.4063
 3040SOL    HW120753   3.125   2.927  15.975 -0.0265  1.3527 -0.6232
 3040SOL    HW220754   3.211   2.919  16.096 -0.9865  0.9667  0.6406
 3041SOL     OW20755   0.129   1.567   8.446  0.1080  0.0898  0.4938
 3041SOL    HW120756   0.100   1.521   8.367  1.5719 -0.8912  0.5201
 3041SOL    HW220757   0.214   1.526   8.463 -0.1744  1.0276  4.0446
 3042SOL     OW20758   2.676   3.636   4.474  0.5937  0.0922 -0.3507
 3042SOL    HW120759   2.673   3.572   4.403  0.5341 -1.4243  1.0332
 3042SOL    HW220760   2.612   3.690   4.429 -1.5921 -1.2184  1.1983
 3043SOL     OW20761   1.095   3.186   2.484 -0.2584  0.0900  0.5366
 3043SOL    HW120762   1.136   3.121   2.541 -0.9586 -0.8680 -0.0365
 3043SOL    HW220763   1.165   3.249   2.472  0.8453 -1.1487  0.5080
 3044SOL     OW20764   3.254   4.451   7.650  0.0034 -0.0327 -0.5178
 3044SOL    HW120765   3.259   4.402   7.733  1.3973  1.8670  0.5117
 3044SOL    HW220766   3.284   4.391   7.582 -0.2621 -1.4090  0.5664
 3045SOL     OW20767   1.939   2.005   3.069 -0.6743  0.0851 -0.3988
 3045SOL    HW120768   1.849   2.038   3.071 -1.2115 -1.5134  1.0891
 3045SOL    HW220769   1.930   1.950   3.147  1.7391 -1.5857 -1.3091
 3046SOL     OW20770   3.646   4.272   3.197  0.1903 -0.0532  0.2347
 3046SOL    HW120771   3.732   4.259   3.156 -0.0940  2.1843 -1.0916
 3046SOL    HW220772   3.636   4.205   3.265  0.3022  1.6990  1.9629
 3047SOL     OW20773   2.237   0.550   3.783  0.2669 -0.3984 -0.0356
 3047SOL    HW120774   2.202   0.598   3.709  1.8796  1.3232  0.2996
 3047SOL    HW220775   2.153   0.530   3.823 -0.3304  1.9904 -0.0791
 3048SOL     OW20776   2.704   2.439   2.821  0.5159  0.2051 -0.0457
 3048SOL    HW120777   2.709   2.534   2.831 -0.6738  0.4036 -1.2794
 3048SOL    HW220778   2.689   2.410   2.911  2.7093 -1.0317 -0.0825
 3049SOL     OW20779   0.749   1.215   5.981 -0.5584 -0.3920 -0.4422
 3049SOL    HW120780   0.786   1.201   5.894  1.8695  1.4047  0.2782
 3049SOL    HW220781   0.773   1.133   6.025 -0.6875 -0.2155 -0.0432
 3050SOL     OW20782   3.679   0.451   2.697 -0.3800 -0.4066  0.1249
 3050SOL    HW120783   3.735   0.387   2.741  0.5593 -0.5810 -1.3150
 3050SOL    HW220784   3.709   0.446   2.606 -1.2738  0.4846 -0.2208
 3051SOL     OW20785   2.679   0.860   4.152 -0.0487 -0.1977 -0.1767
 3051SOL    HW120786   2.771   0.882   4.169  0.4866 -1.6269 -1.2902
 3051SOL    HW220787   2.648   0.948   4.127 -0.8247 -0.4999 -0.2674
 3052SOL     OW20788   1.006   4.178  14.425 -0.9812 -0.0620 -0.0743
 3052SOL    HW120789   1.048   4.160  14.509 -1.3325 -0.7181 -0.0404
 3052SOL    HW220790   1.069   4.133  14.369 -0.7968 -0.0323  0.1088
 3053SOL     OW20791   0.703   3.986   4.086  0.3954 -0.1426 -0.3033
 3053SOL    HW120792   0.609   4.003   4.081  0.1323 -1.1789  1.0476
 3053SOL    HW220793   0.724   3.928   4.014  0.6230 -0.7496  0.2508
 3054SOL     OW20794   1.342   2.239   7.650 -0.2029  0.4644 -0.0269
 3054SOL    HW120795   1.257   2.218   7.688 -0.0858  0.1696  0.0675
 3054SOL    HW220796   1.355   2.327   7.687  0.5513  0.4128 -0.1625
 3055SOL     OW20797   1.156   2.508  14.052  0.4545  0.0106 -0.2339
 3055SOL    HW120798   1.157   2.488  13.958  0.2563 -2.1009  0.1986
 3055SOL    HW220799   1.217   2.444  14.089  1.3244  0.9249 -0.1108
 3056SOL     OW20800   3.865   3.261  14.649 -0.1662  0.0796 -0.0571
 3056SOL    HW120801   3.874   3.324  14.577  0.1921  0.1837  0.0774
 3056SOL    HW220802   3.928   3.202  14.608 -0.0280 -0.9761  1.6812
 3057SOL     OW20803   1.289   0.124   9.602  0.3609 -0.2575  0.1639
 3057SOL    HW120804   1.234   0.142   9.526  0.3232  0.0333  0.2589
 3057SOL    HW220805   1.368   0.088   9.562 -0.6393 -1.5683 -0.6238
 3058SOL     OW20806   0.673   0.477  15.936 -0.0860 -0.4835 -0.3551
 3058SOL    HW120807   0.734   0.454  16.006  0.3904  3.4910  0.5176
 3058SOL    HW220808   0.666   0.572  15.942  1.3317 -0.1848 -3.7315
 3059SOL     OW20809   2.017   0.264   2.095  0.2012  0.8054 -0.2363
 3059SOL    HW120810   2.078   0.194   2.073  1.1850  1.2090  1.2079
 3059SOL    HW220811   1.931   0.221   2.103  0.1371  0.8521 -0.6769
 3060SOL     OW20812   4.065   3.204   5.725  0.5453  0.1900 -0.0818
 3060SOL    HW120813   4.098   3.230   5.639  4.0333  1.3932  1.5984
 3060SOL    HW220814   4.082   3.110   5.731 -1.0398 -0.1276 -0.6240
 3061SOL     OW20815   2.395   3.541  11.759  0.0873 -0.6783 -0.1579
 3061SOL    HW120816   2.347   3.599  11.700  0.4834  0.0730  0.2667
 3061SOL    HW220817   2.380   3.458  11.713 -1.3447  1.0185 -2.7409
 3062SOL     OW20818   3.368   1.525  17.675  0.3625 -0.5632  0.0682
 3062SOL    HW120819   3.396   1.596  17.734 -1.7303 -0.2167  0.6698
 3062SOL    HW220820   3.275   1.544  17.661  0.8598  1.2217 -0.8602
 3063SOL     OW20821   3.981   4.689   2.049 -0.3515 -0.2201  0.4737
 3063SOL    HW120822   4.019   4.626   1.988  0.9102  0.0869  0.9267
 3063SOL    HW220823   3.888   4.686   2.027 -0.4940 -2.6023  1.4645
 3064SOL     OW20824   1.732   4.525   3.375 -0.1524 -0.4075 -0.1221
 3064SOL    HW120825   1.779   4.495   3.298  0.9071  0.0954  0.3292
 3064SOL    HW220826   1.670   4.455   3.395  0.4239  0.0656  3.5021
 3065SOL     OW20827   1.770   3.813   6.444  0.5676  0.0480  0.2333
 3065SOL    HW120828   1.819   3.850   6.518 -1.2161  0.2201  1.3210
 3065SOL    HW220829   1.712   3.882   6.412 -0.4577 -0.5940  0.7369
 3066SOL     OW20830   1.213   0.369  11.137  0.4877  0.0633 -0.0993
 3066SOL    HW120831   1.190   0.278  11.156 -2.1134  0.6294 -0.4978
 3066SOL    HW220832   1.196   0.416  11.218  1.2486  2.0931 -1.1248
 3067SOL     OW20833   3.919   2.887   4.781 -0.5684 -0.1406 -0.1566
 3067SOL    HW120834   3.843   2.910   4.727  0.6172 -0.2524 -1.9000
 3067SOL    HW220835   3.986   2.907   4.715 -0.4910 -1.2543 -0.4244
 3068SOL     OW20836   2.805   1.649   9.354  0.0683 -0.4415 -0.5527
 3068SOL    HW120837   2.772   1.671   9.441 -0.5146 -1.7470 -0.4463
 3068SOL    HW220838   2.741   1.698   9.302 -0.8460 -0.1568  0.8369
 3069SOL     OW20839   3.314   1.022   1.781  0.3318 -0.5187  0.0068
 3069SOL    HW120840   3.345   1.023   1.872  0.2606 -1.4895  0.0509
 3069SOL    HW220841   3.235   0.971   1.801  0.7456 -1.1280  0.1131
 3070SOL     OW20842   0.044   1.155   2.250  0.0146 -0.0875 -0.0015
 3070SOL    HW120843   0.008   1.218   2.188  1.9470  1.3676  0.3520
 3070SOL    HW220844   0.136   1.159   2.223 -0.5273 -1.0974 -2.0234
 3071SOL     OW20845   4.049   3.262   9.462  0.3865 -0.5281 -0.1179
 3071SOL    HW120846   4.018   3.308   9.540 -0.7173  0.2749 -1.0380
 3071SOL    HW220847   3.997   3.300   9.391  0.1485 -0.3778  0.1384
 3072SOL     OW20848   3.881   1.575   8.885  0.1488  0.1103 -0.2696
 3072SOL    HW120849   3.908   1.490   8.919  2.3178  1.5092  1.5403
 3072SOL    HW220850   3.912   1.630   8.957  0.2278 -1.7293  1.1153
 3073SOL     OW20851   3.566   2.766   9.629 -0.1684 -0.2778  0.2413
 3073SOL    HW120852   3.552   2.820   9.551  1.7017  1.0504  0.8456
 3073SOL    HW220853   3.639   2.714   9.596  1.9234  1.5203  2.0752
 3074SOL     OW20854   0.749   4.140   1.775  0.8822 -0.2644 -0.3153
 3074SOL    HW120855   0.834   4.182   1.787 -0.4176  1.6549  2.1617
 3074SOL    HW220856   0.686   4.189   1.828  1.6496  0.6386 -0.2417
 3075SOL     OW20857   3.926   2.415   5.449  0.1358 -0.2174  0.0154
 3075SOL    HW120858   3.861   2.423   5.519 -0.1020 -0.4771 -0.1780
 3075SOL    HW220859   4.011   2.427   5.493  0.3027 -3.1112  0.5008
 3076SOL     OW20860   0.289   1.807   6.111  0.1393  0.3790  0.1243
 3076SOL    HW120861   0.313   1.726   6.156 -1.4129  1.7827  3.5106
 3076SOL    HW220862   0.367   1.821   6.058  2.2295  0.9358  3.3675
 3077SOL     OW20863   1.092   2.154   7.342  0.4347 -0.6976  0.2330
 3077SOL    HW120864   1.109   2.238   7.300  0.6072 -0.8240  0.0506
 3077SOL    HW220865   1.004   2.144   7.306  0.0062  1.9886  0.5716
 3078SOL     OW20866   4.161   3.756  14.538  0.0232  0.0282  0.5196
 3078SOL    HW120867   4.115   3.731  14.618 -3.0812 -0.3974 -1.3671
 3078SOL    HW220868   4.210   3.677  14.518 -0.6220 -0.3301  0.3250
 3079SOL     OW20869   1.521   0.979   1.755  0.6477  0.3564  0.1865
 3079SOL    HW120870   1.531   0.987   1.850 -0.1050  0.3866  0.2610
 3079SOL    HW220871   1.613   0.966   1.730  0.1508 -0.6355 -1.1118
 3080SOL     OW20872   2.825   3.878   6.324 -0.0197  0.4129  0.4475
 3080SOL    HW120873   2.813   3.783   6.321  0.8233  0.3372 -0.6895
 3080SOL    HW220874   2.735   3.906   6.338  0.2891  1.2367  0.8005
 3081SOL     OW20875   3.254   0.029   6.916  0.3272 -0.0540 -0.2651
 3081SOL    HW120876   3.260   0.056   7.007 -0.4037 -1.0901  0.0957
 3081SOL    HW220877   3.191   4.692   6.922  0.6862 -0.3140  0.3284
 3082SOL     OW20878   4.147   0.849   0.601  0.5020  0.0470  0.1178
 3082SOL    HW120879   4.067   0.893   0.572 -0.3886 -0.7092  1.4076
 3082SOL    HW220880   4.119   0.791   0.673  0.6527  0.8476  0.8277
 3083SOL     OW20881   0.416   0.166   4.563 -0.3215 -0.2341 -0.2931
 3083SOL    HW120882   0.357   0.211   4.502  0.0283 -0.8799 -1.1100
 3083SOL    HW220883   0.448   0.246   4.605 -0.4567 -0.9320  1.1261
 3084SOL     OW20884   3.052   3.385   8.426  0.1108  0.2139 -0.6695
 3084SOL    HW120885   3.075   3.368   8.517 -1.2835 -0.4509 -0.4354
 3084SOL    HW220886   2.981   3.449   8.433 -0.9622 -0.9088 -1.3752
 3085SOL     OW20887   0.054   2.477   4.834 -0.0896  0.2295 -0.3464
 3085SOL    HW120888   0.038   2.536   4.760 -2.3358  1.7259  1.3218
 3085SOL    HW220889   4.722   2.411   4.815  0.2449 -0.1967 -0.0472
 3086SOL     OW20890   0.834   2.745   4.513 -0.0680 -0.4408  0.1856
 3086SOL    HW120891   0.745   2.718   4.537 -0.6359  2.2295  1.0119
 3086SOL    HW220892   0.825   2.826   4.563 -1.4570 -0.4851  0.0255
 3087SOL     OW20893   4.164   3.769   5.078 -0.0485 -0.3424  0.5639
 3087SOL    HW120894   4.260   3.770   5.072 -0.0585 -1.0152  0.3263
 3087SOL    HW220895   4.145   3.688   5.031 -1.1656  0.7698 -0.8897
 3088SOL     OW20896   3.132   1.604   5.325  0.3478 -0.2651  0.2072
 3088SOL    HW120897   3.202   1.593   5.389  0.4213  0.1494  0.1961
 3088SOL    HW220898   3.055   1.591   5.381 -1.3150  1.2109 -1.7525
 3089SOL     OW20899   4.227   2.678   6.382  0.5275 -0.1565  0.4214
 3089SOL    HW120900   4.166   2.745   6.415 -0.2815 -0.8181  0.2641
 3089SOL    HW220901   4.204   2.690   6.290  0.6602 -1.8203  0.1760
 3090SOL     OW20902   2.674   1.442   4.067  0.0747 -0.0555 -0.2484
 3090SOL    HW120903   2.680   1.482   4.154  0.0211  0.7226 -0.6102
 3090SOL    HW220904   2.592   1.485   4.046  0.3542 -0.3081 -1.8142
 3091SOL     OW20905   2.602   4.035   6.235  0.0977 -0.4048  0.5477
 3091SOL    HW120906   2.537   4.097   6.202 -0.8976 -0.4026  2.5199
 3091SOL    HW220907   2.546   3.958   6.242 -0.3406 -0.2577 -1.2495
 3092SOL     OW20908   0.694   4.240  14.100  0.9901 -0.1115 -0.2834
 3092SOL    HW120909   0.688   4.319  14.154  0.9392 -0.5712  0.3915
 3092SOL    HW220910   0.719   4.172  14.163  0.8371 -0.3187 -0.4478
 3093SOL     OW20911   1.140   1.015   3.576  0.2489  0.6049 -0.5557
 3093SOL    HW120912   1.179   0.947   3.521 -0.5816  1.0707 -1.7140
 3093SOL    HW220913   1.213   1.077   3.579  0.5064  0.1000  3.0007
 3094SOL     OW20914   1.670   1.323  17.422 -0.7498 -0.4910  0.2280
 3094SOL    HW120915   1.742   1.386  17.419 -0.9698 -0.3889 -2.2344
 3094SOL    HW220916   1.624   1.362  17.348  1.5167  0.6416 -0.5864
 3095SOL     OW20917   0.713   3.090   8.942 -0.2986 -0.6490 -0.6301
 3095SOL    HW120918   0.635   3.077   8.997 -0.2380  1.0491 -0.1492
 3095SOL    HW220919   0.713   3.008   8.894 -0.9714 -0.4983 -0.8924
 3096SOL     OW20920   2.589   3.839   3.060  0.1409 -0.2970  0.7371
 3096SOL    HW120921   2.590   3.932   3.080  1.3287 -0.3910  1.1130
 3096SOL    HW220922   2.625   3.798   3.138  0.4717 -1.6844 -0.1421
 3097SOL     OW20923   2.950   0.338  14.333 -0.5203 -0.1595  0.0335
 3097SOL    HW120924   3.030   0.329  14.281  1.5609 -1.6933  3.5479
 3097SOL    HW220925   2.896   0.274  14.286  0.6949 -0.5824 -0.8001
 3098SOL     OW20926   1.360   2.512   7.743  0.1578 -0.0945  0.4017
 3098SOL    HW120927   1.320   2.593   7.709  0.5512 -0.1005 -0.0775
 3098SOL    HW220928   1.452   2.538   7.733  0.4929 -1.2295  0.5942
 3099SOL     OW20929   3.933   3.169   7.205 -0.7526  0.3638 -0.3989
 3099SOL    HW120930   3.919   3.243   7.146 -2.1343  0.1399 -0.3380
 3099SOL    HW220931   3.895   3.094   7.160  2.9624 -0.0280 -2.9356
 3100SOL     OW20932   1.684   1.398   7.552 -0.1652  0.4114 -0.0570
 3100SOL    HW120933   1.722   1.382   7.466  1.2890 -1.9600  1.0319
 3100SOL    HW220934   1.647   1.313   7.578  2.3935 -0.0659  1.9163
 3101SOL     OW20935   0.830   0.404   7.516 -0.3951  0.1672 -0.1635
 3101SOL    HW120936   0.857   0.487   7.556  2.0792 -0.2563 -0.9035
 3101SOL    HW220937   0.764   0.442   7.458 -0.9878  0.5331  0.7526
 3102SOL     OW20938   0.879   1.064   6.883 -0.0958  0.3311  0.6835
 3102SOL    HW120939   0.962   1.084   6.839  0.5891 -0.1480  1.7603
 3102SOL    HW220940   0.839   1.056   6.796 -0.6900 -1.0215  1.0879
 3103SOL     OW20941   2.363   2.080   5.843  0.2064 -0.0020  0.1883
 3103SOL    HW120942   2.401   2.004   5.887  1.6721  1.3606  1.2879
 3103SOL    HW220943   2.329   2.030   5.769 -1.2051  0.2913  0.6512
 3104SOL     OW20944   1.276   3.102   1.197  0.2135  0.1608 -0.2548
 3104SOL    HW120945   1.244   3.060   1.276  2.4894 -1.1376 -0.0398
 3104SOL    HW220946   1.324   3.176   1.236 -1.3359  1.5350 -0.9591
 3105SOL     OW20947   4.495   3.346   6.929  0.1435  0.3030 -0.2105
 3105SOL    HW120948   4.440   3.315   7.001  2.0984  0.1570  1.2045
 3105SOL    HW220949   4.575   3.361   6.979 -0.7332  0.8663  1.0450
 3106SOL     OW20950   3.077   2.658   4.597 -0.3652 -0.0944  0.2581
 3106SOL    HW120951   3.131   2.640   4.675  1.4238  0.7312 -0.7805
 3106SOL    HW220952   2.991   2.673   4.636 -0.3835  1.7868 -0.5160
 3107SOL     OW20953   4.704   1.244   3.944 -0.7060 -0.2462 -0.2736
 3107SOL    HW120954   4.631   1.299   3.972 -0.9210 -1.3922  1.4468
 3107SOL    HW220955   4.732   1.292   3.866  0.1632 -2.1331 -1.1207
 3108SOL     OW20956   3.769   3.003   7.045 -0.4476  0.3654 -0.3279
 3108SOL    HW120957   3.844   2.981   6.990  1.4574  2.5596  1.3537
 3108SOL    HW220958   3.749   2.918   7.084  0.9294  0.2539  0.1220
 3109SOL     OW20959   3.696   3.644  12.041  0.3813  0.5708 -0.5973
 3109SOL    HW120960   3.778   3.677  12.077  0.4867 -0.0456 -0.2651
 3109SOL    HW220961   3.738   3.594  11.970 -2.4504  0.4289 -2.1640
 3110SOL     OW20962   1.618   2.835  17.428 -0.1618 -0.0651 -0.3368
 3110SOL    HW120963   1.713   2.825  17.441 -0.2492  0.7155  0.8915
 3110SOL    HW220964   1.606   2.893  17.353 -1.0962  0.1868  0.0159
 3111SOL     OW20965   3.345   2.513  12.927  0.0589  0.1077 -0.5681
 3111SOL    HW120966   3.323   2.588  12.871 -0.4671  0.5805  0.2662
 3111SOL    HW220967   3.393   2.567  12.990  1.0096 -0.3587 -0.8923
 3112SOL     OW20968   0.415   0.009   6.413 -0.1274 -0.0336 -0.1789
 3112SOL    HW120969   0.412   0.084   6.353  1.7667 -0.1559 -0.4564
 3112SOL    HW220970   0.444   0.046   6.496  0.1058 -0.5510 -0.0362
 3113SOL     OW20971   1.454   1.790   6.519 -0.8431 -0.1744 -0.0077
 3113SOL    HW120972   1.494   1.708   6.551 -0.4326 -0.0348 -0.1587
 3113SOL    HW220973   1.509   1.858   6.559 -1.9275  0.0366  1.1360
 3114SOL     OW20974   1.111   0.313  14.621  0.2654 -0.4285 -0.9014
 3114SOL    HW120975   1.040   0.373  14.599  0.3416  0.5088  1.4837
 3114SOL    HW220976   1.177   0.380  14.638 -0.9360  0.3587  0.7005
 3115SOL     OW20977   1.562   3.359  13.973  0.2337 -0.1956  0.7276
 3115SOL    HW120978   1.634   3.322  14.024  1.5027 -1.7241 -2.2155
 3115SOL    HW220979   1.483   3.328  14.018 -0.0947 -1.2401 -0.5687
 3116SOL     OW20980   2.172   3.509   8.384 -0.5362  0.7893  0.4520
 3116SOL    HW120981   2.242   3.574   8.381 -0.1160  0.3156 -0.1278
 3116SOL    HW220982   2.122   3.541   8.310  0.4877  2.1876  0.3719
 3117SOL     OW20983   2.520   2.805   5.146  0.1385  0.1316  0.3915
 3117SOL    HW120984   2.431   2.769   5.148  0.1298  0.0352 -1.9634
 3117SOL    HW220985   2.489   2.891   5.118  2.6764 -0.0557 -2.9502
 3118SOL     OW20986   1.697   0.560   7.739 -0.2952  0.2779 -0.1605
 3118SOL    HW120987   1.656   0.646   7.737  0.4959  0.5795 -2.6305
 3118SOL    HW220988   1.640   0.515   7.802 -1.2225  0.5313 -0.8171
 3119SOL     OW20989   3.052   3.684   9.369  0.1231  0.2844 -0.8046
 3119SOL    HW120990   2.967   3.709   9.332 -0.4496  0.8948  0.9721
 3119SOL    HW220991   3.064   3.620   9.299  0.2405  0.6217 -1.0942
 3120SOL     OW20992   1.810   0.653   1.786 -0.5006 -0.2136 -0.0725
 3120SOL    HW120993   1.823   0.574   1.733 -1.1851 -1.0698  1.0322
 3120SOL    HW220994   1.755   0.720   1.745 -1.2959 -1.3302 -0.8377
 3121SOL     OW20995   3.174   2.900   8.960  0.1417  0.2563  0.0850
 3121SOL    HW120996   3.156   2.852   8.879  0.8669 -1.5924  1.0165
 3121SOL    HW220997   3.247   2.847   8.991  0.4475  0.2533 -0.6378
 3122SOL     OW20998   3.610   4.434  12.876  0.2230  1.1655 -0.0502
 3122SOL    HW120999   3.584   4.351  12.837  0.5670  1.2157 -0.3902
 3122SOL    HW221000   3.666   4.462  12.803 -0.1838  2.4297  0.1131
 3123SOL     OW21001   3.714   4.108  17.431 -0.6014 -0.1953 -0.8342
 3123SOL    HW121002   3.749   4.142  17.513 -3.1484  1.2994 -0.3700
 3123SOL    HW221003   3.761   4.174  17.378  0.8198 -0.8309 -0.3734
 3124SOL     OW21004   2.183   3.381  11.631  0.8999  0.1103 -0.1757
 3124SOL    HW121005   2.094   3.393  11.599  1.2902  2.8162 -0.2610
 3124SOL    HW221006   2.212   3.321  11.562 -4.0202  0.0227 -2.1152
 3125SOL     OW21007   4.463   3.548   4.096 -0.4021  0.5745  0.5411
 3125SOL    HW121008   4.537   3.609   4.104  1.1732 -1.2360 -0.1326
 3125SOL    HW221009   4.498   3.498   4.023  1.0660 -0.5845  2.0346
 3126SOL     OW21010   4.337   2.541   7.571 -0.0370 -0.4172 -0.1560
 3126SOL    HW121011   4.309   2.596   7.497 -0.8239 -0.0662  0.4023
 3126SOL    HW221012   4.297   2.586   7.645  0.3059 -0.3420 -0.0165
 3127SOL     OW21013   1.533   1.808  16.889  0.5516  0.6160  0.0708
 3127SOL    HW121014   1.611   1.859  16.871  1.5378 -0.7848  0.3338
 3127SOL    HW221015   1.462   1.860  16.852 -0.2852 -0.4923  0.0986
 3128SOL     OW21016   4.121   1.084   2.513 -0.2959  0.5717 -0.5298
 3128SOL    HW121017   4.136   1.114   2.424  3.4809 -2.0782 -0.7866
 3128SOL    HW221018   4.032   1.117   2.525  0.2142  2.1822 -1.2862
 3129SOL     OW21019   2.962   0.074   2.473  0.3226  0.6061  0.1322
 3129SOL    HW121020   2.902   0.004   2.499  1.2936 -0.3125 -0.0716
 3129SOL    HW221021   2.949   0.136   2.545  1.2747  1.2031 -0.2153
 3130SOL     OW21022   0.751   0.271  13.214 -0.2339 -0.3936  0.2491
 3130SOL    HW121023   0.740   0.361  13.243  1.8800  0.1076 -0.5107
 3130SOL    HW221024   0.806   0.290  13.138 -4.5750 -0.5380 -2.9292
 3131SOL     OW21025   3.264   4.547  16.062 -0.0946 -0.2955  0.1214
 3131SOL    HW121026   3.279   4.631  16.105  0.7697  0.2667 -1.3069
 3131SOL    HW221027   3.192   4.510  16.112 -0.4308 -0.6874 -0.6554
 3132SOL     OW21028   4.252   0.859   2.584 -0.3378 -0.2067 -0.3394
 3132SOL    HW121029   4.198   0.935   2.562  1.1225  1.1477  0.7864
 3132SOL    HW221030   4.331   0.885   2.535 -1.1421 -0.0861 -1.5855
 3133SOL     OW21031   1.271   4.107   7.440  0.0379 -0.1768  0.0843
 3133SOL    HW121032   1.341   4.054   7.403 -1.3748 -1.7705 -0.3021
 3133SOL    HW221033   1.325   4.150   7.506  1.5459  1.2458 -2.0778
 3134SOL     OW21034   2.590   3.273   5.234 -0.4483  0.1144 -0.0982
 3134SOL    HW121035   2.665   3.324   5.203  0.5476 -0.8496  0.7601
 3134SOL    HW221036   2.594   3.301   5.325 -2.3494  3.6351 -1.0598
 3135SOL     OW21037   3.570   1.057   5.643  0.5475 -0.2719 -0.6551
 3135SOL    HW121038   3.608   1.106   5.716 -1.1621 -1.3296  0.9591
 3135SOL    HW221039   3.517   1.000   5.699  0.4413  1.5551  1.0923
 3136SOL     OW21040   3.312   2.609   3.925  0.0240 -0.0848  0.2904
 3136SOL    HW121041   3.342   2.601   3.834 -1.2163  2.0588 -0.3043
 3136SOL    HW221042   3.236   2.551   3.922  0.6119 -0.8803  0.8625
 3137SOL     OW21043   0.546   2.388   6.315 -0.0434 -0.0285 -0.6193
 3137SOL    HW121044   0.551   2.384   6.220  1.3032  0.2382 -0.5632
 3137SOL    HW221045   0.464   2.341   6.329 -1.0617  1.4328 -1.6819
 3138SOL     OW21046   4.537   2.602   8.142  0.6640 -0.3608  0.1818
 3138SOL    HW121047   4.591   2.625   8.218  1.5888  3.2334 -1.5572
 3138SOL    HW221048   4.594   2.538   8.099  1.4159 -0.4679  1.3312
 3139SOL     OW21049   0.864   1.629  16.769  0.0123  0.1746  0.0470
 3139SOL    HW121050   0.901   1.675  16.694 -0.6774  0.5138 -0.0829
 3139SOL    HW221051   0.793   1.690  16.792  0.0627 -0.0974  0.9382
 3140SOL     OW21052   0.078   3.204   6.612 -0.2923 -0.4803  0.3446
 3140SOL    HW121053   4.733   3.158   6.635 -0.0582  0.1811  2.4404
 3140SOL    HW221054   0.099   3.244   6.696  3.0663 -0.8076 -0.3308
 3141SOL     OW21055   0.548   2.098  11.978  0.1320  0.2335 -0.1360
 3141SOL    HW121056   0.564   2.155  11.903  0.0860 -0.1097 -0.4031
 3141SOL    HW221057   0.472   2.138  12.020  0.4211  1.0274 -0.3722
 3142SOL     OW21058   2.942   1.129   6.285 -0.0378 -0.2950 -0.7712
 3142SOL    HW121059   2.983   1.062   6.230 -0.8580 -1.0573 -0.4584
 3142SOL    HW221060   3.019   1.169   6.327 -0.1403  0.5192 -1.3739
 3143SOL     OW21061   1.994   0.198   7.376 -0.4127 -0.1919 -0.7225
 3143SOL    HW121062   2.008   0.139   7.450 -0.4413  0.0209 -0.5468
 3143SOL    HW221063   1.919   0.249   7.406 -0.1450 -0.1391 -0.1423
 3144SOL     OW21064   0.252   0.969   8.919 -0.3376  0.4247 -0.0760
 3144SOL    HW121065   0.169   1.012   8.939 -0.1610 -0.1363  1.8207
 3144SOL    HW221066   0.297   0.991   9.000  0.9634  0.8104 -0.8962
 3145SOL     OW21067   3.544   1.372  17.548  0.8729  0.3549  0.0391
 3145SOL    HW121068   3.504   1.315  17.482  2.4298 -0.6305 -0.0425
 3145SOL    HW221069   3.478   1.436  17.577 -0.1336 -0.4585 -0.4441
 3146SOL     OW21070   0.697   0.999   5.799 -0.1184  0.3788 -0.2440
 3146SOL    HW121071   0.657   1.082   5.773  0.9697  0.4020 -1.8720
 3146SOL    HW221072   0.655   0.965   5.878 -0.4760  2.9372  0.6735
 3147SOL     OW21073   3.696   1.786  17.659 -0.0593  0.1767 -0.5437
 3147SOL    HW121074   3.633   1.766  17.728  0.9734 -1.5954 -0.1204
 3147SOL    HW221075   3.638   1.775  17.584 -2.0207 -1.2747  1.1882
 3148SOL     OW21076   3.286   0.835  11.458 -0.4061 -0.2373  0.1382
 3148SOL    HW121077   3.273   0.843  11.364 -0.9521  0.6453  0.2869
 3148SOL    HW221078   3.292   0.930  11.471  1.0466  0.2038 -3.6716
 3149SOL     OW21079   3.226   0.693   6.635  0.0501 -0.0517 -0.1228
 3149SOL    HW121080   3.159   0.749   6.595  2.6336  2.7040 -0.6184
 3149SOL    HW221081   3.200   0.603   6.618 -1.4611  0.1531  1.1470
 3150SOL     OW21082   1.096   4.615   4.941  0.1771  0.0631  0.3607
 3150SOL    HW121083   1.053   4.561   5.007 -1.3219  0.3509 -0.3540
 3150SOL    HW221084   1.159   4.663   4.994  0.2180  2.0501 -1.4899
 3151SOL     OW21085   1.056   1.244   3.310 -0.1294  0.2632  0.4765
 3151SOL    HW121086   0.990   1.308   3.283 -2.2033 -2.0898 -0.0609
 3151SOL    HW221087   1.004   1.164   3.310 -1.6060  1.2431  2.0493
 3152SOL     OW21088   2.820   4.638  10.975  0.5439 -0.1209  0.0024
 3152SOL    HW121089   2.871   4.718  10.985  1.1333 -0.6328  1.1344
 3152SOL    HW221090   2.744   4.660  10.922 -0.1215 -0.9935  0.5988
 3153SOL     OW21091   1.392   1.951   7.359 -0.6914 -0.0930 -0.0511
 3153SOL    HW121092   1.421   2.041   7.345  1.2335 -0.5123  1.2046
 3153SOL    HW221093   1.352   1.962   7.446 -0.6334 -1.5380  0.1600
 3154SOL     OW21094   1.428   3.395   5.436  0.3462 -0.0414  0.3549
 3154SOL    HW121095   1.396   3.344   5.511  1.9140 -0.7002  0.5857
 3154SOL    HW221096   1.519   3.418   5.457  0.7604 -0.2618 -1.2071
 3155SOL     OW21097   3.258   0.505  11.324 -0.3622  0.3515  0.1936
 3155SOL    HW121098   3.283   0.419  11.358  1.5319  0.3808 -1.1270
 3155SOL    HW221099   3.297   0.565  11.388 -1.6868  1.2462  0.1654
 3156SOL     OW21100   3.439   4.672   7.683  0.5054  0.3829 -0.4673
 3156SOL    HW121101   3.384   4.604   7.644  0.2360 -0.5060  1.5213
 3156SOL    HW221102   3.387   0.004   7.639 -0.1250 -2.0654 -3.4880
 3157SOL     OW21103   1.284   4.033  16.833 -0.2748  0.2193  0.0241
 3157SOL    HW121104   1.259   4.090  16.760 -1.4692  1.0497  1.0807
 3157SOL    HW221105   1.361   4.077  16.868 -1.1250  2.0753 -0.4668
 3158SOL     OW21106   1.666   4.093  11.618  0.0004 -0.2334 -0.3033
 3158SOL    HW121107   1.686   4.166  11.560 -0.6098  1.0674  1.1268
 3158SOL    HW221108   1.653   4.020  11.557  1.1084 -1.6057  1.1286
 3159SOL     OW21109   0.105   1.481   6.842  0.1605 -0.0025 -0.0195
 3159SOL    HW121110   0.087   1.572   6.819 -1.7064 -0.6381 -1.0018
 3159SOL    HW221111   0.107   1.434   6.759  3.2151 -0.9416  0.5656
 3160SOL     OW21112   0.641   4.044   0.913  0.3122 -0.0547  0.2832
 3160SOL    HW121113   0.665   3.952   0.925  1.4983  0.0574 -1.2896
 3160SOL    HW221114   0.630   4.068   1.005  0.2519  1.0063 -0.0028
 3161SOL     OW21115   4.259   4.008   4.168 -0.2831 -0.4171 -0.2489
 3161SOL    HW121116   4.332   4.070   4.176  0.2013 -1.4034  3.1589
 3161SOL    HW221117   4.295   3.934   4.120 -1.8417 -1.2268 -0.1617
 3162SOL     OW21118   2.295   3.463   2.886 -0.4072  0.7411 -0.0334
 3162SOL    HW121119   2.371   3.441   2.940 -0.7712 -1.0292 -0.2410
 3162SOL    HW221120   2.280   3.556   2.901 -1.9652  0.5607 -0.4855
 3163SOL     OW21121   4.093   1.840  11.779  0.0323 -0.0334 -0.2623
 3163SOL    HW121122   4.057   1.752  11.773 -0.3673  0.1410 -0.4151
 3163SOL    HW221123   4.029   1.889  11.832  2.0268  1.0709  1.1395
 3164SOL     OW21124   4.577   3.707   4.513 -0.1145  0.4329  0.3434
 3164SOL    HW121125   4.536   3.650   4.578 -1.4917  1.0663  0.0386
 3164SOL    HW221126   4.500   3.727   4.460  0.3121 -1.4732 -0.9956
 3165SOL     OW21127   1.648   3.886  17.167 -0.5583 -0.2372 -0.5351
 3165SOL    HW121128   1.716   3.882  17.101 -0.3372  1.3608 -0.3837
 3165SOL    HW221129   1.700   3.899  17.247 -2.9727  1.3613  0.7938
 3166SOL     OW21130   2.636   0.013   5.850 -0.0928 -0.0088  0.2732
 3166SOL    HW121131   2.579   0.089   5.841  1.5054  0.9754 -1.3876
 3166SOL    HW221132   2.569   4.682   5.866  0.4270 -0.8266 -0.9965
 3167SOL     OW21133   0.180   2.297  17.666  0.3074 -0.2145  0.2833
 3167SOL    HW121134   0.224   2.362  17.611 -1.2451 -1.2167 -2.0989
 3167SOL    HW221135   0.143   2.347  17.739  0.5596  1.8890 -1.0199
 3168SOL     OW21136   2.318   1.913   5.626  0.3946  0.2743 -0.3793
 3168SOL    HW121137   2.393   1.870   5.584  0.1223 -0.3194 -0.2538
 3168SOL    HW221138   2.283   1.837   5.672  2.6512 -1.3633 -1.3427
 3169SOL     OW21139   3.760   0.732  13.498 -0.8029 -0.2568  0.5254
 3169SOL    HW121140   3.792   0.711  13.410  0.1419 -0.1966  0.8511
 3169SOL    HW221141   3.665   0.727  13.487 -0.8574  2.5394 -0.1486
 3170SOL     OW21142   1.294   2.388  17.106 -0.2805  0.2234  0.4023
 3170SOL    HW121143   1.331   2.457  17.160  0.5418  0.8853 -1.0120
 3170SOL    HW221144   1.355   2.388  17.032 -0.3487  0.7030  0.3435
 3171SOL     OW21145   4.688   1.357   9.764  0.0330  0.0601  0.0754
 3171SOL    HW121146   4.620   1.364   9.698  0.4765 -1.2840 -0.5328
 3171SOL    HW221147   0.031   1.382   9.716 -0.4170  0.1278 -0.6123
 3172SOL     OW21148   1.918   0.493  13.665 -0.5809  0.1441 -0.2453
 3172SOL    HW121149   2.011   0.476  13.647 -1.0156  0.2739 -2.6158
 3172SOL    HW221150   1.919   0.589  13.667  0.3000  0.0835  1.8781
 3173SOL     OW21151   2.230   3.747   6.361 -0.2636 -0.4142  0.4277
 3173SOL    HW121152   2.231   3.667   6.309  2.2080 -1.0203  1.3955
 3173SOL    HW221153   2.160   3.720   6.420 -3.3267  1.3676 -2.4086
 3174SOL     OW21154   1.155   1.385  15.947 -0.0608  0.1601  0.1320
 3174SOL    HW121155   1.075   1.370  15.997  0.3708  1.7671  1.2952
 3174SOL    HW221156   1.212   1.408  16.021 -0.0423 -0.5520  0.3398
 3175SOL     OW21157   2.085   0.863   3.299  0.5495  0.5321 -0.6906
 3175SOL    HW121158   2.020   0.887   3.233 -0.0440  0.3556 -0.1716
 3175SOL    HW221159   2.028   0.853   3.375  1.2274 -0.6710 -0.3436
 3176SOL     OW21160   4.600   0.266  10.578  0.0224  0.2084 -0.2745
 3176SOL    HW121161   4.589   0.171  10.586  1.6049  0.1300  0.9292
 3176SOL    HW221162   4.619   0.274  10.485  3.3088 -1.5173  0.2489
 3177SOL     OW21163   2.864   3.655  11.065 -0.5446  0.5696 -0.0859
 3177SOL    HW121164   2.891   3.672  11.155 -1.3767  1.0950  0.0620
 3177SOL    HW221165   2.915   3.726  11.025  0.5080  0.1988  0.5861
 3178SOL     OW21166   3.467   1.475   4.141  0.2555 -0.1082 -0.1865
 3178SOL    HW121167   3.521   1.407   4.182 -1.4642 -1.3816 -0.0545
 3178SOL    HW221168   3.544   1.521   4.107 -1.2749  0.3635 -2.9790
 3179SOL     OW21169   0.299   2.276   9.647  0.0568 -0.3988 -0.9612
 3179SOL    HW121170   0.282   2.353   9.701  0.8397 -0.7687 -0.1832
 3179SOL    HW221171   0.210   2.253   9.619  0.0469 -0.2438 -1.0555
 3180SOL     OW21172   2.858   4.170  11.386  0.7613 -0.3498 -0.6222
 3180SOL    HW121173   2.855   4.074  11.381 -1.8405 -0.3647  1.2550
 3180SOL    HW221174   2.923   4.178  11.456  0.9859  1.3868 -1.0406
 3181SOL     OW21175   1.011   1.151   2.051  0.0987 -0.7530  0.1538
 3181SOL    HW121176   0.943   1.084   2.049  0.4238 -1.0720 -0.3352
 3181SOL    HW221177   1.066   1.125   1.977 -1.7730  1.8671 -2.1367
 3182SOL     OW21178   0.092   2.544  14.435  0.1447 -0.2801 -0.0020
 3182SOL    HW121179   0.003   2.526  14.405  1.0864  0.0992 -3.0334
 3182SOL    HW221180   0.104   2.472  14.496  0.9230 -0.2853 -0.1593
 3183SOL     OW21181   3.708   0.189  10.586 -0.2931 -0.1327 -0.7553
 3183SOL    HW121182   3.628   0.148  10.619  0.7514 -0.1883  1.7434
 3183SOL    HW221183   3.696   0.183  10.491 -1.3460 -1.2741 -0.5509
 3184SOL     OW21184   4.472   3.207   2.124  0.3090  0.0018 -0.3410
 3184SOL    HW121185   4.508   3.282   2.171 -1.1436  1.9037 -2.2686
 3184SOL    HW221186   4.544   3.155   2.089  0.0326  0.1347 -1.1097
 3185SOL     OW21187   4.363   3.909   6.084 -0.9167 -0.9367 -0.3480
 3185SOL    HW121188   4.316   3.981   6.042 -0.2759 -0.6772 -0.6317
 3185SOL    HW221189   4.308   3.898   6.161 -0.3329  0.5585  0.2906
 3186SOL     OW21190   1.231   4.626   1.434 -0.2650 -0.2089  0.0743
 3186SOL    HW121191   1.311   4.654   1.390  0.1058 -0.9277  0.2964
 3186SOL    HW221192   1.243   4.532   1.449 -0.2581 -0.2922 -0.4507
 3187SOL     OW21193   0.771   3.134   3.257  0.1023 -0.8421  0.3528
 3187SOL    HW121194   0.706   3.204   3.256  1.3573  0.3229  0.0595
 3187SOL    HW221195   0.724   3.073   3.199 -0.4938 -0.8735  0.8733
 3188SOL     OW21196   3.076   4.247   1.854  0.5225 -0.1492 -0.2889
 3188SOL    HW121197   3.042   4.336   1.841  0.7029  0.1647  1.4216
 3188SOL    HW221198   3.167   4.259   1.825  0.7584  2.5994  1.5939
 3189SOL     OW21199   1.675   3.849   0.537  0.9895  0.0995 -0.0979
 3189SOL    HW121200   1.585   3.859   0.507  0.4978  1.3835  1.7710
 3189SOL    HW221201   1.694   3.761   0.506  0.8456 -0.2742  0.8818
 3190SOL     OW21202   2.284   3.040   6.207  0.4034  0.2003  0.6246
 3190SOL    HW121203   2.289   3.091   6.288 -0.2603  0.8438  0.2592
 3190SOL    HW221204   2.294   2.947   6.231  0.6081  0.5711  1.9874
 3191SOL     OW21205   3.557   0.024   3.440  1.0691  0.8490 -0.0481
 3191SOL    HW121206   3.624   0.039   3.506  2.4302  1.1281 -1.4960
 3191SOL    HW221207   3.600   0.003   3.357 -0.3267 -1.8450 -0.0715
 3192SOL     OW21208   0.187   3.572   6.944 -0.1872  0.1199 -0.9960
 3192SOL    HW121209   0.117   3.609   6.890 -0.9230 -2.3701 -1.7342
 3192SOL    HW221210   0.265   3.619   6.915  0.6989 -1.4409 -1.1612
 3193SOL     OW21211   2.880   0.032  14.803  0.2869  0.2655 -0.4284
 3193SOL    HW121212   2.825   4.729  14.735 -1.8768  1.8911  0.3738
 3193SOL    HW221213   2.821   0.054  14.874 -2.1851  0.0399 -2.4122
 3194SOL     OW21214   0.510   3.797  10.966 -0.1542 -0.8604 -0.4047
 3194SOL    HW121215   0.483   3.886  10.941 -0.8740 -1.0850 -0.4343
 3194SOL    HW221216   0.426   3.759  10.993  0.7477 -2.7563 -0.2750
 3195SOL     OW21217   1.890   0.601   6.013 -0.5317 -0.0089 -0.6006
 3195SOL    HW121218   1.937   0.671   5.969  0.7484 -0.0551  0.6656
 3195SOL    HW221219   1.894   0.531   5.948  3.0851 -0.5006  0.1579
 3196SOL     OW21220   4.601   2.081  13.122  0.1037 -0.0001  0.1799
 3196SOL    HW121221   4.525   2.108  13.070 -1.8776 -1.6679  2.1748
 3196SOL    HW221222   4.671   2.066  13.060 -0.7865 -0.3019 -0.7506
 3197SOL     OW21223   0.367   4.293   5.221 -0.2182 -0.1517 -0.0129
 3197SOL    HW121224   0.279   4.325   5.204 -0.0339  0.8443  0.9163
 3197SOL    HW221225   0.348   4.252   5.305 -0.6167  1.1262  0.5205
 3198SOL     OW21226   3.736   3.832   9.415 -0.0050  0.4622  0.0902
 3198SOL    HW121227   3.769   3.763   9.358 -1.0129 -2.8517  3.4736
 3198SOL    HW221228   3.646   3.804   9.432  0.1666 -0.0906  0.1083
 3199SOL     OW21229   1.097   2.117   7.612 -0.1323 -0.5668 -0.1553
 3199SOL    HW121230   1.136   2.034   7.587  0.0545 -0.2846 -0.7926
 3199SOL    HW221231   1.100   2.155   7.524 -1.9933  1.0726  0.4856
 3200SOL     OW21232   1.463   1.033  14.566 -0.0789 -0.3021  0.0261
 3200SOL    HW121233   1.548   1.048  14.525 -0.1064  2.0067  0.8462
 3200SOL    HW221234   1.411   1.108  14.539 -0.7099 -0.4092  0.9386
 3201SOL     OW21235   3.104   1.426   9.310  0.0489  0.0955  0.0081
 3201SOL    HW121236   3.194   1.398   9.324  0.2315 -1.0122 -3.3147
 3201SOL    HW221237   3.118   1.493   9.243 -0.1675  0.6515  0.5246
 3202SOL     OW21238   4.482   0.999   4.717 -0.2270 -0.7020 -0.8498
 3202SOL    HW121239   4.574   0.975   4.723 -0.1408 -0.1571  0.0241
 3202SOL    HW221240   4.478   1.023   4.624 -0.4078  0.1695 -0.6211
 3203SOL     OW21241   0.978   3.704  17.279  0.0073  0.2954  0.0172
 3203SOL    HW121242   0.952   3.766  17.211 -1.8969  0.2092  0.6695
 3203SOL    HW221243   1.051   3.755  17.314  1.3752  0.3771 -2.9690
 3204SOL     OW21244   0.380   1.147  17.639  0.4496 -0.0176  0.0181
 3204SOL    HW121245   0.461   1.129  17.685  2.0367  1.7967 -2.0834
 3204SOL    HW221246   0.339   1.212  17.697  1.9188  1.0934 -0.1944
 3205SOL     OW21247   3.675   2.113   1.223  0.0981  0.0174  0.3852
 3205SOL    HW121248   3.659   2.018   1.222 -0.8970  0.1838  0.9184
 3205SOL    HW221249   3.729   2.114   1.302  0.0329 -0.5200  0.4405
 3206SOL     OW21250   2.593   1.328   4.640  0.2362 -0.0207 -0.0205
 3206SOL    HW121251   2.555   1.411   4.610  0.2750 -0.4192 -1.1892
 3206SOL    HW221252   2.520   1.266   4.628  0.4675 -0.3214  0.1452
 3207SOL     OW21253   2.333   4.410   6.328 -0.7395 -0.0069  0.1625
 3207SOL    HW121254   2.241   4.382   6.330 -0.6176 -0.4647 -0.5152
 3207SOL    HW221255   2.381   4.329   6.346 -0.9261 -0.4786 -1.4398
 3208SOL     OW21256   2.108   3.799   7.115  0.3268 -0.0478 -0.1874
 3208SOL    HW121257   2.101   3.887   7.152  1.5778 -0.8307  1.9081
 3208SOL    HW221258   2.035   3.755   7.159 -0.2821  0.5699 -0.5974
 3209SOL     OW21259   0.269   1.547  15.209  0.0364 -0.1395 -0.4597
 3209SOL    HW121260   0.223   1.480  15.259 -0.3312  2.4852  2.7630
 3209SOL    HW221261   0.318   1.482  15.158 -0.6318 -0.4850 -0.6549
 3210SOL     OW21262   2.196   4.115   7.519 -0.3372 -0.0990  0.4374
 3210SOL    HW121263   2.239   4.108   7.604  0.7928  0.0160 -0.1253
 3210SOL    HW221264   2.115   4.161   7.543 -1.1480 -1.9200  1.2159
 3211SOL     OW21265   2.912   2.054  15.516  0.2346  0.2021  0.3959
 3211SOL    HW121266   2.923   2.026  15.425 -0.5006  0.7949  0.1244
 3211SOL    HW221267   2.987   2.006  15.551 -0.3646 -0.1636  1.1773
 3212SOL     OW21268   1.218   2.965   2.611 -0.1894 -0.2387  0.2014
 3212SOL    HW121269   1.232   2.981   2.705  0.1558  1.0574 -0.0722
 3212SOL    HW221270   1.175   2.881   2.602 -0.3169 -0.3364  1.6474
 3213SOL     OW21271   3.797   4.152  13.135  0.6277 -0.5548  0.6136
 3213SOL    HW121272   3.855   4.179  13.206 -1.2855  1.8016  1.2827
 3213SOL    HW221273   3.792   4.056  13.141  1.4174 -0.5769  0.8949
 3214SOL     OW21274   4.723   1.396   3.713  0.1895  0.2586  0.4581
 3214SOL    HW121275   0.052   1.465   3.697 -1.6725  1.8269 -0.2661
 3214SOL    HW221276   4.648   1.422   3.660 -0.4726 -1.9305  0.3036
 3215SOL     OW21277   2.660   2.292  11.902 -1.1131  0.5141  0.5234
 3215SOL    HW121278   2.726   2.307  11.834 -1.2194  0.4924  0.4147
 3215SOL    HW221279   2.634   2.380  11.929 -1.0992  1.1114 -1.4141
 3216SOL     OW21280   3.266   0.044   2.256  0.3684  0.0913  0.3115
 3216SOL    HW121281   3.268   0.088   2.341 -0.4832  1.7287 -0.5175
 3216SOL    HW221282   3.360   0.050   2.237  0.5019  0.8621  1.2101
 3217SOL     OW21283   0.374   0.228  10.172  0.0052  0.2101  0.4052
 3217SOL    HW121284   0.395   0.187  10.256  2.4214 -1.5084 -1.0271
 3217SOL    HW221285   0.300   0.276  10.210 -0.2312 -0.0755  0.3067
 3218SOL     OW21286   2.627   2.846   4.827  0.0268  0.2552  0.0171
 3218SOL    HW121287   2.638   2.861   4.921  3.4518 -4.2450  0.3149
 3218SOL    HW221288   2.668   2.922   4.785  1.3911  0.6095  1.9810
 3219SOL     OW21289   1.921   3.678   4.744 -0.0455  0.0327 -0.1044
 3219SOL    HW121290   1.836   3.648   4.777  0.3177  1.4751  2.1061
 3219SOL    HW221291   1.986   3.617   4.780 -0.7311 -0.2130  0.7177
 3220SOL     OW21292   0.275   4.678   1.472  0.7202 -0.3493  0.6280
 3220SOL    HW121293   0.256   0.029   1.506 -0.2297 -0.4948  0.4612
 3220SOL    HW221294   0.219   4.661   1.396  0.6593  0.6060  0.4696
 3221SOL     OW21295   2.007   1.774   0.152  0.5567  0.2134 -0.1187
 3221SOL    HW121296   1.994   1.835   0.079 -1.9535 -0.1139  0.0420
 3221SOL    HW221297   2.098   1.783   0.180 -0.0127 -1.1365  2.1345
 3222SOL     OW21298   0.675   3.704   1.269 -0.3654  0.6311 -0.3430
 3222SOL    HW121299   0.704   3.614   1.256  1.4552  1.1409  0.3127
 3222SOL    HW221300   0.759   3.745   1.288 -0.3400  0.2388  0.3904
 3223SOL     OW21301   0.512   1.409   1.828 -0.4353  0.4336  0.2631
 3223SOL    HW121302   0.423   1.419   1.860 -0.9147  0.3974 -1.0385
 3223SOL    HW221303   0.546   1.377   1.911  0.8452  0.9544 -0.0479
 3224SOL     OW21304   2.785   2.726   2.218 -0.0578  0.5825  0.2941
 3224SOL    HW121305   2.766   2.672   2.295  0.9875 -0.7104 -0.3661
 3224SOL    HW221306   2.875   2.701   2.197 -0.4017  1.9434 -2.7151
 3225SOL     OW21307   4.462   3.911   9.495 -0.3505 -0.0344  0.3490
 3225SOL    HW121308   4.490   3.832   9.542  1.6895  0.7656  0.4976
 3225SOL    HW221309   4.547   3.937   9.458 -0.0887  0.5432  1.3420
 3226SOL     OW21310   1.471   3.383  11.495  0.6215  0.1446  0.0347
 3226SOL    HW121311   1.450   3.428  11.413  0.8601  1.4691  0.6868
 3226SOL    HW221312   1.394   3.411  11.546 -2.0431 -1.5244 -3.1164
 3227SOL     OW21313   0.407   1.363   6.754 -0.3918  0.4706  1.3889
 3227SOL    HW121314   0.412   1.458   6.743  1.5825 -0.0531 -2.1580
 3227SOL    HW221315   0.315   1.349   6.731  0.6911 -1.5013 -1.8062
 3228SOL     OW21316   3.303   0.590   6.056  0.0412 -0.2448 -0.3586
 3228SOL    HW121317   3.293   0.606   5.962  1.1803  1.1387 -0.2529
 3228SOL    HW221318   3.385   0.542   6.047  0.2172 -0.1190  0.5747
 3229SOL     OW21319   2.575   4.271   8.200 -0.4941 -0.5084  0.1868
 3229SOL    HW121320   2.550   4.293   8.110  0.2037  1.8292  0.5688
 3229SOL    HW221321   2.511   4.320   8.253  0.9006  0.5733  0.8852
 3230SOL     OW21322   1.486   1.753   9.969  0.7974 -0.1504 -0.3028
 3230SOL    HW121323   1.518   1.842   9.952  0.1898 -0.7179 -4.4129
 3230SOL    HW221324   1.430   1.751   9.892  0.5670 -0.7877 -0.1202
 3231SOL     OW21325   4.039   2.366   8.638  0.1542 -0.2443 -0.0816
 3231SOL    HW121326   3.979   2.365   8.713 -1.5630  0.2526 -1.4449
 3231SOL    HW221327   3.969   2.350   8.574  0.3970  0.8157 -0.6054
 3232SOL     OW21328   2.428   4.147  16.849 -0.4494  0.8435 -0.1142
 3232SOL    HW121329   2.384   4.072  16.810  0.0555 -0.0247  0.9889
 3232SOL    HW221330   2.488   4.170  16.778 -0.3887 -2.8837 -1.2399
 3233SOL     OW21331   0.640   0.924   2.100  0.2885  0.8171 -0.3662
 3233SOL    HW121332   0.564   0.872   2.075  1.5296 -1.7526  1.2428
 3233SOL    HW221333   0.626   0.939   2.193  1.2533  1.2353 -0.2887
 3234SOL     OW21334   0.084   2.959   8.463 -0.8122 -0.0878  0.3705
 3234SOL    HW121335   0.149   2.890   8.453 -1.2358 -0.0943 -2.3348
 3234SOL    HW221336   0.031   2.927   8.536 -0.7381 -0.3652  0.3013
 3235SOL     OW21337   3.597   3.584   4.504 -0.3178 -0.1084  0.0571
 3235SOL    HW121338   3.519   3.628   4.469  1.0189  2.8649  0.7811
 3235SOL    HW221339   3.552   3.534   4.572  1.2443 -0.1616  1.0447
 3236SOL     OW21340   3.474   2.522   5.312 -0.2895  0.2573 -0.6979
 3236SOL    HW121341   3.391   2.566   5.328 -0.1338  0.1756  0.3468
 3236SOL    HW221342   3.471   2.486   5.401  2.4526 -2.2202 -1.6026
 3237SOL     OW21343   3.813   2.378   6.380  0.0256  0.3295  0.3325
 3237SOL    HW121344   3.770   2.452   6.337 -0.0131 -0.4023 -0.9069
 3237SOL    HW221345   3.761   2.371   6.460 -1.5414  4.0826 -0.3882
 3238SOL     OW21346   4.324   2.968   4.865 -0.0870 -0.1581  0.1971
 3238SOL    HW121347   4.351   3.041   4.920 -0.1340  0.4363 -0.5668
 3238SOL    HW221348   4.315   3.017   4.784 -0.3688 -0.3165  0.1301
 3239SOL     OW21349   2.333   0.769   5.085  0.1213 -0.8880  0.2106
 3239SOL    HW121350   2.390   0.694   5.101 -0.1940 -0.7372  1.9523
 3239SOL    HW221351   2.337   0.763   4.989 -0.1494  2.2925 -0.0219
 3240SOL     OW21352   2.623   3.363   3.587  0.0527  0.0826 -0.2243
 3240SOL    HW121353   2.629   3.314   3.506  2.4397 -0.5319  0.3313
 3240SOL    HW221354   2.704   3.344   3.634  0.3270 -1.1854 -1.2361
 3241SOL     OW21355   0.581   0.895  14.137  0.8831 -0.0535 -0.1843
 3241SOL    HW121356   0.523   0.822  14.115 -1.9380  1.7764  1.0577
 3241SOL    HW221357   0.634   0.849  14.202  1.0761  0.3521 -0.0549
 3242SOL     OW21358   2.256   2.721   2.363  0.1610 -0.5878  0.1296
 3242SOL    HW121359   2.316   2.681   2.300 -1.2764  0.1216 -1.6711
 3242SOL    HW221360   2.276   2.811   2.339 -3.5059  0.0779 -0.3684
 3243SOL     OW21361   3.154   4.322   4.011  0.1277 -0.1792  0.1882
 3243SOL    HW121362   3.105   4.319   4.093  0.1471 -0.4961  0.1895
 3243SOL    HW221363   3.130   4.239   3.969  1.9793  0.6982 -2.5862
 3244SOL     OW21364   4.434   2.457   2.265  0.3376 -0.3937  0.3150
 3244SOL    HW121365   4.516   2.505   2.256  0.2455 -0.1369  0.8635
 3244SOL    HW221366   4.385   2.537   2.283  0.4616 -0.2837  0.1631
 3245SOL     OW21367   2.225   0.589   9.494  0.1156 -0.2176  0.5080
 3245SOL    HW121368   2.181   0.673   9.481 -1.0672 -0.9740 -0.3434
 3245SOL    HW221369   2.318   0.612   9.488  1.0351 -3.5921  1.5201
 3246SOL     OW21370   3.100   3.151   9.037 -0.9490 -0.1799 -0.1130
 3246SOL    HW121371   3.139   3.068   9.009 -0.2838  0.1058 -0.0214
 3246SOL    HW221372   3.168   3.213   9.012 -2.0489  0.6360 -1.0641
 3247SOL     OW21373   0.087   4.719   0.044  0.4167  0.0119 -0.6166
 3247SOL    HW121374   0.063   0.020  17.700 -0.0503 -0.0454 -0.5100
 3247SOL    HW221375   0.140   0.056   0.078 -0.9302 -0.0288  1.4871
 3248SOL     OW21376   4.109   0.697   6.790 -0.0548 -0.2708  0.2490
 3248SOL    HW121377   4.040   0.758   6.764 -0.6884 -0.9555  0.3327
 3248SOL    HW221378   4.190   0.749   6.793  0.8003 -1.5829 -0.0883
 3249SOL     OW21379   4.364   3.678  12.886  0.3727 -0.0570 -0.0423
 3249SOL    HW121380   4.303   3.631  12.830  0.5636 -0.3634  0.0097
 3249SOL    HW221381   4.297   3.741  12.911  1.9307  1.6735 -0.1903
 3250SOL     OW21382   2.575   1.601   9.932  0.0939 -0.2025 -0.1052
 3250SOL    HW121383   2.549   1.589  10.024 -0.6506 -1.4917 -0.4834
 3250SOL    HW221384   2.586   1.510   9.905  1.1990 -0.2693  0.5641
 3251SOL     OW21385   1.311   2.860   6.559 -0.0469 -0.1376 -0.2391
 3251SOL    HW121386   1.234   2.917   6.557 -0.6508 -0.9693 -1.3104
 3251SOL    HW221387   1.287   2.801   6.630  1.7406  1.6191  1.8065
 3252SOL     OW21388   4.632   3.872   4.944 -0.9182  0.0504 -0.5498
 3252SOL    HW121389   4.717   3.905   4.973 -1.7550  0.6766  1.2257
 3252SOL    HW221390   4.590   3.957   4.935  0.3176  0.5280 -1.7695
 3253SOL     OW21391   4.405   1.456   9.268 -0.4865 -0.2472  0.7163
 3253SOL    HW121392   4.418   1.549   9.287 -2.5563  0.1188  0.3893
 3253SOL    HW221393   4.441   1.450   9.179 -2.6830  2.1626 -0.3347
 3254SOL     OW21394   2.084   2.326   7.387 -0.4610  0.0780 -0.2099
 3254SOL    HW121395   2.032   2.373   7.452 -0.2756  0.3523 -0.2602
 3254SOL    HW221396   2.126   2.401   7.345 -2.2001  1.2510  0.1160
 3255SOL     OW21397   2.234   1.645  16.007 -0.2532  0.0397  0.3383
 3255SOL    HW121398   2.152   1.645  15.957  0.4575  0.7131 -0.8313
 3255SOL    HW221399   2.297   1.644  15.935 -0.7522 -0.9156 -0.0870
 3256SOL     OW21400   3.756   2.239   8.993 -0.0910  0.0550  0.0052
 3256SOL    HW121401   3.676   2.198   9.027 -0.8943  1.0156 -0.7133
 3256SOL    HW221402   3.810   2.160   8.987  0.3792  0.5882 -2.6453
 3257SOL     OW21403   0.907   3.985   4.653  0.1868  0.6415  0.3181
 3257SOL    HW121404   0.946   4.018   4.572 -1.8913 -0.2588 -1.0586
 3257SOL    HW221405   0.826   3.940   4.628 -0.6764  1.4325  1.7181
 3258SOL     OW21406   3.977   0.607   3.208  0.3762 -0.1979 -0.4746
 3258SOL    HW121407   3.993   0.513   3.202  1.0146 -0.0587 -0.9630
 3258SOL    HW221408   4.039   0.636   3.141 -0.2965  1.6046 -0.3151
 3259SOL     OW21409   0.410   4.436   4.002  0.0091 -0.3570 -0.2493
 3259SOL    HW121410   0.385   4.396   4.086 -1.3258  0.8183 -0.0610
 3259SOL    HW221411   0.340   4.502   3.998 -0.5504 -0.8679  0.9606
 3260SOL     OW21412   1.475   1.726   4.840  0.3871  0.3207  0.5484
 3260SOL    HW121413   1.505   1.654   4.784  0.0925  0.0452  0.7440
 3260SOL    HW221414   1.383   1.701   4.835  0.6347 -0.1769 -1.9155
 3261SOL     OW21415   4.400   3.573  14.159  0.1839 -0.2044 -0.0613
 3261SOL    HW121416   4.480   3.547  14.114  0.5131 -0.9503  0.9802
 3261SOL    HW221417   4.412   3.536  14.246 -1.0585  1.6462  0.8996
 3262SOL     OW21418   4.433   3.604  12.231 -0.0119 -0.6263 -0.3807
 3262SOL    HW121419   4.414   3.667  12.300 -0.5755  0.3543 -1.4333
 3262SOL    HW221420   4.439   3.518  12.273 -0.2287 -0.4721 -0.0315
 3263SOL     OW21421   0.138   1.734   5.076 -0.4728  0.1027 -0.4392
 3263SOL    HW121422   0.187   1.689   5.007  1.1305  0.4677  0.4761
 3263SOL    HW221423   0.069   1.671   5.096 -0.8119  0.5453 -0.2099
 3264SOL     OW21424   3.408   4.067   6.932 -0.4373  0.3651 -1.0091
 3264SOL    HW121425   3.357   4.024   6.864 -2.0822  1.2140 -0.3037
 3264SOL    HW221426   3.487   4.067   6.878  0.8419 -0.7326  0.8491
 3265SOL     OW21427   1.198   3.311   6.946 -0.3056 -0.9453  0.4423
 3265SOL    HW121428   1.191   3.401   6.978 -0.0439 -0.3278 -1.2340
 3265SOL    HW221429   1.193   3.264   7.030 -1.0854  0.5490  1.2436
 3266SOL     OW21430   0.010   2.834   7.961 -0.2447 -0.2577 -0.4699
 3266SOL    HW121431   0.008   2.762   8.025  0.2495  1.0010  0.9605
 3266SOL    HW221432   0.053   2.795   7.885  3.7952  2.5905  0.3632
 3267SOL     OW21433   3.449   0.817   1.966  0.6620 -0.3329  0.2408
 3267SOL    HW121434   3.438   0.773   2.050  0.1554 -0.6391  0.0153
 3267SOL    HW221435   3.379   0.787   1.907  1.1703  0.1400 -0.6026
 3268SOL     OW21436   4.184   2.260   4.631 -0.2002 -0.1321 -0.4907
 3268SOL    HW121437   4.109   2.317   4.614  2.0855  2.6782 -1.2330
 3268SOL    HW221438   4.255   2.321   4.614  0.7544 -1.0362  0.2736
 3269SOL     OW21439   0.915   0.417   3.616  0.1965 -0.7884  0.4632
 3269SOL    HW121440   0.910   0.512   3.602  1.6966 -0.7164  0.4568
 3269SOL    HW221441   1.008   0.396   3.621  0.7953  1.8708  0.3108
 3270SOL     OW21442   2.654   0.747   2.008 -0.9034 -0.0924  0.2251
 3270SOL    HW121443   2.654   0.668   2.061  2.9357  0.9324  1.7223
 3270SOL    HW221444   2.596   0.803   2.059 -2.6856 -0.4390 -1.4213
 3271SOL     OW21445   1.771   4.525  10.647 -0.1992  0.1643 -0.0455
 3271SOL    HW121446   1.786   4.620  10.652  2.8744 -0.3110 -0.2630
 3271SOL    HW221447   1.797   4.498  10.559 -3.2724 -0.8799 -0.6397
 3272SOL     OW21448   4.551   1.502  16.516 -0.1847  0.2878  0.4893
 3272SOL    HW121449   4.555   1.409  16.540 -0.7775  0.5448  1.5770
 3272SOL    HW221450   4.467   1.530  16.552 -0.4381 -0.6906  0.6692
 3273SOL     OW21451   3.268   3.358   6.502 -0.7347 -0.1743  0.2659
 3273SOL    HW121452   3.232   3.346   6.590 -1.4177  0.2683  0.0495
 3273SOL    HW221453   3.251   3.270   6.470  3.1158 -1.3790  1.5600
 3274SOL     OW21454   3.653   0.539  16.586  0.4443  0.3463 -0.5395
 3274SOL    HW121455   3.563   0.515  16.610  0.6970  1.4529  1.5477
 3274SOL    HW221456   3.689   0.451  16.575  0.7627  0.4803 -0.5518
 3275SOL     OW21457   2.939   2.553   1.985 -0.0085  0.1532 -0.2665
 3275SOL    HW121458   3.005   2.621   1.998  0.5163 -0.4642  0.3228
 3275SOL    HW221459   2.922   2.570   1.893 -1.5840 -0.8804 -0.1511
 3276SOL     OW21460   2.466   3.746   5.927  0.5884  0.1281 -0.0706
 3276SOL    HW121461   2.460   3.842   5.927  1.4088  0.1778 -0.4093
 3276SOL    HW221462   2.397   3.723   5.864 -2.1161  0.2264  2.8483
 3277SOL     OW21463   4.731   1.599   4.802 -0.8424  0.2239 -0.0560
 3277SOL    HW121464   4.658   1.623   4.860 -0.0467  0.8318  0.6915
 3277SOL    HW221465   0.029   1.688   4.792  1.7744 -0.7167  0.4951
 3278SOL     OW21466   4.316   2.161   2.833  0.1163 -0.0008 -0.2407
 3278SOL    HW121467   4.228   2.197   2.828 -0.1386 -0.3193  2.0192
 3278SOL    HW221468   4.362   2.243   2.848  1.4399 -0.8419  0.3435
 3279SOL     OW21469   1.591   0.452  15.891 -0.0633  0.2242 -0.1352
 3279SOL    HW121470   1.618   0.368  15.855  0.3894  0.3029  0.0115
 3279SOL    HW221471   1.670   0.507  15.893  0.4746 -0.5089 -1.7793
 3280SOL     OW21472   0.347   3.234   8.734 -0.4515  0.2403 -0.4143
 3280SOL    HW121473   0.429   3.282   8.746 -0.6722 -0.2652  3.0249
 3280SOL    HW221474   0.322   3.227   8.826 -1.4349  0.4422 -0.6677
 3281SOL     OW21475   2.240   1.834   4.193  0.2044 -0.2312 -0.8203
 3281SOL    HW121476   2.148   1.858   4.193  0.4678  0.7776 -1.3661
 3281SOL    HW221477   2.263   1.892   4.266  2.7822 -0.8406 -1.1481
 3282SOL     OW21478   2.873   1.080   5.714 -0.0892  0.0738 -0.4751
 3282SOL    HW121479   2.846   1.064   5.624 -1.1372  2.1316 -0.5016
 3282SOL    HW221480   2.785   1.062   5.747  0.2352  0.0113  0.3761
 3283SOL     OW21481   1.392   0.319   9.131 -0.1243 -0.2989 -0.0209
 3283SOL    HW121482   1.450   0.246   9.150  2.6540  1.6018 -1.2355
 3283SOL    HW221483   1.347   0.282   9.055 -0.2343 -1.6476  0.7042
 3284SOL     OW21484   3.853   3.305   8.369 -0.2189 -0.3208 -0.4649
 3284SOL    HW121485   3.902   3.366   8.315 -0.0115 -0.1790 -0.1168
 3284SOL    HW221486   3.921   3.258   8.418 -0.6492  0.6021  1.0335
 3285SOL     OW21487   3.058   2.194   3.487  0.4680 -0.0867 -0.4875
 3285SOL    HW121488   3.102   2.277   3.471 -2.8073  1.6733 -0.2585
 3285SOL    HW221489   3.104   2.136   3.427  2.5240 -0.8998  1.8621
 3286SOL     OW21490   1.248   3.349   7.726  0.0031  0.1057 -0.0517
 3286SOL    HW121491   1.312   3.419   7.712  1.4630 -1.2308 -0.0549
 3286SOL    HW221492   1.196   3.395   7.792 -0.7757 -0.2932 -0.4002
 3287SOL     OW21493   2.606   3.232   4.216 -0.0979  0.2538  0.4385
 3287SOL    HW121494   2.671   3.189   4.160  1.6243 -0.5346  3.0399
 3287SOL    HW221495   2.636   3.323   4.213  0.0120  0.2200  0.5200
 3288SOL     OW21496   4.073   3.193   8.530 -0.7389 -0.3022 -0.4289
 3288SOL    HW121497   4.117   3.110   8.548  0.1904 -0.0915 -1.7459
 3288SOL    HW221498   4.148   3.244   8.499 -1.0977 -0.3736 -1.4125
 3289SOL     OW21499   1.818   0.382   4.042 -0.2973 -0.2750 -0.4942
 3289SOL    HW121500   1.782   0.424   4.120 -0.2103 -0.5950 -0.2806
 3289SOL    HW221501   1.789   0.293   4.061  1.4556 -1.3865 -3.0127
 3290SOL     OW21502   2.314   2.861   3.637 -0.1994  0.2870 -0.5203
 3290SOL    HW121503   2.242   2.812   3.597 -1.6209  1.9191  0.0041
 3290SOL    HW221504   2.380   2.863   3.568 -0.2251  0.0212 -0.5525
 3291SOL     OW21505   2.824   2.729   4.639 -0.8888 -0.3668 -1.0075
 3291SOL    HW121506   2.769   2.749   4.715 -1.2236  3.2243 -2.1774
 3291SOL    HW221507   2.764   2.749   4.567 -2.3079  0.0909  0.2793
 3292SOL     OW21508   0.378   1.642   2.530  0.1888  0.3624  0.3875
 3292SOL    HW121509   0.303   1.645   2.591 -0.5638 -1.5485 -0.4227
 3292SOL    HW221510   0.456   1.669   2.578  0.2530  2.8283 -1.1395
 3293SOL     OW21511   3.017   2.136  15.031 -0.4873  0.1993 -0.0756
 3293SOL    HW121512   3.098   2.154  14.984 -1.4996  1.3245 -1.3955
 3293SOL    HW221513   2.973   2.088  14.960 -0.1141  0.9238 -0.7968
 3294SOL     OW21514   0.908   1.175   2.890 -0.1842  0.4596  0.8742
 3294SOL    HW121515   0.840   1.108   2.897 -2.3231  2.5765  0.4901
 3294SOL    HW221516   0.987   1.125   2.911  0.0966  0.5587  0.0614
 3295SOL     OW21517   0.562   4.255   2.891 -0.3689 -0.4110 -0.4566
 3295SOL    HW121518   0.629   4.308   2.848 -0.5939 -0.2485 -0.6066
 3295SOL    HW221519   0.610   4.173   2.903  0.6747  0.3353  0.5185
 3296SOL     OW21520   0.042   1.457   8.207  0.6357  0.3126  0.4173
 3296SOL    HW121521   0.068   1.365   8.203  0.0320  0.0717  2.0726
 3296SOL    HW221522   4.684   1.472   8.209  0.2842 -1.9045  0.2927
 3297SOL     OW21523   1.472   2.123   6.533 -0.0885 -0.1177 -1.0078
 3297SOL    HW121524   1.404   2.117   6.601 -0.1929  1.3272 -0.9911
 3297SOL    HW221525   1.442   2.194   6.476  2.3697  0.4169 -1.6080
 3298SOL     OW21526   2.968   1.353   8.910  0.0780  0.2216  0.0148
 3298SOL    HW121527   3.054   1.336   8.871  0.7098  0.2521  1.3886
 3298SOL    HW221528   2.908   1.373   8.838 -0.4970  0.4114  0.5424
 3299SOL     OW21529   4.144   2.820   6.648 -0.5222  0.2789 -1.0310
 3299SOL    HW121530   4.219   2.872   6.676 -0.6886 -0.1467  0.2202
 3299SOL    HW221531   4.123   2.871   6.570  0.4558  3.4948  0.8266
 3300SOL     OW21532   2.411   4.510  13.861 -0.0437 -0.2164  0.0725
 3300SOL    HW121533   2.340   4.527  13.922  1.2416  1.2654  1.1546
 3300SOL    HW221534   2.471   4.580  13.886 -0.6683  0.3885 -0.1184
 3301SOL     OW21535   3.323   2.573  10.453 -0.1800  0.1382 -0.6382
 3301SOL    HW121536   3.269   2.575  10.374 -1.1933  0.8308  0.0809
 3301SOL    HW221537   3.352   2.482  10.461  0.4029  0.2189 -1.8361
 3302SOL     OW21538   1.110   4.337   0.436  0.5240 -0.1770 -0.3541
 3302SOL    HW121539   1.064   4.254   0.428 -1.3528  0.7029  1.2394
 3302SOL    HW221540   1.098   4.376   0.349 -2.8242 -1.5937 -0.5119
 3303SOL     OW21541   4.705   1.663  12.093 -0.1607  0.3457 -0.2806
 3303SOL    HW121542   4.639   1.721  12.055 -1.0737 -0.3347  0.2665
 3303SOL    HW221543   0.044   1.722  12.103  1.8700 -2.4756  1.1639
 3304SOL     OW21544   1.272   2.221  10.509 -0.2545 -0.2839 -0.3986
 3304SOL    HW121545   1.205   2.286  10.529  0.7632 -0.2371  2.8445
 3304SOL    HW221546   1.253   2.155  10.576 -1.7480 -0.6557 -1.1951
 3305SOL     OW21547   4.272   1.309   6.790 -0.5280  0.6752  0.1292
 3305SOL    HW121548   4.332   1.363   6.738 -1.4840 -0.5099 -2.1963
 3305SOL    HW221549   4.196   1.337   6.738 -1.0460 -1.1013 -0.0506
 3306SOL     OW21550   2.642   2.192  12.485  0.8370 -0.3106  0.5972
 3306SOL    HW121551   2.554   2.154  12.484  0.3991  0.7613 -1.0549
 3306SOL    HW221552   2.662   2.206  12.392  1.9085  0.3115  0.9210
 3307SOL     OW21553   3.706   4.663   6.267 -0.8433 -0.0051  1.0766
 3307SOL    HW121554   3.677   4.684   6.356  0.4599  0.9282  1.2892
 3307SOL    HW221555   3.704   4.568   6.272  1.4059 -0.2263 -1.7679
 3308SOL     OW21556   3.858   1.863   5.831  0.0571 -0.0709 -0.3255
 3308SOL    HW121557   3.796   1.920   5.876  0.6552  1.2443 -1.1730
 3308SOL    HW221558   3.927   1.853   5.897  0.7009 -0.3801 -1.0496
 3309SOL     OW21559   4.616   3.807  10.450  0.3578 -0.0102  0.1602
 3309SOL    HW121560   4.563   3.733  10.478 -0.5828  0.7863  0.4628
 3309SOL    HW221561   4.707   3.776  10.454  0.0500 -1.0659 -1.1879
 3310SOL     OW21562   0.689   1.798   9.001  0.0431 -0.0596 -0.0336
 3310SOL    HW121563   0.666   1.713   8.962  1.4994  0.5427 -2.2015
 3310SOL    HW221564   0.669   1.788   9.094 -0.4814  0.4333 -0.0893
 3311SOL     OW21565   1.374   3.056  11.523 -0.1372 -0.1150  0.2079
 3311SOL    HW121566   1.355   3.066  11.617 -2.2310  1.7113 -0.4164
 3311SOL    HW221567   1.321   3.128  11.492  1.9215  0.8144 -1.1541
 3312SOL     OW21568   1.525   2.809  11.521  0.0759  0.0715  0.0129
 3312SOL    HW121569   1.549   2.769  11.437 -0.5715  1.7050 -0.9624
 3312SOL    HW221570   1.485   2.893  11.498  0.6726  0.5424  0.7086
 3313SOL     OW21571   0.261   4.356   8.027 -0.2474  0.5078 -0.0636
 3313SOL    HW121572   0.318   4.389   8.096 -2.1856  2.8700  0.4022
 3313SOL    HW221573   0.177   4.335   8.067 -0.5863 -1.2143 -1.6507
 3314SOL     OW21574   0.885   3.470  15.275  0.0145  0.2381 -0.0937
 3314SOL    HW121575   0.915   3.560  15.286  0.7660 -0.2499  1.6903
 3314SOL    HW221576   0.872   3.455  15.368  2.3388  1.0579  0.3635
 3315SOL     OW21577   3.458   1.326  13.411 -0.8538  0.1441 -0.0978
 3315SOL    HW121578   3.427   1.380  13.338 -0.3424  0.9529  0.2894
 3315SOL    HW221579   3.390   1.259  13.405 -2.5031  1.7188  1.0578
 3316SOL     OW21580   1.324   3.294   4.515  0.7092  0.2781  0.0864
 3316SOL    HW121581   1.331   3.214   4.566 -0.2493 -0.5956 -1.1420
 3316SOL    HW221582   1.240   3.285   4.469 -0.2681  0.6421  1.7924
 3317SOL     OW21583   0.111   0.573  13.528  0.6085  0.6226  0.0692
 3317SOL    HW121584   0.138   0.566  13.436 -2.5233 -1.3827 -0.7025
 3317SOL    HW221585   0.185   0.526  13.566 -0.3906 -0.4695  0.6682
 3318SOL     OW21586   3.683   1.203  13.530 -0.0563 -0.0405  0.3667
 3318SOL    HW121587   3.766   1.183  13.485  0.0330  0.2691  0.3886
 3318SOL    HW221588   3.633   1.255  13.466  0.6609 -0.3224 -0.4336
 3319SOL     OW21589   0.610   2.615   8.035 -0.6847 -0.1783  0.0623
 3319SOL    HW121590   0.639   2.645   8.121 -0.6459 -0.3961  0.1260
 3319SOL    HW221591   0.690   2.617   7.982 -0.7048  2.7721  0.1608
 3320SOL     OW21592   2.396   0.739   6.760 -0.3469  0.2201  0.1887
 3320SOL    HW121593   2.364   0.724   6.671 -2.0427 -0.1371  0.8690
 3320SOL    HW221594   2.319   0.735   6.817 -0.1513 -4.0371  0.1656
 3321SOL     OW21595   4.038   2.484  14.745  0.0561 -0.4328 -0.2616
 3321SOL    HW121596   3.952   2.487  14.786 -0.8165 -0.0036 -2.1020
 3321SOL    HW221597   4.054   2.392  14.723  2.6116  0.0566 -0.4934
 3322SOL     OW21598   2.387   0.317   6.733  0.2047 -0.7099 -0.4517
 3322SOL    HW121599   2.469   0.306   6.685  0.2989 -0.0230 -0.4507
 3322SOL    HW221600   2.338   0.359   6.662  0.4353 -0.0224 -0.1988
 3323SOL     OW21601   2.189   2.893   4.359 -0.4460 -0.4545  0.1692
 3323SOL    HW121602   2.160   2.895   4.268 -1.1736 -0.9478  0.3920
 3323SOL    HW221603   2.260   2.958   4.364  0.2543 -1.3448  1.8583
 3324SOL     OW21604   0.103   1.438   1.652  0.0223 -0.1440 -0.8989
 3324SOL    HW121605   0.164   1.412   1.583  4.2815  0.6756  2.5546
 3324SOL    HW221606   0.053   1.502   1.602  2.5559  0.9675 -2.0313
 3325SOL     OW21607   2.680   3.693   3.284  0.1461 -0.2437 -0.2137
 3325SOL    HW121608   2.771   3.702   3.312  0.1090 -1.7034  0.3248
 3325SOL    HW221609   2.660   3.600   3.276 -1.4345 -0.0232  1.2089
 3326SOL     OW21610   2.803   2.025   5.755  0.0022  0.0079 -0.8658
 3326SOL    HW121611   2.836   2.043   5.667  0.6360 -0.6367 -0.7598
 3326SOL    HW221612   2.741   2.090   5.788  0.9356  0.7625 -0.6117
 3327SOL     OW21613   2.254   4.661   6.975 -0.3607 -0.3951 -0.1325
 3327SOL    HW121614   2.309   4.729   7.013  1.1693 -3.7052  3.5509
 3327SOL    HW221615   2.202   4.648   7.054  1.8015  0.3738  1.4110
 3328SOL     OW21616   0.207   2.425   8.301 -0.1844  0.5687  0.4713
 3328SOL    HW121617   0.277   2.478   8.262 -0.6758  0.1409 -0.9949
 3328SOL    HW221618   0.234   2.334   8.289 -2.2279 -0.0132  0.4095
 3329SOL     OW21619   1.300   3.225   0.761  0.3228  0.3846 -0.3999
 3329SOL    HW121620   1.310   3.194   0.671 -0.2191 -0.5827 -0.1280
 3329SOL    HW221621   1.249   3.159   0.809  1.1221 -0.8701 -1.2776
 3330SOL     OW21622   1.208   4.031  11.052 -0.1481 -0.0087  0.4880
 3330SOL    HW121623   1.260   3.955  11.026 -0.7661 -0.9871  2.0892
 3330SOL    HW221624   1.122   4.009  11.015  0.6891 -1.1158 -0.7980
 3331SOL     OW21625   2.806   2.074   9.154  0.5332 -0.1177  0.1877
 3331SOL    HW121626   2.798   2.068   9.249 -3.3963 -1.6766 -0.2199
 3331SOL    HW221627   2.722   2.028   9.143  0.0683  0.1728  2.4818
 3332SOL     OW21628   0.163   3.603   7.870 -0.6762 -0.5102  0.2561
 3332SOL    HW121629   0.144   3.563   7.955 -0.8905  1.6767  1.2377
 3332SOL    HW221630   0.150   3.526   7.814  2.1023 -3.0084  3.0348
 3333SOL     OW21631   4.345   2.267   9.400 -0.0806  0.2916 -0.2899
 3333SOL    HW121632   4.439   2.286   9.398  0.9077 -3.9431  5.3093
 3333SOL    HW221633   4.304   2.352   9.413  0.2933  0.7651 -2.2644
 3334SOL     OW21634   2.794   4.582   4.414  0.3929 -0.2913 -0.0224
 3334SOL    HW121635   2.719   4.544   4.368  2.2322 -3.1737 -0.6927
 3334SOL    HW221636   2.752   4.629   4.486  1.7995  0.5709  0.2244
 3335SOL     OW21637   4.531   4.513   5.662 -0.3385 -0.5586  0.5027
 3335SOL    HW121638   4.599   4.580   5.674  0.1955 -1.3321  1.8815
 3335SOL    HW221639   4.456   4.569   5.681  1.9212  3.8421 -3.6890
 3336SOL     OW21640   1.405   3.208   7.959  0.3801 -0.4304  0.1097
 3336SOL    HW121641   1.349   3.151   7.906  2.0111 -1.2756 -0.6879
 3336SOL    HW221642   1.477   3.215   7.897  1.1634  1.3658  1.2363
 3337SOL     OW21643   1.105   0.510  17.203 -0.3041  0.0024 -0.0925
 3337SOL    HW121644   1.147   0.435  17.246  1.9912  0.9867 -0.6148
 3337SOL    HW221645   1.146   0.580  17.253  0.2310  1.3746 -2.4603
 3338SOL     OW21646   3.038   1.391  14.057 -0.1145 -0.3042  0.0663
 3338SOL    HW121647   3.090   1.463  14.021  0.0368 -0.2603  0.3666
 3338SOL    HW221648   2.947   1.409  14.033  0.5679  1.5279 -1.1765
 3339SOL     OW21649   2.898   3.098   2.748  0.0363  0.1604 -0.2017
 3339SOL    HW121650   2.860   3.163   2.808  1.0477  0.4012  0.1846
 3339SOL    HW221651   2.821   3.047   2.724  0.1281 -1.5642  3.2199
 3340SOL     OW21652   3.495   3.236  13.977  0.1878  0.1396 -0.3853
 3340SOL    HW121653   3.405   3.233  14.009  0.0749  1.8901 -0.5626
 3340SOL    HW221654   3.540   3.224  14.061 -0.5276  0.9418  0.1053
 3341SOL     OW21655   2.568   4.640   8.283  0.6832 -0.3369 -0.7572
 3341SOL    HW121656   2.513   4.697   8.337  0.0488 -1.0043 -0.6973
 3341SOL    HW221657   2.500   4.586   8.240  0.1261 -0.3946  0.2010
 3342SOL     OW21658   3.067   3.986   0.121 -0.2437 -0.4209 -0.1465
 3342SOL    HW121659   3.111   3.948   0.197  1.2892  0.2163 -0.7256
 3342SOL    HW221660   2.998   3.919   0.118 -2.4845  1.8984 -0.4110
 3343SOL     OW21661   4.718   0.582  11.459 -0.0775  0.6002  0.6637
 3343SOL    HW121662   4.675   0.629  11.388 -0.0070 -0.1254  0.1401
 3343SOL    HW221663   4.665   0.619  11.530 -0.4941  2.2558 -0.5125
 3344SOL     OW21664   2.793   0.601   3.520  0.4281 -0.5498 -0.1015
 3344SOL    HW121665   2.833   0.560   3.443  1.8710  0.0673  0.3135
 3344SOL    HW221666   2.810   0.694   3.503 -3.3210 -0.3221 -2.5120
 3345SOL     OW21667   2.868   4.589   5.448 -0.3570  0.1424 -0.1311
 3345SOL    HW121668   2.875   4.653   5.519 -0.1072 -0.3007  0.2433
 3345SOL    HW221669   2.784   4.613   5.410  0.8471  0.3427 -2.6299
 3346SOL     OW21670   1.196   1.809   4.330 -0.1826 -0.4784 -0.4556
 3346SOL    HW121671   1.239   1.724   4.322  1.6520  0.5341 -1.2156
 3346SOL    HW221672   1.236   1.847   4.409  0.1769 -1.4874 -0.1442
 3347SOL     OW21673   0.753   0.519   8.723 -0.0829 -0.9031  0.0538
 3347SOL    HW121674   0.832   0.534   8.776  1.0505  2.7434 -2.6131
 3347SOL    HW221675   0.687   0.494   8.788  0.2084  0.0856  0.7359
 3348SOL     OW21676   2.238   2.318  10.311  0.0432  0.6366  0.0847
 3348SOL    HW121677   2.194   2.371  10.246  2.4998  1.9366 -0.4978
 3348SOL    HW221678   2.169   2.261  10.347  0.5431 -0.9996 -1.5591
 3349SOL     OW21679   0.078   0.385  14.846  0.0294 -0.4610  0.4325
 3349SOL    HW121680   0.171   0.402  14.861  0.0569 -0.4729  0.2732
 3349SOL    HW221681   0.046   0.395  14.936  0.1838  4.9400 -0.1080
 3350SOL     OW21682   0.478   3.792   9.679 -0.4957  0.0734  0.3105
 3350SOL    HW121683   0.455   3.704   9.648  2.3028 -0.1591 -1.1104
 3350SOL    HW221684   0.516   3.776   9.765  2.5293  1.7304 -0.7542
 3351SOL     OW21685   2.242   3.282  16.448  0.0915  0.1962 -0.0938
 3351SOL    HW121686   2.212   3.369  16.423 -2.3960 -0.9098 -0.8999
 3351SOL    HW221687   2.172   3.255  16.507 -1.1285  3.5673 -0.0110
 3352SOL     OW21688   2.978   4.216   8.986  0.4326  0.5058 -0.7664
 3352SOL    HW121689   2.943   4.151   9.047  0.3183  0.0898 -1.2652
 3352SOL    HW221690   2.902   4.272   8.972  1.1820  0.9438 -3.0251
 3353SOL     OW21691   3.196   0.187   3.807  0.1861  0.4706  0.8272
 3353SOL    HW121692   3.183   0.113   3.867 -0.5029 -1.8179 -2.1733
 3353SOL    HW221693   3.244   0.140   3.740  2.0450  0.8322  1.9164
 3354SOL     OW21694   3.086   4.290  13.273 -0.0890 -0.4562 -0.2904
 3354SOL    HW121695   3.081   4.278  13.367 -0.9115 -1.6231 -0.4941
 3354SOL    HW221696   3.180   4.305  13.263  0.2348 -2.3911 -0.1080
 3355SOL     OW21697   2.378   0.776  13.910 -0.5244 -0.2747 -0.2894
 3355SOL    HW121698   2.407   0.710  13.972  1.6966 -0.2205 -1.2782
 3355SOL    HW221699   2.383   0.731  13.825 -0.5703 -0.0500 -0.4132
 3356SOL     OW21700   3.771   2.299   1.749  0.4537 -0.7267 -0.5008
 3356SOL    HW121701   3.771   2.352   1.829  1.1157  1.0745 -1.7050
 3356SOL    HW221702   3.862   2.306   1.721 -0.0446  0.4157 -1.7990
 3357SOL     OW21703   1.520   3.442   3.617  0.4630  0.3920  0.1204
 3357SOL    HW121704   1.451   3.402   3.565 -0.8055  0.6108  1.6605
 3357SOL    HW221705   1.581   3.370   3.634 -1.6784 -0.5693  3.6927
 3358SOL     OW21706   1.141   1.188   0.532  0.0486  0.0081 -0.2677
 3358SOL    HW121707   1.226   1.231   0.525  0.7417 -1.4887 -1.0772
 3358SOL    HW221708   1.138   1.144   0.447  1.9584 -2.0265  0.7269
 3359SOL     OW21709   0.006   4.319   7.629 -0.2548 -0.2698 -0.2430
 3359SOL    HW121710   4.695   4.251   7.580 -0.7698 -1.1963  1.5061
 3359SOL    HW221711   4.701   4.314   7.716 -0.6302 -0.0752 -0.4103
 3360SOL     OW21712   0.217   2.733   3.226  0.1105  0.6208 -0.4078
 3360SOL    HW121713   0.143   2.703   3.173  1.8057 -1.5808 -1.5573
 3360SOL    HW221714   0.172   2.768   3.303  0.7272 -0.9458  0.6631
 3361SOL     OW21715   4.169   0.128   4.279 -0.2807  0.0794  0.0140
 3361SOL    HW121716   4.154   0.147   4.186 -0.7468 -1.7837 -0.2847
 3361SOL    HW221717   4.195   0.215   4.311 -1.6939  0.2913  0.6030
 3362SOL     OW21718   3.593   1.828  12.124 -0.2662  0.0796  0.0169
 3362SOL    HW121719   3.623   1.854  12.211  0.2974  0.8189 -0.3936
 3362SOL    HW221720   3.590   1.734  12.143 -1.8967  0.1184 -0.0105
 3363SOL     OW21721   2.431   4.449   5.231  0.1465  0.6270  0.1609
 3363SOL    HW121722   2.364   4.494   5.283 -3.2871 -2.1573 -1.8412
 3363SOL    HW221723   2.476   4.518   5.183  0.3865  0.0084 -0.5142
 3364SOL     OW21724   0.531   1.279   1.595  0.2587  0.8018  0.3906
 3364SOL    HW121725   0.540   1.328   1.677  1.6584  0.3250  0.5096
 3364SOL    HW221726   0.478   1.334   1.537  1.1479  0.0473 -1.1330
 3365SOL     OW21727   2.584   3.615  15.578  0.3152  0.2008  0.2326
 3365SOL    HW121728   2.507   3.592  15.525 -1.8466  0.7750  3.1366
 3365SOL    HW221729   2.646   3.558  15.531 -0.1149  0.0955 -0.2145
 3366SOL     OW21730   3.361   0.570  13.366 -0.0294  0.2514 -0.3104
 3366SOL    HW121731   3.381   0.648  13.417 -1.4076 -0.0679  0.7249
 3366SOL    HW221732   3.274   0.552  13.403 -0.4614 -0.1849 -1.5194
 3367SOL     OW21733   0.824   0.406   4.658  0.2975 -0.3984 -0.7189
 3367SOL    HW121734   0.813   0.395   4.753  3.0715 -0.1073 -0.3635
 3367SOL    HW221735   0.910   0.448   4.661  1.3657 -2.6767  0.7355
 3368SOL     OW21736   3.715   1.969   4.910 -0.0522 -0.6428 -0.2908
 3368SOL    HW121737   3.651   1.926   4.968  1.6319 -3.3371 -0.3970
 3368SOL    HW221738   3.747   2.038   4.968  1.1817 -0.3369 -1.3467
 3369SOL     OW21739   2.835   2.393   8.843  0.1597 -0.1849 -0.1483
 3369SOL    HW121740   2.887   2.339   8.784  2.0194 -0.4619  1.7480
 3369SOL    HW221741   2.868   2.477   8.812 -2.7012  0.4154 -1.4940
 3370SOL     OW21742   0.172   3.652   3.616  0.8497 -0.1909  0.0582
 3370SOL    HW121743   0.234   3.694   3.677  2.0758 -1.7910 -0.0972
 3370SOL    HW221744   0.241   3.593   3.585  1.0040  0.1038 -0.1595
 3371SOL     OW21745   1.419   0.331  14.432 -0.1023 -0.2837 -0.3225
 3371SOL    HW121746   1.458   0.359  14.515  1.6792 -0.1510 -1.2035
 3371SOL    HW221747   1.392   0.411  14.388  0.9455  0.4740  0.4232
 3372SOL     OW21748   1.030   3.727   8.198 -0.3372 -0.2888  0.8546
 3372SOL    HW121749   1.020   3.771   8.113 -3.4834 -0.8161  0.9747
 3372SOL    HW221750   1.110   3.767   8.231 -0.7057  1.7657 -0.7169
 3373SOL     OW21751   1.773   1.666   0.222 -0.3297 -0.5277 -0.2317
 3373SOL    HW121752   1.749   1.652   0.131 -1.5188 -0.8764  0.1450
 3373SOL    HW221753   1.860   1.705   0.211 -0.3479 -0.4942 -0.2543
 3374SOL     OW21754   2.616   0.718  17.014 -0.0448 -1.0004 -0.3151
 3374SOL    HW121755   2.667   0.770  17.077  0.4443  0.4987 -1.9536
 3374SOL    HW221756   2.638   0.766  16.934 -2.0575 -0.8694 -0.7912
 3375SOL     OW21757   0.081   1.325   4.863 -0.1504 -0.0195 -0.3068
 3375SOL    HW121758   0.011   1.310   4.926  0.3318 -0.7735  0.0532
 3375SOL    HW221759   0.063   1.419   4.858  1.1006  0.1661 -1.2517
 3376SOL     OW21760   1.948   1.889   4.175  0.0998  0.0568  0.0654
 3376SOL    HW121761   1.907   1.848   4.251  0.9833 -1.2483 -0.1620
 3376SOL    HW221762   1.882   1.958   4.166  1.8938  1.8884  1.1092
 3377SOL     OW21763   4.007   3.458   4.261 -0.3097  0.4716  0.7622
 3377SOL    HW121764   4.031   3.549   4.245 -0.2520  0.1677 -0.8892
 3377SOL    HW221765   3.959   3.477   4.341 -0.7036  0.5284  0.5113
 3378SOL     OW21766   3.796   3.138   3.052 -0.3992 -0.1292 -0.1913
 3378SOL    HW121767   3.707   3.155   3.083  0.2095 -1.8846  2.5082
 3378SOL    HW221768   3.827   3.229   3.047 -0.6239 -0.1381 -1.7654
 3379SOL     OW21769   4.432   2.066   7.606  0.1825  0.7334 -0.1190
 3379SOL    HW121770   4.366   2.070   7.676  2.0193  0.0695  1.6418
 3379SOL    HW221771   4.394   2.118   7.535  1.6880 -1.5303 -2.5832
 3380SOL     OW21772   4.145   3.330   5.488 -0.2059  0.1889  0.1757
 3380SOL    HW121773   4.221   3.382   5.514 -0.8779  1.3726 -0.2402
 3380SOL    HW221774   4.111   3.381   5.415 -0.4753  0.9109  0.8020
 3381SOL     OW21775   1.244   3.551   6.190 -0.1522 -0.0631 -0.4986
 3381SOL    HW121776   1.259   3.566   6.097  1.9232  2.2820  0.2234
 3381SOL    HW221777   1.182   3.620   6.215  0.9133  0.4307  0.7876
 3382SOL     OW21778   0.651   2.101   4.460 -0.4740 -0.6817 -0.5092
 3382SOL    HW121779   0.707   2.159   4.409 -1.9218 -0.8081 -2.2585
 3382SOL    HW221780   0.611   2.157   4.527 -1.8796  1.2346 -2.9570
 3383SOL     OW21781   3.394   2.148   5.909  0.2917  0.9381 -0.1209
 3383SOL    HW121782   3.306   2.141   5.871  0.4264  1.3440 -0.5168
 3383SOL    HW221783   3.387   2.086   5.982 -1.2337  2.1053  0.7421
 3384SOL     OW21784   2.913   3.239  10.572  0.0039  0.5811 -0.5377
 3384SOL    HW121785   2.863   3.253  10.652  0.8901 -1.6016  0.3972
 3384SOL    HW221786   2.891   3.318  10.522  1.5889 -0.3724 -2.7585
 3385SOL     OW21787   3.867   3.235  13.114 -0.0965 -0.6056  0.2671
 3385SOL    HW121788   3.820   3.175  13.171 -0.7909  0.5993  0.9746
 3385SOL    HW221789   3.811   3.313  13.114  1.6498  0.6720  0.7590
 3386SOL     OW21790   3.635   0.271   2.149 -1.1115 -0.1256  0.4123
 3386SOL    HW121791   3.722   0.262   2.110 -0.2532  0.5044  2.1516
 3386SOL    HW221792   3.629   0.191   2.202 -1.2318 -0.5262 -0.2061
 3387SOL     OW21793   3.213   1.813   7.265  0.2159  0.4372 -0.5245
 3387SOL    HW121794   3.207   1.718   7.274  1.7314  0.3875 -0.1367
 3387SOL    HW221795   3.259   1.827   7.347  2.4932  1.7240 -2.0222
 3388SOL     OW21796   0.927   1.332   4.252 -0.4239 -0.2759  0.1045
 3388SOL    HW121797   0.991   1.348   4.321 -0.3971  1.5616 -0.3380
 3388SOL    HW221798   0.992   1.310   4.184 -2.1928 -1.5426 -1.1637
 3389SOL     OW21799   3.203   3.363   6.740 -0.1985  0.3455 -0.2155
 3389SOL    HW121800   3.168   3.293   6.796  1.6322 -2.1029 -2.1353
 3389SOL    HW221801   3.119   3.400   6.712 -0.3734 -1.0691 -1.5313
 3390SOL     OW21802   0.921   3.802  11.770 -0.0560 -1.0909 -0.2415
 3390SOL    HW121803   0.906   3.817  11.863  2.7481  1.7109 -0.2225
 3390SOL    HW221804   0.877   3.878  11.731 -0.3820 -0.5541  1.1658
 3391SOL     OW21805   4.016   1.348   6.953  0.0433 -0.2113 -0.2768
 3391SOL    HW121806   4.080   1.328   6.885  0.2421  2.5500 -0.8922
 3391SOL    HW221807   4.066   1.310   7.025 -0.9649 -0.4208  0.3196
 3392SOL     OW21808   4.346   3.798   4.374  0.6100  0.2818  0.4378
 3392SOL    HW121809   4.328   3.845   4.292  0.7525  0.5668  0.5707
 3392SOL    HW221810   4.261   3.778   4.414  1.1576 -1.5417  0.7118
 3393SOL     OW21811   2.327   0.029   1.637 -0.0776  0.5981 -0.2904
 3393SOL    HW121812   2.387   0.083   1.688  0.0537 -0.7187  0.9457
 3393SOL    HW221813   2.329   4.685   1.689 -0.6334  0.2199 -0.8554
 3394SOL     OW21814   0.576   0.605   6.916 -0.4154  0.4527 -0.4515
 3394SOL    HW121815   0.624   0.660   6.978  0.2726  0.8056 -1.3064
 3394SOL    HW221816   0.495   0.654   6.926 -1.4677 -1.2249 -0.8334
 3395SOL     OW21817   1.391   1.567   8.253  0.0120 -0.2640 -0.2456
 3395SOL    HW121818   1.436   1.599   8.175 -0.1135  0.8136  0.1162
 3395SOL    HW221819   1.298   1.579   8.235 -0.2204  0.2620  1.2567
 3396SOL     OW21820   4.258   2.383   8.434  0.4484  0.3737 -0.5964
 3396SOL    HW121821   4.340   2.432   8.428  0.4180  0.6568  1.3381
 3396SOL    HW221822   4.224   2.402   8.522  2.6725  1.0170  0.1070
 3397SOL     OW21823   0.247   1.716  16.487  0.1786 -0.0723 -0.0791
 3397SOL    HW121824   0.191   1.660  16.541 -1.0952  1.8759  0.5922
 3397SOL    HW221825   0.270   1.651  16.421 -0.9693  1.2342 -1.7765
 3398SOL     OW21826   1.921   0.387   4.430 -0.0800 -0.0097 -0.1548
 3398SOL    HW121827   1.838   0.424   4.398  1.0651  0.3193 -2.7370
 3398SOL    HW221828   1.938   0.315   4.370  0.7500  1.9820 -2.3255
 3399SOL     OW21829   1.102   3.252   9.363  0.5460  0.0446  0.5860
 3399SOL    HW121830   1.071   3.328   9.412  1.9336 -0.1569  1.7902
 3399SOL    HW221831   1.029   3.242   9.303 -0.3763 -2.3788  2.0910
 3400SOL     OW21832   0.360   1.711   2.252  0.2920 -0.1861  0.4767
 3400SOL    HW121833   0.398   1.695   2.339 -0.0380 -2.1122  0.2620
 3400SOL    HW221834   0.337   1.803   2.251 -0.8948 -0.4863  0.3878
 3401SOL     OW21835   3.272   2.635   6.844  0.0092  0.7604  0.2267
 3401SOL    HW121836   3.324   2.554   6.847 -2.5577 -0.8869  0.7758
 3401SOL    HW221837   3.337   2.700   6.873 -1.4958  1.1424  2.7732
 3402SOL     OW21838   4.338   1.011   9.139 -0.0570  0.1204  0.2728
 3402SOL    HW121839   4.298   0.977   9.059 -1.7569  1.8449  0.3858
 3402SOL    HW221840   4.378   1.092   9.107 -1.4589  0.4169 -0.7395
 3403SOL     OW21841   1.859   0.697  16.699  0.3708  0.5044  0.3560
 3403SOL    HW121842   1.921   0.762  16.731 -0.6543  0.5231  2.2661
 3403SOL    HW221843   1.826   0.744  16.622  0.2328  0.5591  0.4495
 3404SOL     OW21844   4.701   1.335   5.902 -0.0091 -0.1839  0.4929
 3404SOL    HW121845   0.035   1.310   5.961  1.8303 -0.9047 -1.9741
 3404SOL    HW221846   4.718   1.281   5.824 -0.1122 -0.0572  0.3824
 3405SOL     OW21847   0.966   2.177   4.895 -0.2439  0.2445  0.4864
 3405SOL    HW121848   0.923   2.262   4.893 -1.4023 -0.3474 -0.9202
 3405SOL    HW221849   1.052   2.197   4.859  0.8762 -1.6727  2.1056
 3406SOL     OW21850   2.666   4.707   5.302  0.1933 -0.4774 -0.1388
 3406SOL    HW121851   2.720   0.039   5.261  0.9893 -1.2049 -0.3040
 3406SOL    HW221852   2.592   4.720   5.243 -0.3016  0.1201  0.6320
 3407SOL     OW21853   1.659   4.128   4.490  0.0474  0.5402  0.2360
 3407SOL    HW121854   1.743   4.162   4.519 -0.4708  2.7387 -0.8444
 3407SOL    HW221855   1.603   4.149   4.565  1.0988  2.0743  0.5746
 3408SOL     OW21856   4.006   0.474   0.449 -0.0644  0.3631  0.3248
 3408SOL    HW121857   3.942   0.544   0.439 -0.3943 -0.0135 -0.1498
 3408SOL    HW221858   3.945   0.400   0.440  0.4431  0.0675 -0.6641
 3409SOL     OW21859   4.122   3.633  16.438 -0.0644  0.2996 -0.1285
 3409SOL    HW121860   4.036   3.631  16.481  0.2520 -0.1841  0.4840
 3409SOL    HW221861   4.168   3.705  16.480  1.5262 -0.5497 -0.4004
 3410SOL     OW21862   0.478   2.102   5.120 -0.0137  0.4079  0.8066
 3410SOL    HW121863   0.531   2.047   5.063  0.3368 -0.6622  2.1571
 3410SOL    HW221864   0.403   2.049   5.146  0.9847 -1.4057 -0.0746
 3411SOL     OW21865   4.575   2.041  17.399 -0.2685  0.1488 -0.0308
 3411SOL    HW121866   4.546   2.068  17.312 -2.3574 -0.3629  0.4986
 3411SOL    HW221867   4.512   2.079  17.461  1.0071  1.1852  0.6335
 3412SOL     OW21868   3.916   0.702  14.039 -0.0325  0.1988 -0.3445
 3412SOL    HW121869   3.878   0.721  13.953 -1.2041 -0.0778  0.1220
 3412SOL    HW221870   4.010   0.712  14.022 -0.0575 -0.0656 -0.6455
 3413SOL     OW21871   2.794   4.390   3.335 -0.7226  0.1066  0.8303
 3413SOL    HW121872   2.732   4.432   3.275 -0.1676 -2.5488 -1.5964
 3413SOL    HW221873   2.821   4.467   3.386 -0.9511 -1.0696  2.7219
 3414SOL     OW21874   1.344   3.423   5.176  0.4539 -0.0064  0.4067
 3414SOL    HW121875   1.415   3.365   5.147  4.0686  3.8560  1.4708
 3414SOL    HW221876   1.357   3.419   5.271 -0.7711 -1.2370  0.5333
 3415SOL     OW21877   0.273   4.533   6.019  0.2275 -0.9538 -0.2601
 3415SOL    HW121878   0.312   4.448   5.997  0.2405 -0.8667 -0.5674
 3415SOL    HW221879   0.347   4.589   5.997  0.1965 -0.9938 -0.4661
 3416SOL     OW21880   4.019   0.549  15.749  0.0991 -0.8203 -1.1252
 3416SOL    HW121881   4.060   0.575  15.831  1.4046 -3.3257 -0.9654
 3416SOL    HW221882   4.080   0.482  15.717  1.1720 -0.2867 -0.1626
 3417SOL     OW21883   3.829   2.840   5.535 -0.0234 -0.0122  0.0459
 3417SOL    HW121884   3.790   2.793   5.461  0.2452 -0.0420 -0.0764
 3417SOL    HW221885   3.910   2.789   5.540  1.1271  1.9471  1.0454
 3418SOL     OW21886   1.402   2.996   2.413  0.2568 -0.0567  0.5510
 3418SOL    HW121887   1.331   2.991   2.476 -0.7674  3.2483 -0.3169
 3418SOL    HW221888   1.465   3.047   2.463  0.1113 -0.1279  0.8028
 3419SOL     OW21889   4.361   0.006   1.778 -0.1913 -0.5087 -0.1961
 3419SOL    HW121890   4.327   0.047   1.858 -0.0093 -3.9083  1.5937
 3419SOL    HW221891   4.423   4.684   1.823 -1.3794 -2.6461 -1.3018
 3420SOL     OW21892   1.352   1.915   3.310  0.4947 -0.1168 -0.0324
 3420SOL    HW121893   1.301   1.895   3.388  0.1479 -1.6857 -0.6615
 3420SOL    HW221894   1.426   1.964   3.346  0.9970  0.6424 -2.0719
 3421SOL     OW21895   0.726   3.537  11.738  0.2592 -0.2000 -0.1224
 3421SOL    HW121896   0.722   3.554  11.832  1.4374  1.3372 -0.3360
 3421SOL    HW221897   0.655   3.593  11.705  1.2443  2.4792  2.2368
 3422SOL     OW21898   0.939   1.571  15.205  0.2723 -0.1414 -0.3744
 3422SOL    HW121899   0.865   1.547  15.261  0.1963 -0.5326 -0.6408
 3422SOL    HW221900   0.985   1.487  15.213 -1.6139 -1.0942  0.4270
 3423SOL     OW21901   0.698   2.763  15.092 -0.2587 -0.3499  0.1440
 3423SOL    HW121902   0.687   2.779  15.186  1.3506 -1.1432  0.4739
 3423SOL    HW221903   0.751   2.683  15.088 -0.5131 -0.5232  0.2081
 3424SOL     OW21904   4.554   3.976   3.316 -0.1876  0.3590 -0.0800
 3424SOL    HW121905   4.554   4.072   3.318  4.1237  0.3755 -0.3660
 3424SOL    HW221906   4.461   3.965   3.337  0.0117 -0.5988  0.2943
 3425SOL     OW21907   3.717   0.044   7.677 -0.2632  0.2190  0.6330
 3425SOL    HW121908   3.751   4.698   7.714 -0.6942  0.2568  1.1191
 3425SOL    HW221909   3.623   0.027   7.691  0.1866 -1.2908  1.7864
 3426SOL     OW21910   3.132   2.704   9.697 -0.0663 -0.2321 -0.1249
 3426SOL    HW121911   3.102   2.715   9.607  1.0691  3.0096 -0.1373
 3426SOL    HW221912   3.221   2.668   9.693 -1.5809 -3.6903 -2.9429
 3427SOL     OW21913   0.839   4.213   4.790  0.2143 -0.1439 -0.4193
 3427SOL    HW121914   0.744   4.206   4.781  0.3067 -0.4768 -1.1608
 3427SOL    HW221915   0.878   4.137   4.746  0.7518 -0.6594  0.9382
 3428SOL     OW21916   4.477   0.519   6.555  0.6544  0.0757 -0.3852
 3428SOL    HW121917   4.483   0.478   6.642 -2.1272  3.7236  1.5351
 3428SOL    HW221918   4.565   0.548   6.532  0.5483  2.0001  1.5296
 3429SOL     OW21919   1.977   3.873   7.723 -0.4244  0.2070 -0.0296
 3429SOL    HW121920   1.954   3.966   7.729 -0.4517  0.1638  0.5289
 3429SOL    HW221921   1.893   3.827   7.719 -0.7702  0.8498 -0.1842
 3430SOL     OW21922   4.168   3.622   1.872  0.0154  0.1288  0.5352
 3430SOL    HW121923   4.154   3.707   1.831  1.4296  0.0357 -0.1535
 3430SOL    HW221924   4.181   3.565   1.796  0.0730 -1.2645  1.5724
 3431SOL     OW21925   2.420   4.259   8.889 -0.2353  0.1178  0.1144
 3431SOL    HW121926   2.485   4.329   8.893 -0.6537  0.5539 -0.7120
 3431SOL    HW221927   2.352   4.290   8.948  1.7307  0.9831  1.9220
 3432SOL     OW21928   1.846   3.995  12.199  0.2167 -0.3968  0.1045
 3432SOL    HW121929   1.752   4.009  12.211  0.2486 -0.3682  0.3366
 3432SOL    HW221930   1.846   3.930  12.129 -1.7345 -1.3109  0.9678
 3433SOL     OW21931   4.466   0.409   6.813 -0.3997 -0.1235  0.1724
 3433SOL    HW121932   4.405   0.335   6.805  1.2194 -1.4164 -0.3143
 3433SOL    HW221933   4.500   0.393   6.901 -0.5582 -0.3153  0.2010
 3434SOL     OW21934   2.182   3.084  15.087  0.3868  0.3399 -0.0131
 3434SOL    HW121935   2.197   2.989  15.080 -1.9842 -0.1731  2.0019
 3434SOL    HW221936   2.138   3.099  15.004 -0.0920 -0.5516  0.0719
 3435SOL     OW21937   1.093   2.454   3.600 -0.2746  0.8670 -0.4276
 3435SOL    HW121938   1.094   2.404   3.519  1.0614  2.1739 -1.2332
 3435SOL    HW221939   1.174   2.505   3.593  0.3655 -0.4556 -2.4946
 3436SOL     OW21940   4.454   1.150   6.936  0.1707  0.1627 -0.3613
 3436SOL    HW121941   4.525   1.213   6.947  1.3501 -1.2708  0.2384
 3436SOL    HW221942   4.380   1.201   6.904  0.0868  0.1676 -0.1567
 3437SOL     OW21943   4.609   0.811  10.949  0.3303  0.5023 -0.0455
 3437SOL    HW121944   4.666   0.805  10.872 -2.4458 -0.4713 -2.0276
 3437SOL    HW221945   4.534   0.859  10.911  0.1892 -0.1402 -0.5689
 3438SOL     OW21946   0.735   4.087   7.033  0.5699 -0.4603 -0.3577
 3438SOL    HW121947   0.807   4.144   7.006 -0.9517  1.4942 -0.2908
 3438SOL    HW221948   0.789   4.031   7.089 -0.9715 -0.6066  0.9707
 3439SOL     OW21949   0.821   2.162  14.002 -0.4534 -0.0222  0.1100
 3439SOL    HW121950   0.871   2.081  14.002 -1.0925 -0.4174  0.1033
 3439SOL    HW221951   0.842   2.201  14.087  2.1742  0.4932 -0.7633
 3440SOL     OW21952   1.653   3.034   3.312  0.0171  0.0045  0.3770
 3440SOL    HW121953   1.617   3.061   3.397 -1.3301 -1.0046  0.1320
 3440SOL    HW221954   1.617   2.945   3.302 -1.5273  0.6226  0.3525
 3441SOL     OW21955   1.100   2.440   4.560  0.3146 -0.1686  0.5642
 3441SOL    HW121956   1.093   2.346   4.578 -2.6528 -0.3559 -1.5598
 3441SOL    HW221957   1.093   2.476   4.648  0.2765 -0.0462  0.5121
 3442SOL     OW21958   2.358   2.315   6.815 -0.5473 -0.1366 -0.1547
 3442SOL    HW121959   2.326   2.256   6.746 -0.7222 -0.8757  0.5630
 3442SOL    HW221960   2.449   2.330   6.787 -0.1986 -1.1170  0.4648
 3443SOL     OW21961   0.895   2.317   1.031 -0.7466 -0.2936 -0.1997
 3443SOL    HW121962   0.911   2.361   0.948  3.0702  0.8612  1.1718
 3443SOL    HW221963   0.971   2.258   1.031 -0.9342 -0.5267 -1.5676
 3444SOL     OW21964   2.094   2.386   5.858 -0.1043 -0.9496 -0.4041
 3444SOL    HW121965   2.074   2.334   5.780 -1.4227 -1.7799  0.4785
 3444SOL    HW221966   2.024   2.354   5.916  1.0980  0.7992  2.0196
 3445SOL     OW21967   3.459   4.525  10.896  0.2642 -0.0948 -0.2258
 3445SOL    HW121968   3.472   4.505  10.804 -1.0226  2.2098 -0.9075
 3445SOL    HW221969   3.463   4.438  10.935  0.1232  0.4311  0.9700
 3446SOL     OW21970   1.084   2.643  10.526  0.3613  0.1426 -0.6089
 3446SOL    HW121971   1.140   2.569  10.551  0.2750  0.0897 -0.5728
 3446SOL    HW221972   1.140   2.720  10.525 -2.1570  2.0173  1.4387
 3447SOL     OW21973   0.067   1.639  12.357 -0.0141  0.5363  0.1232
 3447SOL    HW121974   0.036   1.644  12.266  0.7063 -1.2851 -0.2141
 3447SOL    HW221975   0.014   1.702  12.406 -1.4092  0.6854 -1.5570
 3448SOL     OW21976   3.184   4.272   3.079  0.6412  0.1679 -0.2692
 3448SOL    HW121977   3.274   4.299   3.065  0.6672  2.2447  3.8894
 3448SOL    HW221978   3.150   4.338   3.139  1.6544 -0.1117  0.5949
 3449SOL     OW21979   1.583   4.418   8.448  0.3484  0.1358 -0.5600
 3449SOL    HW121980   1.544   4.501   8.423 -0.9591 -0.5481 -0.7513
 3449SOL    HW221981   1.598   4.375   8.364 -0.5008  0.1002 -0.6936
 3450SOL     OW21982   0.508   1.050   4.037  0.1370 -0.1599 -0.4431
 3450SOL    HW121983   0.587   1.009   4.000 -0.1976 -1.8886  0.7746
 3450SOL    HW221984   0.477   0.992   4.107  0.2989  0.6039  0.2632
 3451SOL     OW21985   0.908   3.123  13.826 -0.3804 -0.2965  0.3586
 3451SOL    HW121986   0.999   3.141  13.805  0.2235 -3.3592  0.3453
 3451SOL    HW221987   0.864   3.188  13.771  0.7826  2.5641  2.7886
 3452SOL     OW21988   0.868   1.510   5.076 -0.3858  0.4289  0.5354
 3452SOL    HW121989   0.871   1.581   5.012  1.4039 -0.7322 -0.6402
 3452SOL    HW221990   0.917   1.556   5.145  2.1591  1.4972 -2.0271
 3453SOL     OW21991   3.231   1.218   5.497 -0.1533  0.2804  0.5312
 3453SOL    HW121992   3.233   1.182   5.586  1.3270 -0.3748  0.2301
 3453SOL    HW221993   3.264   1.140   5.454 -3.1716 -0.3739 -0.6083
 3454SOL     OW21994   1.067   1.747   7.754 -0.3892  0.2058 -0.2053
 3454SOL    HW121995   1.082   1.702   7.838 -0.2880  0.2127 -0.2200
 3454SOL    HW221996   1.047   1.834   7.789 -0.1328 -0.0534  0.5962
 3455SOL     OW21997   2.129   2.101   4.496  0.1339 -0.1955  0.7789
 3455SOL    HW121998   2.086   2.160   4.557  0.4954  3.5557 -2.5617
 3455SOL    HW221999   2.220   2.113   4.524  0.1115  0.5348  0.5330
 3456SOL     OW22000   2.298   3.654  12.524  0.4311 -0.2448  0.2478
 3456SOL    HW122001   2.256   3.582  12.478  0.5757 -0.2820  0.1738
 3456SOL    HW222002   2.368   3.677  12.463  1.0156  1.7073  1.6149
 3457SOL     OW22003   1.251   1.635   7.416 -0.0315 -0.2172  0.0972
 3457SOL    HW122004   1.312   1.594   7.355 -0.8116 -0.9690 -0.1706
 3457SOL    HW222005   1.220   1.552   7.450  1.1296 -1.3349 -1.6078
 3458SOL     OW22006   0.755   4.373   8.373 -0.2043  0.5371  0.7150
 3458SOL    HW122007   0.784   4.286   8.346  0.9074  0.6599  1.4818
 3458SOL    HW222008   0.770   4.355   8.465 -2.1770 -1.8593  0.5767
 3459SOL     OW22009   3.650   4.100   9.307 -0.8392 -0.0772 -0.0073
 3459SOL    HW122010   3.685   4.016   9.336  0.1409 -0.5132 -2.4472
 3459SOL    HW222011   3.630   4.139   9.392 -0.6606  0.9857 -0.4498
 3460SOL     OW22012   2.788   0.061   8.486  0.0975 -0.3901  0.1082
 3460SOL    HW122013   2.792   0.056   8.391 -0.0038 -1.0713  0.1360
 3460SOL    HW222014   2.816   4.707   8.508  3.4629  0.2099 -1.6994
 3461SOL     OW22015   0.161   1.811   4.499  0.1022 -0.0040  0.3305
 3461SOL    HW122016   0.131   1.861   4.423  1.8399 -0.5037 -0.7031
 3461SOL    HW222017   0.247   1.781   4.467  0.0655  0.9438 -0.6424
 3462SOL     OW22018   2.954   3.617   3.022  0.1029  0.1748 -0.5079
 3462SOL    HW122019   3.048   3.603   3.026  0.0803  0.4116  0.6347
 3462SOL    HW222020   2.948   3.684   2.954 -0.2204  2.3106  1.6272
 3463SOL     OW22021   3.732   2.508   8.335  0.3453 -0.4200  0.2435
 3463SOL    HW122022   3.713   2.600   8.352  1.3648  0.2111 -2.0050
 3463SOL    HW222023   3.649   2.476   8.298  0.2619 -1.0677  0.9861
 3464SOL     OW22024   2.997   3.985   3.703 -0.0736 -0.5812  0.0689
 3464SOL    HW122025   3.067   3.956   3.761  0.9372  0.1103 -0.8051
 3464SOL    HW222026   3.005   3.915   3.639  0.8010 -0.5766  0.1786
 3465SOL     OW22027   0.815   2.348   4.424 -0.2173 -0.1770 -0.2279
 3465SOL    HW122028   0.766   2.360   4.506 -0.6104 -2.8504 -0.0784
 3465SOL    HW222029   0.903   2.367   4.457 -0.2115 -0.1579 -0.2551
 3466SOL     OW22030   0.297   1.398   7.300  0.0121  0.2877  0.2363
 3466SOL    HW122031   0.242   1.350   7.362  1.1717  0.4607  1.3852
 3466SOL    HW222032   0.364   1.442   7.351  0.5277 -0.9363  0.6081
 3467SOL     OW22033   4.680   3.882   0.137 -0.2377 -0.0480  0.2994
 3467SOL    HW122034   4.729   3.845   0.064  0.7659 -2.1236  2.0144
 3467SOL    HW222035   4.623   3.812   0.168 -1.1881 -0.1759 -1.7631
 3468SOL     OW22036   4.207   2.833   0.490  0.7435 -0.2865 -0.3644
 3468SOL    HW122037   4.259   2.908   0.463 -1.4656  1.2161 -0.4337
 3468SOL    HW222038   4.276   2.767   0.504 -0.4323 -1.0194  1.9918
 3469SOL     OW22039   1.988   2.745  12.163 -0.6065 -0.4079  0.1480
 3469SOL    HW122040   2.080   2.757  12.140 -1.0417  0.6602 -1.0340
 3469SOL    HW222041   1.985   2.697  12.246 -1.2726 -1.7637 -0.6765
 3470SOL     OW22042   1.622   1.689   2.987 -0.0315  0.4791  0.3046
 3470SOL    HW122043   1.557   1.757   3.004  0.9599  2.3232 -3.3778
 3470SOL    HW222044   1.686   1.736   2.933 -0.7447 -0.0615 -0.9966
 3471SOL     OW22045   3.672   1.035   5.387  0.4116  0.1092 -0.4587
 3471SOL    HW122046   3.621   1.014   5.465  0.6566 -2.0891 -0.9043
 3471SOL    HW222047   3.679   1.131   5.389  1.2043  0.0362  0.0067
 3472SOL     OW22048   0.818   0.041   8.087 -0.0568 -0.1404 -0.6917
 3472SOL    HW122049   0.900   4.735   8.064  1.1109  0.5346  2.2077
 3472SOL    HW222050   0.813   0.011   8.178  4.1480  2.7955  0.5023
 3473SOL     OW22051   1.452   4.098  14.506  0.3694  0.3134 -0.5767
 3473SOL    HW122052   1.498   4.046  14.440  0.9176 -1.3144  1.0934
 3473SOL    HW222053   1.435   4.181  14.460 -0.2390  1.1100  1.0573
 3474SOL     OW22054   0.207   2.110  15.831 -0.2893  0.4768 -0.2153
 3474SOL    HW122055   0.219   2.070  15.745 -1.0450 -1.1555  0.4308
 3474SOL    HW222056   0.258   2.052  15.886 -1.0697 -0.5324 -0.5462
 3475SOL     OW22057   0.074   2.020  12.958  0.1881 -0.1543  0.1504
 3475SOL    HW122058   0.158   1.993  12.921  0.3407 -0.6422  0.8433
 3475SOL    HW222059   0.094   2.112  12.973 -1.0904  0.4242 -1.5844
 3476SOL     OW22060   3.418   3.579   3.879 -0.3996  0.0310 -0.1335
 3476SOL    HW122061   3.363   3.565   3.802  1.7876  0.3445 -1.7471
 3476SOL    HW222062   3.490   3.519   3.858  1.6836  2.9002 -1.2973
 3477SOL     OW22063   0.174   0.192   6.155 -0.7382  0.1133 -0.6056
 3477SOL    HW122064   0.256   0.190   6.106  0.6700  1.2360  1.7057
 3477SOL    HW222065   0.148   0.100   6.157 -0.6288  0.1060  0.8400
 3478SOL     OW22066   2.254   1.178   4.762  0.8357 -0.0670 -0.1314
 3478SOL    HW122067   2.278   1.092   4.729 -2.6767 -0.4946 -1.5617
 3478SOL    HW222068   2.291   1.179   4.850 -2.2634 -4.0312  1.1764
 3479SOL     OW22069   0.326   1.577  16.008 -0.3071 -0.1681  0.0865
 3479SOL    HW122070   0.369   1.589  15.923 -5.6212  0.5696 -2.4614
 3479SOL    HW222071   0.370   1.650  16.051 -2.4080  1.2085 -0.1005
 3480SOL     OW22072   4.071   2.440   6.300 -0.1988  0.5753  0.5804
 3480SOL    HW122073   3.989   2.427   6.347 -0.3875  0.1610  0.1336
 3480SOL    HW222074   4.117   2.486   6.371 -0.4941 -0.9167  1.7270
 3481SOL     OW22075   3.094   2.450   3.925 -0.6469  0.3626  0.7882
 3481SOL    HW122076   3.080   2.390   3.998 -1.6422 -1.6109 -1.0439
 3481SOL    HW222077   3.011   2.449   3.879 -0.4250 -3.6454  0.5077
 3482SOL     OW22078   4.522   2.340   9.059  0.2599  0.4077  0.4101
 3482SOL    HW122079   4.501   2.342   8.966 -0.9866 -1.7508  0.6466
 3482SOL    HW222080   4.522   2.245   9.073 -0.2241  0.4496  0.6985
 3483SOL     OW22081   4.268   1.998   9.460 -0.6165  0.1471  0.4750
 3483SOL    HW122082   4.204   1.990   9.530  0.0753 -0.9820  0.9670
 3483SOL    HW222083   4.288   2.092   9.454  0.4407 -0.3644 -3.7228
 3484SOL     OW22084   0.680   3.958   9.007 -0.2321 -0.1496 -0.5799
 3484SOL    HW122085   0.659   4.051   9.004  0.4051 -0.0651 -2.5697
 3484SOL    HW222086   0.692   3.932   9.098 -0.6668 -0.1959 -0.5319
 3485SOL     OW22087   1.147   1.807   3.937 -0.4759 -0.0267 -0.5833
 3485SOL    HW122088   1.108   1.892   3.917  1.9468  1.3314  0.4690
 3485SOL    HW222089   1.122   1.794   4.029  0.3103 -0.8048 -0.4763
 3486SOL     OW22090   0.374   3.740   7.386  0.0331  0.1715  0.3493
 3486SOL    HW122091   0.293   3.752   7.336  0.6618 -1.9960 -1.1935
 3486SOL    HW222092   0.363   3.646   7.400 -0.9626  0.3934  1.0331
 3487SOL     OW22093   2.480   1.299   6.590  0.1966 -0.3210  0.4299
 3487SOL    HW122094   2.489   1.383   6.546  1.9427 -0.5458  0.3391
 3487SOL    HW222095   2.511   1.302   6.681  0.5880  1.4042  0.2320
 3488SOL     OW22096   0.986   4.091   8.868  0.4606 -0.3605  0.0451
 3488SOL    HW122097   0.965   4.001   8.842  1.9764 -1.0153  1.1750
 3488SOL    HW222098   0.932   4.094   8.947 -0.6668  3.7140 -0.8451
 3489SOL     OW22099   4.043   3.453  10.219 -0.1542  0.5502  0.1278
 3489SOL    HW122100   4.050   3.416  10.131  1.8997 -1.7599  1.2754
 3489SOL    HW222101   3.979   3.392  10.255  0.4831 -1.2024 -1.7224
 3490SOL     OW22102   1.759   3.815  14.556 -0.0822 -0.1540  0.0389
 3490SOL    HW122103   1.675   3.855  14.580 -1.0278 -1.1650 -1.5765
 3490SOL    HW222104   1.724   3.728  14.537  1.6969 -0.6647 -0.9085
 3491SOL     OW22105   3.130   0.638  12.192 -0.8741  0.0639  0.0217
 3491SOL    HW122106   3.068   0.608  12.258  0.9266  0.0929  1.7084
 3491SOL    HW222107   3.116   0.569  12.128 -0.3345 -0.0070 -0.0188
 3492SOL     OW22108   2.528   0.262  12.769 -0.0242  0.4578  0.3025
 3492SOL    HW122109   2.512   0.256  12.674 -2.1632  1.0467  0.6162
 3492SOL    HW222110   2.483   0.345  12.785 -1.9182  0.2026 -3.5719
 3493SOL     OW22111   1.560   3.636   1.217 -0.0625 -0.3796  0.3644
 3493SOL    HW122112   1.549   3.563   1.157  0.5701  0.2731 -0.5482
 3493SOL    HW222113   1.473   3.673   1.208  1.3817  2.4111 -2.2003
 3494SOL     OW22114   4.404   1.855   4.704  0.2852 -0.1181 -0.3081
 3494SOL    HW122115   4.324   1.891   4.743  0.5789 -0.2390  0.4130
 3494SOL    HW222116   4.435   1.806   4.780 -1.4642 -1.0806 -0.2234
 3495SOL     OW22117   0.724   2.375  11.215  0.0485 -0.1940 -0.4199
 3495SOL    HW122118   0.787   2.303  11.220  2.3175  1.9401  1.6585
 3495SOL    HW222119   0.645   2.330  11.243 -0.3415 -0.6875 -2.3017
 3496SOL     OW22120   4.171   4.306   9.235 -0.3190  0.1381 -0.2673
 3496SOL    HW122121   4.212   4.254   9.166  1.6413  0.8262  0.3807
 3496SOL    HW222122   4.248   4.357   9.261  0.7311 -0.8127 -1.5542
 3497SOL     OW22123   0.718   1.867   6.286  0.0787  0.0891 -0.0591
 3497SOL    HW122124   0.755   1.779   6.287  1.0874  0.5057 -1.3927
 3497SOL    HW222125   0.740   1.902   6.200  1.7781  0.3487  0.4947
 3498SOL     OW22126   0.756   4.180  13.544 -0.2082  0.2011  0.0170
 3498SOL    HW122127   0.663   4.162  13.560  0.3993 -1.6841  1.4023
 3498SOL    HW222128   0.797   4.107  13.591  1.9047  0.7144 -1.0376
 3499SOL     OW22129   2.778   1.852   7.453  0.6337  0.3809  0.1586
 3499SOL    HW122130   2.783   1.757   7.443  1.3796  0.5868 -1.3235
 3499SOL    HW222131   2.731   1.859   7.536  1.5594  2.1582  0.5235
 3500SOL     OW22132   3.579   2.134   6.444 -0.0594 -1.0932  0.1693
 3500SOL    HW122133   3.610   2.205   6.500  0.4299  0.9271 -2.6352
 3500SOL    HW222134   3.500   2.106   6.490 -0.9054 -0.8395 -1.1429
 3501SOL     OW22135   2.326   2.267   4.641 -0.4430  0.2526 -0.2602
 3501SOL    HW122136   2.278   2.316   4.575 -1.8028 -1.5092 -0.5819
 3501SOL    HW222137   2.345   2.337   4.703  0.0053 -0.0317 -0.0771
 3502SOL     OW22138   0.446   3.499  15.341  0.4058  0.5836  0.4342
 3502SOL    HW122139   0.468   3.436  15.272  0.9835  1.0370  0.2048
 3502SOL    HW222140   0.518   3.464  15.394 -0.5590 -1.1804  0.5695
 3503SOL     OW22141   2.222   0.287  15.914  1.0804  0.0099  0.2217
 3503SOL    HW122142   2.173   0.340  15.851 -1.0704 -0.0053  1.8757
 3503SOL    HW222143   2.300   0.343  15.917 -0.1410  1.7271  0.2410
 3504SOL     OW22144   0.451   0.121   8.131  0.5191  0.2569  0.2161
 3504SOL    HW122145   0.515   0.170   8.183  1.4409  2.2390 -2.7953
 3504SOL    HW222146   0.386   0.111   8.200 -0.0729  0.2979 -0.3390
 3505SOL     OW22147   0.775   0.714   1.776  0.1448 -0.5187  0.2927
 3505SOL    HW122148   0.744   0.662   1.850  1.5350 -2.6846 -0.6542
 3505SOL    HW222149   0.692   0.722   1.730  0.4065 -1.2832 -0.3160
 3506SOL     OW22150   3.527   1.356  12.481  0.3363  0.0722  0.6350
 3506SOL    HW122151   3.545   1.289  12.547  1.3549  0.6508  0.9362
 3506SOL    HW222152   3.444   1.392  12.513  0.3536  0.0235  0.7330
 3507SOL     OW22153   4.720   0.368  15.477  0.0230  0.2814 -0.8868
 3507SOL    HW122154   0.056   0.326  15.524 -0.5030 -0.8648 -1.1279
 3507SOL    HW222155   0.015   0.362  15.386  0.6956 -0.8149 -0.5897
 3508SOL     OW22156   3.715   3.546   3.132  0.0364 -0.2353 -0.2558
 3508SOL    HW122157   3.636   3.517   3.085 -0.2904 -1.1287  0.8428
 3508SOL    HW222158   3.676   3.577   3.213  0.6317 -0.4799  0.1220
 3509SOL     OW22159   3.504   1.108   8.804 -0.2347 -0.4526 -0.1617
 3509SOL    HW122160   3.564   1.182   8.796  0.1314 -0.6397  0.9078
 3509SOL    HW222161   3.511   1.086   8.897  0.6025 -0.4446 -0.2204
 3510SOL     OW22162   2.089   4.061   7.161  0.5162 -0.5561  0.4249
 3510SOL    HW122163   2.087   4.125   7.090  0.5284 -1.8044 -0.7120
 3510SOL    HW222164   2.170   4.084   7.207 -0.5716  2.6990  0.6969
 3511SOL     OW22165   0.164   2.179   2.147  0.3624  0.2212 -0.0438
 3511SOL    HW122166   0.069   2.187   2.158  0.4943  0.3353  0.9375
 3511SOL    HW222167   0.196   2.235   2.217  0.2200  0.6309 -0.3039
 3512SOL     OW22168   0.412   4.048   9.149  0.0499  0.0403  0.2358
 3512SOL    HW122169   0.408   4.053   9.054  1.6352 -0.8768  0.1231
 3512SOL    HW222170   0.488   3.992   9.165 -1.5526 -1.6290  1.9842
 3513SOL     OW22171   3.419   2.639  15.999  0.2264 -0.0755 -0.0802
 3513SOL    HW122172   3.459   2.618  16.083  0.5976 -1.3632 -0.5892
 3513SOL    HW222173   3.493   2.682  15.957 -0.1402  0.3669 -0.2786
 3514SOL     OW22174   1.608   0.262  11.924 -0.1890 -0.0367  0.4392
 3514SOL    HW122175   1.567   0.206  11.859 -1.2615 -1.6881  2.5629
 3514SOL    HW222176   1.695   0.268  11.883 -1.5911  1.5127 -2.2978
 3515SOL     OW22177   0.301   0.049   7.066 -0.3132 -0.1023 -0.1415
 3515SOL    HW122178   0.310   0.140   7.039  0.8449 -0.5678 -1.3959
 3515SOL    HW222179   0.301   0.052   7.161  1.1784  0.2103 -0.1568
 3516SOL     OW22180   3.168   2.010   3.295  0.0693 -0.1565 -0.3320
 3516SOL    HW122181   3.199   1.934   3.345 -1.0668  0.7598  1.7658
 3516SOL    HW222182   3.199   1.992   3.206  0.1492  1.5160 -0.6389
 3517SOL     OW22183   4.608   0.494  16.836  0.2180  0.1429  0.2167
 3517SOL    HW122184   4.613   0.562  16.903  1.0213 -2.5596  2.9182
 3517SOL    HW222185   4.558   0.426  16.882  0.2125  0.1872  0.2756
 3518SOL     OW22186   3.617   4.639   2.932  0.1861  0.4125  0.3267
 3518SOL    HW122187   3.582   4.564   2.884  1.4761 -0.3418  0.5569
 3518SOL    HW222188   3.681   4.599   2.990  0.7364 -0.7673 -1.0859
 3519SOL     OW22189   3.124   0.445  13.465 -0.2771 -0.1734  0.5220
 3519SOL    HW122190   3.126   0.351  13.481 -3.9543 -0.2002  0.8109
 3519SOL    HW222191   3.052   0.470  13.523  0.0509  0.0049  0.8474
 3520SOL     OW22192   0.693   0.610   8.321 -0.0749 -0.0604 -0.2878
 3520SOL    HW122193   0.629   0.634   8.387  1.0057  1.5277  0.1774
 3520SOL    HW222194   0.748   0.540   8.356 -1.5308 -1.1757 -0.2351
 3521SOL     OW22195   3.649   1.244   3.082  0.1012  0.1145  0.2735
 3521SOL    HW122196   3.605   1.183   3.142 -1.8610 -0.3818 -1.6665
 3521SOL    HW222197   3.594   1.319   3.061  0.2068 -0.4457 -1.9851
 3522SOL     OW22198   2.437   4.015  15.944 -0.1402  0.2559  0.3668
 3522SOL    HW122199   2.522   3.990  15.909 -0.1413  1.0015 -0.1817
 3522SOL    HW222200   2.406   4.078  15.879 -0.8421  1.7791  2.1687
 3523SOL     OW22201   3.483   1.349  15.546  0.5936  0.1457  0.4535
 3523SOL    HW122202   3.558   1.369  15.601 -0.1031  2.0480  0.7129
 3523SOL    HW222203   3.437   1.299  15.613  0.3810  1.8399  1.5580
 3524SOL     OW22204   4.158   2.839   7.129  0.8293  0.0191  0.2025
 3524SOL    HW122205   4.064   2.821   7.121  0.5839  0.5975  1.5812
 3524SOL    HW222206   4.170   2.932   7.151  0.9242 -0.2113  1.1379
 3525SOL     OW22207   0.253   4.366   3.527  0.1709 -0.0615 -0.0887
 3525SOL    HW122208   0.167   4.403   3.507 -0.2679 -0.3806  1.1669
 3525SOL    HW222209   0.310   4.435   3.561  1.2530 -0.2698 -1.4732
 3526SOL     OW22210   0.866   0.466   6.187 -0.0532 -0.0621  0.6091
 3526SOL    HW122211   0.952   0.443   6.224  0.6261 -1.7862 -2.0617
 3526SOL    HW222212   0.830   0.383   6.157  1.2668 -0.6799  0.6991
 3527SOL     OW22213   2.767   2.337   2.167 -0.2439  0.1728 -0.1273
 3527SOL    HW122214   2.797   2.402   2.104 -2.0321 -0.1366 -1.2915
 3527SOL    HW222215   2.677   2.327   2.137  0.1855  1.2639 -1.8042
 3528SOL     OW22216   1.353   1.250  17.319  0.5293  0.3346  0.1073
 3528SOL    HW122217   1.344   1.157  17.299  0.1090  0.5641 -0.7948
 3528SOL    HW222218   1.411   1.235  17.394 -1.0288 -1.6609  0.8957
 3529SOL     OW22219   3.469   1.914   5.041 -0.0689  0.0761 -0.3764
 3529SOL    HW122220   3.470   1.912   5.137  2.5467  1.5243 -0.3632
 3529SOL    HW222221   3.416   1.993   5.027 -1.0331 -0.2308  1.5220
 3530SOL     OW22222   4.005   1.444  14.394 -0.0709 -0.4861 -0.4790
 3530SOL    HW122223   4.037   1.525  14.356  0.9074 -1.2437 -1.2586
 3530SOL    HW222224   4.014   1.458  14.489  0.4962 -0.6972 -0.5033
 3531SOL     OW22225   3.300   1.392  17.340 -0.8175 -0.4484  0.0846
 3531SOL    HW122226   3.264   1.395  17.429  0.4860  0.4349  0.5895
 3531SOL    HW222227   3.309   1.485  17.322 -0.8520 -0.6937 -1.1907
 3532SOL     OW22228   0.305   0.086   8.585 -0.2820  0.2496  0.3037
 3532SOL    HW122229   0.332   0.143   8.657  1.8042 -0.9504  0.4758
 3532SOL    HW222230   0.212   0.072   8.603 -0.1227 -0.4518  0.5701
 3533SOL     OW22231   3.709   0.824   6.582 -0.2528  0.2362  0.3336
 3533SOL    HW122232   3.684   0.913   6.607 -0.8509 -0.3383  1.8251
 3533SOL    HW222233   3.687   0.764   6.654  0.3204 -2.7491 -1.9563
 3534SOL     OW22234   2.408   3.167   3.017  0.0897 -0.4094 -0.0300
 3534SOL    HW122235   2.408   3.108   2.942 -1.4164 -1.8180  1.0975
 3534SOL    HW222236   2.331   3.138   3.067  2.2085 -0.5281  3.1298
 3535SOL     OW22237   2.922   1.191   2.458  0.0984 -0.1197  0.3761
 3535SOL    HW122238   2.996   1.131   2.453 -0.4683 -0.7913  0.0303
 3535SOL    HW222239   2.910   1.181   2.552 -0.0818  1.9517  0.5757
 3536SOL     OW22240   4.263   2.507   8.097 -0.7385  0.2003  0.6671
 3536SOL    HW122241   4.348   2.540   8.127  0.0157 -1.0809 -0.0584
 3536SOL    HW222242   4.233   2.448   8.166 -1.1231  0.0483  0.3682
 3537SOL     OW22243   0.513   4.238   1.535 -0.4198  0.1699  0.1754
 3537SOL    HW122244   0.418   4.245   1.545 -0.2676 -0.3059  2.0028
 3537SOL    HW222245   0.544   4.242   1.626  0.3672  3.4968 -0.2539
 3538SOL     OW22246   4.621   1.022   5.830  0.6020  1.2735  0.3840
 3538SOL    HW122247   4.715   1.025   5.844  0.8514 -2.2565 -0.4455
 3538SOL    HW222248   4.614   0.975   5.747  0.6145  1.9393  0.0126
 3539SOL     OW22249   1.994   2.693   2.424  0.2154  0.3374  0.3121
 3539SOL    HW122250   2.087   2.712   2.411  0.1035  0.6621 -0.0406
 3539SOL    HW222251   2.005   2.598   2.420 -1.3116  0.1862 -0.1975
 3540SOL     OW22252   4.433   0.207   2.144  0.1669 -0.4098 -0.3168
 3540SOL    HW122253   4.361   0.152   2.114 -1.4656  1.6558 -0.1302
 3540SOL    HW222254   4.398   0.296   2.145  0.0408 -0.4592 -0.5203
 3541SOL     OW22255   4.330   4.221  14.333  0.2019 -0.0222 -0.2767
 3541SOL    HW122256   4.289   4.142  14.366  1.0945 -0.6609 -0.7015
 3541SOL    HW222257   4.406   4.183  14.288  0.8611  0.4960  0.3787
 3542SOL     OW22258   0.407   2.179   9.154  0.6116  0.2509  0.1890
 3542SOL    HW122259   0.387   2.092   9.188 -0.5355 -0.1116 -1.4412
 3542SOL    HW222260   0.416   2.231   9.234 -1.2944 -1.7081  1.6778
 3543SOL     OW22261   4.050   4.224   1.999  0.4055 -0.1240  0.8557
 3543SOL    HW122262   3.977   4.162   1.999 -0.8432  1.3769  0.1612
 3543SOL    HW222263   4.113   4.180   1.941 -0.9801 -0.3264 -0.4827
 3544SOL     OW22264   4.523   2.660   6.370 -0.4748 -0.1685 -0.1171
 3544SOL    HW122265   4.435   2.648   6.404 -0.0968 -0.4851  0.7585
 3544SOL    HW222266   4.561   2.717   6.437  0.1296  0.3736 -0.9165
 3545SOL     OW22267   3.829   3.101  11.896 -0.1551  0.1484  0.2216
 3545SOL    HW122268   3.849   3.188  11.862 -2.1816 -0.3153 -2.1352
 3545SOL    HW222269   3.734   3.097  11.910  0.1462 -2.5089  1.4934
 3546SOL     OW22270   3.431   4.169  14.280 -0.0405 -0.1819  0.0569
 3546SOL    HW122271   3.507   4.131  14.323  0.6536  1.4027  0.2353
 3546SOL    HW222272   3.362   4.156  14.344  1.5774  2.9672  2.4738
 3547SOL     OW22273   3.954   3.845   0.369  0.0176 -0.0714 -0.0978
 3547SOL    HW122274   4.022   3.912   0.369 -0.7370  0.6925  0.9693
 3547SOL    HW222275   3.905   3.884   0.298  0.0111 -1.1562 -0.6978
 3548SOL     OW22276   1.877   4.273   8.445  0.3337  0.8124  0.0144
 3548SOL    HW122277   1.848   4.363   8.429  0.8653  1.1291  0.8163
 3548SOL    HW222278   1.817   4.220   8.393  0.1054 -0.1116  1.1998
 3549SOL     OW22279   2.491   4.689   5.096  1.1342  0.4359 -0.0440
 3549SOL    HW122280   2.452   0.038   5.077  1.0312  0.5141  0.5189
 3549SOL    HW222281   2.496   4.650   5.009  0.1313 -0.7063  0.4146
 3550SOL     OW22282   2.878   3.951   9.438 -0.2622 -0.1919 -0.1907
 3550SOL    HW122283   2.868   3.996   9.354 -0.4410  0.8744  0.4087
 3550SOL    HW222284   2.828   3.871   9.422  0.2877 -0.9326  1.7738
 3551SOL     OW22285   2.958   4.492   1.760 -0.0491 -0.0120 -0.5327
 3551SOL    HW122286   2.976   4.570   1.811 -1.3294  0.1042 -0.2702
 3551SOL    HW222287   3.013   4.508   1.683  0.2307  0.4978 -0.2255
 3552SOL     OW22288   1.996   0.743   4.063 -0.1366  0.3563  0.0216
 3552SOL    HW122289   1.943   0.743   4.142  1.0404  0.3019  0.8085
 3552SOL    HW222290   2.031   0.654   4.073  0.1083  0.2732 -1.5767
 3553SOL     OW22291   4.127   1.620   4.781 -0.1187  0.5269  0.2503
 3553SOL    HW122292   4.154   1.556   4.715 -1.8827  0.1000 -0.0682
 3553SOL    HW222293   4.140   1.570   4.862 -0.8268 -1.7954 -1.0821
 3554SOL     OW22294   1.391   4.268  14.698 -0.2153 -0.3079 -0.5376
 3554SOL    HW122295   1.421   4.183  14.667  3.1124 -0.6784  3.7337
 3554SOL    HW222296   1.295   4.268  14.692 -0.1301  1.3700 -1.8275
 3555SOL     OW22297   4.368   2.378   2.549  0.3721 -1.0128  0.3757
 3555SOL    HW122298   4.381   2.409   2.459 -0.7928  0.5806  0.7632
 3555SOL    HW222299   4.353   2.455   2.603 -2.3391 -1.4743  0.2909
 3556SOL     OW22300   3.947   0.041   9.586  0.1161  0.5513 -0.2475
 3556SOL    HW122301   3.994   0.113   9.543  0.8775  1.2777  1.7528
 3556SOL    HW222302   4.002   4.699   9.584 -0.9221 -0.1465 -1.4952
 3557SOL     OW22303   1.752   2.682  11.620  0.2925 -0.2691 -0.5694
 3557SOL    HW122304   1.671   2.715  11.581  0.2556 -1.2144 -1.3010
 3557SOL    HW222305   1.804   2.761  11.632  0.5513 -0.3201 -1.3526
 3558SOL     OW22306   1.145   3.149  15.934  0.7050 -0.3791 -0.1260
 3558SOL    HW122307   1.112   3.101  15.858 -0.0309 -0.5559  0.3056
 3558SOL    HW222308   1.215   3.094  15.970  1.2300 -1.1638 -2.3270
 3559SOL     OW22309   3.576   3.247   2.869 -0.0358  0.2957 -0.5983
 3559SOL    HW122310   3.571   3.163   2.823  2.3492  0.2245 -0.7459
 3559SOL    HW222311   3.660   3.268   2.828  0.7791 -0.5446  0.6045
 3560SOL     OW22312   2.109   4.562  11.302 -0.4241 -0.0289 -0.5434
 3560SOL    HW122313   2.053   4.508  11.246 -1.4449 -0.2526  0.7022
 3560SOL    HW222314   2.100   4.526  11.390  0.3747  3.0902  0.8028
 3561SOL     OW22315   1.306   4.525   5.704 -0.6011  0.0327  0.2145
 3561SOL    HW122316   1.344   4.592   5.647 -1.0237 -0.6494 -0.8664
 3561SOL    HW222317   1.229   4.511   5.649 -2.1225  0.9623  2.1362
 3562SOL     OW22318   0.555   4.472   9.019 -0.3830  0.2207 -0.8711
 3562SOL    HW122319   0.600   4.552   8.991  1.0966 -0.9133 -1.7149
 3562SOL    HW222320   0.630   4.437   9.066 -2.4472 -1.8597  0.8565
 3563SOL     OW22321   3.421   1.616   9.963 -0.0171 -0.1902  0.3070
 3563SOL    HW122322   3.387   1.587   9.878 -0.3935 -1.3546  0.8482
 3563SOL    HW222323   3.457   1.694   9.921 -1.5134  0.6840  0.6409
 3564SOL     OW22324   0.956   0.267  13.039 -0.1188  0.0882  0.0475
 3564SOL    HW122325   0.954   0.263  12.944  1.5143  1.9623 -0.0567
 3564SOL    HW222326   1.045   0.232  13.041 -0.4561 -0.7231  1.0976
 3565SOL     OW22327   2.990   3.446   7.347 -0.0355 -0.0457 -0.0016
 3565SOL    HW122328   2.905   3.428   7.387 -0.3028  0.6129 -0.2723
 3565SOL    HW222329   3.024   3.361   7.319 -0.5986 -0.3715  0.2881
 3566SOL     OW22330   1.072   3.445   4.455  0.3081 -0.2506  0.3939
 3566SOL    HW122331   1.088   3.481   4.368 -0.6506 -2.1811 -0.5757
 3566SOL    HW222332   1.016   3.518   4.483 -1.0565 -1.1017 -0.1568
 3567SOL     OW22333   0.103   3.657  10.366  0.0491  0.2018 -0.1104
 3567SOL    HW122334   0.114   3.725  10.300 -0.9087  0.5412  0.0946
 3567SOL    HW222335   0.170   3.595  10.336 -0.7031 -1.4286  1.5563
 3568SOL     OW22336   1.777   0.643  12.421  0.7783 -0.4657 -0.1754
 3568SOL    HW122337   1.849   0.655  12.483  0.5458  1.9000 -0.3491
 3568SOL    HW222338   1.769   0.548  12.417  0.2526 -0.1938 -5.6924
 3569SOL     OW22339   2.466   0.654   3.888 -0.1265 -0.2202  0.0772
 3569SOL    HW122340   2.397   0.596   3.855 -0.6314  1.1325 -1.2577
 3569SOL    HW222341   2.510   0.683   3.808  0.6310 -0.1053  0.5439
 3570SOL     OW22342   0.718   4.682   3.436  0.2966  0.2416 -0.1649
 3570SOL    HW122343   0.657   4.610   3.445  0.4399  0.1926  0.3881
 3570SOL    HW222344   0.746   4.684   3.527 -3.0819 -1.3246  0.9047
 3571SOL     OW22345   3.111   0.980  14.031 -0.0062 -0.1991 -0.7063
 3571SOL    HW122346   3.099   0.889  14.006 -0.8024  0.3047 -2.1113
 3571SOL    HW222347   3.031   0.994  14.082  0.9613 -0.2755  0.8630
 3572SOL     OW22348   1.168   1.895   5.352 -0.3895  0.2071 -0.3410
 3572SOL    HW122349   1.109   1.963   5.320 -3.1208 -1.8849  0.2656
 3572SOL    HW222350   1.252   1.936   5.331 -1.1335  1.3721 -1.0019
 3573SOL     OW22351   0.102   3.712   9.873  0.4996 -0.4327  0.5525
 3573SOL    HW122352   0.017   3.746   9.847  0.6913 -0.0081  0.4795
 3573SOL    HW222353   0.159   3.777   9.833 -1.9454  1.3816  0.0538
 3574SOL     OW22354   3.770   1.790   9.119 -0.0532  0.3038  0.4214
 3574SOL    HW122355   3.804   1.796   9.209  0.0607  2.4638  0.2308
 3574SOL    HW222356   3.680   1.802   9.149  0.0973 -0.9036  1.3756
 3575SOL     OW22357   3.630   1.573   3.684 -0.3139  0.2536 -0.2079
 3575SOL    HW122358   3.541   1.572   3.647 -0.3527  1.7331 -0.1390
 3575SOL    HW222359   3.615   1.606   3.773 -0.6452  1.4216 -0.7080
 3576SOL     OW22360   3.698   3.500   8.119  0.2854 -0.1932  0.0185
 3576SOL    HW122361   3.663   3.421   8.077 -0.3632  0.4858 -0.7103
 3576SOL    HW222362   3.640   3.566   8.082  0.6186 -0.6545 -1.3472
 3577SOL     OW22363   2.746   3.416   2.141 -0.3301  0.9182  0.4234
 3577SOL    HW122364   2.651   3.430   2.145 -0.4961  0.2866 -1.4717
 3577SOL    HW222365   2.775   3.490   2.088  2.3298  0.4807  1.2594
 3578SOL     OW22366   1.658   2.955  11.845  0.0195  0.4964  0.1040
 3578SOL    HW122367   1.722   2.935  11.913 -0.4676  0.9479  0.6934
 3578SOL    HW222368   1.716   2.994  11.780 -1.1660  0.1594 -1.1707
 3579SOL     OW22369   2.890   1.993   2.376  0.3627 -0.1187  0.2026
 3579SOL    HW122370   2.824   1.949   2.430 -0.6971 -1.7104 -2.3579
 3579SOL    HW222371   2.960   1.936   2.407 -1.6023 -2.7635 -0.2651
 3580SOL     OW22372   2.755   0.948  17.164  0.5662  0.4409  0.0373
 3580SOL    HW122373   2.784   0.959  17.255  1.2925  0.0736 -0.1529
 3580SOL    HW222374   2.825   0.986  17.111  0.1484 -0.5357 -1.1947
 3581SOL     OW22375   0.241   3.853   7.848 -0.1178 -0.9239  0.2478
 3581SOL    HW122376   0.328   3.856   7.886 -1.1148 -0.7511  2.5418
 3581SOL    HW222377   0.225   3.761   7.869 -0.1758 -0.5639  1.7974
 3582SOL     OW22378   3.455   2.456   6.840  0.0308  0.4300 -0.0328
 3582SOL    HW122379   3.533   2.485   6.888 -1.1800  1.9303  1.0563
 3582SOL    HW222380   3.470   2.363   6.826 -2.6272 -0.0384  0.2155
 3583SOL     OW22381   0.003   4.454   3.420  0.0041  0.5108  0.4704
 3583SOL    HW122382   4.678   4.393   3.380  1.8193 -0.5003 -0.7117
 3583SOL    HW222383   4.672   4.504   3.468 -0.2080  1.9304 -1.3025
 3584SOL     OW22384   1.698   2.758   9.201  0.4096  0.1130 -0.0343
 3584SOL    HW122385   1.612   2.797   9.183  0.7736  0.3278 -1.2927
 3584SOL    HW222386   1.757   2.834   9.200  0.0010  0.4298 -0.1342
 3585SOL     OW22387   4.387   1.532   2.602  0.5117 -0.2066 -0.0964
 3585SOL    HW122388   4.393   1.437   2.611 -0.9687 -0.4922 -2.2373
 3585SOL    HW222389   4.336   1.539   2.521 -2.3990  0.9523  1.8333
 3586SOL     OW22390   0.952   2.127   6.196  1.1909 -0.2586  0.1491
 3586SOL    HW122391   0.882   2.062   6.205  1.3746 -0.3921  0.5766
 3586SOL    HW222392   1.028   2.073   6.175  0.7388 -0.4980 -0.9048
 3587SOL     OW22393   2.444   1.382   2.547 -0.1000  0.2644 -0.1331
 3587SOL    HW122394   2.520   1.334   2.515  0.9881  1.0469  1.2934
 3587SOL    HW222395   2.394   1.388   2.465 -0.8510  0.3557  0.3304
 3588SOL     OW22396   2.670   1.881   7.120  0.3164  0.3904  0.1115
 3588SOL    HW122397   2.593   1.825   7.124  0.2673  0.5372  1.2442
 3588SOL    HW222398   2.640   1.958   7.169 -0.3618  0.4212 -0.3487
 3589SOL     OW22399   3.115   2.885   3.054  0.0074 -0.1517  0.5555
 3589SOL    HW122400   3.201   2.925   3.039  0.6165 -0.2392  3.7522
 3589SOL    HW222401   3.100   2.836   2.974 -1.3532  2.7028 -0.9268
 3590SOL     OW22402   3.754   0.979  13.147  0.0204 -0.6459  0.0928
 3590SOL    HW122403   3.779   1.066  13.179  2.1271 -1.3533  0.3685
 3590SOL    HW222404   3.841   0.939  13.142  1.1639  1.9234 -1.2132
 3591SOL     OW22405   2.002   1.551   4.701 -0.3037  0.4048  0.2886
 3591SOL    HW122406   1.958   1.632   4.675 -2.7887 -0.9183  0.3438
 3591SOL    HW222407   1.938   1.514   4.761 -0.1306 -1.1773 -0.4965
 3592SOL     OW22408   1.817   1.836   2.850  0.0972 -0.4644  0.0694
 3592SOL    HW122409   1.887   1.870   2.906  0.2982  1.5287 -1.3957
 3592SOL    HW222410   1.864   1.784   2.786  1.5137  0.9337 -0.0435
 3593SOL     OW22411   1.539   0.739   7.890  0.3874  0.0313 -0.1474
 3593SOL    HW122412   1.593   0.816   7.875  2.6089 -1.9235 -2.2174
 3593SOL    HW222413   1.459   0.774   7.850 -0.3367 -0.6670  0.6752
 3594SOL     OW22414   3.125   1.468   5.621 -0.1083  0.0062 -0.0791
 3594SOL    HW122415   3.069   1.403   5.579  1.4833 -0.9491 -0.7302
 3594SOL    HW222416   3.186   1.395   5.634 -1.3648 -1.1448 -0.5547
 3595SOL     OW22417   1.264   0.166   2.741  0.2009  0.4129 -0.0013
 3595SOL    HW122418   1.177   0.142   2.773 -0.0159 -0.2212 -1.0509
 3595SOL    HW222419   1.244   0.256   2.715 -1.9841  0.1185  0.6276
 3596SOL     OW22420   3.783   2.748   8.017  0.2547 -0.1784 -0.4738
 3596SOL    HW122421   3.811   2.685   8.083  0.7941  1.9993  1.3855
 3596SOL    HW222422   3.742   2.692   7.951 -0.6109 -1.9143  1.5466
 3597SOL     OW22423   0.151   0.514   3.931  0.0280 -0.3341  0.2067
 3597SOL    HW122424   0.082   0.542   3.871 -0.9075 -1.1060  0.9269
 3597SOL    HW222425   0.197   0.446   3.881  2.1248  0.4541  1.0223
 3598SOL     OW22426   2.804   0.576   6.599  0.6492  0.1016 -0.0981
 3598SOL    HW122427   2.869   0.541   6.538  0.5747 -1.6276  0.8109
 3598SOL    HW222428   2.723   0.565   6.551  0.3997 -1.6041  0.7119
 3599SOL     OW22429   2.885   1.247  11.845 -0.7141  0.2379  0.1772
 3599SOL    HW122430   2.838   1.287  11.772  2.1157  0.5536 -1.4967
 3599SOL    HW222431   2.860   1.298  11.922  2.1881 -0.0368  1.3065
 3600SOL     OW22432   2.778   1.445   8.697  0.0789  0.1360 -0.2159
 3600SOL    HW122433   2.781   1.522   8.754 -0.4468 -0.6055  0.8192
 3600SOL    HW222434   2.685   1.427   8.680  0.1457  1.3430 -1.8343
 3601SOL     OW22435   0.708   4.610   4.307  0.2533  0.3463  0.8237
 3601SOL    HW122436   0.685   4.671   4.377  0.1869 -0.7098  1.7271
 3601SOL    HW222437   0.648   4.637   4.237  2.2568  2.8813  0.1262
 3602SOL     OW22438   4.360   2.041   4.208 -0.2479 -0.2742  0.0745
 3602SOL    HW122439   4.453   2.046   4.185 -0.2604 -0.9199 -0.1083
 3602SOL    HW222440   4.330   2.132   4.204 -0.4799 -0.3020  1.1936
 3603SOL     OW22441   1.994   0.319  11.988  0.0211 -0.0066  0.1648
 3603SOL    HW122442   1.936   0.344  12.060 -0.5225 -0.2493 -0.1941
 3603SOL    HW222443   2.073   0.280  12.025  0.4139  0.6189 -0.0143
 3604SOL     OW22444   0.759   1.423   9.038 -0.1178 -0.3991  0.5996
 3604SOL    HW122445   0.675   1.457   9.006  0.6061  2.3605  1.5920
 3604SOL    HW222446   0.821   1.491   9.010  2.2754 -1.8622  2.3589
 3605SOL     OW22447   2.600   4.281   4.145  0.5252  0.1077  0.7576
 3605SOL    HW122448   2.528   4.218   4.157 -0.3475  0.9619  0.0062
 3605SOL    HW222449   2.592   4.307   4.054 -1.4544  0.1309  0.9291
 3606SOL     OW22450   3.301   0.146  14.512 -0.1976 -0.8030  0.7607
 3606SOL    HW122451   3.248   0.127  14.434 -0.6546  1.7742  0.4093
 3606SOL    HW222452   3.232   0.159  14.577 -2.2895  1.1287 -1.8591
 3607SOL     OW22453   1.474   2.643   6.065  0.0144 -0.1630  0.2115
 3607SOL    HW122454   1.465   2.738   6.069  2.1907  0.1669 -3.2173
 3607SOL    HW222455   1.466   2.616   6.157 -0.6121  0.0088  0.2105
 3608SOL     OW22456   1.167   2.897  15.356 -0.2460 -0.0235 -0.2587
 3608SOL    HW122457   1.136   2.969  15.301 -0.7623  1.4732  1.9790
 3608SOL    HW222458   1.090   2.841  15.345 -0.8106  0.4051  1.4534
 3609SOL     OW22459   3.390   0.351   5.396 -0.1228  0.6811 -0.3836
 3609SOL    HW122460   3.425   0.359   5.308 -1.7388 -1.2513 -1.1990
 3609SOL    HW222461   3.445   0.278   5.426 -1.0996  0.0201 -0.2175
 3610SOL     OW22462   0.871   0.260   4.199  0.3285 -0.0381 -0.2990
 3610SOL    HW122463   0.812   0.185   4.199  0.2592  0.0196  0.9837
 3610SOL    HW222464   0.947   0.236   4.146 -0.1979 -1.3706 -0.4473
 3611SOL     OW22465   0.633   2.585   5.939 -0.1492 -0.2551  0.1106
 3611SOL    HW122466   0.552   2.547   5.973 -0.4549 -0.1555 -0.4934
 3611SOL    HW222467   0.687   2.568   6.016 -2.3691 -0.5201  1.6164
 3612SOL     OW22468   1.474   2.496  10.882  0.5923 -0.2128 -0.2727
 3612SOL    HW122469   1.462   2.467  10.973 -2.7468 -1.1926 -1.0306
 3612SOL    HW222470   1.564   2.528  10.881  0.0077  1.5051  2.1906
 3613SOL     OW22471   3.769   1.767  16.235 -0.8036  0.3195 -0.4403
 3613SOL    HW122472   3.819   1.724  16.166 -3.2108 -0.6199 -1.5959
 3613SOL    HW222473   3.698   1.810  16.187  1.2105  3.2931 -0.7248
 3614SOL     OW22474   2.953   2.607   3.644  0.3933 -0.1566 -1.0585
 3614SOL    HW122475   2.880   2.641   3.593  0.2503  1.0194 -0.0850
 3614SOL    HW222476   2.912   2.535   3.692 -0.2653 -0.4982 -2.1417
 3615SOL     OW22477   0.991   4.155   5.309 -0.2715 -0.3082  0.3508
 3615SOL    HW122478   0.983   4.194   5.396 -1.2391 -1.8050  0.9511
 3615SOL    HW222479   0.899   4.151   5.281 -0.4101 -0.9663  0.8900
 3616SOL     OW22480   1.051   4.518   3.687 -0.0961 -0.0259  0.1520
 3616SOL    HW122481   1.006   4.433   3.687 -0.1537  0.0056 -0.4200
 3616SOL    HW222482   0.989   4.573   3.735 -1.1184  0.5076 -1.7698
 3617SOL     OW22483   2.982   4.434   7.805 -0.1308  0.1666  0.0042
 3617SOL    HW122484   2.933   4.421   7.886 -1.0597  2.1854 -0.2314
 3617SOL    HW222485   2.956   4.356   7.755  1.7682  0.2891 -1.1509
 3618SOL     OW22486   0.294   1.404   2.315  0.3848 -0.1935  0.1194
 3618SOL    HW122487   0.341   1.487   2.316  3.6486 -2.0531  0.6317
 3618SOL    HW222488   0.211   1.432   2.353  1.4886  0.6322  1.8888
 3619SOL     OW22489   0.447   2.038  11.005  0.3395  0.1527  0.0378
 3619SOL    HW122490   0.512   2.059  10.938 -0.1575  0.3695 -0.3790
 3619SOL    HW222491   0.390   1.967  10.974 -1.4056  0.7683  1.8460
 3620SOL     OW22492   0.018   2.722  14.101 -0.0718 -0.0824  0.3309
 3620SOL    HW122493   0.066   2.661  14.158 -0.8293 -1.8570 -0.9355
 3620SOL    HW222494   0.067   2.799  14.073 -0.8879  0.6892  0.9948
 3621SOL     OW22495   3.245   1.294   7.718 -0.1985  0.4161  0.1864
 3621SOL    HW122496   3.269   1.211   7.759  1.1877  0.0500 -1.3692
 3621SOL    HW222497   3.265   1.279   7.626  1.2149  0.5078  0.4770
 3622SOL     OW22498   2.428   4.325  10.307  0.2300 -0.0575  0.1595
 3622SOL    HW122499   2.333   4.330  10.320  0.4365 -1.2596  2.1452
 3622SOL    HW222500   2.433   4.235  10.275 -2.1094  0.1490 -0.7941
 3623SOL     OW22501   0.569   0.890   7.770 -0.2372 -0.6889  0.1343
 3623SOL    HW122502   0.545   0.877   7.861 -1.1696 -2.0420 -0.3129
 3623SOL    HW222503   0.522   0.822   7.721  1.4172 -1.2048 -0.7485
 3624SOL     OW22504   0.745   2.480   3.760 -0.3120 -0.2902  0.6863
 3624SOL    HW122505   0.840   2.482   3.773 -0.3404 -0.9475  0.9929
 3624SOL    HW222506   0.734   2.531   3.680 -1.5432 -0.3914  0.7950
 3625SOL     OW22507   2.200   0.413   5.157  0.4326  0.3100  0.9621
 3625SOL    HW122508   2.113   0.453   5.146  0.7446  1.1357  1.4742
 3625SOL    HW222509   2.235   0.484   5.211  1.8117 -0.2087  0.7409
 3626SOL     OW22510   3.457   3.889  14.139  0.2684 -0.5455  0.2601
 3626SOL    HW122511   3.393   3.852  14.077  2.1447 -0.9779 -1.4477
 3626SOL    HW222512   3.526   3.914  14.077 -1.5757  1.2349 -1.0751
 3627SOL     OW22513   1.408   0.588   2.810 -0.6802  0.2028  0.3203
 3627SOL    HW122514   1.313   0.579   2.820 -0.3105 -2.9078  1.2040
 3627SOL    HW222515   1.427   0.518   2.747 -0.8659  0.5068 -0.0732
 3628SOL     OW22516   1.154   1.879   7.512  0.2902 -0.3342  0.0978
 3628SOL    HW122517   1.207   1.813   7.467 -0.5991  0.1578 -1.6594
 3628SOL    HW222518   1.117   1.827   7.583 -0.7602 -2.0733 -1.7574
 3629SOL     OW22519   1.847   2.723   1.016  0.0255 -0.1595  0.6978
 3629SOL    HW122520   1.856   2.668   1.094 -1.7966  0.9548  1.6995
 3629SOL    HW222521   1.941   2.735   1.003  0.3005 -1.2383  1.7234
 3630SOL     OW22522   2.284   1.164   1.448 -0.2796 -0.4178  0.8384
 3630SOL    HW122523   2.351   1.194   1.387 -0.0054 -0.5380  1.0775
 3630SOL    HW222524   2.327   1.097   1.501  2.2167  0.2084 -0.4121
 3631SOL     OW22525   3.720   3.491   6.876  0.2356  0.0103  0.4463
 3631SOL    HW122526   3.772   3.560   6.835 -0.4424 -0.4323 -1.1448
 3631SOL    HW222527   3.668   3.449   6.808 -1.9848  1.6317  1.1642
 3632SOL     OW22528   1.155   2.085   2.524 -0.4732  0.0901  0.1984
 3632SOL    HW122529   1.245   2.072   2.555 -0.4428  0.4402  0.2542
 3632SOL    HW222530   1.114   1.998   2.530 -0.6737  0.1679 -0.0860
 3633SOL     OW22531   3.051   4.378  14.643 -0.1830  0.0335 -0.2864
 3633SOL    HW122532   3.061   4.294  14.598 -1.0156 -0.5374  0.5752
 3633SOL    HW222533   2.975   4.359  14.699  0.5278 -0.4537  0.5089
 3634SOL     OW22534   2.250   2.415   3.732  0.3497 -0.1934 -0.0630
 3634SOL    HW122535   2.231   2.348   3.667 -0.3250  0.1427 -0.2099
 3634SOL    HW222536   2.169   2.451   3.768 -0.0674  0.4287 -1.6516
 3635SOL     OW22537   2.627   2.461  12.650  0.3934  0.2830 -0.0545
 3635SOL    HW122538   2.684   2.527  12.609 -0.6650  1.4877  0.4402
 3635SOL    HW222539   2.588   2.418  12.574 -2.4129  1.2562  0.8683
 3636SOL     OW22540   3.541   3.031  10.140  0.4102  0.6781 -0.6497
 3636SOL    HW122541   3.491   2.957  10.173  0.6374  0.6199 -0.4309
 3636SOL    HW222542   3.541   3.084  10.220  1.3666  0.2062 -0.3264
 3637SOL     OW22543   3.821   3.975  15.173  0.2013  0.0031  0.1130
 3637SOL    HW122544   3.797   3.903  15.114 -0.4338  1.8501 -1.9055
 3637SOL    HW222545   3.821   3.922  15.252 -0.9910  0.1647  0.2168
 3638SOL     OW22546   1.946   0.990   9.280 -0.1812 -0.5410 -0.1883
 3638SOL    HW122547   1.874   0.929   9.299 -0.5081 -0.3014 -0.6557
 3638SOL    HW222548   2.008   0.942   9.334 -0.9404  0.3289  1.4527
 3639SOL     OW22549   3.707   2.923  13.676 -0.4249 -0.4451  0.6469
 3639SOL    HW122550   3.645   2.972  13.621 -0.6809 -1.3969  0.0875
 3639SOL    HW222551   3.664   2.923  13.761 -1.5366 -0.0299  0.1001
 3640SOL     OW22552   0.987   0.904   5.077  0.4317  0.0363  1.0539
 3640SOL    HW122553   0.893   0.887   5.074  0.4214  0.0193  1.4870
 3640SOL    HW222554   1.009   0.825   5.126  0.2750 -0.1150  0.8778
 3641SOL     OW22555   0.508   3.428  12.261  0.1028 -0.4518 -0.0693
 3641SOL    HW122556   0.592   3.400  12.296  0.3658  0.8045  0.3133
 3641SOL    HW222557   0.456   3.374  12.320  1.0542  0.8021  1.9185
 3642SOL     OW22558   1.410   2.519   4.967 -0.3319 -0.4723 -0.7413
 3642SOL    HW122559   1.476   2.552   5.028  0.2584 -4.0901  0.6250
 3642SOL    HW222560   1.400   2.587   4.901  0.5812  0.0553 -0.3322
 3643SOL     OW22561   2.745   4.269   8.647  0.7022  0.3784  0.3690
 3643SOL    HW122562   2.730   4.175   8.644  1.6355  0.1835  2.0448
 3643SOL    HW222563   2.689   4.300   8.575 -1.0033 -0.6263  1.2596
 3644SOL     OW22564   1.869   3.737   7.264 -0.2682  0.4656 -0.3710
 3644SOL    HW122565   1.855   3.831   7.270  0.7965  0.4577  2.3210
 3644SOL    HW222566   1.867   3.714   7.357  0.5823 -1.4199 -0.8137
 3645SOL     OW22567   1.885   2.485   6.582 -0.1573  0.2321 -0.4199
 3645SOL    HW122568   1.936   2.407   6.560 -2.3618 -0.5907 -2.5675
 3645SOL    HW222569   1.795   2.468   6.554 -0.6668  0.9670  0.7511
 3646SOL     OW22570   1.829   0.310  11.775 -0.1106 -0.1345 -0.2912
 3646SOL    HW122571   1.881   0.258  11.713  0.3606 -0.6067  0.4932
 3646SOL    HW222572   1.892   0.321  11.847 -0.1115 -0.7177 -0.1942
 3647SOL     OW22573   1.056   3.984   1.561  0.0741 -0.2353  0.1359
 3647SOL    HW122574   1.103   3.928   1.500  0.2649 -1.0766  1.0439
 3647SOL    HW222575   1.130   4.027   1.606 -0.1506 -0.3441  0.6077
 3648SOL     OW22576   4.076   0.886   8.035 -0.2564  0.3697  0.2882
 3648SOL    HW122577   4.067   0.923   7.947  0.4380 -0.8186 -0.2910
 3648SOL    HW222578   4.133   0.810   8.020 -2.1335 -1.2698  1.6411
 3649SOL     OW22579   2.106   1.241  15.648 -0.3265 -0.2566  0.1445
 3649SOL    HW122580   2.165   1.311  15.620 -2.7443  1.7629  0.0954
 3649SOL    HW222581   2.148   1.225  15.733  0.1050 -2.0667 -0.4207
 3650SOL     OW22582   2.628   4.049   6.710  0.5099  0.1960  0.0758
 3650SOL    HW122583   2.722   4.051   6.692  0.7064 -3.2983  0.5831
 3650SOL    HW222584   2.624   3.999   6.791 -0.3815 -0.6908 -0.5175
 3651SOL     OW22585   4.141   0.603   1.988  0.1721  0.0691  0.1180
 3651SOL    HW122586   4.055   0.640   1.966  0.2459 -0.6792 -1.4071
 3651SOL    HW222587   4.186   0.685   2.011  0.4384  0.3146 -1.3084
 3652SOL     OW22588   3.849   1.254   8.100 -0.2981 -0.0855  0.0475
 3652SOL    HW122589   3.851   1.228   8.008 -2.5011  0.4154 -0.1582
 3652SOL    HW222590   3.936   1.228   8.131 -0.0693  0.4144 -0.1762
 3653SOL     OW22591   3.935   4.358   4.228  0.0011 -0.4218  0.3962
 3653SOL    HW122592   3.921   4.389   4.317  0.0224 -1.3686  0.7304
 3653SOL    HW222593   4.031   4.358   4.228 -0.0055  1.2689 -0.3778
 3654SOL     OW22594   1.677   1.305   0.683  0.2913  0.2170 -0.6905
 3654SOL    HW122595   1.750   1.338   0.735  0.7264 -1.0795 -0.4795
 3654SOL    HW222596   1.694   1.351   0.601  0.1034  2.4815  0.5483
 3655SOL     OW22597   1.351   4.254   5.708  0.1065 -0.3697 -0.1044
 3655SOL    HW122598   1.306   4.234   5.627 -0.8988 -1.7388  0.7976
 3655SOL    HW222599   1.352   4.350   5.708 -0.4718 -0.3482  2.1874
 3656SOL     OW22600   1.769   2.106   6.011  0.1127 -0.4449  0.1069
 3656SOL    HW122601   1.702   2.092   6.078 -1.8547 -0.8415 -1.9211
 3656SOL    HW222602   1.711   2.124   5.937  1.4880 -0.0954 -0.8703
 3657SOL     OW22603   2.757   2.080  10.086 -0.1810  0.1500 -0.4205
 3657SOL    HW122604   2.838   2.033  10.106  0.3489  1.7840  1.3697
 3657SOL    HW222605   2.693   2.010  10.097  1.6082 -1.8921 -3.0533
 3658SOL     OW22606   3.698   4.204   4.719  0.3141 -0.6221 -0.6747
 3658SOL    HW122607   3.668   4.295   4.721 -1.4054 -1.2747  1.9594
 3658SOL    HW222608   3.668   4.182   4.807 -0.3180 -0.5455 -0.8743
 3659SOL     OW22609   3.465   0.777  13.503 -0.5303  0.8172 -0.8461
 3659SOL    HW122610   3.466   0.829  13.423  4.1131  0.2393 -1.1350
 3659SOL    HW222611   3.414   0.838  13.557 -1.5444 -0.0210 -0.8620
 3660SOL     OW22612   1.567   1.873   6.275 -0.1464  0.1561  0.6339
 3660SOL    HW122613   1.551   1.820   6.353  3.5158  0.5333  1.6339
 3660SOL    HW222614   1.584   1.806   6.208 -1.8125  1.4162 -1.0483
 3661SOL     OW22615   1.524   4.669   8.333  0.3321 -0.1276 -0.2745
 3661SOL    HW122616   1.476   4.689   8.413  0.6193  0.0098 -0.1380
 3661SOL    HW222617   1.538   0.024   8.305  0.2396 -0.0884 -0.1936
 3662SOL     OW22618   2.218   4.389   4.394  0.0187 -0.1120  0.4724
 3662SOL    HW122619   2.223   4.479   4.362  0.8805  0.0034  0.9134
 3662SOL    HW222620   2.203   4.351   4.308 -0.0099  0.0274  0.4166
 3663SOL     OW22621   1.382   1.547   2.377  0.2453 -0.3775  0.3318
 3663SOL    HW122622   1.345   1.632   2.354  1.6513  0.3342  0.7247
 3663SOL    HW222623   1.469   1.574   2.347  0.1943  1.0629  1.4667
 3664SOL     OW22624   0.440   4.683   5.608 -0.1718 -0.3977  0.1931
 3664SOL    HW122625   0.366   4.661   5.666 -0.9809 -1.4859 -1.2596
 3664SOL    HW222626   0.496   4.733   5.667 -0.9171 -0.4742  0.9736
 3665SOL     OW22627   0.796   0.145   6.768 -0.0346 -0.1510 -0.6803
 3665SOL    HW122628   0.874   0.195   6.793  1.5441 -0.7770 -4.4070
 3665SOL    HW222629   0.834   0.092   6.698 -2.9424 -2.5799 -0.4431
 3666SOL     OW22630   3.895   0.617   2.848  0.2326  0.0965  0.2740
 3666SOL    HW122631   3.845   0.557   2.904  0.4615 -0.9434 -0.6617
 3666SOL    HW222632   3.953   0.646   2.918  0.6022 -0.6230  0.2632
 3667SOL     OW22633   4.443   4.671  13.657  0.4672 -0.1988  0.2167
 3667SOL    HW122634   4.455   4.583  13.620 -1.2403 -0.8989  1.3336
 3667SOL    HW222635   4.435   4.652  13.751  0.9436  0.7096  0.4364
 3668SOL     OW22636   2.631   1.047   5.917 -0.0071  0.5265  0.1404
 3668SOL    HW122637   2.562   1.048   5.984  1.2227 -1.0104  1.4300
 3668SOL    HW222638   2.645   1.142   5.914 -0.2189  0.5572  0.1350
 3669SOL     OW22639   4.620   2.211   2.283  0.0354 -0.3551 -0.0706
 3669SOL    HW122640   4.567   2.230   2.360 -0.5710  1.4312 -0.9269
 3669SOL    HW222641   4.672   2.291   2.282  1.1635 -1.1024 -0.3501
 3670SOL     OW22642   2.648   3.859  16.137  0.3288 -0.2786 -0.4053
 3670SOL    HW122643   2.631   3.873  16.044 -3.7156  0.3216  0.3866
 3670SOL    HW222644   2.561   3.824  16.158  0.5857 -1.6613 -1.6755
 3671SOL     OW22645   0.649   4.720   8.966 -0.1459 -0.0687  0.3157
 3671SOL    HW122646   0.670   0.060   8.911 -1.6009 -0.3943 -0.6743
 3671SOL    HW222647   0.647   0.023   9.054  0.3669  0.5015  0.0769
 3672SOL     OW22648   0.356   1.112   9.122  0.1023 -0.2140  0.4335
 3672SOL    HW122649   0.426   1.148   9.176  1.2638 -1.7900 -0.0202
 3672SOL    HW222650   0.304   1.059   9.184 -0.3263  0.7990  0.9398
 3673SOL     OW22651   1.153   0.666   6.398  0.1691 -0.6367  0.4512
 3673SOL    HW122652   1.218   0.606   6.434 -0.3326 -0.1470  2.1812
 3673SOL    HW222653   1.078   0.608   6.410 -1.0994  0.1903 -3.3829
 3674SOL     OW22654   2.648   1.755   4.963  0.3150  0.3664  0.1397
 3674SOL    HW122655   2.724   1.812   4.960  0.2064  0.3805 -2.6342
 3674SOL    HW222656   2.639   1.754   5.058  2.2921 -2.7241  0.2918
 3675SOL     OW22657   1.630   0.121   3.700 -0.2970  0.1005 -0.1287
 3675SOL    HW122658   1.626   0.169   3.617 -0.3738  1.3501  0.6046
 3675SOL    HW222659   1.700   0.058   3.682  0.6695  1.4249 -1.0023
 3676SOL     OW22660   2.751   0.602  13.491  0.0982 -0.1734  0.5517
 3676SOL    HW122661   2.742   0.692  13.523 -4.2477 -1.2284  2.3149
 3676SOL    HW222662   2.834   0.581  13.532 -0.8315  0.9979  3.0206
 3677SOL     OW22663   0.948   2.869   7.750 -0.3512 -0.1041 -0.7909
 3677SOL    HW122664   0.872   2.869   7.692  0.0561 -0.8747 -1.3207
 3677SOL    HW222665   0.959   2.963   7.767 -2.0942  0.6046 -3.6561
 3678SOL     OW22666   0.708   0.053   9.221  0.0463 -0.7329 -0.5605
 3678SOL    HW122667   0.715   0.149   9.223 -0.8164 -0.6692 -0.4087
 3678SOL    HW222668   0.800   0.033   9.239  0.9722 -0.2587 -4.7482
 3679SOL     OW22669   0.244   2.096   6.600 -0.1520 -0.2479  0.9624
 3679SOL    HW122670   0.307   2.101   6.529 -0.1940 -0.5182  0.9060
 3679SOL    HW222671   0.278   2.158   6.665 -0.8167  1.1950 -0.0704
 3680SOL     OW22672   1.900   3.508   9.432  0.1990 -0.2794  0.0137
 3680SOL    HW122673   1.890   3.517   9.337 -2.7836 -0.0136  0.3352
 3680SOL    HW222674   1.962   3.582   9.436 -0.9171  0.6739 -0.2788
 3681SOL     OW22675   3.342   0.031  10.905 -0.1463  0.0485 -0.3646
 3681SOL    HW122676   3.407   4.699  10.921 -0.5589 -0.5639 -1.2811
 3681SOL    HW222677   3.344   0.085  10.984  0.5912 -0.6565  0.0993
 3682SOL     OW22678   2.671   0.951   2.368  0.3687  0.2898  0.6467
 3682SOL    HW122679   2.761   0.922   2.350  0.8269  2.3662 -0.4321
 3682SOL    HW222680   2.633   0.963   2.281 -1.2977 -1.1460  1.1845
 3683SOL     OW22681   3.673   3.316   9.745  0.2854  0.3216  0.5252
 3683SOL    HW122682   3.642   3.247   9.686  1.3774 -1.5917  2.2153
 3683SOL    HW222683   3.609   3.302   9.815 -0.5672 -0.4029 -0.4016
 3684SOL     OW22684   3.916   3.286   3.379 -0.4152 -0.6530 -0.0026
 3684SOL    HW122685   3.956   3.199   3.381  1.5215  0.2005 -1.3556
 3684SOL    HW222686   3.909   3.302   3.285  0.7360  1.5871  0.2753
 3685SOL     OW22687   3.840   0.772   9.952 -0.0196 -0.5153  0.2394
 3685SOL    HW122688   3.867   0.684   9.978  0.8800 -0.1787  0.4777
 3685SOL    HW222689   3.774   0.786  10.019  0.1790  0.5256  0.2204
 3686SOL     OW22690   1.625   4.523   3.897 -0.2340 -0.4880 -0.3571
 3686SOL    HW122691   1.698   4.474   3.859 -1.0720 -2.3885  0.4854
 3686SOL    HW222692   1.558   4.484   3.841 -2.2192  1.2226  0.8150
 3687SOL     OW22693   0.404   1.324  17.099  0.4953  0.0230 -0.1938
 3687SOL    HW122694   0.468   1.268  17.054  0.1995 -0.6016  0.1615
 3687SOL    HW222695   0.395   1.275  17.180 -0.1037  4.1145  2.1798
 3688SOL     OW22696   1.970   0.925   8.236 -0.4894 -0.1754  0.2524
 3688SOL    HW122697   1.965   0.980   8.158  1.8300 -1.1157 -0.5777
 3688SOL    HW222698   1.883   0.943   8.271 -0.6151 -1.2485  0.4859
 3689SOL     OW22699   3.484   4.030   4.905 -0.1429 -0.6054  0.0043
 3689SOL    HW122700   3.400   4.066   4.933 -0.2348 -0.8553  0.0564
 3689SOL    HW222701   3.445   4.016   4.819 -1.0004  1.3523  0.0918
 3690SOL     OW22702   3.863   3.591  10.407 -0.4232  0.6346 -0.4486
 3690SOL    HW122703   3.929   3.616  10.344 -1.7099  1.9500 -1.2824
 3690SOL    HW222704   3.816   3.522  10.360  1.0088 -1.7318  1.6175
 3691SOL     OW22705   4.548   1.779   6.417 -0.3701  0.0454  0.4573
 3691SOL    HW122706   4.591   1.863   6.402  0.0819 -0.2598  0.0363
 3691SOL    HW222707   4.539   1.745   6.328 -0.5088  3.3376 -0.8061
 3692SOL     OW22708   2.001   1.832  17.616  1.1234  0.4282  0.2171
 3692SOL    HW122709   2.042   1.914  17.589 -0.5785  0.6221 -1.7660
 3692SOL    HW222710   2.012   1.779  17.538  0.1927 -0.4415  0.6765
 3693SOL     OW22711   2.833   2.682  12.654  0.1363  0.2619 -0.2749
 3693SOL    HW122712   2.845   2.773  12.628  0.9280  0.4350  0.7304
 3693SOL    HW222713   2.901   2.670  12.721  1.3404  2.2301 -1.1558
 3694SOL     OW22714   4.239   2.466   9.015 -0.4672  0.3482 -0.1132
 3694SOL    HW122715   4.301   2.394   9.001 -0.4396  0.1036  1.2988
 3694SOL    HW222716   4.218   2.494   8.926 -0.0901  1.1780  0.0601
 3695SOL     OW22717   3.588   3.783  12.261  0.2510 -0.3779  0.1334
 3695SOL    HW122718   3.613   3.724  12.190  3.8976 -1.5586  2.3911
 3695SOL    HW222719   3.512   3.747  12.307  0.0775 -0.2764 -0.0721
 3696SOL     OW22720   1.811   3.292   5.186 -0.0893 -0.5695  0.1878
 3696SOL    HW122721   1.858   3.295   5.102 -0.0376 -0.2257  0.2279
 3696SOL    HW222722   1.845   3.208   5.216 -0.0911 -1.1290 -1.3664
 3697SOL     OW22723   3.319   4.733   8.705  0.2775 -0.5887  0.2056
 3697SOL    HW122724   3.331   0.024   8.614  1.1380 -3.7624 -0.6036
 3697SOL    HW222725   3.225   0.004   8.718 -0.1535 -0.5410 -2.9114
 3698SOL     OW22726   1.336   4.388   2.694 -0.4537 -0.3859 -0.3961
 3698SOL    HW122727   1.313   4.307   2.739 -1.0394 -0.6860 -1.2317
 3698SOL    HW222728   1.253   4.435   2.702  0.8196  1.6522  0.7550
 3699SOL     OW22729   4.355   0.769   4.181 -0.2362  0.1385 -0.7249
 3699SOL    HW122730   4.395   0.852   4.206 -0.5040  0.5796 -1.7614
 3699SOL    HW222731   4.425   0.710   4.153 -0.2599  0.5168 -1.5741
 3700SOL     OW22732   1.533   0.521  12.207 -0.2265  0.1567 -0.1794
 3700SOL    HW122733   1.615   0.559  12.237 -1.0396  0.9822  0.9802
 3700SOL    HW222734   1.540   0.534  12.112 -0.1768 -1.1063 -0.3511
 3701SOL     OW22735   2.062   3.992   3.340  0.2226  0.2393  0.4887
 3701SOL    HW122736   2.002   4.057   3.303  2.6080  2.1756  0.0376
 3701SOL    HW222737   2.031   3.903   3.326  1.7703 -0.5934  2.4484
 3702SOL     OW22738   4.548   1.150  14.786  0.1119 -0.0483 -0.7374
 3702SOL    HW122739   4.602   1.150  14.708  1.8992 -0.4391  0.4896
 3702SOL    HW222740   4.591   1.081  14.837 -1.5126 -0.9671 -0.5745
 3703SOL     OW22741   2.563   0.566   7.006 -0.2255 -0.2574 -0.0277
 3703SOL    HW122742   2.609   0.542   7.087  1.2951 -0.2742 -0.8971
 3703SOL    HW222743   2.628   0.599   6.945 -2.2775 -0.5183 -2.3517
 3704SOL     OW22744   4.590   4.066   5.605 -0.0623 -0.0099  0.2490
 3704SOL    HW122745   4.576   4.127   5.677  2.4587 -1.6196  2.0733
 3704SOL    HW222746   4.581   4.116   5.523  1.4154 -1.9303 -1.1021
 3705SOL     OW22747   3.611   1.353   5.528  0.6282 -0.4181 -0.1648
 3705SOL    HW122748   3.546   1.299   5.571  0.4792  0.0996  0.2589
 3705SOL    HW222749   3.693   1.320   5.565  0.2831  0.0314  0.9849
 3706SOL     OW22750   2.890   3.988   6.056 -0.1177 -0.6181  0.4171
 3706SOL    HW122751   2.839   3.954   5.982  0.5369 -0.5315 -0.0713
 3706SOL    HW222752   2.842   3.953   6.131 -0.9431  0.7683  0.5247
 3707SOL     OW22753   3.100   2.010   1.668 -0.0875  0.6700  0.1399
 3707SOL    HW122754   3.056   2.033   1.749 -1.9072  0.6565 -0.8355
 3707SOL    HW222755   3.126   1.923   1.697 -0.7461  0.6119  0.5353
 3708SOL     OW22756   3.665   0.873  17.678 -0.1974  0.0791 -0.2002
 3708SOL    HW122757   3.583   0.919  17.698 -0.9641 -0.8559 -1.1948
 3708SOL    HW222758   3.650   0.829  17.594  0.8681 -0.7762  0.0579
 3709SOL     OW22759   2.872   3.996   5.175  0.1010 -0.5711 -0.7304
 3709SOL    HW122760   2.923   3.999   5.256  1.7572 -1.6538 -1.7266
 3709SOL    HW222761   2.912   4.064   5.120  1.1120 -0.3896  0.2421
 3710SOL     OW22762   1.568   0.177   7.157  0.1662 -0.1193 -0.1683
 3710SOL    HW122763   1.565   0.082   7.147 -0.9309  0.1616 -2.3964
 3710SOL    HW222764   1.647   0.190   7.104  0.7119  1.2342  0.9655
 3711SOL     OW22765   3.858   0.700   8.137  0.1740 -0.2675 -0.0184
 3711SOL    HW122766   3.949   0.713   8.112 -0.5235  0.3469 -2.2200
 3711SOL    HW222767   3.872   0.663   8.224  0.5357 -1.6365 -0.6601
 3712SOL     OW22768   2.083   2.101   7.259 -0.1494  0.0864 -1.1798
 3712SOL    HW122769   2.080   2.183   7.309  0.9542 -0.4185 -0.2808
 3712SOL    HW222770   1.989   2.088   7.252  0.3540 -3.0666 -2.0391
 3713SOL     OW22771   1.546   2.717   8.017 -0.5599 -0.4140 -0.3434
 3713SOL    HW122772   1.605   2.647   7.989  2.3672  1.4893  1.0595
 3713SOL    HW222773   1.552   2.762   7.933 -0.6309 -1.2870 -0.8193
 3714SOL     OW22774   1.962   1.611  12.003  0.3030  0.0422 -0.2447
 3714SOL    HW122775   1.966   1.521  11.969  0.1098  0.3627 -1.1026
 3714SOL    HW222776   1.943   1.587  12.094  0.9409 -1.5503 -0.5335
 3715SOL     OW22777   3.867   3.582   0.384 -0.9422 -0.1373  0.7021
 3715SOL    HW122778   3.820   3.621   0.458 -0.0237  1.1096  0.6226
 3715SOL    HW222779   3.921   3.656   0.355 -0.1987 -1.0484 -0.2143
 3716SOL     OW22780   3.138   4.122   6.130 -0.0262 -0.3857 -0.1361
 3716SOL    HW122781   3.145   4.072   6.212  2.2145  0.4937  0.2102
 3716SOL    HW222782   3.065   4.077   6.088  0.1322 -1.2492  0.5071
 3717SOL     OW22783   1.035   2.380   5.200 -0.1534  0.2153 -0.0168
 3717SOL    HW122784   1.095   2.440   5.245 -0.6480  0.3072  0.5130
 3717SOL    HW222785   0.952   2.426   5.201  0.7265  1.8407 -1.3227
 3718SOL     OW22786   3.979   0.720  15.528 -0.3585 -0.1714 -0.1369
 3718SOL    HW122787   3.969   0.686  15.617 -0.7328  2.4836  0.8367
 3718SOL    HW222788   3.948   0.644  15.478  0.3124 -1.9807  2.1913
 3719SOL     OW22789   4.605   0.214   9.165 -0.3266  0.0677 -0.0330
 3719SOL    HW122790   4.523   0.216   9.214 -0.6433  0.0106 -0.5656
 3719SOL    HW222791   4.666   0.191   9.235 -2.0691 -1.5193  0.9559
 3720SOL     OW22792   1.113   3.754   8.604 -0.0912 -0.0451  0.0103
 3720SOL    HW122793   1.048   3.687   8.623 -1.3619  1.2137  0.1297
 3720SOL    HW222794   1.114   3.811   8.680 -2.4736  2.2626 -1.6834
 3721SOL     OW22795   4.237   1.382   1.889 -0.2643 -0.4840 -0.2746
 3721SOL    HW122796   4.267   1.381   1.798  1.8450 -2.8086  0.4518
 3721SOL    HW222797   4.149   1.346   1.877  0.4754 -2.8570  1.4286
 3722SOL     OW22798   2.412   3.661  17.545 -0.2843  0.1408  0.0548
 3722SOL    HW122799   2.404   3.754  17.567 -0.0824  0.4441 -1.1525
 3722SOL    HW222800   2.468   3.630  17.616 -0.4647  2.8399  1.3665
 3723SOL     OW22801   2.114   1.022  13.637  0.3618  0.5016  0.1260
 3723SOL    HW122802   2.124   0.997  13.729 -1.7348 -0.4327  0.0869
 3723SOL    HW222803   2.142   0.945  13.588 -0.4342  0.2181  0.1233
 3724SOL     OW22804   1.511   4.544   9.633  0.8603  0.3485 -0.2796
 3724SOL    HW122805   1.490   4.478   9.567  2.0761  0.1893 -0.4935
 3724SOL    HW222806   1.581   4.492   9.671  1.5250  2.4544  1.3678
 3725SOL     OW22807   2.169   3.462  12.324  0.2745  0.2549  0.0250
 3725SOL    HW122808   2.178   3.511  12.243  1.0147 -1.3962 -0.8951
 3725SOL    HW222809   2.142   3.376  12.293 -1.4657  0.8032  0.0349
 3726SOL     OW22810   0.129   4.366  11.512 -0.3049 -0.1961 -0.0153
 3726SOL    HW122811   0.154   4.313  11.436 -3.8888 -1.1975 -0.5005
 3726SOL    HW222812   0.195   4.436  11.508  0.4064 -0.8970 -0.5438
 3727SOL     OW22813   0.963   1.063  15.875 -0.3077 -0.3570  0.0920
 3727SOL    HW122814   0.962   1.079  15.781 -0.4885  2.9506  0.6656
 3727SOL    HW222815   0.928   0.974  15.885  0.3937 -0.5399  0.9281
 3728SOL     OW22816   1.801   2.859   7.897 -0.1800  0.3114  0.2541
 3728SOL    HW122817   1.737   2.911   7.946 -0.3325 -0.0639  0.4495
 3728SOL    HW222818   1.835   2.802   7.966 -1.6963  0.8125  1.4166
 3729SOL     OW22819   1.937   2.857   4.913 -0.0806 -0.5787 -0.0522
 3729SOL    HW122820   2.027   2.890   4.909  0.5049 -2.4981 -2.9602
 3729SOL    HW222821   1.930   2.817   5.000  2.4405 -1.3843 -0.2050
 3730SOL     OW22822   1.970   2.964   1.288 -0.2487  0.4419 -0.6273
 3730SOL    HW122823   1.933   2.999   1.207 -1.1650  0.4921 -0.1920
 3730SOL    HW222824   2.031   2.896   1.261  0.1040 -0.0351  1.3889
 3731SOL     OW22825   0.599   1.077  17.291  0.2070  0.2527  0.0227
 3731SOL    HW122826   0.657   1.089  17.216  1.5518  0.1569  1.0551
 3731SOL    HW222827   0.552   1.160  17.281 -2.3832 -0.9325  2.3166
 3732SOL     OW22828   3.331   1.895   8.266  0.0604 -0.3132  0.3861
 3732SOL    HW122829   3.344   1.857   8.352 -0.4356 -1.2324  0.0541
 3732SOL    HW222830   3.396   1.966   8.259  2.0783 -2.1107  0.8823
 3733SOL     OW22831   3.364   0.682  14.900 -0.2951  0.3219 -0.2804
 3733SOL    HW122832   3.422   0.616  14.863  0.6032  0.6514  0.5504
 3733SOL    HW222833   3.422   0.732  14.957 -1.6608  2.0480 -0.4039
 3734SOL     OW22834   1.153   4.337  12.990  0.3553  0.0850 -0.2849
 3734SOL    HW122835   1.222   4.346  12.923 -0.6820  0.1674 -1.3433
 3734SOL    HW222836   1.072   4.367  12.948  0.6979  1.9406  0.3751
 3735SOL     OW22837   0.555   3.427   1.256  0.5363 -0.5595 -0.0443
 3735SOL    HW122838   0.645   3.443   1.228 -0.9820  3.2512 -2.8353
 3735SOL    HW222839   0.516   3.373   1.188 -0.0662 -0.6989  0.4207
 3736SOL     OW22840   1.181   2.061  14.193 -0.3626  0.2272 -0.0073
 3736SOL    HW122841   1.088   2.050  14.174 -0.1871  1.6349 -1.6703
 3736SOL    HW222842   1.217   2.000  14.129 -4.4864 -1.5341 -0.6251
 3737SOL     OW22843   1.400   2.695   1.986 -0.2724 -0.1378  0.2009
 3737SOL    HW122844   1.343   2.708   1.910  1.0550 -0.4987 -0.8595
 3737SOL    HW222845   1.414   2.783   2.020  0.0602 -0.5721  1.1820
 3738SOL     OW22846   2.573   2.187   7.779 -0.8691  0.0779 -0.0749
 3738SOL    HW122847   2.506   2.205   7.845  0.3929  0.8324  0.9700
 3738SOL    HW222848   2.631   2.263   7.778 -1.2589  0.3638 -1.0334
 3739SOL     OW22849   4.311   4.153   9.061 -0.2626  0.0433 -0.2098
 3739SOL    HW122850   4.403   4.128   9.074 -0.3383 -0.6215 -0.9159
 3739SOL    HW222851   4.308   4.153   8.965  0.3930  0.3640 -0.2335
 3740SOL     OW22852   1.762   4.364   2.134  0.0162  0.3172  0.2007
 3740SOL    HW122853   1.707   4.314   2.196 -1.7092  0.2842 -1.3561
 3740SOL    HW222854   1.692   4.402   2.082 -0.0899  1.3391  1.0944
 3741SOL     OW22855   1.166   2.633   2.873  1.2051  0.7590 -0.2446
 3741SOL    HW122856   1.142   2.605   2.962 -1.5675 -1.5262 -1.7010
 3741SOL    HW222857   1.095   2.691   2.845 -0.6462 -0.1029  2.6961
 3742SOL     OW22858   4.003   1.452   5.495 -0.6652  0.0669  0.3681
 3742SOL    HW122859   4.036   1.538   5.522 -1.2743  0.1392  0.9045
 3742SOL    HW222860   4.003   1.456   5.400 -0.7349  0.5689  0.3892
 3743SOL     OW22861   0.669   0.408   2.272 -0.2893  0.1079 -0.0267
 3743SOL    HW122862   0.656   0.374   2.183 -2.0961 -0.8462  0.6107
 3743SOL    HW222863   0.593   0.383   2.324 -1.1650  0.6424 -1.0478
 3744SOL     OW22864   1.976   2.656   2.025 -0.2145 -1.0222  0.1418
 3744SOL    HW122865   1.953   2.727   2.086  0.4222 -0.2865 -0.4659
 3744SOL    HW222866   1.888   2.625   2.003 -1.3784  1.0035  1.9403
 3745SOL     OW22867   4.288   1.655   1.976 -0.1790  0.0453 -0.3694
 3745SOL    HW122868   4.266   1.577   1.924 -3.2971  0.3147  0.4873
 3745SOL    HW222869   4.196   1.682   1.987  0.6796  1.5735  3.1706
 3746SOL     OW22870   1.669   4.153  16.863  0.2692  0.7631  0.7585
 3746SOL    HW122871   1.659   4.090  16.792  0.8709  1.3614  0.1313
 3746SOL    HW222872   1.608   4.115  16.925 -0.9552 -0.5401 -1.2544
 3747SOL     OW22873   0.406   1.575   3.957 -0.7555 -0.1707 -0.1270
 3747SOL    HW122874   0.416   1.483   3.982  1.0438 -0.4376 -1.9073
 3747SOL    HW222875   0.464   1.570   3.882 -0.6171 -1.4002  0.0665
 3748SOL     OW22876   3.312   1.965   1.391 -0.0398  0.1096 -0.3123
 3748SOL    HW122877   3.404   1.938   1.393 -0.3010 -0.8606 -1.1879
 3748SOL    HW222878   3.282   1.900   1.454 -0.1321 -0.4279 -0.9067
 3749SOL     OW22879   3.847   4.566   7.771  0.2082  0.3217 -0.4026
 3749SOL    HW122880   3.833   4.521   7.855  0.1248  2.1119  0.5525
 3749SOL    HW222881   3.942   4.567   7.764  0.1800  0.2584 -0.7710
 3750SOL     OW22882   4.187   0.530   4.643 -0.5463  0.2817  0.0422
 3750SOL    HW122883   4.103   0.575   4.635 -0.8511  0.2840  3.0382
 3750SOL    HW222884   4.242   0.608   4.636 -1.1701  0.5253 -2.1079
 3751SOL     OW22885   1.575   2.360  11.652  0.4264 -0.1721  0.9611
 3751SOL    HW122886   1.650   2.385  11.597 -0.5757  1.9104  0.5555
 3751SOL    HW222887   1.500   2.373  11.593  1.5318  0.1924 -0.3645
 3752SOL     OW22888   0.489   0.916   5.617 -0.9081 -0.6982 -0.3677
 3752SOL    HW122889   0.572   0.942   5.577 -0.5073 -0.7212  0.4384
 3752SOL    HW222890   0.524   0.850   5.678 -0.8206 -2.0222 -1.8495
 3753SOL     OW22891   0.986   1.526  11.241  0.6671  0.2298 -0.1150
 3753SOL    HW122892   1.048   1.597  11.253 -0.1460  1.1551 -1.3786
 3753SOL    HW222893   1.019   1.480  11.164 -0.9594 -1.8885  0.4253
 3754SOL     OW22894   0.648   3.091  16.122  0.2368 -0.1673 -0.3256
 3754SOL    HW122895   0.573   3.048  16.163  0.3002  1.0558  1.0545
 3754SOL    HW222896   0.623   3.183  16.131  2.7456  0.5605 -0.5953
 3755SOL     OW22897   2.864   3.545   3.748 -0.0752  0.7622 -0.0288
 3755SOL    HW122898   2.904   3.586   3.671 -1.8537 -0.1597 -1.4431
 3755SOL    HW222899   2.780   3.583   3.723  0.1114  2.1946  1.5087
 3756SOL     OW22900   2.972   2.792   8.088 -0.2296  0.6722  0.2371
 3756SOL    HW122901   2.985   2.778   7.994  1.1691 -0.6903  0.6173
 3756SOL    HW222902   2.911   2.718   8.097  0.1878 -0.0348 -2.7855
 3757SOL     OW22903   1.174   3.218  15.609 -0.2432 -0.2213  0.9635
 3757SOL    HW122904   1.206   3.206  15.520 -0.0458  2.7624  0.6265
 3757SOL    HW222905   1.249   3.264  15.645  1.1555 -0.8229 -1.2398
 3758SOL     OW22906   1.671   1.998   4.515 -0.8363 -0.2746 -0.1922
 3758SOL    HW122907   1.722   1.938   4.461 -3.1239 -3.3573  1.0725
 3758SOL    HW222908   1.627   2.042   4.442  0.2848  0.2561 -0.5543
 3759SOL     OW22909   1.744   3.648   3.748 -0.4035 -0.0489 -0.3325
 3759SOL    HW122910   1.649   3.643   3.733 -0.5368 -0.0698  0.5043
 3759SOL    HW222911   1.762   3.726   3.696 -1.2633  0.0891 -0.4367
 3760SOL     OW22912   3.199   0.342  14.915  0.3418  0.1426  0.5155
 3760SOL    HW122913   3.123   0.400  14.920  1.4164  1.5367  0.6761
 3760SOL    HW222914   3.268   0.383  14.967  1.5480 -0.0056 -0.9718
 3761SOL     OW22915   0.268   2.443   7.834 -0.3576  0.3901  0.1411
 3761SOL    HW122916   0.294   2.368   7.781  0.5279  0.2770  0.7297
 3761SOL    HW222917   0.203   2.408   7.895  1.4152 -2.2631  0.5209
 3762SOL     OW22918   0.016   0.643   6.532 -0.5769 -0.3539 -0.5204
 3762SOL    HW122919   0.105   0.632   6.567 -0.5528  2.2394  0.2389
 3762SOL    HW222920   0.038   0.645   6.439 -1.0025 -4.6248 -0.7483
 3763SOL     OW22921   4.632   1.034   5.081  0.1196 -0.1082 -0.6282
 3763SOL    HW122922   4.689   1.005   5.152  0.1653 -1.0490 -1.0474
 3763SOL    HW222923   4.646   0.970   5.011 -3.3989  1.4714 -2.7679
 3764SOL     OW22924   4.352   3.943   6.462 -0.1199  0.2407  0.0834
 3764SOL    HW122925   4.411   3.992   6.520  3.4193 -3.5789 -0.3010
 3764SOL    HW222926   4.281   3.930   6.525 -0.3217  1.6610  0.1571
 3765SOL     OW22927   4.196   3.823  10.366  0.1739  0.2366  0.3856
 3765SOL    HW122928   4.242   3.750  10.325  0.0124  0.2200  0.2336
 3765SOL    HW222929   4.152   3.880  10.303  0.0098 -0.4567 -0.1384
 3766SOL     OW22930   2.793   2.270   3.568 -0.5363  0.2455  0.4469
 3766SOL    HW122931   2.776   2.343   3.507  4.3387  0.4941 -0.6085
 3766SOL    HW222932   2.884   2.243   3.553 -1.0717 -0.5262 -1.4511
 3767SOL     OW22933   2.527   1.528   6.468  0.1504 -0.2688 -0.5293
 3767SOL    HW122934   2.583   1.591   6.514  1.4671 -0.0233 -2.4610
 3767SOL    HW222935   2.586   1.493   6.401  3.1611  2.1052  0.8850
 3768SOL     OW22936   0.059   0.889   2.338  0.7859 -0.6822 -0.1489
 3768SOL    HW122937   0.075   0.965   2.282 -0.0631  0.4247  1.1131
 3768SOL    HW222938   0.040   0.933   2.421  1.4901 -0.3193 -0.1803
 3769SOL     OW22939   1.856   3.099   1.084 -0.7790 -0.4164 -0.5748
 3769SOL    HW122940   1.906   3.087   1.003 -2.2871 -0.8469 -1.4322
 3769SOL    HW222941   1.866   3.194   1.091 -0.3841 -0.3531 -1.8351
 3770SOL     OW22942   1.485   3.499   4.590 -0.4685 -0.0316 -0.4655
 3770SOL    HW122943   1.425   3.429   4.565  0.1567 -0.7017 -0.0730
 3770SOL    HW222944   1.423   3.570   4.571 -1.0784 -0.2156  0.8166
 3771SOL     OW22945   1.050   2.315   3.376 -0.0476 -0.1274 -0.2297
 3771SOL    HW122946   0.971   2.362   3.349 -0.8725 -1.8570 -0.8274
 3771SOL    HW222947   1.023   2.224   3.359  1.3932 -0.1590 -2.3317
 3772SOL     OW22948   2.513   0.668   0.695  0.3256 -0.1835  0.4369
 3772SOL    HW122949   2.544   0.732   0.760  0.6316  1.5756 -1.4376
 3772SOL    HW222950   2.423   0.701   0.691  1.3981  2.4142 -2.1402
 3773SOL     OW22951   1.828   0.033   1.838  0.0436 -0.3077  0.2321
 3773SOL    HW122952   1.808   0.126   1.831  1.5921 -0.0265 -0.6395
 3773SOL    HW222953   1.852   0.007   1.749 -1.2920  1.7358 -0.6990
 3774SOL     OW22954   1.421   0.948   8.795 -0.0588 -0.4304 -0.1620
 3774SOL    HW122955   1.371   0.935   8.715  0.3384 -0.1552 -0.4526
 3774SOL    HW222956   1.357   0.917   8.859  0.7113 -1.6258  0.0224
 3775SOL     OW22957   0.204   4.639   5.789  0.0983  0.2287  0.2917
 3775SOL    HW122958   0.132   4.701   5.776 -0.5953 -1.1960 -2.5352
 3775SOL    HW222959   0.197   4.614   5.881 -2.5778  0.7839  0.2422
 3776SOL     OW22960   2.356   4.023   6.607  0.2446 -0.2038  0.0391
 3776SOL    HW122961   2.402   4.081   6.668  0.2158 -1.6452  1.4221
 3776SOL    HW222962   2.401   3.940   6.622 -0.7274 -0.9088 -0.9908
 3777SOL     OW22963   0.439   0.240   8.792  0.7175 -0.2853 -0.2828
 3777SOL    HW122964   0.531   0.216   8.794  0.0570 -2.7758 -0.1780
 3777SOL    HW222965   0.416   0.242   8.885  0.7336  3.8750 -0.3682
 3778SOL     OW22966   2.070   1.926   2.671  0.2721 -0.1571  0.2382
 3778SOL    HW122967   2.109   2.013   2.682 -0.4398  0.2535 -0.5184
 3778SOL    HW222968   2.092   1.880   2.752 -1.0275  0.7792  1.1212
 3779SOL     OW22969   2.426   1.726   7.068  0.2566  0.2349  0.4942
 3779SOL    HW122970   2.333   1.746   7.070  0.5979  1.7045  1.7651
 3779SOL    HW222971   2.440   1.635   7.041 -1.6871  0.0044  0.2644
 3780SOL     OW22972   2.994   2.278   9.123  0.2247 -0.4123 -0.4207
 3780SOL    HW122973   2.967   2.350   9.066  0.0532 -1.8101 -2.1138
 3780SOL    HW222974   2.911   2.234   9.143  0.5444 -0.8583 -0.1121
 3781SOL     OW22975   1.257   3.994   7.709  0.3545 -0.5225 -0.2499
 3781SOL    HW122976   1.338   4.042   7.697  0.7844 -1.2494 -0.2779
 3781SOL    HW222977   1.211   4.005   7.626 -0.7828 -1.1311  0.2979
 3782SOL     OW22978   1.594   4.136  15.810  0.4077 -0.1221  0.4653
 3782SOL    HW122979   1.688   4.147  15.801 -0.1548  3.5706 -1.0695
 3782SOL    HW222980   1.586   4.156  15.904  0.9447  1.2713  0.2161
 3783SOL     OW22981   4.724   4.406   7.211  0.2634 -0.0857 -0.3527
 3783SOL    HW122982   4.639   4.440   7.240 -0.4913 -1.9431 -0.3708
 3783SOL    HW222983   0.021   4.472   7.150 -0.6053 -0.2313 -0.9791
 3784SOL     OW22984   3.226   2.433   8.733  0.0750  0.1805 -0.2218
 3784SOL    HW122985   3.290   2.378   8.778 -0.8739 -1.4980 -0.9296
 3784SOL    HW222986   3.227   2.388   8.648  0.3869 -0.9493  0.3923
 3785SOL     OW22987   4.263   0.114   8.583  0.6668  0.3258 -0.1405
 3785SOL    HW122988   4.283   0.099   8.676 -0.8229 -0.8390  0.0070
 3785SOL    HW222989   4.258   0.021   8.560 -1.3322  0.0137  1.5272
 3786SOL     OW22990   2.147   1.838   5.076 -0.0400 -0.1620 -0.3781
 3786SOL    HW122991   2.107   1.879   5.000 -0.9320  1.5826  1.0142
 3786SOL    HW222992   2.175   1.754   5.039  0.6148 -0.1877  0.1695
 3787SOL     OW22993   4.222   1.223  14.383 -0.6091 -0.0119  0.4070
 3787SOL    HW122994   4.162   1.297  14.391 -2.2138 -1.2838  0.1309
 3787SOL    HW222995   4.299   1.261  14.341 -1.7873  1.9167  0.0275
 3788SOL     OW22996   3.551   2.085  11.801  0.3144  0.2883 -0.6245
 3788SOL    HW122997   3.528   2.174  11.829 -1.2741 -0.1212 -0.6150
 3788SOL    HW222998   3.473   2.047  11.761 -0.9521  0.6098  1.5443
 3789SOL     OW22999   0.896   2.145   2.683 -0.2831  0.2039  0.2094
 3789SOL    HW123000   0.987   2.159   2.655  0.4196 -3.1317  0.7965
 3789SOL    HW223001   0.893   2.214   2.750 -0.2065  0.5852 -0.1756
 3790SOL     OW23002   2.995   1.789  10.792  0.2977 -0.4874 -0.3408
 3790SOL    HW123003   2.921   1.851  10.788  2.0914  1.6175 -0.7228
 3790SOL    HW223004   3.008   1.803  10.885 -0.2802  0.3513 -0.3810
 3791SOL     OW23005   0.435   0.386   7.673 -0.5154  0.3159 -0.2352
 3791SOL    HW123006   0.408   0.298   7.648 -0.3936  0.2091  0.0125
 3791SOL    HW223007   0.497   0.413   7.605  0.7141 -1.1069  0.3334
 3792SOL     OW23008   2.573   0.370  17.271 -0.6218 -0.2720  0.0284
 3792SOL    HW123009   2.508   0.377  17.341 -0.5469 -0.3678  0.1079
 3792SOL    HW223010   2.529   0.330  17.196  1.5147  0.3615 -1.5770
 3793SOL     OW23011   1.790   2.040   7.255  0.0403  0.5002 -0.1961
 3793SOL    HW123012   1.775   1.950   7.226 -0.9451  0.9071 -0.9313
 3793SOL    HW223013   1.809   2.024   7.348  0.8693  2.8536  0.0231
 3794SOL     OW23014   2.351   4.317   8.493  0.8562  0.3055  0.0421
 3794SOL    HW123015   2.316   4.376   8.559 -0.8517 -0.1745 -0.4466
 3794SOL    HW223016   2.294   4.339   8.419 -2.0737 -2.4237  1.4986
 3795SOL     OW23017   3.027   1.792   2.635 -0.0587  0.0095  0.1730
 3795SOL    HW123018   3.018   1.751   2.721 -2.5856 -1.1535 -0.6430
 3795SOL    HW223019   2.991   1.723   2.580 -2.0751 -0.1338  1.6475
 3796SOL     OW23020   3.978   1.595  11.814  0.6029  0.1934  0.1151
 3796SOL    HW123021   4.007   1.549  11.893 -0.4447  0.6672  0.7771
 3796SOL    HW223022   3.886   1.612  11.834  1.2496  2.0894  1.4527
 3797SOL     OW23023   4.235   1.625   5.902  0.6536  0.6284 -0.7230
 3797SOL    HW123024   4.305   1.629   5.966  0.8546  0.0588 -0.9143
 3797SOL    HW223025   4.196   1.712   5.910 -2.3411 -0.5934 -1.8376
 3798SOL     OW23026   3.846   1.317   3.800 -0.4875 -0.0000 -0.5299
 3798SOL    HW123027   3.829   1.282   3.713  0.8645 -1.2074 -0.3162
 3798SOL    HW223028   3.756   1.320   3.832 -1.2086  0.6008 -2.6035
 3799SOL     OW23029   4.648   2.854   7.339  0.0445  0.4902  0.0408
 3799SOL    HW123030   0.002   2.825   7.350 -0.7454 -1.5803  1.1021
 3799SOL    HW223031   4.620   2.767   7.311  1.0994 -0.7625  2.8135
 3800SOL     OW23032   4.575   3.613   7.957  0.4240 -0.5416 -0.2615
 3800SOL    HW123033   4.502   3.561   7.990  0.7727  0.3519  1.9603
 3800SOL    HW223034   4.653   3.578   7.998 -0.2705 -0.2149  1.3471
 3801SOL     OW23035   4.580   2.682   8.931 -0.0182  0.4707  0.3650
 3801SOL    HW123036   4.537   2.686   9.016 -0.5822  0.8820  0.0590
 3801SOL    HW223037   4.653   2.621   8.941  0.4666  1.2635  1.5923
 3802SOL     OW23038   1.201   0.237  12.900  0.4114  0.0246 -0.2178
 3802SOL    HW123039   1.150   0.251  12.820 -1.1392 -1.6815  0.4776
 3802SOL    HW223040   1.249   0.320  12.906 -0.1091  0.4463 -1.7191
 3803SOL     OW23041   4.130   4.502   9.564  0.2822  0.4276 -0.1967
 3803SOL    HW123042   4.189   4.528   9.493  1.4147  0.5954  0.7960
 3803SOL    HW223043   4.150   4.411   9.583 -0.8487  0.0987 -0.5622
 3804SOL     OW23044   1.163   0.873   9.171 -0.1007  0.0982 -0.4693
 3804SOL    HW123045   1.147   0.810   9.242  0.7942  0.1706 -0.2051
 3804SOL    HW223046   1.256   0.857   9.155 -0.3568 -0.5350 -1.3879
 3805SOL     OW23047   2.883   0.698  11.992 -0.4172 -0.2162  0.5991
 3805SOL    HW123048   2.817   0.629  12.006 -1.2334  0.4617  0.1460
 3805SOL    HW223049   2.909   0.706  12.083 -1.4031  1.1816  0.7573
 3806SOL     OW23050   4.657   0.842   8.173  0.3121  0.0262 -0.0734
 3806SOL    HW123051   4.689   0.772   8.229 -0.2341 -1.0605 -1.1243
 3806SOL    HW223052   4.563   0.833   8.186 -0.1375  2.1599 -1.7135
 3807SOL     OW23053   3.353   0.215   7.711  0.2479 -0.1839  0.0819
 3807SOL    HW123054   3.329   0.147   7.774 -1.9658  2.3657  1.9667
 3807SOL    HW223055   3.381   0.287   7.768  0.0666  1.5468 -2.0326
 3808SOL     OW23056   0.960   3.375   5.737  0.1569  0.1981 -0.4629
 3808SOL    HW123057   0.939   3.400   5.647 -0.7840  2.0257  0.2826
 3808SOL    HW223058   0.915   3.291   5.741 -1.9784  1.5139  2.6085
 3809SOL     OW23059   1.582   2.425   4.083  0.2270  0.1122  0.0859
 3809SOL    HW123060   1.587   2.402   4.176  0.5698 -1.3196 -0.2747
 3809SOL    HW223061   1.498   2.469   4.075  0.1262  0.2919  2.2259
 3810SOL     OW23062   0.772   4.249  14.928 -0.4192  0.1205  0.3127
 3810SOL    HW123063   0.723   4.313  14.876 -1.8670 -0.5033  0.8869
 3810SOL    HW223064   0.832   4.213  14.863 -0.1530 -0.3859  0.8428
 3811SOL     OW23065   0.880   3.905   2.370  0.0541 -0.2526 -0.0646
 3811SOL    HW123066   0.953   3.847   2.389  1.8674  1.8637 -0.5952
 3811SOL    HW223067   0.918   3.957   2.299 -0.3731 -1.5858 -1.2648
 3812SOL     OW23068   0.634   3.503   5.045 -0.2374 -0.7699  0.0076
 3812SOL    HW123069   0.656   3.410   5.044 -1.0563 -0.9636 -0.5089
 3812SOL    HW223070   0.711   3.536   5.091 -1.4727  0.6909  1.0023
 3813SOL     OW23071   1.866   2.673   4.194 -0.0538  0.2812 -0.8987
 3813SOL    HW123072   1.939   2.698   4.250 -0.3264 -0.3128 -0.2838
 3813SOL    HW223073   1.859   2.749   4.135 -2.4698  1.3724  0.7627
 3814SOL     OW23074   3.281   2.327  15.124  0.6472  0.4005 -0.2280
 3814SOL    HW123075   3.330   2.244  15.120  0.9730  0.5640  0.3177
 3814SOL    HW223076   3.217   2.311  15.193  3.4115  0.9088  2.4896
 3815SOL     OW23077   4.180   2.805   9.276 -0.4883 -0.3425 -0.2466
 3815SOL    HW123078   4.127   2.781   9.352  1.7293  0.6029  1.6082
 3815SOL    HW223079   4.158   2.753   9.199 -0.3374  0.1881 -0.6477
 3816SOL     OW23080   1.768   2.909   4.697  0.4988 -0.2253 -0.1400
 3816SOL    HW123081   1.828   2.884   4.767 -0.4792 -2.6771 -0.1804
 3816SOL    HW223082   1.835   2.919   4.630 -0.0580  1.7228 -0.4109
 3817SOL     OW23083   1.699   2.070   5.641  0.4922 -0.1734 -0.4269
 3817SOL    HW123084   1.718   2.118   5.560 -1.5965  1.0054 -0.2093
 3817SOL    HW223085   1.671   2.145   5.693  1.0257  1.6025 -2.6762
 3818SOL     OW23086   3.363   1.775  16.959 -0.2846  0.4354 -0.4579
 3818SOL    HW123087   3.326   1.863  16.963  0.9698  0.9636 -0.2699
 3818SOL    HW223088   3.438   1.795  16.902  0.5836 -0.8752  0.2313
 3819SOL     OW23089   4.230   3.295   2.878  0.3411 -0.7427  0.0338
 3819SOL    HW123090   4.198   3.385   2.888  2.7307 -0.3282  3.6140
 3819SOL    HW223091   4.221   3.280   2.784 -0.0735 -4.5451  0.6897
 3820SOL     OW23092   1.072   0.045   1.036 -0.2394  0.2954 -0.1739
 3820SOL    HW123093   1.010   0.109   1.001 -0.1349  0.3705 -0.2229
 3820SOL    HW223094   1.063   4.708   0.975  2.7033  1.2231 -1.7538
 3821SOL     OW23095   0.505   2.654   4.325  0.3666  0.1949  0.4897
 3821SOL    HW123096   0.441   2.614   4.384  0.9752 -0.8830  0.4183
 3821SOL    HW223097   0.445   2.708   4.273 -0.6051 -1.2454  0.1319
 3822SOL     OW23098   3.945   3.016   3.337  0.0447 -0.1166 -0.0111
 3822SOL    HW123099   3.853   3.016   3.312 -0.2922 -0.0710  1.2479
 3822SOL    HW223100   3.984   2.985   3.255 -0.8171  0.0541 -0.4862
 3823SOL     OW23101   2.533   2.259   0.967 -0.4426 -0.1811  0.1307
 3823SOL    HW123102   2.615   2.308   0.976 -2.3443  2.5105  2.6094
 3823SOL    HW223103   2.499   2.286   0.881 -0.1883 -0.6331 -0.1120
 3824SOL     OW23104   4.495   1.551   0.934  0.1255  1.3909  0.2748
 3824SOL    HW123105   4.444   1.590   0.863 -1.6148 -0.3453  0.5755
 3824SOL    HW223106   4.466   1.604   1.009 -1.5133 -0.2773  0.8149
 3825SOL     OW23107   4.394   2.116   5.342  0.0141  0.4532  0.1243
 3825SOL    HW123108   4.426   2.124   5.252 -1.6825  4.0017 -0.1383
 3825SOL    HW223109   4.313   2.069   5.322  0.6286  0.2510 -1.9472
 3826SOL     OW23110   0.996   4.243   1.533  0.4140  0.8914  0.0562
 3826SOL    HW123111   0.908   4.259   1.498  0.3892  0.1787 -0.2040
 3826SOL    HW223112   0.998   4.148   1.543 -0.3442  1.0152  1.5108
 3827SOL     OW23113   1.009   3.647   6.543 -0.0815  0.3202  0.3119
 3827SOL    HW123114   1.073   3.673   6.477  0.4460 -0.6401  0.4371
 3827SOL    HW223115   0.936   3.616   6.491  1.1104 -2.0372  0.0446
 3828SOL     OW23116   0.168   0.174   5.416  0.6204 -0.0930 -0.1385
 3828SOL    HW123117   0.095   0.112   5.418  0.8452 -0.3532  0.0492
 3828SOL    HW223118   0.175   0.172   5.320  0.9421 -1.9701 -0.0754
 3829SOL     OW23119   4.296   0.629  12.788 -0.1527  0.4375  0.7948
 3829SOL    HW123120   4.300   0.597  12.878  0.1675 -2.2569 -0.1577
 3829SOL    HW223121   4.201   0.629  12.783 -0.1203  2.3075  0.4750
 3830SOL     OW23122   0.047   0.009   9.333 -0.1272 -0.0249 -0.3705
 3830SOL    HW123123   0.138   0.035   9.347 -0.1833 -0.7705  1.3536
 3830SOL    HW223124   0.046   4.683   9.260 -2.2740  0.9092 -1.1417
 3831SOL     OW23125   0.421   2.173   2.553 -0.2641  0.3657  0.4808
 3831SOL    HW123126   0.347   2.114   2.541 -0.9228  1.2513  0.1486
 3831SOL    HW223127   0.476   2.139   2.482 -1.3402 -1.1795  0.3969
 3832SOL     OW23128   3.076   2.323   1.886  0.0897  0.2980  0.6272
 3832SOL    HW123129   3.154   2.379   1.895  0.3308 -0.2671  1.9508
 3832SOL    HW223130   3.007   2.389   1.896 -1.0710 -0.5783 -1.4853
 3833SOL     OW23131   3.020   4.246  13.821 -0.4692  0.7137 -0.6615
 3833SOL    HW123132   2.974   4.264  13.903  1.5955  2.5197  0.0973
 3833SOL    HW223133   3.003   4.152  13.812 -2.6631  1.2294 -2.1049
 3834SOL     OW23134   1.369   2.721   4.773 -0.1935 -0.1529  0.6062
 3834SOL    HW123135   1.417   2.794   4.812 -1.0649  0.5115  0.4275
 3834SOL    HW223136   1.361   2.750   4.682 -1.4372 -2.9392 -0.1745
 3835SOL     OW23137   4.502   0.399  13.696  1.3756  1.2609 -0.3313
 3835SOL    HW123138   4.577   0.358  13.740 -0.8500 -0.1739  2.1230
 3835SOL    HW223139   4.469   0.329  13.640  2.5234  0.1729  0.3494
 3836SOL     OW23140   3.135   1.053  15.620 -0.1755  0.4528  0.2381
 3836SOL    HW123141   3.061   1.022  15.569 -1.7129  0.8038  2.2559
 3836SOL    HW223142   3.113   1.002  15.698 -2.1001  0.7226 -0.1193
 3837SOL     OW23143   2.663   1.334   3.802  0.3656  0.0382  1.0606
 3837SOL    HW123144   2.658   1.423   3.837 -0.9310  0.4199 -0.1032
 3837SOL    HW223145   2.672   1.293   3.889  0.1765 -0.8283  0.6729
 3838SOL     OW23146   1.220   3.505   9.761 -0.8317  0.1945 -0.2284
 3838SOL    HW123147   1.288   3.472   9.702 -1.5126 -2.3302  0.4007
 3838SOL    HW223148   1.230   3.593   9.798  2.2051  0.2728 -1.2267
 3839SOL     OW23149   4.032   1.151  16.126  0.1184  0.1159  0.0805
 3839SOL    HW123150   3.953   1.204  16.113 -0.0402 -0.4172 -1.1156
 3839SOL    HW223151   4.098   1.210  16.090 -0.5422  1.0121  0.3272
 3840SOL     OW23152   3.748   2.166   9.846  0.3908 -0.3605  0.3182
 3840SOL    HW123153   3.770   2.073   9.842  1.4563 -0.2401  3.7359
 3840SOL    HW223154   3.658   2.171   9.814  0.0750  0.8397  1.4068
 3841SOL     OW23155   2.709   2.841   8.711 -0.3195  1.0474  0.2234
 3841SOL    HW123156   2.673   2.864   8.797  1.0767  1.0684  0.7931
 3841SOL    HW223157   2.723   2.930   8.679  0.1422  0.6953 -0.5426
 3842SOL     OW23158   3.936   0.030  10.607  1.0820 -0.5096 -0.1697
 3842SOL    HW123159   3.865   0.002  10.665 -0.6635 -2.2156 -3.0703
 3842SOL    HW223160   3.879   0.064  10.537 -0.5638 -0.7853  1.0286
 3843SOL     OW23161   2.249   4.301   3.447 -0.1546  0.1333 -0.1395
 3843SOL    HW123162   2.317   4.246   3.486  0.7302  1.2386 -0.1050
 3843SOL    HW223163   2.162   4.271   3.474  0.4500 -1.1768  0.3829
 3844SOL     OW23164   0.692   1.850  16.741  0.0565 -0.3531  0.9656
 3844SOL    HW123165   0.621   1.894  16.694  1.5411  1.4212  0.3847
 3844SOL    HW223166   0.728   1.913  16.804  0.7224  0.8699 -0.6237
 3845SOL     OW23167   4.636   2.515   1.403 -0.5261  0.1355 -0.8283
 3845SOL    HW123168   4.549   2.549   1.382  0.5373  1.1232 -3.6518
 3845SOL    HW223169   4.677   2.596   1.431 -0.9494 -1.0380  3.1126
 3846SOL     OW23170   2.170   3.394   0.663 -0.1629  0.3267  0.1183
 3846SOL    HW123171   2.115   3.395   0.585 -0.2337  0.2404  0.1676
 3846SOL    HW223172   2.115   3.448   0.720 -2.3116  0.5317 -2.1407
 3847SOL     OW23173   2.753   3.965  16.746 -0.3042  0.0210  0.1507
 3847SOL    HW123174   2.798   4.024  16.807 -1.6310  1.6615 -0.4413
 3847SOL    HW223175   2.793   3.883  16.775 -0.6560 -0.8232 -1.7797
 3848SOL     OW23176   2.597   3.157   0.790 -0.1979 -0.7564 -0.1000
 3848SOL    HW123177   2.614   3.088   0.726  2.0498  0.1791 -0.4997
 3848SOL    HW223178   2.502   3.163   0.784 -0.0880  1.9456  0.5940
 3849SOL     OW23179   3.003   3.968  13.811  0.1023  0.6732 -0.5526
 3849SOL    HW123180   2.983   3.876  13.825 -1.2582  0.9238 -0.8570
 3849SOL    HW223181   3.076   3.953  13.752  0.0437  0.6084 -0.6075
 3850SOL     OW23182   3.783   4.305   8.857 -0.7214 -0.1347 -0.2686
 3850SOL    HW123183   3.695   4.318   8.821 -0.2342  1.2388 -0.9590
 3850SOL    HW223184   3.772   4.296   8.951  0.5412  0.4029 -0.0771
 3851SOL     OW23185   1.764   3.253   7.781  0.3225  0.3981 -0.5138
 3851SOL    HW123186   1.779   3.340   7.746 -0.3851  1.4243  1.7083
 3851SOL    HW223187   1.843   3.209   7.749  1.0801  0.5817  1.1115
 3852SOL     OW23188   2.609   2.514  15.807  0.1385  0.0461 -0.1827
 3852SOL    HW123189   2.529   2.503  15.859 -0.7326 -1.9486 -1.9301
 3852SOL    HW223190   2.584   2.458  15.734  1.2970 -0.7471  0.0227
 3853SOL     OW23191   1.720   0.261   5.034 -0.1520 -0.0907  0.0575
 3853SOL    HW123192   1.810   0.259   5.066 -0.3882  0.3886  0.7426
 3853SOL    HW223193   1.721   0.355   5.015 -0.4931  0.2652  1.8544
 3854SOL     OW23194   0.563   0.834   8.087 -0.3151 -0.0112 -0.1747
 3854SOL    HW123195   0.593   0.743   8.082 -2.2022 -0.6591  0.1221
 3854SOL    HW223196   0.556   0.834   8.183  2.0955  0.0482  0.0067
 3855SOL     OW23197   0.023   2.727   2.871 -0.4731 -0.0010  0.1349
 3855SOL    HW123198   0.013   2.671   2.948  0.4135 -1.3015 -0.6865
 3855SOL    HW223199   4.734   2.656   2.811 -0.1255 -0.5347  0.6318
 3856SOL     OW23200   2.627   4.112   2.665 -0.0299  0.3689 -0.0270
 3856SOL    HW123201   2.714   4.100   2.626 -0.4015 -3.7685  0.4074
 3856SOL    HW223202   2.608   4.024   2.697 -2.0455  1.4502  1.6833
 3857SOL     OW23203   0.949   2.750  16.182 -0.2379  0.9098  0.2808
 3857SOL    HW123204   0.949   2.805  16.104  0.1891 -1.5677 -1.4474
 3857SOL    HW223205   0.875   2.782  16.234 -0.7143 -1.5723  1.1221
 3858SOL     OW23206   3.480   3.928   2.949 -0.0639  0.1216 -0.4807
 3858SOL    HW123207   3.552   3.923   3.012  1.1789  1.1293 -1.8196
 3858SOL    HW223208   3.513   3.869   2.881  1.2323  3.0592 -2.3897
 3859SOL     OW23209   4.236   3.137  13.730  0.2689 -0.1313  0.1352
 3859SOL    HW123210   4.256   3.043  13.728 -2.7032 -0.6775 -3.5280
 3859SOL    HW223211   4.242   3.145  13.635 -2.5802 -0.6723 -0.0967
 3860SOL     OW23212   2.086   0.484   4.096  0.1180  0.0597 -0.0113
 3860SOL    HW123213   2.157   0.429   4.062 -0.1840  0.4757 -1.3100
 3860SOL    HW223214   2.008   0.433   4.072  0.1320 -0.4887  1.0780
 3861SOL     OW23215   0.922   1.952   8.655 -0.3146  0.1527  0.1277
 3861SOL    HW123216   0.909   2.024   8.594  1.3122 -0.0036 -0.3913
 3861SOL    HW223217   0.862   1.977   8.726 -0.2732  0.0305  0.2066
 3862SOL     OW23218   3.849   3.252   1.822 -0.7381  0.5876  0.1181
 3862SOL    HW123219   3.811   3.233   1.736 -0.2174  0.0210  0.0123
 3862SOL    HW223220   3.915   3.320   1.808 -0.0011 -0.3266 -0.8504
 3863SOL     OW23221   4.571   1.075   8.267  0.2078  0.0938  0.2145
 3863SOL    HW123222   4.627   1.000   8.247  0.1797 -0.3222  1.6757
 3863SOL    HW223223   4.631   1.109   8.334 -0.8085  1.5836  0.3867
 3864SOL     OW23224   1.628   1.226   1.619  0.0107  0.3207  0.5347
 3864SOL    HW123225   1.565   1.167   1.661  0.4994 -1.3516 -1.0543
 3864SOL    HW223226   1.567   1.280   1.569  1.0708 -0.7259 -1.8999
 3865SOL     OW23227   1.913   1.867  15.784  0.2244 -0.0318  0.8400
 3865SOL    HW123228   1.994   1.911  15.808  2.2776 -2.5460 -1.4625
 3865SOL    HW223229   1.883   1.825  15.865  2.2232  0.9505  2.0915
 3866SOL     OW23230   2.763   4.481  13.891 -0.1479  0.1139 -0.1053
 3866SOL    HW123231   2.789   4.462  13.801 -1.3906 -0.3801 -0.3645
 3866SOL    HW223232   2.789   4.402  13.939 -0.0733 -0.3177 -0.8683
 3867SOL     OW23233   3.121   1.966   9.169 -0.3831  0.0719  0.0246
 3867SOL    HW123234   3.138   1.915   9.248 -0.5602  0.5828  0.3938
 3867SOL    HW223235   3.079   1.903   9.110  0.2408  0.2396 -0.5898
 3868SOL     OW23236   3.215   2.628   5.418  0.5305  0.6347  0.1297
 3868SOL    HW123237   3.154   2.588   5.479  0.9714 -1.6340 -0.9231
 3868SOL    HW223238   3.161   2.623   5.339  0.3176  1.8062  0.2044
 3869SOL     OW23239   3.758   0.515  14.162  0.5681  0.1041  0.1809
 3869SOL    HW123240   3.817   0.455  14.207 -0.0761  0.8760  2.0382
 3869SOL    HW223241   3.822   0.564  14.111 -0.2404 -0.3280 -1.2808
 3870SOL     OW23242   1.140   0.419  13.905  0.1204  0.0597 -0.4213
 3870SOL    HW123243   1.049   0.443  13.887 -0.0124 -1.3484 -1.6056
 3870SOL    HW223244   1.135   0.410  14.000 -2.3708  3.2289 -0.2661
 3871SOL     OW23245   2.129   3.414   6.589  0.0261  0.4467  0.1219
 3871SOL    HW123246   2.063   3.393   6.654 -1.3271  0.3617 -1.2727
 3871SOL    HW223247   2.143   3.331   6.544 -1.9750 -1.2621  2.6709
 3872SOL     OW23248   0.968   1.344   3.749 -0.0745  0.2060 -0.3851
 3872SOL    HW123249   0.879   1.309   3.749 -1.0124  2.5748  0.5229
 3872SOL    HW223250   0.962   1.431   3.788  0.0620  0.3015 -0.5776
 3873SOL     OW23251   3.215   0.108   9.731  0.0144 -0.2113 -0.3766
 3873SOL    HW123252   3.233   0.048   9.658  0.3028  0.5689 -0.9400
 3873SOL    HW223253   3.185   0.055   9.805 -0.0743  1.9905  1.1289
 3874SOL     OW23254   3.326   0.192   8.455 -0.2625  0.3800  0.1849
 3874SOL    HW123255   3.246   0.225   8.415  1.2123  0.8094 -2.4116
 3874SOL    HW223256   3.334   0.249   8.532 -0.0883  0.1940  0.3025
 3875SOL     OW23257   0.252   3.013  14.209 -0.2899 -0.0146  0.3875
 3875SOL    HW123258   0.262   2.927  14.249  0.4235  1.0013  2.4526
 3875SOL    HW223259   0.206   3.000  14.127  2.5893 -1.2702 -1.0297
 3876SOL     OW23260   2.458   2.768   2.621 -0.2762 -0.4136 -0.2861
 3876SOL    HW123261   2.423   2.680   2.635  0.0037 -0.4763  0.0369
 3876SOL    HW223262   2.400   2.795   2.549  0.0717 -0.2020 -0.4845
 3877SOL     OW23263   4.265   0.820   8.538  0.4246 -0.6309 -0.2309
 3877SOL    HW123264   4.248   0.914   8.541 -1.3535 -0.8985 -1.3795
 3877SOL    HW223265   4.360   0.813   8.531  0.2471 -0.7548 -2.6367
 3878SOL     OW23266   1.642   1.631   2.359  0.4969 -0.6803  0.1809
 3878SOL    HW123267   1.651   1.656   2.267 -0.8043 -1.8005 -0.2427
 3878SOL    HW223268   1.707   1.561   2.364  0.1270 -1.0883 -0.7713
 3879SOL     OW23269   1.392   3.127   3.822 -0.4166  0.0583  0.1112
 3879SOL    HW123270   1.351   3.089   3.900 -1.9307  0.1790 -0.6456
 3879SOL    HW223271   1.430   3.206   3.861 -0.1818 -0.6452  1.3206
 3880SOL     OW23272   4.090   4.025   5.149 -0.0856 -0.2842 -0.3491
 3880SOL    HW123273   3.996   4.030   5.167  0.5718  2.6648  2.2664
 3880SOL    HW223274   4.093   3.932   5.129  0.8580 -0.5029  0.8288
 3881SOL     OW23275   0.401   0.873   5.218  0.1641 -0.0343 -0.3482
 3881SOL    HW123276   0.316   0.864   5.176  0.5027  1.5473 -1.3778
 3881SOL    HW223277   0.399   0.962   5.254 -2.6436  0.3844 -1.5685
 3882SOL     OW23278   3.119   3.517  12.412 -0.6442  0.6784  0.3711
 3882SOL    HW123279   3.034   3.474  12.425  0.7168 -2.1789 -0.1592
 3882SOL    HW223280   3.157   3.482  12.492  1.2464 -1.0143 -1.2523
 3883SOL     OW23281   0.208   0.547   2.689  0.1428 -0.6438  0.0469
 3883SOL    HW123282   0.178   0.557   2.599  1.4675 -0.7123 -0.3872
 3883SOL    HW223283   0.281   0.608   2.700 -1.1288  1.2546 -2.0609
 3884SOL     OW23284   2.680   0.043  10.460 -0.0597 -0.5633  0.7090
 3884SOL    HW123285   2.600   4.734  10.434 -0.1361  0.0362 -0.1157
 3884SOL    HW223286   2.669   0.131  10.422 -0.1815 -1.2227 -0.8016
 3885SOL     OW23287   3.432   3.796  14.568 -0.3568  0.2125  0.4143
 3885SOL    HW123288   3.356   3.792  14.509  1.0671  2.1183 -1.5431
 3885SOL    HW223289   3.498   3.787  14.498  0.4606  0.4362  1.1596
 3886SOL     OW23290   3.260   3.894   3.409  0.0234 -0.0099 -0.2522
 3886SOL    HW123291   3.241   3.920   3.319 -1.1724  0.5930  0.1726
 3886SOL    HW223292   3.248   3.975   3.460  2.2015  0.6299 -0.7571
 3887SOL     OW23293   0.303   0.844   8.005  0.1043  0.0327 -0.2707
 3887SOL    HW123294   0.292   0.750   7.990  1.5602  0.2399 -2.7789
 3887SOL    HW223295   0.398   0.852   7.999  0.0402 -0.2453 -1.6673
 3888SOL     OW23296   1.212   4.507   4.673 -0.7621  0.0273 -0.1160
 3888SOL    HW123297   1.156   4.530   4.747 -0.1811 -0.3722  0.4582
 3888SOL    HW223298   1.218   4.591   4.628  0.0920 -0.8748 -1.6667
 3889SOL     OW23299   2.286   4.613  14.123  0.1878  0.4729 -0.1928
 3889SOL    HW123300   2.257   4.699  14.153 -2.0933 -0.2242 -0.3760
 3889SOL    HW223301   2.380   4.624  14.137 -0.2276  2.1401  1.2410
 3890SOL     OW23302   0.122   2.266  13.053  0.0598 -0.4185  0.1520
 3890SOL    HW123303   0.140   2.315  12.973 -2.3464 -1.3259 -0.9711
 3890SOL    HW223304   0.155   2.328  13.118 -0.6513  0.9818 -0.8179
 3891SOL     OW23305   2.995   3.951   7.389  0.4560  0.8715 -0.2611
 3891SOL    HW123306   3.054   3.908   7.327  0.3847 -1.3459  1.1910
 3891SOL    HW223307   2.958   3.879   7.439  0.3279 -0.7168 -2.6477
 3892SOL     OW23308   3.890   3.806   5.228 -0.3374 -0.0329  0.4598
 3892SOL    HW123309   3.837   3.728   5.221 -1.5805  1.0701 -2.1582
 3892SOL    HW223310   3.835   3.862   5.174  2.3321 -1.1846 -3.4594
 3893SOL     OW23311   0.852   1.672  16.040 -0.1122 -0.1340  0.3575
 3893SOL    HW123312   0.933   1.678  16.090  0.3364  1.3762 -0.5652
 3893SOL    HW223313   0.886   1.612  15.973  1.6325 -1.0941  2.0885
 3894SOL     OW23314   3.219   0.016   6.126 -0.5918 -0.1606 -0.0920
 3894SOL    HW123315   3.311   0.006   6.152 -0.3443 -0.7121 -1.2027
 3894SOL    HW223316   3.168   4.721   6.201 -1.4897 -0.8505 -0.9865
 3895SOL     OW23317   0.073   0.111   6.519  0.2027  0.3636  0.1782
 3895SOL    HW123318   0.059   0.199   6.553 -2.9615 -0.3810  0.7907
 3895SOL    HW223319   0.141   0.121   6.452  1.1014 -1.4984  0.7984
 3896SOL     OW23320   2.585   4.527   7.238  0.0090 -0.1539 -0.2422
 3896SOL    HW123321   2.608   4.434   7.235  0.7614 -0.0039  0.9288
 3896SOL    HW223322   2.633   4.568   7.166  1.0707  1.6941  1.5176
 3897SOL     OW23323   1.794   3.529   6.705  0.2776 -0.0060 -0.3585
 3897SOL    HW123324   1.814   3.490   6.620 -0.3128 -0.6042 -0.2236
 3897SOL    HW223325   1.708   3.487   6.715  0.4874 -0.7053 -1.4728
 3898SOL     OW23326   0.240   3.858   0.501  0.0814  0.1267  0.2937
 3898SOL    HW123327   0.297   3.842   0.576 -0.5790  0.4223  0.8588
 3898SOL    HW223328   0.233   3.953   0.502  0.0129  0.1350 -2.7000
 3899SOL     OW23329   4.494   0.653  11.290  0.3124  0.1846 -0.0032
 3899SOL    HW123330   4.411   0.618  11.324  0.1061  0.8087  0.1387
 3899SOL    HW223331   4.470   0.685  11.203 -0.7679 -2.6458 -0.7520
 3900SOL     OW23332   0.880   0.361   5.550  0.0512 -0.5741 -0.5289
 3900SOL    HW123333   0.797   0.407   5.557 -0.1300 -0.9739 -0.0631
 3900SOL    HW223334   0.857   0.293   5.487 -0.2660  0.0502 -1.0756
 3901SOL     OW23335   4.707   1.239   8.655  0.2396  0.4824  0.1067
 3901SOL    HW123336   4.621   1.280   8.662  0.5437  1.3245 -1.2320
 3901SOL    HW223337   0.023   1.290   8.718 -1.5419  0.0478  1.9490
 3902SOL     OW23338   2.353   4.077   7.295  0.2199  0.7645  0.1442
 3902SOL    HW123339   2.380   3.989   7.321 -0.3518  0.7294  0.6322
 3902SOL    HW223340   2.299   4.096   7.373 -0.0461 -1.2423  0.4432
 3903SOL     OW23341   4.668   4.368   6.001 -0.0038  0.2319 -0.1598
 3903SOL    HW123342   4.656   4.457   5.968 -0.2853  0.5586  0.8116
 3903SOL    HW223343   4.612   4.366   6.078 -0.9500  0.2983 -0.8503
 3904SOL     OW23344   2.485   0.022  17.489 -0.1967  0.2336  0.1644
 3904SOL    HW123345   2.466   0.071  17.569 -2.3467  0.2123 -0.3374
 3904SOL    HW223346   2.439   0.071  17.421  0.9220  0.5117 -0.3854
 3905SOL     OW23347   1.449   1.227   6.224 -0.0594 -0.4005  0.1270
 3905SOL    HW123348   1.371   1.279   6.202 -1.1329 -1.5998  1.0552
 3905SOL    HW223349   1.476   1.282   6.297  0.7679 -0.6539  0.0070
 3906SOL     OW23350   0.468   0.164  13.883 -0.1420  0.6563 -0.7523
 3906SOL    HW123351   0.449   0.249  13.842 -1.4294  0.6310 -0.2181
 3906SOL    HW223352   0.425   0.173  13.968 -2.1352 -1.4818 -1.5070
 3907SOL     OW23353   3.528   2.106   5.556 -0.0439 -0.0509  0.4316
 3907SOL    HW123354   3.522   2.158   5.636 -0.2276  0.1125  0.3123
 3907SOL    HW223355   3.514   2.176   5.493 -0.9095  0.3289  1.0478
 3908SOL     OW23356   1.571   2.236   1.699 -0.2818 -0.6044 -0.1039
 3908SOL    HW123357   1.493   2.191   1.732 -0.5668 -0.8400 -1.0908
 3908SOL    HW223358   1.555   2.322   1.736  1.0747 -0.6719  0.6495
 3909SOL     OW23359   1.737   0.910   7.777 -0.1639  0.2024  0.1351
 3909SOL    HW123360   1.725   1.004   7.794 -2.8829 -0.2046  0.4654
 3909SOL    HW223361   1.705   0.916   7.687  0.2452  0.2390 -0.0076
 3910SOL     OW23362   2.952   1.043  10.452 -0.9727  0.4889 -0.3447
 3910SOL    HW123363   2.939   0.972  10.515  0.1734 -0.7969 -1.5450
 3910SOL    HW223364   3.029   1.001  10.414 -0.6022  1.7767 -1.0101
 3911SOL     OW23365   3.475   2.381   8.186  0.5507  0.3345  0.2990
 3911SOL    HW123366   3.476   2.450   8.120 -3.2111  0.5381  0.4147
 3911SOL    HW223367   3.394   2.343   8.151  0.1804  0.5305  0.9247
 3912SOL     OW23368   2.084   0.092  14.148 -0.6074  0.5309  0.2990
 3912SOL    HW123369   1.992   0.107  14.127 -0.6914  2.0249  1.7799
 3912SOL    HW223370   2.072   0.039  14.226 -0.7109  1.0486  0.6329
 3913SOL     OW23371   2.690   0.813   9.606 -0.5747 -0.0759  0.2250
 3913SOL    HW123372   2.725   0.874   9.671 -0.8064  0.6677 -0.3440
 3913SOL    HW223373   2.727   0.852   9.526 -0.8901  0.0829  0.1585
 3914SOL     OW23374   4.637   3.082  11.676 -0.3331  0.3645 -0.0117
 3914SOL    HW123375   4.613   3.038  11.757 -2.6279 -0.6634 -1.2212
 3914SOL    HW223376   4.550   3.104  11.643 -0.0725  1.0574 -0.2347
 3915SOL     OW23377   0.594   1.826  12.061 -0.1044  0.4800 -0.4448
 3915SOL    HW123378   0.505   1.794  12.073  0.8679 -1.8221  0.6459
 3915SOL    HW223379   0.593   1.921  12.049 -2.5659  0.7589  1.9421
 3916SOL     OW23380   4.080   2.083   6.525 -0.0250 -0.2632 -0.2750
 3916SOL    HW123381   3.984   2.082   6.523  0.0292 -4.3309 -0.8280
 3916SOL    HW223382   4.087   2.119   6.613 -0.8492  0.0282 -0.3296
 3917SOL     OW23383   2.861   0.131   6.502 -0.6133  0.3413  0.1095
 3917SOL    HW123384   2.867   0.180   6.420  0.9846  0.7926  0.4824
 3917SOL    HW223385   2.945   0.125   6.548 -0.5145 -0.6763 -0.1884
 3918SOL     OW23386   2.595   3.966   4.127 -0.2856 -0.1115  0.0328
 3918SOL    HW123387   2.510   4.008   4.142  0.6949  2.4154 -1.4482
 3918SOL    HW223388   2.581   3.921   4.044 -0.7175 -0.4000  0.2603
 3919SOL     OW23389   3.663   1.484   7.478  0.4418 -0.1372  0.1143
 3919SOL    HW123390   3.641   1.552   7.541  1.4394 -1.3856  1.8010
 3919SOL    HW223391   3.601   1.415   7.501  0.0157  0.0903 -0.3437
 3920SOL     OW23392   2.934   1.700   4.940 -0.8621 -0.0331 -0.7413
 3920SOL    HW123393   2.918   1.784   4.983  0.8854  0.0447 -0.2387
 3920SOL    HW223394   2.905   1.718   4.851 -1.8090  1.9742 -0.0246
 3921SOL     OW23395   1.732   1.713   6.042  0.0851 -0.5374  0.7424
 3921SOL    HW123396   1.810   1.755   6.004 -1.7889  1.2990 -1.0834
 3921SOL    HW223397   1.734   1.640   5.980  1.3111  1.1413 -1.2093
 3922SOL     OW23398   4.049   2.979  10.120  0.0601  0.0409  0.0854
 3922SOL    HW123399   4.078   3.010  10.206 -0.2678 -1.3054  0.6656
 3922SOL    HW223400   3.959   3.008  10.111 -0.2911 -1.1401 -0.2295
 3923SOL     OW23401   3.753   3.107   8.145  0.1952  0.4570  0.6412
 3923SOL    HW123402   3.777   3.058   8.223  0.7792  2.3624  1.6553
 3923SOL    HW223403   3.659   3.114   8.157 -0.2968 -3.2117 -1.1658
 3924SOL     OW23404   2.626   0.312   9.559 -0.1821 -0.6819 -0.5695
 3924SOL    HW123405   2.697   0.376   9.560  0.8025 -1.8472  3.4794
 3924SOL    HW223406   2.572   0.340   9.632 -0.2529 -0.2855 -0.7743
 3925SOL     OW23407   2.127   0.065   1.441 -0.7700 -0.2950  0.4377
 3925SOL    HW123408   2.141   0.039   1.532  0.5875  1.4349  0.7346
 3925SOL    HW223409   2.044   0.112   1.447  0.7199  2.3441  0.5818
 3926SOL     OW23410   3.253   1.434  16.179 -0.6800  0.0182 -0.1442
 3926SOL    HW123411   3.210   1.503  16.129  0.3389  0.8763  0.1817
 3926SOL    HW223412   3.343   1.465  16.178 -0.6179 -0.0510  2.7991
 3927SOL     OW23413   3.615   1.660  14.458 -0.1099 -0.3479 -0.2421
 3927SOL    HW123414   3.638   1.604  14.384 -0.0940 -1.2480  0.4371
 3927SOL    HW223415   3.562   1.736  14.433  0.4330 -0.0900 -0.5944
 3928SOL     OW23416   3.582   1.187   6.261 -0.2157  0.2119  0.1978
 3928SOL    HW123417   3.548   1.267   6.221  0.0674  0.8758  1.2876
 3928SOL    HW223418   3.669   1.176   6.222  0.4310 -0.4525  1.8645
 3929SOL     OW23419   3.192   2.724   8.746 -0.0689  0.6877  0.0311
 3929SOL    HW123420   3.213   2.760   8.660 -0.2539 -2.0248 -1.1365
 3929SOL    HW223421   3.234   2.638   8.747 -1.8694 -0.2117 -1.8268
 3930SOL     OW23422   2.270   4.314  12.094  0.2772  0.4534 -0.3649
 3930SOL    HW123423   2.196   4.255  12.085  0.6980 -0.4367  1.8874
 3930SOL    HW223424   2.342   4.266  12.136 -0.6864 -0.0429  0.7100
 3931SOL     OW23425   3.242   4.210   7.823  0.7647 -0.5720  0.1352
 3931SOL    HW123426   3.163   4.156   7.817 -0.7672  1.7083 -0.1712
 3931SOL    HW223427   3.247   4.225   7.917 -0.1289  3.7171 -0.4947
 3932SOL     OW23428   3.922   3.930  14.497  0.1559 -0.1395 -0.4032
 3932SOL    HW123429   3.931   3.934  14.592 -2.9853 -0.4441 -0.0786
 3932SOL    HW223430   4.011   3.941  14.463  0.0488 -0.6670 -0.8529
 3933SOL     OW23431   4.431   3.565   4.689 -0.3778  0.1511  0.8825
 3933SOL    HW123432   4.336   3.554   4.697 -0.4114 -0.3146 -0.1451
 3933SOL    HW223433   4.447   3.622   4.764 -0.2020  0.2616  0.7611
 3934SOL     OW23434   2.893   3.332   6.098 -0.5227 -0.8192 -0.0663
 3934SOL    HW123435   2.909   3.252   6.048 -3.7904 -1.4237 -0.1507
 3934SOL    HW223436   2.851   3.301   6.178 -1.5285  1.7393  0.3916
 3935SOL     OW23437   2.989   2.290   4.320 -0.3910 -0.1928  0.5312
 3935SOL    HW123438   2.998   2.384   4.337  0.0378  0.2092 -1.9177
 3935SOL    HW223439   3.008   2.292   4.227  2.2249  0.6762  1.0918
 3936SOL     OW23440   1.730   3.908   5.381  0.1557  0.7369  0.5824
 3936SOL    HW123441   1.660   3.973   5.376  0.1561  0.6822 -0.1316
 3936SOL    HW223442   1.746   3.918   5.475 -0.0690  1.0457  0.5875
 3937SOL     OW23443   0.942   4.337   8.122 -0.2491  0.7314 -0.3723
 3937SOL    HW123444   0.990   4.408   8.165  1.2725 -0.4349 -0.1468
 3937SOL    HW223445   0.930   4.266   8.185  0.6604  0.3684 -0.6071
 3938SOL     OW23446   4.526   2.067   9.138  0.1402  0.0120 -0.5122
 3938SOL    HW123447   4.540   2.003   9.208  1.2803  0.6348 -0.1723
 3938SOL    HW223448   4.615   2.075   9.104  0.5098 -3.4995 -0.4310
 3939SOL     OW23449   1.401   1.615   6.172  0.4004 -0.0102 -0.4597
 3939SOL    HW123450   1.414   1.559   6.095  0.7359 -0.1094 -0.3295
 3939SOL    HW223451   1.306   1.625   6.166  0.3987  1.4584  2.0313
 3940SOL     OW23452   1.391   2.848   1.162 -0.3250 -0.3027  0.1535
 3940SOL    HW123453   1.367   2.940   1.152  0.4013 -0.1184  0.1111
 3940SOL    HW223454   1.484   2.855   1.144 -0.6368  3.7270  0.1087
 3941SOL     OW23455   3.234   0.575   3.016  0.7752 -0.3472  0.5389
 3941SOL    HW123456   3.256   0.486   3.045  2.0251 -0.9859 -2.4286
 3941SOL    HW223457   3.306   0.609   2.964 -1.4462  0.3739 -2.1004
 3942SOL     OW23458   0.745   2.945  16.572  0.3131  0.7863 -0.1405
 3942SOL    HW123459   0.737   2.919  16.480  0.8359  1.0497 -0.2604
 3942SOL    HW223460   0.830   2.989  16.570  1.4119 -1.3758 -0.9730
 3943SOL     OW23461   0.596   0.331   1.057 -0.0227  0.0233  0.1709
 3943SOL    HW123462   0.607   0.414   1.012  2.0203 -1.3028 -1.7752
 3943SOL    HW223463   0.678   0.282   1.060  0.6387  1.0648 -1.1928
 3944SOL     OW23464   0.681   4.096   9.496 -0.1563  0.1124 -0.1868
 3944SOL    HW123465   0.623   4.153   9.547  1.7801 -0.2750  2.4145
 3944SOL    HW223466   0.742   4.082   9.568 -0.0032  2.4827  0.1651
 3945SOL     OW23467   0.949   4.108   9.146  0.3182 -0.3400 -0.0417
 3945SOL    HW123468   0.892   4.060   9.206  0.2673 -1.0049 -0.6144
 3945SOL    HW223469   1.035   4.068   9.163 -0.5122 -1.5685  1.2783
 3946SOL     OW23470   1.403   0.651   4.577  0.4445 -0.0818 -0.1038
 3946SOL    HW123471   1.360   0.589   4.518  0.4660 -0.0671 -0.1349
 3946SOL    HW223472   1.442   0.710   4.512  1.2232  0.3460  0.7551
 3947SOL     OW23473   1.058   3.601  12.135 -0.0005 -0.5978  0.1947
 3947SOL    HW123474   1.056   3.538  12.063  4.7004 -0.5988  0.0465
 3947SOL    HW223475   0.981   3.566  12.180  0.9694 -2.4474  0.4201
 3948SOL     OW23476   4.494   2.920  15.688  0.1678  0.0796  0.2884
 3948SOL    HW123477   4.510   3.005  15.648  2.3549  0.9331  2.9879
 3948SOL    HW223478   4.557   2.864  15.643 -0.5817 -0.6641  0.1683
 3949SOL     OW23479   0.852   0.067  11.673  0.3137  0.2771 -0.2568
 3949SOL    HW123480   0.910   4.734  11.639 -2.1637 -2.3274  0.7844
 3949SOL    HW223481   0.867   0.144  11.618  1.5395 -0.1327 -0.4918
 3950SOL     OW23482   2.571   2.577   4.882  0.1306  0.1443  0.5935
 3950SOL    HW123483   2.662   2.565   4.908  1.2134 -0.8140 -3.6038
 3950SOL    HW223484   2.580   2.669   4.858 -3.1788 -0.0776 -1.5455
 3951SOL     OW23485   4.372   0.894   8.172  0.2022  0.2184 -0.1989
 3951SOL    HW123486   4.435   0.958   8.207  0.2076  0.5801 -0.8552
 3951SOL    HW223487   4.339   0.938   8.093  0.8129 -0.6869 -0.9510
 3952SOL     OW23488   3.231   4.088   2.214 -0.5726  0.0010 -0.1181
 3952SOL    HW123489   3.258   4.174   2.183  0.0629 -0.9487 -2.2230
 3952SOL    HW223490   3.153   4.076   2.160 -0.9944 -0.4518  0.5958
 3953SOL     OW23491   0.942   3.587   0.905  0.2076  0.3370  0.5336
 3953SOL    HW123492   1.009   3.560   0.968  0.6815  1.5042  0.5299
 3953SOL    HW223493   0.951   3.523   0.835 -1.0699 -2.5909  3.0397
 3954SOL     OW23494   3.750   0.671   8.730  0.5964  0.0192 -0.1583
 3954SOL    HW123495   3.707   0.663   8.645 -1.1550 -0.4383  0.7702
 3954SOL    HW223496   3.829   0.622   8.708  1.5124  0.9369  1.1662
 3955SOL     OW23497   0.421   0.673   3.376  0.4651 -0.4074  0.2828
 3955SOL    HW123498   0.455   0.695   3.289 -0.1212  4.7759  1.3555
 3955SOL    HW223499   0.462   0.587   3.389  0.9551 -0.2299 -0.0823
 3956SOL     OW23500   4.064   3.533   5.293  0.5385  0.1387  0.1703
 3956SOL    HW123501   4.065   3.625   5.320  2.2934 -0.1512  1.0902
 3956SOL    HW223502   4.109   3.536   5.208 -0.7568  3.0990 -0.4132
 3957SOL     OW23503   2.903   4.289   4.148  0.3312 -0.0949  0.1153
 3957SOL    HW123504   2.903   4.202   4.111 -0.9069 -0.4078  0.8473
 3957SOL    HW223505   2.811   4.291   4.177  0.7974  1.1770  1.5381
 3958SOL     OW23506   1.143   4.218   4.208 -0.8695 -0.3023 -0.1818
 3958SOL    HW123507   1.060   4.263   4.221 -1.4464 -1.5058  0.2725
 3958SOL    HW223508   1.190   4.255   4.283  1.5509 -1.1523 -1.2675
 3959SOL     OW23509   4.093   3.853  17.226 -0.4304 -0.0927 -0.0636
 3959SOL    HW123510   4.151   3.864  17.151  0.5276 -2.6666  0.3089
 3959SOL    HW223511   4.008   3.848  17.182 -1.5378 -2.1423  2.3271
 3960SOL     OW23512   2.392   4.624   2.843  0.1041 -0.0560  0.1500
 3960SOL    HW123513   2.322   4.561   2.862 -0.9592  1.8021  2.4638
 3960SOL    HW223514   2.381   4.679   2.921 -3.5491 -0.1873 -0.2439
 3961SOL     OW23515   1.781   4.346   6.852  0.1591 -0.0624  0.1371
 3961SOL    HW123516   1.789   4.409   6.923  0.1992 -0.7734  0.7535
 3961SOL    HW223517   1.736   4.400   6.786 -1.3555 -0.5260  0.7822
 3962SOL     OW23518   2.927   1.221   9.511  0.1123  0.0477  0.7799
 3962SOL    HW123519   2.840   1.182   9.505  0.2932  0.2278 -2.7602
 3962SOL    HW223520   2.922   1.274   9.432  2.4484  1.4711  1.5926
 3963SOL     OW23521   2.865   3.742   0.597  0.0787 -0.0138 -0.2509
 3963SOL    HW123522   2.854   3.664   0.543 -1.0606 -0.5431  0.7576
 3963SOL    HW223523   2.793   3.735   0.659  1.5469  0.1630  1.4530
 3964SOL     OW23524   3.162   3.643   6.194 -0.5722 -0.1667  0.6536
 3964SOL    HW123525   3.085   3.622   6.141 -0.9621  0.9856  0.7604
 3964SOL    HW223526   3.226   3.581   6.159  0.0443  2.0494 -2.2209
 3965SOL     OW23527   2.648   4.645   7.533  0.2690  0.0350  0.2156
 3965SOL    HW123528   2.566   4.679   7.496 -0.9634 -1.8307  1.2305
 3965SOL    HW223529   2.701   4.626   7.456  0.4496  0.7212  0.1641
 3966SOL     OW23530   3.317   4.067   3.714  0.1667 -0.0948  0.1993
 3966SOL    HW123531   3.413   4.071   3.721  0.0300 -0.9780  2.5965
 3966SOL    HW223532   3.290   3.976   3.706  2.7859 -1.1113  3.1406
 3967SOL     OW23533   2.147   1.934  15.406 -0.4078 -0.8257  0.1097
 3967SOL    HW123534   2.228   1.904  15.448 -1.9198 -1.1594  2.7608
 3967SOL    HW223535   2.089   1.889  15.467 -0.3536 -0.0019  0.7518
 3968SOL     OW23536   0.513   2.367   1.822 -0.2011 -0.1971 -0.2737
 3968SOL    HW123537   0.607   2.365   1.835 -0.5863  0.3021  2.5974
 3968SOL    HW223538   0.495   2.433   1.889  0.5294 -0.5912  0.3061
 3969SOL     OW23539   1.727   1.160   9.267 -0.3197 -0.1678  0.1124
 3969SOL    HW123540   1.800   1.102   9.289  0.3689  0.5003 -0.4116
 3969SOL    HW223541   1.752   1.192   9.181 -0.5648 -2.0643 -0.6635
 3970SOL     OW23542   2.002   3.637   7.486 -0.0865 -0.7783  0.0331
 3970SOL    HW123543   2.040   3.724   7.492 -1.6642 -0.0406 -0.6324
 3970SOL    HW223544   2.043   3.605   7.405 -0.7953 -1.0009 -0.2370
 3971SOL     OW23545   2.869   0.339  14.888  0.2451 -0.1872  0.1892
 3971SOL    HW123546   2.847   0.329  14.981 -0.1132 -1.0927  0.0095
 3971SOL    HW223547   2.846   0.255  14.848  1.1980 -0.7200  0.7578
 3972SOL     OW23548   2.055   1.437   9.445 -0.3193 -0.0385 -0.0157
 3972SOL    HW123549   2.064   1.350   9.406 -2.5865  0.1903 -1.0334
 3972SOL    HW223550   2.085   1.420   9.534  0.2618  1.6194  0.0930
 3973SOL     OW23551   4.013   1.504   4.532 -0.3156 -0.4285 -0.2643
 3973SOL    HW123552   3.937   1.543   4.576 -0.9183 -2.8393  0.8205
 3973SOL    HW223553   4.036   1.427   4.585 -0.8672  1.4322  2.6722
 3974SOL     OW23554   4.336   1.076   2.048 -0.1290 -0.2851 -0.2206
 3974SOL    HW123555   4.336   1.171   2.053 -0.3506 -0.3053  0.2005
 3974SOL    HW223556   4.283   1.058   1.970  1.8046 -1.4834 -1.2676
 3975SOL     OW23557   0.616   2.955   3.140  0.2504  0.7444  0.2814
 3975SOL    HW123558   0.587   2.924   3.226  2.9901 -0.9545  0.5808
 3975SOL    HW223559   0.566   2.890   3.091  0.7481  1.1948 -0.8229
 3976SOL     OW23560   4.386   2.543   9.249 -0.1283 -0.0670  0.2426
 3976SOL    HW123561   4.465   2.591   9.223  0.9890 -1.4011  1.1880
 3976SOL    HW223562   4.346   2.510   9.168 -0.9901  0.9322  0.2604
 3977SOL     OW23563   0.096   1.797   6.719 -0.0217 -0.7435  0.2995
 3977SOL    HW123564   0.162   1.787   6.650  1.8584  3.5941  1.4672
 3977SOL    HW223565   0.010   1.795   6.677 -0.8611 -0.9410  2.0516
 3978SOL     OW23566   3.107   3.783   2.332  0.8140 -0.0611 -0.1541
 3978SOL    HW123567   3.119   3.759   2.240  1.0756 -1.3240  0.2098
 3978SOL    HW223568   3.127   3.876   2.327  1.3937 -0.2639 -1.6431
 3979SOL     OW23569   2.944   0.611   6.869 -0.0901  0.7126  0.1184
 3979SOL    HW123570   2.938   0.707   6.878  0.2731  0.6763  0.6941
 3979SOL    HW223571   2.930   0.611   6.774  0.5520  0.9723  0.0216
 3980SOL     OW23572   2.791   0.345   9.094 -0.3013 -0.0730 -0.7553
 3980SOL    HW123573   2.820   0.274   9.151  0.9348  0.8178 -0.2659
 3980SOL    HW223574   2.864   0.336   9.033  0.2076 -0.7035 -0.0571
 3981SOL     OW23575   3.092   3.673   0.747  0.1844  0.0306 -0.0271
 3981SOL    HW123576   3.013   3.673   0.691  1.4790  1.8972 -1.8738
 3981SOL    HW223577   3.134   3.749   0.706  3.1635 -0.8265  1.4848
 3982SOL     OW23578   1.306   1.871  13.070  0.1666  0.1807 -0.0766
 3982SOL    HW123579   1.388   1.867  13.118  1.7876  1.9261 -2.6785
 3982SOL    HW223580   1.335   1.900  12.983  0.8688  1.4391  0.5640
 3983SOL     OW23581   4.200   1.621   0.302 -0.1715  0.2146 -0.0101
 3983SOL    HW123582   4.236   1.554   0.244  0.8763  0.3153  0.5149
 3983SOL    HW223583   4.133   1.568   0.344  1.4340  1.1251  3.6921
 3984SOL     OW23584   0.556   0.086   5.138 -0.3706 -0.0190 -0.1728
 3984SOL    HW123585   0.485   0.081   5.074 -1.3545  0.3291  0.8769
 3984SOL    HW223586   0.636   0.108   5.091 -0.8558 -1.4158 -1.6553
 3985SOL     OW23587   4.104   3.461   6.877 -0.2953  0.2861  0.2892
 3985SOL    HW123588   4.128   3.484   6.967  0.4858 -0.4819  0.2847
 3985SOL    HW223589   4.055   3.537   6.845  1.2012  1.2193  0.1612
 3986SOL     OW23590   3.580   2.332  16.248 -0.1192 -0.1661 -0.3537
 3986SOL    HW123591   3.536   2.417  16.253  1.4873  0.6716 -0.6608
 3986SOL    HW223592   3.670   2.361  16.260  0.4796 -1.7623 -1.0649
 3987SOL     OW23593   1.237   1.717   8.696 -0.0813  0.3778 -0.0288
 3987SOL    HW123594   1.268   1.630   8.720 -0.9963  0.4581  1.4326
 3987SOL    HW223595   1.228   1.753   8.784 -0.5313  0.4546 -0.1047
 3988SOL     OW23596   4.085   0.454   3.690 -0.0985 -0.2573  0.0407
 3988SOL    HW123597   4.017   0.397   3.725 -1.1197 -0.0575 -1.6468
 3988SOL    HW223598   4.041   0.486   3.612 -0.4188  1.1628  0.7857
 3989SOL     OW23599   1.524   0.652   6.284 -0.1225 -0.1414  0.2707
 3989SOL    HW123600   1.561   0.578   6.236  1.0739  1.4791 -1.3282
 3989SOL    HW223601   1.517   0.710   6.208  0.8378  0.0595  0.3313
 3990SOL     OW23602   4.454   2.563   7.032  0.4473  0.6354 -0.3665
 3990SOL    HW123603   4.523   2.516   6.986  2.1246  2.1829  0.5934
 3990SOL    HW223604   4.480   2.561   7.124 -2.4854 -0.8042  0.4253
 3991SOL     OW23605   3.303   0.617   8.041  0.8496 -0.3879 -0.4919
 3991SOL    HW123606   3.316   0.582   8.129 -0.5402  0.9599  0.2504
 3991SOL    HW223607   3.378   0.677   8.042  0.9496 -0.5221 -0.0728
 3992SOL     OW23608   3.201   0.054  13.797 -0.8090 -0.3947 -0.4230
 3992SOL    HW123609   3.266   0.101  13.849 -0.2812 -0.1606 -1.2862
 3992SOL    HW223610   3.237   4.703  13.815  0.4075  0.6341  1.9870
 3993SOL     OW23611   1.035   0.375   7.719  0.3604 -0.4277 -0.3929
 3993SOL    HW123612   0.966   0.369   7.653  1.1038 -1.3693 -1.0809
 3993SOL    HW223613   1.019   0.298   7.772 -2.1072 -0.3571 -1.0172
 3994SOL     OW23614   2.097   3.735  15.433  0.9307 -0.3044 -0.3063
 3994SOL    HW123615   2.155   3.808  15.455 -0.0045  0.1912  0.5273
 3994SOL    HW223616   2.114   3.739  15.339 -0.4697 -0.4121 -0.5635
 3995SOL     OW23617   4.259   3.313   7.471  0.3152  0.6429 -0.2459
 3995SOL    HW123618   4.211   3.367   7.407 -1.1842 -0.0976  0.2644
 3995SOL    HW223619   4.219   3.227   7.465 -0.8282  1.2551 -1.5028
 3996SOL     OW23620   2.400   4.620   9.506 -0.5666 -0.2063  0.5739
 3996SOL    HW123621   2.372   4.578   9.587 -0.1609 -0.5065  0.5602
 3996SOL    HW223622   2.478   4.667   9.534  0.4057 -0.6122 -1.4496
 3997SOL     OW23623   4.450   2.147  17.109 -0.6538  0.3034 -0.0973
 3997SOL    HW123624   4.491   2.150  17.022 -1.0895 -0.5998 -0.3392
 3997SOL    HW223625   4.469   2.232  17.148 -1.2779  0.0349  0.8015
 3998SOL     OW23626   1.046   3.423   8.903 -0.1974  0.3851  0.4177
 3998SOL    HW123627   0.965   3.425   8.851  1.2254 -1.1347 -1.8838
 3998SOL    HW223628   1.068   3.331   8.888  0.4336  0.9764 -2.4337
 3999SOL     OW23629   3.989   1.876  13.693 -0.2199  0.0368  0.2197
 3999SOL    HW123630   4.046   1.800  13.679  1.1566  1.0605  0.2452
 3999SOL    HW223631   3.905   1.830  13.688 -0.1707  0.1117 -1.4051
 4000SOL     OW23632   2.250   0.324   9.588  0.3610  0.1238  0.4201
 4000SOL    HW123633   2.312   0.327   9.661  1.3605 -1.4583 -0.3629
 4000SOL    HW223634   2.261   0.410   9.549 -2.6610  0.6474  0.6712
 4001SOL     OW23635   1.476   4.032   5.697 -0.6007 -0.4773 -0.7215
 4001SOL    HW123636   1.432   4.117   5.702 -0.1886 -0.2670 -0.6308
 4001SOL    HW223637   1.476   4.012   5.790  2.8460  1.2475 -0.3566
 4002SOL     OW23638   0.070   3.609  11.256  0.3568  0.0479 -0.1710
 4002SOL    HW123639   4.721   3.569  11.274  0.4744 -0.0594  0.1400
 4002SOL    HW223640   0.069   3.599  11.161 -1.5152  0.5982 -0.2106
 4003SOL     OW23641   2.621   3.046  14.103  0.1772 -0.1245  0.0022
 4003SOL    HW123642   2.634   3.033  14.197  1.2663  1.6541  0.0893
 4003SOL    HW223643   2.578   2.968  14.068 -0.8805  0.8564 -0.8935
 4004SOL     OW23644   4.713   2.594  16.419  0.3735  0.1448  0.4369
 4004SOL    HW123645   4.693   2.632  16.505 -2.7935 -1.2143  0.2937
 4004SOL    HW223646   0.003   2.675  16.375 -1.5199  0.6729  0.2892
 4005SOL     OW23647   3.610   4.560   7.305  0.4988 -0.5004  0.5140
 4005SOL    HW123648   3.632   4.651   7.325 -2.4151  0.0425  1.2331
 4005SOL    HW223649   3.541   4.569   7.239  0.1289  1.2992  1.1313
 4006SOL     OW23650   4.209   3.695  11.683  0.1762 -0.4770 -0.1177
 4006SOL    HW123651   4.240   3.640  11.755 -0.0332 -1.7582 -1.0206
 4006SOL    HW223652   4.248   3.780  11.703  0.8828 -0.7612 -0.2979
 4007SOL     OW23653   3.366   2.237   7.301  0.2230 -0.5468 -0.2687
 4007SOL    HW123654   3.359   2.189   7.219 -0.5036 -2.1642  0.7289
 4007SOL    HW223655   3.397   2.323   7.276 -1.2631  0.8368  2.5883
 4008SOL     OW23656   0.288   3.408   0.767  0.6051  0.0075  0.2845
 4008SOL    HW123657   0.268   3.331   0.820 -2.0980  0.0135 -0.7237
 4008SOL    HW223658   0.225   3.469   0.804  2.3998  3.3516 -2.2038
 4009SOL     OW23659   3.713   1.469  14.295  0.3235  0.3825 -0.5442
 4009SOL    HW123660   3.801   1.450  14.327 -0.0683 -2.4220 -1.1324
 4009SOL    HW223661   3.704   1.400  14.230  0.4177  0.5762 -0.7599
 4010SOL     OW23662   0.049   1.319  17.726 -0.0537  0.2542  0.0769
 4010SOL    HW123663   0.037   1.246   0.045  1.8201 -1.0370 -1.1058
 4010SOL    HW223664   0.139   1.344   0.008 -0.7567  2.6893  0.1336
 4011SOL     OW23665   1.109   2.961   4.191 -0.1268  0.0990 -0.3741
 4011SOL    HW123666   1.021   2.927   4.174  0.3916 -0.8694 -1.1012
 4011SOL    HW223667   1.094   3.025   4.261  2.1122  1.8741 -1.5236
 4012SOL     OW23668   1.441   1.517   0.483 -0.7249 -0.2693  0.8533
 4012SOL    HW123669   1.373   1.576   0.515 -1.8270 -0.8120 -0.4901
 4012SOL    HW223670   1.447   1.548   0.393  0.2161  0.5828  1.2088
 4013SOL     OW23671   0.003   0.543   5.157  0.0007  0.1314 -0.2152
 4013SOL    HW123672   4.733   0.484   5.232  1.9624 -2.5209 -2.1282
 4013SOL    HW223673   4.650   0.538   5.122  0.2683  0.4680 -0.9510
 4014SOL     OW23674   1.262   2.360   9.944  0.1566 -0.0273 -0.0338
 4014SOL    HW123675   1.265   2.292  10.011  0.2944  1.0982  1.0914
 4014SOL    HW223676   1.219   2.303   9.879 -1.6207  0.8747  0.3462
 4015SOL     OW23677   0.199   1.891   9.704 -0.2860  0.0075  0.5885
 4015SOL    HW123678   0.139   1.827   9.666 -0.0260  1.1988 -1.8245
 4015SOL    HW223679   0.141   1.961   9.735 -0.3332 -0.5232  1.6754
 4016SOL     OW23680   0.255   3.287  10.744 -0.3391 -0.3803 -0.4129
 4016SOL    HW123681   0.297   3.264  10.827  1.0013 -0.1194 -1.0229
 4016SOL    HW223682   0.333   3.284  10.688  0.4261  3.1075  0.4366
 4017SOL     OW23683   1.907   3.281   7.243 -0.2837 -0.1380 -0.1666
 4017SOL    HW123684   1.981   3.223   7.263  0.3239  0.5382 -0.4361
 4017SOL    HW223685   1.848   3.212   7.216 -0.9644  0.0506  0.8390
 4018SOL     OW23686   0.099   0.529   2.439  0.2152  0.2703  0.1106
 4018SOL    HW123687   0.031   0.564   2.381  1.5617  2.3062 -0.2229
 4018SOL    HW223688   0.104   0.442   2.399 -0.1834  0.9630 -1.4620
 4019SOL     OW23689   3.721   1.868  11.889 -0.0363 -0.1354 -0.0956
 4019SOL    HW123690   3.678   1.945  11.853 -0.2472 -0.1219  0.1779
 4019SOL    HW223691   3.655   1.859  11.959  0.2111  0.8309  0.2703
 4020SOL     OW23692   4.694   0.837   6.715 -0.0936 -0.5367 -0.6307
 4020SOL    HW123693   4.709   0.802   6.627  0.7545  0.2677 -0.8000
 4020SOL    HW223694   0.046   0.868   6.738 -0.6487 -0.3136  1.1643
 4021SOL     OW23695   3.433   4.507   8.139  0.2049  0.2504  0.5251
 4021SOL    HW123696   3.462   4.428   8.093  1.3758 -0.1574  1.9433
 4021SOL    HW223697   3.510   4.564   8.144  0.5064 -0.1954  0.9819
 4022SOL     OW23698   3.651   2.975   4.885 -0.2743 -0.0408 -0.5947
 4022SOL    HW123699   3.676   2.890   4.850 -0.8257  0.3756 -2.0334
 4022SOL    HW223700   3.610   3.022   4.812  0.0969 -0.8441 -1.3096
 4023SOL     OW23701   2.256   0.568  10.413  0.1189  0.4688  0.2145
 4023SOL    HW123702   2.331   0.621  10.439  0.2045 -0.4729  1.9367
 4023SOL    HW223703   2.235   0.517  10.492 -0.6593  0.3536 -0.0690
 4024SOL     OW23704   3.663   2.768   8.324  0.0985  0.5411  0.1188
 4024SOL    HW123705   3.695   2.853   8.355 -0.6964  0.6321  0.6944
 4024SOL    HW223706   3.577   2.798   8.297 -0.5233 -0.3612  1.0829
 4025SOL     OW23707   3.208   4.580   2.494  0.0366 -0.3701 -0.0028
 4025SOL    HW123708   3.153   4.536   2.429  0.1795 -1.6797  0.7631
 4025SOL    HW223709   3.163   4.664   2.487  0.1771 -0.0444  3.0777
 4026SOL     OW23710   0.221   2.916   2.917  0.1322  0.3292 -0.5319
 4026SOL    HW123711   0.139   2.876   2.887 -0.1779  1.2902 -0.9644
 4026SOL    HW223712   0.276   2.950   2.847  0.9142 -0.3543 -0.2434
 4027SOL     OW23713   2.944   1.177   4.987 -0.2971 -0.0803  0.1617
 4027SOL    HW123714   3.028   1.180   4.942 -0.8532  0.8200 -0.8303
 4027SOL    HW223715   2.911   1.266   4.998 -1.0554 -0.3582  0.1232
 4028SOL     OW23716   1.219   0.980   8.017  0.1040 -0.3602 -0.0745
 4028SOL    HW123717   1.244   1.058   8.067 -1.2210 -0.0015  0.0337
 4028SOL    HW223718   1.171   0.926   8.079 -0.5632 -0.2197 -0.4662
 4029SOL     OW23719   1.666   4.648   4.594  0.0853 -0.2094  0.1630
 4029SOL    HW123720   1.686   4.580   4.659  0.9595  0.9877  1.1644
 4029SOL    HW223721   1.737   4.637   4.531  1.2220  2.4694  0.9645
 4030SOL     OW23722   0.550   3.165   2.578  0.6437  0.1999  0.4201
 4030SOL    HW123723   0.551   3.227   2.651  0.5869 -1.7747  2.0953
 4030SOL    HW223724   0.513   3.226   2.515 -2.2976  0.0015  1.9639
 4031SOL     OW23725   2.850   2.980  15.508 -0.6656 -0.7067  0.6141
 4031SOL    HW123726   2.836   2.967  15.415  0.0281  0.1718  0.3876
 4031SOL    HW223727   2.924   2.924  15.533  2.0038  1.5285 -2.1964
 4032SOL     OW23728   0.265   1.582   5.901 -0.7416  0.2376  0.5068
 4032SOL    HW123729   0.195   1.644   5.884 -0.5705  0.5790  1.0610
 4032SOL    HW223730   0.340   1.619   5.856 -1.0407  0.4984  0.2277
 4033SOL     OW23731   2.513   3.374  16.726 -0.4524  0.0611  0.9821
 4033SOL    HW123732   2.468   3.290  16.736 -2.2284  0.8637 -0.1428
 4033SOL    HW223733   2.532   3.373  16.632 -1.0787  1.5640  0.8275
 4034SOL     OW23734   0.543   4.216   7.867  0.6522 -0.0969 -0.1269
 4034SOL    HW123735   0.573   4.307   7.863  0.2722  0.0090 -0.5708
 4034SOL    HW223736   0.457   4.231   7.907  0.4806  1.1253 -0.9663
 4035SOL     OW23737   3.501   4.420   2.824 -0.3780 -0.2357 -0.1781
 4035SOL    HW123738   3.485   4.344   2.881 -2.7711  0.7568  0.4548
 4035SOL    HW223739   3.407   4.437   2.815 -0.4188 -0.2886  0.1448
 4036SOL     OW23740   3.175   1.247  10.492  0.3460 -0.0708  0.1770
 4036SOL    HW123741   3.127   1.169  10.519  3.1208 -1.8622 -0.0157
 4036SOL    HW223742   3.268   1.229  10.509  0.7494 -1.1539 -3.0269
 4037SOL     OW23743   4.674   2.254  16.673 -0.5601  1.0527 -0.0234
 4037SOL    HW123744   0.031   2.229  16.670 -0.6185  0.8138  0.2486
 4037SOL    HW223745   4.664   2.251  16.577 -0.2307 -0.3320 -0.0142
 4038SOL     OW23746   4.671   3.557   9.057  0.1091 -0.0566  0.1736
 4038SOL    HW123747   4.719   3.544   8.975  0.5255  0.7951  0.2703
 4038SOL    HW223748   4.636   3.471   9.080 -0.4963  1.7715  6.1677
 4039SOL     OW23749   2.558   2.274   8.630 -0.0997  0.0196  0.1402
 4039SOL    HW123750   2.600   2.243   8.710 -0.0918  0.9785  0.5023
 4039SOL    HW223751   2.567   2.369   8.638  2.3965 -0.3984  2.3241
 4040SOL     OW23752   4.651   1.092   1.860 -0.3429  0.5342  0.6887
 4040SOL    HW123753   4.642   1.185   1.837  0.2925  0.2828 -0.5723
 4040SOL    HW223754   0.004   1.088   1.896  0.4000  0.1506 -1.1774
 4041SOL     OW23755   0.887   1.976   8.143  0.1225 -0.0444 -0.2687
 4041SOL    HW123756   0.862   1.918   8.071  1.2147 -0.7182 -0.1162
 4041SOL    HW223757   0.900   2.059   8.097  2.8506 -0.3530 -0.0546
 4042SOL     OW23758   2.892   3.042   1.893 -0.1548  0.2862  1.0009
 4042SOL    HW123759   2.880   3.074   1.983 -0.8087  1.9745  0.3029
 4042SOL    HW223760   2.979   3.003   1.889 -0.9268 -1.1912 -1.5810
 4043SOL     OW23761   1.542   4.262  13.576 -0.2425  0.3213  0.5242
 4043SOL    HW123762   1.617   4.253  13.517 -1.1958  0.7225 -0.7638
 4043SOL    HW223763   1.500   4.181  13.544  0.5249  0.0376  0.2460
 4044SOL     OW23764   3.459   3.268   4.244 -0.5997  0.0290 -0.3899
 4044SOL    HW123765   3.481   3.201   4.179  0.2144 -2.4486  2.3937
 4044SOL    HW223766   3.503   3.347   4.212  0.4252  0.1002  1.1693
 4045SOL     OW23767   3.557   4.434   4.709  0.3903  0.1616 -0.1069
 4045SOL    HW123768   3.567   4.473   4.795 -0.2461  1.5729 -0.6800
 4045SOL    HW223769   3.478   4.474   4.674 -1.1552 -2.4486  0.3631
 4046SOL     OW23770   4.103   4.474   6.721 -0.4302 -0.1516 -0.2865
 4046SOL    HW123771   4.056   4.445   6.799  0.2407  0.2298  0.2665
 4046SOL    HW223772   4.154   4.396   6.696 -1.5138 -0.8040 -0.4644
 4047SOL     OW23773   4.716   1.557  11.744  0.4180 -0.1542 -0.2861
 4047SOL    HW123774   4.695   1.641  11.703  0.1714 -0.2839 -0.4212
 4047SOL    HW223775   0.065   1.576  11.786 -0.5153  0.7518  1.1920
 4048SOL     OW23776   4.475   3.101   1.547 -0.6202  0.8920  0.1067
 4048SOL    HW123777   4.564   3.066   1.539 -1.5781 -1.2296 -1.2285
 4048SOL    HW223778   4.489   3.144   1.631  0.8622  0.8020 -0.0865
 4049SOL     OW23779   2.117   1.916   5.393 -0.3976 -0.1227  0.2051
 4049SOL    HW123780   2.170   1.881   5.465 -0.5373 -3.7261 -1.4158
 4049SOL    HW223781   2.178   1.983   5.362  0.6354 -0.4192  1.5866
 4050SOL     OW23782   3.847   3.734   5.951 -0.5632  0.9684 -0.0086
 4050SOL    HW123783   3.828   3.657   6.004  0.3129 -0.6539 -2.0499
 4050SOL    HW223784   3.799   3.704   5.874 -1.9697  0.8142  0.9295
 4051SOL     OW23785   0.888   4.315   6.554 -0.8785 -0.4606 -0.5927
 4051SOL    HW123786   0.834   4.237   6.569  0.8675 -1.8183 -1.3506
 4051SOL    HW223787   0.885   4.347   6.645 -1.0805  1.0498 -1.1387
 4052SOL     OW23788   1.480   0.777   9.335  0.4319 -0.1192 -0.3217
 4052SOL    HW123789   1.575   0.776   9.331  0.4577  4.2533 -0.7308
 4052SOL    HW223790   1.467   0.862   9.377 -1.4342 -0.0681 -0.9686
 4053SOL     OW23791   1.515   2.225   4.975 -0.4119 -0.9669 -0.6611
 4053SOL    HW123792   1.558   2.249   5.057 -1.1862  1.2786 -0.9228
 4053SOL    HW223793   1.477   2.303   4.936 -0.6375 -0.0310  1.4388
 4054SOL     OW23794   3.233   2.164  12.448 -0.3075 -0.2794 -0.6067
 4054SOL    HW123795   3.214   2.073  12.470  0.5536 -0.6005 -1.2045
 4054SOL    HW223796   3.206   2.201  12.533  0.5668  3.7935 -2.1025
 4055SOL     OW23797   1.749   3.229   5.614  0.2062 -0.1212 -0.0988
 4055SOL    HW123798   1.691   3.169   5.567 -0.0037 -0.0045  0.0115
 4055SOL    HW223799   1.714   3.312   5.581 -0.1509 -0.2509 -0.0455
 4056SOL     OW23800   4.385   3.941   0.235  0.2406  0.6688 -0.5076
 4056SOL    HW123801   4.454   4.008   0.228 -0.8695  1.8790  0.0348
 4056SOL    HW223802   4.426   3.870   0.187  1.9270  1.3039 -0.0428
 4057SOL     OW23803   2.088   0.678   8.949 -0.2301  0.0434  0.4681
 4057SOL    HW123804   2.178   0.668   8.981  0.6498  0.5504 -1.8513
 4057SOL    HW223805   2.046   0.650   9.030  1.6129  0.2604  1.5104
 4058SOL     OW23806   1.553   1.732  12.879  0.4926  0.0098 -0.1711
 4058SOL    HW123807   1.557   1.697  12.968 -2.6789 -0.1368 -0.0871
 4058SOL    HW223808   1.605   1.667  12.832 -0.6584 -0.4034 -0.8753
 4059SOL     OW23809   3.625   0.503   5.457 -0.0947  0.1667 -0.5510
 4059SOL    HW123810   3.554   0.439   5.465 -1.2565  1.3193 -1.9158
 4059SOL    HW223811   3.644   0.506   5.551 -0.7258  2.2006 -0.4922
 4060SOL     OW23812   4.170   0.030  13.232  0.4223 -0.4658  0.2531
 4060SOL    HW123813   4.091   4.713  13.239 -0.1682  0.4447  0.3907
 4060SOL    HW223814   4.141   0.119  13.250  1.3251 -0.4818  1.8301
 4061SOL     OW23815   2.218   2.073   8.900  0.6163  0.1635 -0.1734
 4061SOL    HW123816   2.170   1.991   8.889  1.2727 -0.0034 -1.7487
 4061SOL    HW223817   2.276   2.075   8.824 -0.3698  1.9836 -0.8704
 4062SOL     OW23818   4.443   0.516   5.155 -0.2546 -0.2682 -0.1532
 4062SOL    HW123819   4.391   0.536   5.233 -1.0694 -2.1430 -0.2290
 4062SOL    HW223820   4.380   0.545   5.088 -0.2600  0.5966  0.2198
 4063SOL     OW23821   0.359   2.344   9.374  0.1392 -0.3489 -0.0428
 4063SOL    HW123822   0.376   2.437   9.363 -0.2269 -0.2093  0.6194
 4063SOL    HW223823   0.344   2.333   9.468  1.2737 -1.5843 -0.0029
 4064SOL     OW23824   4.681   3.650  16.289  0.2966  0.0339  0.4340
 4064SOL    HW123825   0.036   3.651  16.321  0.5316  1.7327 -0.2659
 4064SOL    HW223826   4.631   3.702  16.352  0.8395  1.1680 -0.0681
 4065SOL     OW23827   4.489   4.158   4.173 -0.1050  0.3307 -0.0645
 4065SOL    HW123828   4.571   4.113   4.153  0.2722  0.4615  1.1854
 4065SOL    HW223829   4.528   4.234   4.215 -0.5212 -0.3143  1.5303
 4066SOL     OW23830   2.760   3.732   3.592 -0.2155  0.0247  0.2651
 4066SOL    HW123831   2.781   3.818   3.558  1.3204 -0.8020 -0.8708
 4066SOL    HW223832   2.666   3.738   3.573 -0.4542 -3.1031  0.4289
 4067SOL     OW23833   3.011   1.506   2.146  0.2212  0.1578  0.4672
 4067SOL    HW123834   2.938   1.567   2.153 -0.4550 -0.7061  0.9644
 4067SOL    HW223835   2.979   1.464   2.066  0.6672 -0.9534  0.8731
 4068SOL     OW23836   0.855   4.394  14.548  0.2170 -0.0757  0.3688
 4068SOL    HW123837   0.926   4.407  14.486 -2.0612  0.4725 -2.1527
 4068SOL    HW223838   0.886   4.317  14.596  0.1267  1.5160  2.9849
 4069SOL     OW23839   1.081   4.295   8.712 -0.0527  0.6015 -0.1219
 4069SOL    HW123840   1.169   4.312   8.745 -2.2742  6.3721  2.9821
 4069SOL    HW223841   1.048   4.239   8.782  0.7061 -0.2931 -0.4819
 4070SOL     OW23842   0.520   0.721   3.111  0.4172 -0.5812  0.4275
 4070SOL    HW123843   0.436   0.732   3.067  2.5640 -0.0561 -3.6262
 4070SOL    HW223844   0.574   0.777   3.054  0.4800  0.1113  1.1630
 4071SOL     OW23845   3.225   3.877  13.655  0.5277  0.2559 -0.6837
 4071SOL    HW123846   3.238   3.797  13.604  1.1559 -0.7296  0.9928
 4071SOL    HW223847   3.297   3.934  13.627  0.4134  0.2736 -0.9398
 4072SOL     OW23848   3.706   3.151   2.328 -0.0861 -0.0087  0.4073
 4072SOL    HW123849   3.645   3.085   2.295 -0.5526  0.5668  0.1063
 4072SOL    HW223850   3.747   3.180   2.246 -0.4275 -0.1071  0.1998
 4073SOL     OW23851   0.085   1.580   5.524  0.7262  0.4319  0.1231
 4073SOL    HW123852   0.029   1.597   5.600 -0.2713 -1.4400 -0.2002
 4073SOL    HW223853   0.040   1.631   5.457  1.6252  1.4072  0.2577
 4074SOL     OW23854   0.975   1.640   3.164  0.2322  0.0095 -0.0088
 4074SOL    HW123855   0.974   1.620   3.258 -1.6318  1.1003  0.1929
 4074SOL    HW223856   0.925   1.721   3.168  0.0627 -0.1103  0.3423
 4075SOL     OW23857   4.010   1.516  17.568  0.0958  0.4200 -0.6495
 4075SOL    HW123858   4.067   1.484  17.498  0.5243 -3.0685  1.3060
 4075SOL    HW223859   3.929   1.533  17.519  0.7675  4.1858 -0.4291
 4076SOL     OW23860   0.716   2.715  11.397 -0.3026  0.0334  0.3587
 4076SOL    HW123861   0.772   2.685  11.324  0.6865  0.7030  0.8487
 4076SOL    HW223862   0.697   2.635  11.446  0.7619 -1.4183 -1.5500
 4077SOL     OW23863   2.071   2.398   5.250 -0.6362  0.3259  0.7408
 4077SOL    HW123864   2.043   2.395   5.158 -0.2593  1.4027  0.5881
 4077SOL    HW223865   2.158   2.434   5.228 -0.9755  1.6890  1.6274
 4078SOL     OW23866   2.689   3.431   5.699  0.1291  0.4016  0.3356
 4078SOL    HW123867   2.652   3.378   5.628 -2.1277  1.5903  0.6093
 4078SOL    HW223868   2.625   3.421   5.769 -1.4908  1.3469 -0.9775
 4079SOL     OW23869   2.327   1.645   2.827  0.0393 -0.5239 -0.3115
 4079SOL    HW123870   2.321   1.550   2.837  0.4660 -0.6452 -1.2305
 4079SOL    HW223871   2.332   1.652   2.731  2.2386 -1.5263 -0.2757
 4080SOL     OW23872   4.422   2.511   3.843 -0.3247  0.1343  0.4294
 4080SOL    HW123873   4.364   2.444   3.878  0.9880  0.5785  3.4355
 4080SOL    HW223874   4.379   2.528   3.759 -0.5794  3.0888  1.1299
 4081SOL     OW23875   1.903   2.560  15.790 -0.0699  0.0847  0.2100
 4081SOL    HW123876   1.900   2.485  15.730 -0.9710 -0.0211  0.3785
 4081SOL    HW223877   1.909   2.515  15.874 -1.8819  2.1781  1.4772
 4082SOL     OW23878   2.159   4.266   4.126 -0.0153  0.0835 -0.2635
 4082SOL    HW123879   2.178   4.329   4.056 -1.0733 -1.3176 -1.8165
 4082SOL    HW223880   2.064   4.271   4.120 -0.0559 -1.3748 -0.7055
 4083SOL     OW23881   1.038   0.893  16.156 -0.0378 -0.5383 -0.2942
 4083SOL    HW123882   1.011   0.821  16.213  2.1735  0.0416  1.4873
 4083SOL    HW223883   1.003   0.863  16.072  0.4589 -0.5442 -0.4988
 4084SOL     OW23884   4.075   2.274   2.811  0.1146 -0.1086  0.8903
 4084SOL    HW123885   4.025   2.328   2.873 -1.7346 -0.7679 -0.0475
 4084SOL    HW223886   4.070   2.327   2.732 -0.8294  0.9992  1.7031
 4085SOL     OW23887   1.161   1.798  14.746 -0.4166 -0.0852 -0.4050
 4085SOL    HW123888   1.226   1.767  14.810 -0.7518 -0.6141 -0.3231
 4085SOL    HW223889   1.143   1.883  14.787  0.0430 -0.2655  0.1783
 4086SOL     OW23890   0.051   0.865   4.676 -0.0423 -0.4035  0.3768
 4086SOL    HW123891   0.054   0.810   4.598 -0.3226  0.3766 -0.1846
 4086SOL    HW223892   0.129   0.919   4.669 -0.5085  0.3250  0.7510
 4087SOL     OW23893   2.913   0.850   3.724  0.2916 -0.2484  0.3343
 4087SOL    HW123894   2.904   0.941   3.695 -0.2796  0.2273  2.0249
 4087SOL    HW223895   2.947   0.814   3.642 -0.4662 -0.3721  0.0718
 4088SOL     OW23896   4.462   1.117   4.465 -0.7068 -0.3456 -0.2890
 4088SOL    HW123897   4.460   1.192   4.406 -1.6728  0.1167  0.3382
 4088SOL    HW223898   4.474   1.049   4.398 -4.2229 -0.9077 -0.3463
 4089SOL     OW23899   2.164   4.196  13.843  0.0025 -0.2252  0.6635
 4089SOL    HW123900   2.166   4.269  13.905  1.0638 -0.5291  0.9968
 4089SOL    HW223901   2.079   4.161  13.869 -0.0388 -0.3181  0.3938
 4090SOL     OW23902   2.243   1.446   6.364 -0.3322 -0.2211 -0.3351
 4090SOL    HW123903   2.325   1.424   6.320  0.2936 -0.5369  1.0064
 4090SOL    HW223904   2.251   1.542   6.365  1.1304 -0.3584  0.0453
 4091SOL     OW23905   3.642   1.890  17.053  0.6259 -0.4770  0.1489
 4091SOL    HW123906   3.597   1.960  17.100 -1.0560 -3.5701  3.0383
 4091SOL    HW223907   3.640   1.817  17.115 -1.0337 -0.1296  0.4912
 4092SOL     OW23908   4.559   2.370  16.421 -0.2513  0.3047  0.1687
 4092SOL    HW123909   4.615   2.445  16.403 -1.2485  0.5616 -1.7686
 4092SOL    HW223910   4.584   2.317  16.346  1.2990  0.7198  0.3907
 4093SOL     OW23911   3.371   1.182   4.071 -0.0741 -0.1765  0.1313
 4093SOL    HW123912   3.328   1.189   4.157  3.7350 -0.3401  2.0451
 4093SOL    HW223913   3.287   1.177   4.024 -0.1134  1.1030  0.0480
 4094SOL     OW23914   4.149   1.998  13.875 -0.1018 -0.2973 -0.2394
 4094SOL    HW123915   4.104   1.936  13.819 -0.6480 -0.5958  0.5310
 4094SOL    HW223916   4.078   2.058  13.901 -0.4059 -0.3153 -1.0358
 4095SOL     OW23917   3.912   1.762   7.414 -0.0975  0.1516  0.1830
 4095SOL    HW123918   3.906   1.763   7.318  1.0468 -1.7371  0.0965
 4095SOL    HW223919   3.822   1.741   7.440  0.6252 -1.0991  1.6571
 4096SOL     OW23920   3.651   1.925   6.699 -0.3664 -0.0764  0.1816
 4096SOL    HW123921   3.713   1.855   6.717  1.4376  1.8149  1.4125
 4096SOL    HW223922   3.563   1.887   6.700 -1.3953  2.2584 -0.8326
 4097SOL     OW23923   2.218   2.304   7.705 -0.3401 -0.1702 -0.0740
 4097SOL    HW123924   2.232   2.231   7.645 -0.6866  0.1576 -0.5561
 4097SOL    HW223925   2.236   2.381   7.650  1.0927  0.2133  0.9265
 4098SOL     OW23926   0.916   3.952   7.383  0.1718  0.7659 -0.0834
 4098SOL    HW123927   0.897   3.967   7.475  2.5682 -1.7270  0.7972
 4098SOL    HW223928   0.967   4.030   7.359  1.4346  0.5090  1.7953
 4099SOL     OW23929   2.420   3.154  13.918 -0.4813 -0.2327  0.7328
 4099SOL    HW123930   2.488   3.212  13.954 -1.3622  0.8269  0.6901
 4099SOL    HW223931   2.434   3.072  13.965  1.3892  0.2861  1.1075
 4100SOL     OW23932   1.694   2.395  10.304 -0.1909  0.1224  0.7394
 4100SOL    HW123933   1.671   2.413  10.213  0.3380 -0.1694  0.5553
 4100SOL    HW223934   1.606   2.413  10.339 -0.2803  1.7342 -0.2738
 4101SOL     OW23935   3.409   0.758   8.629 -0.0154 -0.2660 -0.1168
 4101SOL    HW123936   3.367   0.841   8.651  1.5567  1.3942 -3.2943
 4101SOL    HW223937   3.379   0.698   8.697 -0.0258 -0.7121 -0.5126
 4102SOL     OW23938   1.259   3.698   7.271  0.5484 -0.6304 -0.1246
 4102SOL    HW123939   1.316   3.712   7.196  2.9364 -0.5079  1.7236
 4102SOL    HW223940   1.202   3.624   7.246  0.5575 -0.3054 -1.1228
 4103SOL     OW23941   2.809   1.251  10.545 -0.1105  0.6539  1.1535
 4103SOL    HW123942   2.869   1.187  10.506 -0.2256  1.4082 -0.2646
 4103SOL    HW223943   2.819   1.221  10.635 -1.7018 -0.6951  0.8792
 4104SOL     OW23944   1.251   3.225   5.659 -0.3314 -0.1288  0.0422
 4104SOL    HW123945   1.285   3.248   5.746  1.8492 -0.4615 -0.7315
 4104SOL    HW223946   1.158   3.236   5.681 -0.2941 -1.3563  0.7985
 4105SOL     OW23947   0.857   1.341   6.207  0.4373  0.3546  0.1008
 4105SOL    HW123948   0.832   1.284   6.280  1.6444  0.5652  0.6849
 4105SOL    HW223949   0.818   1.304   6.128 -0.0476  0.5554  0.2506
 4106SOL     OW23950   0.413   1.331  15.297 -0.2659  0.1962  0.1980
 4106SOL    HW123951   0.463   1.260  15.338  0.1618  0.6946  0.5491
 4106SOL    HW223952   0.458   1.342  15.214  1.4440 -2.2221  0.7786
 4107SOL     OW23953   4.475   1.263  17.496 -0.2604  0.4337 -0.2656
 4107SOL    HW123954   4.521   1.201  17.440 -1.6063  0.9489 -1.9523
 4107SOL    HW223955   4.511   1.345  17.460 -1.3027  0.3010 -1.5992
 4108SOL     OW23956   2.830   1.441  12.022  0.1473  0.0080  0.3708
 4108SOL    HW123957   2.805   1.389  12.098 -2.4864  1.7919  0.7208
 4108SOL    HW223958   2.873   1.517  12.060 -0.7778  0.6775  0.0748
 4109SOL     OW23959   1.002   4.349   1.789  0.3570  0.5230  0.4432
 4109SOL    HW123960   1.083   4.400   1.792 -0.5768  1.8400  3.3203
 4109SOL    HW223961   1.007   4.313   1.701  0.7325 -0.8671  1.0361
 4110SOL     OW23962   0.017   0.694  10.734  0.2387  0.3260  0.6141
 4110SOL    HW123963   0.081   0.626  10.754 -1.5423 -2.0486 -1.6606
 4110SOL    HW223964   4.676   0.639  10.715  1.6766 -0.5574 -2.5818
 4111SOL     OW23965   4.303   0.199   7.014 -0.1783  0.3052 -0.0140
 4111SOL    HW123966   4.383   0.205   7.066 -0.3464  1.4219  0.1299
 4111SOL    HW223967   4.339   0.153   6.938 -0.9173 -1.1492  0.5095
 4112SOL     OW23968   0.359   3.855   9.434  0.0810 -0.1444  0.4119
 4112SOL    HW123969   0.428   3.871   9.499 -0.1965 -3.0281  1.4394
 4112SOL    HW223970   0.383   3.773   9.390  1.4702  0.3979  0.1592
 4113SOL     OW23971   2.334   1.925   6.620 -0.1289 -0.1008  0.7688
 4113SOL    HW123972   2.298   1.888   6.539  3.5167 -0.5024 -0.6869
 4113SOL    HW223973   2.340   1.856   6.686  1.3040 -2.3413 -1.6704
 4114SOL     OW23974   0.801   2.039   8.905 -0.2135  0.1833 -0.4579
 4114SOL    HW123975   0.729   2.101   8.908 -0.1224  0.3122 -1.1181
 4114SOL    HW223976   0.764   1.955   8.933  0.0467 -0.0014 -0.6759
 4115SOL     OW23977   2.980   3.923  11.030  0.3305 -0.5383  0.1478
 4115SOL    HW123978   3.002   4.011  11.061 -3.3728  0.0235  1.2863
 4115SOL    HW223979   3.067   3.884  11.027 -0.1464 -1.5573 -0.5123
 4116SOL     OW23980   0.293   1.461   6.395 -0.0507  0.1096 -0.2187
 4116SOL    HW123981   0.324   1.535   6.344  1.5692  1.4638  2.7566
 4116SOL    HW223982   0.342   1.388   6.356  0.3326 -0.7609  1.8771
 4117SOL     OW23983   3.781   4.539   5.691  0.0402  0.0264  0.0345
 4117SOL    HW123984   3.686   4.532   5.688  0.2301 -3.4659  1.7515
 4117SOL    HW223985   3.807   4.452   5.660 -1.6683  0.0182 -1.4111
 4118SOL     OW23986   0.720   2.401   2.184 -0.1034 -0.2480 -0.4449
 4118SOL    HW123987   0.704   2.319   2.139  1.0894 -0.7535  0.0611
 4118SOL    HW223988   0.763   2.364   2.261  1.0521 -0.8620 -1.3870
 4119SOL     OW23989   0.661   1.663   6.987 -0.2199 -0.0488 -0.4173
 4119SOL    HW123990   0.627   1.592   7.041 -2.3963 -1.0489 -3.0830
 4119SOL    HW223991   0.600   1.729   7.020  0.9721  1.6734 -1.6851
 4120SOL     OW23992   3.881   1.765  14.583  0.0348 -0.7284  0.4605
 4120SOL    HW123993   3.800   1.809  14.557  1.3319  0.6477 -1.2529
 4120SOL    HW223994   3.890   1.679  14.541  2.6249  0.4997 -1.4938
 4121SOL     OW23995   1.313   1.916  13.995 -0.2318  0.1350 -0.1630
 4121SOL    HW123996   1.329   1.884  13.906 -2.0371 -2.1016  0.3198
 4121SOL    HW223997   1.370   1.992  14.002  1.6879 -1.1191 -2.2542
 4122SOL     OW23998   3.765   0.021   1.770  0.4220 -0.1516 -0.3899
 4122SOL    HW123999   3.692   4.730   1.714  0.3792 -0.7115 -0.0760
 4122SOL    HW224000   3.763   4.693   1.842 -1.9944  0.7030  0.3167
 4123SOL     OW24001   2.100   2.925   6.450  0.5214 -0.1510  0.1267
 4123SOL    HW124002   2.047   2.952   6.375  1.9962 -0.2935 -0.9691
 4123SOL    HW224003   2.052   2.945   6.530  0.4723 -1.0920  0.3294
 4124SOL     OW24004   0.292   0.303   3.790  0.1376  0.7619 -0.8030
 4124SOL    HW124005   0.360   0.237   3.805  0.4364  1.1655 -0.3779
 4124SOL    HW224006   0.314   0.333   3.702 -0.6851  1.2681 -0.8339
 4125SOL     OW24007   4.284   4.473  10.016  0.0342  0.3443 -0.4041
 4125SOL    HW124008   4.370   4.515  10.012  0.2994 -0.0763  1.0201
 4125SOL    HW224009   4.304   4.380  10.006 -4.0910 -0.8469  2.2678
 4126SOL     OW24010   3.133   2.148  17.509  0.5178  0.3344 -0.8692
 4126SOL    HW124011   3.084   2.131  17.429 -1.1781  1.1914 -0.0129
 4126SOL    HW224012   3.222   2.161  17.477  1.2283 -2.9050 -0.1405
 4127SOL     OW24013   4.198   3.794   7.539  0.6031 -0.4133 -0.1161
 4127SOL    HW124014   4.197   3.882   7.577  2.8441 -0.7807  0.7590
 4127SOL    HW224015   4.165   3.745   7.615  0.2296  0.1960  0.1173
 4128SOL     OW24016   0.238   2.711   8.502 -0.0129  0.5273 -0.5998
 4128SOL    HW124017   0.274   2.692   8.589 -1.7558 -0.7651 -0.1342
 4128SOL    HW224018   0.297   2.662   8.446 -0.7028 -0.7585 -0.2132
 4129SOL     OW24019   1.433   1.256   5.777 -0.1014  0.1125 -0.3725
 4129SOL    HW124020   1.352   1.209   5.754  0.7831 -1.4277 -0.3430
 4129SOL    HW224021   1.480   1.182   5.816 -1.3521 -0.4591  0.0974
 4130SOL     OW24022   0.166   1.590   3.669 -0.3667  0.2034 -0.1274
 4130SOL    HW124023   0.203   1.635   3.745 -1.6719  2.0312 -0.5496
 4130SOL    HW224024   0.244   1.547   3.634 -0.3901  0.3140 -0.3155
 4131SOL     OW24025   2.932   2.938  17.507  0.1000  0.3206 -0.0115
 4131SOL    HW124026   2.874   2.872  17.467 -1.1773  0.3012  1.8729
 4131SOL    HW224027   2.872   3.012  17.497 -1.2010 -0.6317  0.7217
 4132SOL     OW24028   4.169   3.559   6.158 -0.4887  0.3807  0.0035
 4132SOL    HW124029   4.182   3.535   6.249 -0.5599 -2.0615 -0.6492
 4132SOL    HW224030   4.141   3.471   6.134 -0.2673 -0.2289  2.0057
 4133SOL     OW24031   1.798   0.793   8.988 -0.1194  0.4191  0.2360
 4133SOL    HW124032   1.890   0.768   8.973 -0.1177 -0.0811  1.1189
 4133SOL    HW224033   1.781   0.858   8.919  1.7401 -0.3276 -0.9426
 4134SOL     OW24034   1.412   1.415  10.368  0.1596 -0.5296 -0.4321
 4134SOL    HW124035   1.378   1.504  10.373  0.2476 -0.5404  0.3505
 4134SOL    HW224036   1.364   1.372  10.439 -0.0205 -1.1622 -0.9369
 4135SOL     OW24037   1.137   1.279   7.954  0.1856 -0.5576 -0.2710
 4135SOL    HW124038   1.111   1.363   7.918 -1.1812  0.0148  2.0513
 4135SOL    HW224039   1.078   1.276   8.029  0.4425 -1.6055 -0.0990
 4136SOL     OW24040   2.751   1.565   5.238 -0.2215 -0.6237  0.5444
 4136SOL    HW124041   2.771   1.508   5.163  0.8159  0.2461  0.1599
 4136SOL    HW224042   2.656   1.566   5.250 -0.3057 -3.0494  0.0821
 4137SOL     OW24043   4.395   3.008   0.468  0.3259  0.6332  0.3048
 4137SOL    HW124044   4.341   3.085   0.482  1.1409  1.0776  0.9857
 4137SOL    HW224045   4.478   3.045   0.499  1.4735 -0.6725 -1.1898
 4138SOL     OW24046   0.460   3.523   5.322  0.2584  0.2309  0.1489
 4138SOL    HW124047   0.485   3.525   5.230  2.2176  0.1578  0.6760
 4138SOL    HW224048   0.400   3.597   5.323 -0.4205 -0.3023 -2.4082
 4139SOL     OW24049   2.942   3.107   6.703  0.3888 -0.0784 -0.2383
 4139SOL    HW124050   3.005   3.093   6.633 -0.6920  0.3663 -1.2909
 4139SOL    HW224051   2.865   3.093   6.649  0.6949 -2.0908 -0.1465
 4140SOL     OW24052   4.140   3.568   2.990 -0.1313 -0.3049 -0.1159
 4140SOL    HW124053   4.182   3.616   3.061  0.9968  0.0197 -1.0106
 4140SOL    HW224054   4.153   3.629   2.917  1.6206 -2.0627 -1.2639
 4141SOL     OW24055   0.526   3.705   8.265  0.2068  0.1360 -0.1820
 4141SOL    HW124056   0.555   3.705   8.356  0.4644 -0.7183 -0.2654
 4141SOL    HW224057   0.517   3.614   8.237 -1.8635  0.4930 -0.6533
 4142SOL     OW24058   4.002   4.037   7.480 -0.0472 -0.8103  0.0467
 4142SOL    HW124059   3.993   4.099   7.407 -2.1062  0.0562  1.0518
 4142SOL    HW224060   3.998   3.962   7.421  3.1561 -0.3084 -0.8130
 4143SOL     OW24061   0.381   3.466  15.684  0.1030  0.4600  0.4197
 4143SOL    HW124062   0.463   3.438  15.644  0.0252  0.2261  0.4194
 4143SOL    HW224063   0.325   3.388  15.678  1.8633 -0.9057  1.8719
 4144SOL     OW24064   0.423   4.616  13.847 -0.1389 -0.1615 -0.0294
 4144SOL    HW124065   0.511   4.595  13.815  0.0025 -1.7738  1.4446
 4144SOL    HW224066   0.433   4.710  13.866  0.2360  0.0807 -1.4287
 4145SOL     OW24067   2.087   3.026   8.271 -0.1443  0.2708  0.2564
 4145SOL    HW124068   2.050   3.111   8.248 -0.6876 -0.4652 -1.5489
 4145SOL    HW224069   2.074   2.970   8.195  3.0693  1.1168 -0.9167
 4146SOL     OW24070   3.255   4.234   8.130  0.1370 -0.1915 -0.8832
 4146SOL    HW124071   3.199   4.311   8.137 -1.5329 -1.5839  0.9482
 4146SOL    HW224072   3.257   4.192   8.216 -1.6703  0.5744 -0.4764
 4147SOL     OW24073   3.288   2.545   5.758 -0.1696  0.2120  0.3877
 4147SOL    HW124074   3.198   2.549   5.724  0.4565  0.2523 -1.2236
 4147SOL    HW224075   3.282   2.492   5.838  0.5437  0.5745  0.6809
 4148SOL     OW24076   1.597   2.723   4.215  0.6417  0.7528  0.0550
 4148SOL    HW124077   1.575   2.710   4.123 -0.9028 -2.6918  0.8740
 4148SOL    HW224078   1.690   2.702   4.216  0.5290  0.2636  1.3380
 4149SOL     OW24079   3.104   1.545  15.906 -0.3586 -0.0462 -0.1227
 4149SOL    HW124080   3.106   1.629  15.952  0.0183 -1.5359  2.5811
 4149SOL    HW224081   3.195   1.536  15.878  0.0241 -1.2886  1.5218
 4150SOL     OW24082   2.771   1.782   7.883 -0.8249  0.3791  0.2196
 4150SOL    HW124083   2.706   1.746   7.823  2.2312 -3.0586 -1.0514
 4150SOL    HW224084   2.766   1.717   7.953 -1.5085 -0.3094 -0.4583
 4151SOL     OW24085   3.648   2.934  13.940 -0.7652 -0.0232  0.2837
 4151SOL    HW124086   3.586   2.985  13.992 -1.1917  1.7662 -1.9688
 4151SOL    HW224087   3.729   2.984  13.941 -0.8434  0.0793  1.0490
 4152SOL     OW24088   0.768   3.732  12.259  0.1370  0.4130 -0.0728
 4152SOL    HW124089   0.673   3.731  12.275 -0.7487  0.2948 -5.1620
 4152SOL    HW224090   0.794   3.645  12.290 -2.1290 -0.1063  0.4062
 4153SOL     OW24091   0.566   3.125   5.836  0.6267  0.1816  0.0825
 4153SOL    HW124092   0.485   3.157   5.796  0.5610  0.9628  0.8404
 4153SOL    HW224093   0.563   3.036   5.800  0.2608  0.4142 -0.4525
 4154SOL     OW24094   2.966   3.433   1.403  0.2396 -0.3954 -0.1253
 4154SOL    HW124095   2.972   3.519   1.445  0.0736  0.4431 -1.8291
 4154SOL    HW224096   2.881   3.399   1.430 -0.4514  1.7909  0.4662
 4155SOL     OW24097   3.237   0.553   8.736  0.6161  0.2532 -0.0167
 4155SOL    HW124098   3.285   0.471   8.733 -1.7020 -1.1241 -0.1018
 4155SOL    HW224099   3.251   0.579   8.827 -1.2741  0.7754  0.1401
 4156SOL     OW24100   1.077   2.784  17.057  0.0266 -0.4004 -0.1036
 4156SOL    HW124101   1.102   2.722  16.989  1.1913  1.1461 -1.1030
 4156SOL    HW224102   1.152   2.785  17.117 -0.3141  1.7424  0.3197
 4157SOL     OW24103   2.293   2.840  15.069  0.4157 -0.7672  0.0152
 4157SOL    HW124104   2.258   2.757  15.102 -1.6045 -1.1081 -3.0226
 4157SOL    HW224105   2.377   2.841  15.114 -0.6219 -2.3591  2.0097
 4158SOL     OW24106   3.579   1.793   8.361 -0.0949 -0.7359 -0.3912
 4158SOL    HW124107   3.566   1.721   8.298 -3.6404 -0.4940  0.0429
 4158SOL    HW224108   3.579   1.864   8.296  0.9544 -1.6272 -1.3637
 4159SOL     OW24109   0.662   3.999   8.141 -0.2066  0.2304  0.0359
 4159SOL    HW124110   0.595   3.939   8.174  0.8912 -0.5621  0.8136
 4159SOL    HW224111   0.614   4.081   8.146 -0.0463  0.3134  0.2248
 4160SOL     OW24112   1.657   1.401   4.575 -0.1855 -0.2517 -0.8098
 4160SOL    HW124113   1.696   1.417   4.661 -0.7163  0.2783 -0.6680
 4160SOL    HW224114   1.729   1.429   4.518  0.3054  2.5953  1.2302
 4161SOL     OW24115   4.394   1.395  11.125 -0.0492 -0.2741  0.0654
 4161SOL    HW124116   4.446   1.371  11.201 -0.3222 -2.1735 -0.3414
 4161SOL    HW224117   4.307   1.399  11.164  0.1872 -0.5305  0.6145
 4162SOL     OW24118   2.927   1.583  13.137 -0.3685  0.5174 -0.1476
 4162SOL    HW124119   2.848   1.596  13.189 -0.1924 -3.4224  1.0803
 4162SOL    HW224120   2.961   1.672  13.141 -0.6892  0.5278  2.2242
 4163SOL     OW24121   1.873   3.916  14.287 -0.3235  0.5261  0.3336
 4163SOL    HW124122   1.778   3.928  14.286 -0.4321 -0.3589  0.2296
 4163SOL    HW224123   1.900   3.897  14.377 -1.6337  0.3655  0.6798
 4164SOL     OW24124   3.053   2.419   4.825  0.2810  0.3161 -0.0294
 4164SOL    HW124125   3.141   2.404   4.789  0.3704  0.0400  0.3056
 4164SOL    HW224126   2.994   2.386   4.757 -0.4837  0.4487  0.5734
 4165SOL     OW24127   3.049   2.038   2.742 -0.0154  0.0107  0.0723
 4165SOL    HW124128   2.961   2.040   2.778  0.3897  0.2834  1.0468
 4165SOL    HW224129   3.045   1.957   2.691  0.7848 -0.1464  0.2512
 4166SOL     OW24130   2.001   0.276   4.686  0.4000 -0.0269 -0.6297
 4166SOL    HW124131   1.941   0.203   4.698  0.4197  0.2852  1.4391
 4166SOL    HW224132   1.975   0.325   4.609 -0.0241 -1.7605 -1.5794
 4167SOL     OW24133   0.572   1.109   7.352 -0.3754  0.1078  0.0027
 4167SOL    HW124134   0.561   1.179   7.416  1.3539  0.0685  0.3481
 4167SOL    HW224135   0.513   1.039   7.381 -1.3124 -0.1525 -2.5271
 4168SOL     OW24136   4.038   3.995  10.215 -0.3824  0.4099 -0.1004
 4168SOL    HW124137   4.062   3.998  10.123 -0.6608  0.3305 -0.1762
 4168SOL    HW224138   3.957   3.946  10.202  1.0581 -1.7974 -0.8031
 4169SOL     OW24139   2.745   3.254  12.091 -0.5077  0.0724 -0.2410
 4169SOL    HW124140   2.670   3.200  12.118 -0.1690  0.3639  1.3199
 4169SOL    HW224141   2.811   3.208  12.143 -0.4077  1.0305  0.4758
 4170SOL     OW24142   4.165   2.664  14.913  0.2255 -0.9675 -0.3889
 4170SOL    HW124143   4.138   2.746  14.872 -0.1424 -1.5045 -1.2286
 4170SOL    HW224144   4.119   2.606  14.853 -1.1849 -0.6669  0.4145
 4171SOL     OW24145   1.119   2.606   5.975  0.3224  0.3136 -0.5161
 4171SOL    HW124146   1.173   2.603   5.895  1.0031  0.6234 -0.0658
 4171SOL    HW224147   1.095   2.514   5.980  0.8945  0.3724  3.0474
 4172SOL     OW24148   3.848   2.815   1.384  0.5463  0.1851  0.2437
 4172SOL    HW124149   3.889   2.767   1.456  2.2860  1.7048  0.2663
 4172SOL    HW224150   3.766   2.837   1.429  0.9046 -0.9745  1.4592
 4173SOL     OW24151   3.220   2.238   8.505  0.1123  0.1388 -0.3986
 4173SOL    HW124152   3.246   2.149   8.530 -1.7950 -0.8760 -2.0654
 4173SOL    HW224153   3.182   2.198   8.427 -1.7335 -1.4501  1.3033
 4174SOL     OW24154   4.552   1.258  12.834  0.6791  0.5152 -1.0689
 4174SOL    HW124155   4.640   1.251  12.798  0.8396  0.8947 -0.7527
 4174SOL    HW224156   4.574   1.270  12.926 -1.8631 -2.1825 -0.0893
 4175SOL     OW24157   1.424   2.247   9.155  0.2581  0.6422 -0.3526
 4175SOL    HW124158   1.485   2.178   9.131  1.4478  0.4669  3.1029
 4175SOL    HW224159   1.474   2.327   9.139  0.0877  0.3575 -2.2435
 4176SOL     OW24160   0.962   3.275  17.482  0.3947  0.0576  0.0926
 4176SOL    HW124161   0.969   3.313  17.394  1.6248 -0.5089 -0.0549
 4176SOL    HW224162   0.875   3.299  17.514 -0.8936 -2.0232 -1.8305
 4177SOL     OW24163   3.449   2.800   0.696  0.0743 -0.5558 -0.1861
 4177SOL    HW124164   3.534   2.781   0.736 -0.4437  2.0755  2.1544
 4177SOL    HW224165   3.454   2.742   0.620  1.4218 -1.2955  0.4729
 4178SOL     OW24166   2.206   0.847  12.053  1.1125  0.8237 -0.0871
 4178SOL    HW124167   2.223   0.828  12.145 -0.4937  0.8099  0.2111
 4178SOL    HW224168   2.196   0.761  12.014  0.0217  0.2518  1.4629
 4179SOL     OW24169   0.065   1.167  11.367 -0.3452 -0.7147  0.2201
 4179SOL    HW124170   0.106   1.083  11.347  1.8754  0.1365  1.2162
 4179SOL    HW224171   0.110   1.195  11.446  0.3608  0.3762 -0.5659
 4180SOL     OW24172   1.519   1.050   6.852 -0.0481  0.7419  0.3412
 4180SOL    HW124173   1.526   1.085   6.763 -0.9775  0.5138  0.1722
 4180SOL    HW224174   1.552   0.961   6.845  2.5849  1.8302 -0.7405
 4181SOL     OW24175   1.575   2.620   5.166 -0.4627 -0.2594 -0.2939
 4181SOL    HW124176   1.543   2.689   5.224  1.5307 -0.2868  0.8309
 4181SOL    HW224177   1.661   2.603   5.204  0.4692  0.2475 -2.1888
 4182SOL     OW24178   4.069   4.596   8.169  0.6205 -0.6708  0.2485
 4182SOL    HW124179   4.001   4.530   8.182  0.9696 -0.7651  1.5912
 4182SOL    HW224180   4.139   4.555   8.220  0.2924  0.4348  1.6010
 4183SOL     OW24181   0.420   2.411   6.071 -0.2382  0.5707  0.0680
 4183SOL    HW124182   0.388   2.461   6.146  3.2439  1.9610  0.6255
 4183SOL    HW224183   0.338   2.394   6.025  0.7943 -3.4335 -0.2709
 4184SOL     OW24184   2.440   2.614   2.163  0.8319 -0.0114  0.4097
 4184SOL    HW124185   2.512   2.553   2.150  1.8657  0.8986  1.8866
 4184SOL    HW224186   2.449   2.674   2.088 -1.8352  0.5436  0.5476
 4185SOL     OW24187   2.060   2.207   5.449 -0.5172  0.0454 -0.2979
 4185SOL    HW124188   2.147   2.169   5.435 -0.2283  1.3651 -2.0792
 4185SOL    HW224189   2.066   2.281   5.389 -2.7508  0.6395  0.2302
 4186SOL     OW24190   4.711   3.671   6.315 -0.5364  0.1407 -0.1540
 4186SOL    HW124191   4.711   3.715   6.230 -1.8219 -0.9490 -0.7145
 4186SOL    HW224192   4.624   3.693   6.347 -1.7910 -1.8807 -2.2360
 4187SOL     OW24193   4.394   2.438   4.624 -0.4487  0.2942  0.1742
 4187SOL    HW124194   4.346   2.505   4.672 -0.9493  1.2618 -1.6634
 4187SOL    HW224195   4.479   2.483   4.619  0.1635 -0.7962  0.7474
 4188SOL     OW24196   3.331   4.494   6.177  0.0444  0.5093 -0.3984
 4188SOL    HW124197   3.351   4.511   6.269 -0.0618  1.3939 -0.5380
 4188SOL    HW224198   3.312   4.401   6.165 -1.0772  0.7455 -0.4559
 4189SOL     OW24199   4.057   3.470   5.813  0.5489 -0.1548 -0.1916
 4189SOL    HW124200   4.053   3.377   5.792 -1.3726 -0.3436  1.0769
 4189SOL    HW224201   3.973   3.503   5.781  0.4471 -0.7763 -0.5508
 4190SOL     OW24202   3.130   3.190   2.863 -0.0753  0.2060 -0.4924
 4190SOL    HW124203   3.071   3.132   2.816  1.9056 -1.4899 -0.9065
 4190SOL    HW224204   3.119   3.278   2.828  2.1217  0.9605  0.6970
 4191SOL     OW24205   0.591   0.290  15.759  0.3546  0.4165  0.6665
 4191SOL    HW124206   0.603   0.353  15.830  2.9923 -0.8240  1.2945
 4191SOL    HW224207   0.495   0.283  15.752  0.2507  0.6205  1.7932
 4192SOL     OW24208   1.407   3.816  14.274 -0.0258 -0.1156  0.2295
 4192SOL    HW124209   1.348   3.777  14.339  1.5677 -3.0407 -0.0751
 4192SOL    HW224210   1.429   3.742  14.218 -1.7246 -0.8900  0.6099
 4193SOL     OW24211   0.344   0.785   2.875  0.1504 -0.4141  0.8423
 4193SOL    HW124212   0.364   0.870   2.915  0.9579 -0.0778 -0.2612
 4193SOL    HW224213   0.370   0.803   2.784 -0.5620 -1.8852  0.3393
 4194SOL     OW24214   1.788   1.462   6.504 -0.2249  0.1876  0.2728
 4194SOL    HW124215   1.824   1.380   6.471  1.1966  0.5684  0.8460
 4194SOL    HW224216   1.803   1.526   6.433 -0.4995 -1.8248 -1.5809
 4195SOL     OW24217   0.125   1.912   2.252  0.6723 -0.1704 -0.2742
 4195SOL    HW124218   0.121   1.959   2.169 -1.4670  1.6526  0.8626
 4195SOL    HW224219   0.030   1.908   2.262  0.7742 -0.3079  0.6317
 4196SOL     OW24220   2.728   2.729   1.586 -0.3318 -0.2989 -0.1376
 4196SOL    HW124221   2.813   2.687   1.575 -0.6457 -0.9161 -0.1783
 4196SOL    HW224222   2.749   2.821   1.567  0.5409 -0.6754 -0.9969
 4197SOL     OW24223   2.511   2.084   8.412  0.0315 -0.3441 -0.0712
 4197SOL    HW124224   2.507   2.151   8.480  0.5515  0.0858 -0.4717
 4197SOL    HW224225   2.452   2.119   8.345  1.7556  0.9562 -0.8999
 4198SOL     OW24226   1.816   2.012   2.632  0.0282 -0.1004  0.2189
 4198SOL    HW124227   1.799   1.994   2.724  1.5708 -0.5089  0.4127
 4198SOL    HW224228   1.904   1.979   2.617 -0.1038 -0.0855 -0.6025
 4199SOL     OW24229   4.129   3.725   5.850  0.8073 -0.3730 -0.2287
 4199SOL    HW124230   4.046   3.749   5.890  0.3609 -1.0895 -0.7195
 4199SOL    HW224231   4.120   3.630   5.842  2.4789 -0.3413 -2.6614
 4200SOL     OW24232   0.830   1.258   9.522  0.3176 -0.1947 -0.3012
 4200SOL    HW124233   0.788   1.172   9.527 -0.3510  0.1945  0.8532
 4200SOL    HW224234   0.836   1.278   9.428 -1.4633 -0.9249 -0.5702
 4201SOL     OW24235   1.140   3.820   7.503 -0.4129 -0.2206  0.5767
 4201SOL    HW124236   1.175   3.770   7.430 -0.4811  0.4269  0.1060
 4201SOL    HW224237   1.126   3.906   7.464  0.1565  0.4089  1.7387
 4202SOL     OW24238   3.835   4.447   7.411 -0.1738 -0.5319  0.4031
 4202SOL    HW124239   3.764   4.440   7.475  1.7004 -2.1045  2.3255
 4202SOL    HW224240   3.805   4.510   7.345  3.7856  0.7895 -0.1473
 4203SOL     OW24241   1.209   3.867   8.362  0.3629  0.0704 -0.3405
 4203SOL    HW124242   1.181   3.842   8.450 -1.0443  0.4421 -0.6901
 4203SOL    HW224243   1.292   3.822   8.347  0.3173  0.0621 -0.5727
 4204SOL     OW24244   0.524   3.690   2.400  0.4806 -0.4972  0.1826
 4204SOL    HW124245   0.508   3.738   2.481 -3.2578 -0.9127 -0.2961
 4204SOL    HW224246   0.582   3.617   2.421  1.2333  0.4316  1.3333
 4205SOL     OW24247   1.712   3.926   8.159  0.4155  0.2529 -0.2413
 4205SOL    HW124248   1.629   3.965   8.133 -0.3445 -1.3447 -0.2226
 4205SOL    HW224249   1.723   3.960   8.248  1.6721 -0.5771 -0.0798
 4206SOL     OW24250   2.140   0.324   2.373 -0.3404  0.3817  0.3000
 4206SOL    HW124251   2.146   0.257   2.305  2.5212  0.0017  0.9327
 4206SOL    HW224252   2.226   0.328   2.416  0.2570  0.9708 -0.9728
 4207SOL     OW24253   2.720   2.877   9.005 -0.7141  0.1940  0.0476
 4207SOL    HW124254   2.761   2.832   9.079 -1.1737 -1.0448 -0.4590
 4207SOL    HW224255   2.762   2.961   9.023 -0.6223 -0.1664  1.5060
 4208SOL     OW24256   3.971   1.014   6.015 -0.9122  0.0037 -0.2199
 4208SOL    HW124257   3.899   0.951   6.023 -2.4001  1.5984 -1.0732
 4208SOL    HW224258   3.986   1.015   5.920  2.6194 -3.4396  0.3048
 4209SOL     OW24259   3.666   4.326   7.629  0.4031 -0.3793  0.1848
 4209SOL    HW124260   3.672   4.403   7.685  2.0959 -0.5975  0.2934
 4209SOL    HW224261   3.624   4.269   7.693 -1.1540  0.4167 -0.1295
 4210SOL     OW24262   0.418   2.180  14.941 -0.2225 -0.0037 -0.0967
 4210SOL    HW124263   0.384   2.250  14.885 -2.0591 -0.5248  0.3771
 4210SOL    HW224264   0.498   2.153  14.895  1.9977  3.1498  1.8425
 4211SOL     OW24265   4.069   1.479   1.688  0.0959  0.0413 -0.9268
 4211SOL    HW124266   4.136   1.533   1.647 -0.8337 -0.9484 -3.8092
 4211SOL    HW224267   3.999   1.527   1.643 -0.8450 -1.1205 -0.6974
 4212SOL     OW24268   4.422   1.140   2.858  0.1191 -0.2363  0.0968
 4212SOL    HW124269   4.508   1.176   2.883 -0.1544 -1.1152  2.3176
 4212SOL    HW224270   4.447   1.050   2.837  0.8667  0.1889 -0.8543
 4213SOL     OW24271   4.081   2.946   6.416  0.0382  0.4353 -0.2926
 4213SOL    HW124272   4.074   3.041   6.428  0.8824  0.4683 -0.0527
 4213SOL    HW224273   3.989   2.922   6.415  0.1414  0.0474 -0.9533
 4214SOL     OW24274   2.450   3.403   8.671  0.7236 -0.2798  0.1774
 4214SOL    HW124275   2.500   3.467   8.619  1.9328 -1.6020 -0.2877
 4214SOL    HW224276   2.423   3.358   8.591 -0.5831  1.3734 -0.3147
 4215SOL     OW24277   0.486   4.357   1.070 -0.3839  0.2736 -0.5059
 4215SOL    HW124278   0.519   4.399   1.149  0.7159 -1.4219 -0.0577
 4215SOL    HW224279   0.524   4.269   1.070 -1.0039  0.0084  1.1787
 4216SOL     OW24280   0.428   4.461   4.951 -0.2056 -0.0271  0.1105
 4216SOL    HW124281   0.379   4.494   5.026  1.5150  1.2517  0.6769
 4216SOL    HW224282   0.519   4.483   4.973 -0.0673 -0.1503 -0.3332
 4217SOL     OW24283   0.266   4.533  16.536 -0.5579  0.5403  0.3287
 4217SOL    HW124284   0.193   4.538  16.599  0.0270 -0.4774  1.0741
 4217SOL    HW224285   0.268   4.627  16.518  2.1349 -0.0927 -2.5406
 4218SOL     OW24286   0.621   2.980   1.475  0.3575 -0.3040  0.0948
 4218SOL    HW124287   0.581   3.059   1.512  1.9496 -0.3356  1.8572
 4218SOL    HW224288   0.596   2.918   1.544  0.8452  0.0385  0.5689
 4219SOL     OW24289   2.607   2.636   6.240  0.4530  0.7977 -0.7930
 4219SOL    HW124290   2.654   2.571   6.291  0.2284 -0.4222 -2.1415
 4219SOL    HW224291   2.555   2.577   6.185  0.5212 -0.9584  1.0317
 4220SOL     OW24292   4.575   2.303   5.632 -0.5015 -0.1267  0.0619
 4220SOL    HW124293   4.605   2.380   5.680  1.8863 -0.0930 -1.4498
 4220SOL    HW224294   4.662   2.266   5.618 -0.1287  0.2940  1.2296
 4221SOL     OW24295   0.305   3.236   4.814  0.4528 -0.0483  0.4357
 4221SOL    HW124296   0.234   3.300   4.823  1.0118  0.6513 -0.0783
 4221SOL    HW224297   0.335   3.251   4.724 -0.3858 -0.0973  0.1445
 4222SOL     OW24298   0.168   0.751   3.474  0.1201 -0.3613  0.0743
 4222SOL    HW124299   0.168   0.815   3.544 -0.2716  0.3797 -0.5997
 4222SOL    HW224300   0.261   0.738   3.455 -0.5737 -2.9353 -1.7042
 4223SOL     OW24301   0.240   4.255   0.880  0.2416  0.1316  0.0343
 4223SOL    HW124302   0.224   4.175   0.829  0.9750  0.5195 -0.8095
 4223SOL    HW224303   0.268   4.211   0.960  0.2465 -0.6880 -0.4134
 4224SOL     OW24304   0.251   2.854   8.208  0.0572  0.5497  0.0616
 4224SOL    HW124305   0.169   2.805   8.213 -0.3952  1.3733  0.8501
 4224SOL    HW224306   0.286   2.849   8.119 -0.9886  2.8594 -0.4875
 4225SOL     OW24307   2.316   1.594   8.860 -0.1712  0.4345  0.3243
 4225SOL    HW124308   2.362   1.512   8.842 -2.1305 -0.1517 -2.0838
 4225SOL    HW224309   2.387   1.647   8.895  0.8371  0.7887 -2.2918
 4226SOL     OW24310   2.661   1.923  15.664 -0.5023 -0.0972  0.4687
 4226SOL    HW124311   2.740   1.969  15.635  1.3604 -1.1617  3.8463
 4226SOL    HW224312   2.638   1.852  15.604  1.4751 -1.1005  0.9054
 4227SOL     OW24313   0.086   2.840   6.382  0.5567  0.1800 -0.0171
 4227SOL    HW124314   0.013   2.898   6.408  1.0335  0.9554 -0.4200
 4227SOL    HW224315   0.151   2.864   6.448  0.1182  1.1608  0.0608
 4228SOL     OW24316   2.246   2.485   5.495 -0.4549 -0.1433 -0.5121
 4228SOL    HW124317   2.307   2.547   5.535 -1.8012  0.7463  0.1678
 4228SOL    HW224318   2.308   2.413   5.480 -2.1589 -1.0979 -2.9343
 4229SOL     OW24319   4.535   4.415   9.042  0.5413 -0.1127 -0.4422
 4229SOL    HW124320   4.532   4.329   8.999  0.4523 -0.1415 -0.3782
 4229SOL    HW224321   4.581   4.395   9.124 -2.7312  0.6189  1.5449
 4230SOL     OW24322   2.172   4.517   4.670  0.2021  0.5118 -0.6344
 4230SOL    HW124323   2.211   4.595   4.631  0.7674 -0.7602 -2.6221
 4230SOL    HW224324   2.210   4.451   4.612  1.5410 -0.2467  1.0945
 4231SOL     OW24325   0.649   1.391   4.463  0.2160  0.2736 -0.1013
 4231SOL    HW124326   0.687   1.477   4.445  0.1096 -0.1804 -2.4793
 4231SOL    HW224327   0.652   1.386   4.558  0.6289 -0.9447 -0.1766
 4232SOL     OW24328   2.372   0.888   3.283 -0.2979  0.2614 -0.3324
 4232SOL    HW124329   2.328   0.900   3.367  3.0150 -0.8718  1.5762
 4232SOL    HW224330   2.302   0.864   3.223 -1.1645 -0.1240  0.8456
 4233SOL     OW24331   2.771   1.549  12.330 -0.1868 -0.2677  0.1913
 4233SOL    HW124332   2.753   1.563  12.423  0.4805  2.0657 -0.0495
 4233SOL    HW224333   2.765   1.453  12.322 -2.8839  0.1846 -3.2111
 4234SOL     OW24334   3.010   2.891   8.333  0.3922  0.2439 -0.0941
 4234SOL    HW124335   2.982   2.901   8.242 -0.4600  0.6726  0.2153
 4234SOL    HW224336   2.964   2.813   8.363 -1.7246  2.3138  2.0370
 4235SOL     OW24337   3.032   3.897   8.506  0.2440  0.3678  0.4735
 4235SOL    HW124338   3.061   3.871   8.419  2.4138  0.6978  1.0870
 4235SOL    HW224339   3.114   3.922   8.549  1.5361  0.5158 -2.0848
 4236SOL     OW24340   1.508   4.491   9.958 -0.5301  0.4153 -0.4751
 4236SOL    HW124341   1.552   4.449   9.884  1.4358  1.2683  0.2138
 4236SOL    HW224342   1.527   4.582   9.935  0.3720  0.7602  1.6205
 4237SOL     OW24343   4.355   0.249   2.992 -0.5739 -0.5906 -0.0736
 4237SOL    HW124344   4.321   0.321   3.045  1.4230  0.8664 -0.7914
 4237SOL    HW224345   4.353   0.295   2.908  1.3581  0.6144  0.5300
 4238SOL     OW24346   2.578   1.631   2.983 -0.7667  0.3215 -0.2516
 4238SOL    HW124347   2.603   1.591   2.900 -1.6516 -0.9224  0.0853
 4238SOL    HW224348   2.490   1.655   2.955  0.9752  2.7822 -3.6088
 4239SOL     OW24349   0.508   1.719   7.374  0.3188 -0.2905  0.5013
 4239SOL    HW124350   0.530   1.706   7.466  0.4254  1.2526  0.6945
 4239SOL    HW224351   0.417   1.747   7.377 -0.0769 -1.5750  0.8331
 4240SOL     OW24352   1.827   4.696   3.581  0.1531  0.4794  0.3949
 4240SOL    HW124353   1.887   4.630   3.615 -1.8765 -0.5751  1.9468
 4240SOL    HW224354   1.783   4.636   3.520  0.1467 -0.2749  1.1462
 4241SOL     OW24355   1.575   2.011   3.505  0.0896 -0.3133  0.4418
 4241SOL    HW124356   1.597   2.090   3.554  0.9161 -0.5025  0.3645
 4241SOL    HW224357   1.564   1.950   3.578  3.6145  0.1564  1.3132
 4242SOL     OW24358   3.255   3.059   4.881  0.7429 -0.8077 -0.2188
 4242SOL    HW124359   3.315   3.028   4.948 -0.2007 -1.3152  0.3943
 4242SOL    HW224360   3.177   3.030   4.929  1.2076  2.0500  2.1903
 4243SOL     OW24361   0.946   1.989   3.883  0.5914  0.4153 -0.5471
 4243SOL    HW124362   0.980   2.079   3.880 -1.8594  1.4196  1.9258
 4243SOL    HW224363   0.893   1.992   3.803  0.1687 -0.1844 -0.2899
 4244SOL     OW24364   1.387   2.762   6.309 -0.5473 -0.5498 -0.0032
 4244SOL    HW124365   1.300   2.740   6.276  0.1946  1.6076 -3.3750
 4244SOL    HW224366   1.364   2.792   6.397  1.4525 -1.8714  0.9640
 4245SOL     OW24367   3.680   1.832   3.617 -0.4109 -0.0568 -0.2199
 4245SOL    HW124368   3.675   1.745   3.655  0.8013  0.6629  1.5732
 4245SOL    HW224369   3.769   1.861   3.636 -0.2490  0.0361 -1.1218
 4246SOL     OW24370   0.255   2.768   2.019 -0.2196  0.0173 -0.0477
 4246SOL    HW124371   0.237   2.787   2.111  1.4720 -1.5424  0.6266
 4246SOL    HW224372   0.348   2.743   2.016 -0.0582  0.5364  0.5406
 4247SOL     OW24373   2.976   2.641   5.190 -0.5708  0.0381  0.0398
 4247SOL    HW124374   3.024   2.712   5.147 -1.5706  0.8417  0.2590
 4247SOL    HW224375   2.912   2.690   5.242 -1.4785  1.1199 -2.1343
 4248SOL     OW24376   0.634   2.439   6.994  0.5059  0.2198  1.0607
 4248SOL    HW124377   0.661   2.468   6.907  0.0453 -1.3137  0.4014
 4248SOL    HW224378   0.672   2.351   6.990  2.0318  0.9104  0.4361
 4249SOL     OW24379   2.590   0.051   9.600 -0.3174  0.2817  0.2858
 4249SOL    HW124380   2.613   0.057   9.692  0.3260  0.9872  0.0806
 4249SOL    HW224381   2.596   0.143   9.576  1.1407  0.0390 -0.2718
 4250SOL     OW24382   1.534   3.050  15.316 -0.5873  0.2948 -0.2894
 4250SOL    HW124383   1.618   3.095  15.304 -0.1975 -0.5836 -0.8864
 4250SOL    HW224384   1.475   3.115  15.353 -0.2823  1.0346 -1.0815
 4251SOL     OW24385   0.041   2.465   2.739 -0.6044 -0.4564  0.5620
 4251SOL    HW124386   0.008   2.399   2.800  2.6918 -0.0508  2.7868
 4251SOL    HW224387   0.008   2.430   2.656  1.8754  1.4938 -1.2490
 4252SOL     OW24388   1.324   1.689  10.921 -0.3283 -0.3489 -0.0730
 4252SOL    HW124389   1.315   1.776  10.880 -1.2336 -0.3813  0.0513
 4252SOL    HW224390   1.410   1.710  10.957 -1.8112  1.5392  2.3533
 4253SOL     OW24391   2.779   3.880   1.778  0.7614  0.2966 -0.3089
 4253SOL    HW124392   2.699   3.921   1.811  2.1918  1.4568  1.6834
 4253SOL    HW224393   2.809   3.835   1.857 -0.7591 -0.6569 -0.2568
 4254SOL     OW24394   3.739   1.685   8.589 -0.2121  0.0722  0.8336
 4254SOL    HW124395   3.666   1.638   8.549  1.6583 -1.9246 -0.2896
 4254SOL    HW224396   3.756   1.764   8.537 -2.4020  1.6841  2.5936
 4255SOL     OW24397   3.579   4.161  11.284  0.2478 -0.4889 -0.0501
 4255SOL    HW124398   3.604   4.186  11.196  0.2196  0.8274  0.3072
 4255SOL    HW224399   3.664   4.131  11.316  0.1568  1.0158  1.6963
 4256SOL     OW24400   3.201   0.634  11.080 -0.0918 -0.0042 -0.3154
 4256SOL    HW124401   3.249   0.588  11.012  1.1651 -1.0240  1.2597
 4256SOL    HW224402   3.228   0.577  11.153  0.1362  3.0307  1.9983
 4257SOL     OW24403   1.161   3.424   7.209 -0.0892  0.3030 -0.1402
 4257SOL    HW124404   1.120   3.392   7.289  0.7483 -0.0191  0.1624
 4257SOL    HW224405   1.083   3.430   7.153  0.1422 -2.9144 -0.8047
 4258SOL     OW24406   0.718   2.870  16.298  0.3355 -0.5982 -0.6584
 4258SOL    HW124407   0.623   2.882  16.301  0.4943  0.9339 -1.4253
 4258SOL    HW224408   0.753   2.935  16.237 -0.1865 -2.8737 -3.3465
 4259SOL     OW24409   2.174   3.203   6.833 -0.4752 -0.0572 -0.0576
 4259SOL    HW124410   2.237   3.158   6.777 -0.8489 -0.0086 -0.5300
 4259SOL    HW224411   2.098   3.146   6.818 -1.4073  1.0168  0.5994
 4260SOL     OW24412   1.021   3.984  15.888 -0.0380  0.1351  0.1787
 4260SOL    HW124413   1.001   3.894  15.916 -0.4595  0.2382  0.1966
 4260SOL    HW224414   1.116   3.983  15.873 -0.0168 -0.8463  0.3536
 4261SOL     OW24415   4.036   1.515  10.038 -0.4544  0.0821  0.0530
 4261SOL    HW124416   3.950   1.543  10.007 -1.2477  0.5817  2.6629
 4261SOL    HW224417   4.042   1.587  10.100  1.2029  0.8765 -1.0556
 4262SOL     OW24418   0.271   3.681  12.100  0.4687 -0.2985  0.4190
 4262SOL    HW124419   0.287   3.616  12.031  0.4920 -1.6096  1.6681
 4262SOL    HW224420   0.262   3.756  12.041  2.0357 -0.6258 -0.2174
 4263SOL     OW24421   3.953   1.169   9.585 -0.6092 -0.0830  0.3251
 4263SOL    HW124422   4.029   1.208   9.628 -1.7146  4.1782 -1.5151
 4263SOL    HW224423   3.945   1.094   9.644  1.3417 -0.4370  0.1279
 4264SOL     OW24424   1.226   3.659  10.366 -0.0685 -0.4571  0.4676
 4264SOL    HW124425   1.175   3.736  10.391  1.2124 -0.0286  1.7529
 4264SOL    HW224426   1.280   3.637  10.442 -0.2355 -3.0025 -0.1342
 4265SOL     OW24427   1.969   0.689   6.570  0.4300  0.0719  0.2584
 4265SOL    HW124428   1.878   0.717   6.561  0.9244  1.6218  0.0517
 4265SOL    HW224429   1.965   0.650   6.657  0.9824  1.0935  0.7432
 4266SOL     OW24430   1.743   0.311   8.776  0.1585  0.5065  0.1896
 4266SOL    HW124431   1.829   0.353   8.771  0.1184  0.4331 -1.2005
 4266SOL    HW224432   1.691   0.363   8.714  1.3217  2.1002  0.5511
 4267SOL     OW24433   3.483   3.072   5.880  0.0822  0.6900 -0.6226
 4267SOL    HW124434   3.457   3.016   5.808 -2.1128  0.2082  0.5548
 4267SOL    HW224435   3.530   3.003   5.928 -1.0126  0.8454  0.6873
 4268SOL     OW24436   3.541   1.406   9.478 -0.4780 -0.1772 -0.7771
 4268SOL    HW124437   3.487   1.361   9.413 -0.7513  0.4532 -0.9802
 4268SOL    HW224438   3.590   1.466   9.421 -0.4693 -1.0572 -1.7066
 4269SOL     OW24439   1.115   2.878   5.864  0.1975  0.2526  0.0760
 4269SOL    HW124440   1.199   2.906   5.900  0.9303 -2.5315  0.5671
 4269SOL    HW224441   1.123   2.791   5.825  1.2395  0.8783 -1.1092
 4270SOL     OW24442   1.521   1.782   3.688  0.4985  0.3792  0.3360
 4270SOL    HW124443   1.513   1.822   3.775  2.1357  2.0207 -0.2641
 4270SOL    HW224444   1.450   1.721   3.706  0.2159  0.8416  0.7869
 4271SOL     OW24445   3.285   1.736   9.273  0.4812 -0.3193  0.1156
 4271SOL    HW124446   3.209   1.765   9.324 -0.7625 -1.7618 -0.9468
 4271SOL    HW224447   3.250   1.674   9.210  2.1536 -1.6810  0.5269
 4272SOL     OW24448   3.629   0.642   6.783 -0.3465  0.4873  0.2360
 4272SOL    HW124449   3.639   0.671   6.873  1.1184 -0.5892  0.4226
 4272SOL    HW224450   3.625   0.549   6.804 -3.9032  0.6231  0.1438
 4273SOL     OW24451   1.701   0.336   2.068  0.2452 -0.2353 -0.1733
 4273SOL    HW124452   1.697   0.334   2.163  0.1322  0.3229 -0.1678
 4273SOL    HW224453   1.762   0.406   2.046  0.6465 -0.1161  1.3269
 4274SOL     OW24454   3.046   1.812  15.968 -0.0042  0.6049 -0.7173
 4274SOL    HW124455   3.101   1.799  16.045  0.7295  0.9072 -1.1888
 4274SOL    HW224456   3.074   1.898  15.936 -1.0551  1.2477  0.0957
 4275SOL     OW24457   4.264   0.138   0.151 -0.7539  0.1292  0.4421
 4275SOL    HW124458   4.313   0.056   0.157  1.2112  1.3479  0.9717
 4275SOL    HW224459   4.298   0.182   0.229  0.1776 -2.5722  1.5740
 4276SOL     OW24460   1.407   3.192   4.926  0.0466 -0.3808 -0.5360
 4276SOL    HW124461   1.417   3.104   4.890 -0.6190 -0.3465 -0.8099
 4276SOL    HW224462   1.480   3.194   4.987  0.1285  1.9468 -0.6846
 4277SOL     OW24463   4.276   3.598  10.206 -0.1382  0.2450 -0.3115
 4277SOL    HW124464   4.284   3.608  10.111 -1.7891  1.2979 -0.3417
 4277SOL    HW224465   4.204   3.536  10.209  1.2338 -1.3152  0.2729
 4278SOL     OW24466   0.122   0.806   9.714 -0.5192  0.5608 -0.1396
 4278SOL    HW124467   0.145   0.867   9.784 -1.1343 -0.2081  0.7440
 4278SOL    HW224468   0.059   0.757   9.767 -3.3875  0.1910 -3.8492
 4279SOL     OW24469   1.755   3.824  11.005 -0.2152  0.5820  0.3298
 4279SOL    HW124470   1.745   3.755  10.939  0.9407  1.1240 -0.4074
 4279SOL    HW224471   1.849   3.841  11.014  0.0367  0.1082 -1.2497
 4280SOL     OW24472   1.017   1.797  13.033  0.4450  0.2012 -0.2908
 4280SOL    HW124473   1.099   1.836  13.004  0.5472 -0.1921 -0.5333
 4280SOL    HW224474   1.048   1.742  13.106  0.0682 -0.8477 -0.9301
 4281SOL     OW24475   1.400   3.163   3.056 -0.3102 -0.3985 -0.1069
 4281SOL    HW124476   1.469   3.228   3.071 -0.0251 -1.4530  3.1232
 4281SOL    HW224477   1.332   3.212   3.103 -1.2894 -0.9764 -0.9246
 4282SOL     OW24478   1.519   0.558   2.009 -0.2804 -0.0270 -0.2785
 4282SOL    HW124479   1.440   0.608   1.988 -0.7926 -0.8669 -0.3525
 4282SOL    HW224480   1.535   0.497   1.937 -0.2820 -0.6844  0.2837
 4283SOL     OW24481   3.096   1.668   8.578 -0.1488  0.3173 -0.2151
 4283SOL    HW124482   3.191   1.664   8.574 -0.1537 -1.3752  1.5082
 4283SOL    HW224483   3.086   1.573   8.590  1.0026 -0.1187 -2.7870
 4284SOL     OW24484   2.572   2.877   6.030 -0.0471  0.0395 -0.5027
 4284SOL    HW124485   2.550   2.804   6.088  1.1354 -0.5625 -0.7971
 4284SOL    HW224486   2.635   2.916   6.091  0.4801  0.1243 -1.0886
 4285SOL     OW24487   3.940   2.606   1.790  0.3122 -0.1729 -0.1039
 4285SOL    HW124488   3.973   2.516   1.791  2.8764  0.7682 -0.0675
 4285SOL    HW224489   4.003   2.638   1.855  1.8984 -0.6838 -1.3917
 4286SOL     OW24490   4.544   4.454   9.905  0.0024  0.1967  0.3082
 4286SOL    HW124491   4.634   4.475   9.933 -0.0196 -0.5958  0.9820
 4286SOL    HW224492   4.507   4.542   9.898  0.4917  0.4249  0.5428
 4287SOL     OW24493   3.089   3.305  13.011 -0.5235  0.5869  0.0563
 4287SOL    HW124494   3.148   3.233  13.034 -0.0980  0.7953 -0.3789
 4287SOL    HW224495   3.092   3.357  13.092 -1.1562  2.6845 -1.2821
 4288SOL     OW24496   0.051   0.997   7.948  0.2422 -0.1608 -0.2771
 4288SOL    HW124497   0.138   0.963   7.967  0.6099  1.7306  1.4471
 4288SOL    HW224498   4.729   0.945   8.005  0.0620 -0.6404 -0.8948
 4289SOL     OW24499   0.871   3.778   1.821  0.0907 -0.1971 -0.2942
 4289SOL    HW124500   0.937   3.713   1.846 -0.5851 -0.1825  1.5336
 4289SOL    HW224501   0.893   3.845   1.886 -1.0040 -0.5970  0.4813
 4290SOL     OW24502   3.426   4.242  10.843  0.5281  0.0039 -0.0553
 4290SOL    HW124503   3.332   4.248  10.827  0.3566  3.2182  2.0710
 4290SOL    HW224504   3.458   4.195  10.766  1.3476  0.1148  0.2120
 4291SOL     OW24505   2.183   3.414   5.591 -0.2585 -0.7185 -0.1949
 4291SOL    HW124506   2.179   3.355   5.666  1.1929 -1.0837 -0.4162
 4291SOL    HW224507   2.192   3.503   5.626  0.4953 -0.5404 -0.8432
 4292SOL     OW24508   3.509   3.205   3.156  0.4197 -0.4007  0.2306
 4292SOL    HW124509   3.482   3.297   3.160  0.1657 -0.4346 -0.6511
 4292SOL    HW224510   3.455   3.180   3.081 -1.2015  1.1299  0.8917
 4293SOL     OW24511   1.881   0.244  16.101 -0.2341  0.5103 -0.8879
 4293SOL    HW124512   1.795   0.221  16.136  0.3515  1.4084  1.1322
 4293SOL    HW224513   1.903   0.168  16.046  0.1947 -0.4496  0.5989
 4294SOL     OW24514   3.604   3.287   7.932 -0.2666  0.2881 -0.1654
 4294SOL    HW124515   3.610   3.197   7.962  1.0929  1.1809  2.2619
 4294SOL    HW224516   3.516   3.290   7.896 -0.4483 -0.6532  0.2148
 4295SOL     OW24517   3.251   4.458   2.736  1.1845  0.7307  0.1829
 4295SOL    HW124518   3.225   4.540   2.779  0.4415  0.3692  0.4267
 4295SOL    HW224519   3.241   4.482   2.644  2.0581  0.4035  0.0049
 4296SOL     OW24520   0.780   3.348   6.205  0.2105 -0.1401 -0.3308
 4296SOL    HW124521   0.689   3.375   6.196  0.3147  1.4240  3.5461
 4296SOL    HW224522   0.794   3.279   6.140  0.7139 -1.4901  1.2010
 4297SOL     OW24523   3.425   0.825   6.764  0.3100 -0.2802  0.5625
 4297SOL    HW124524   3.475   0.744   6.766 -0.7744 -0.9355  1.2514
 4297SOL    HW224525   3.346   0.790   6.722  0.8825 -0.9915  0.0781
 4298SOL     OW24526   1.322   0.705   3.774  0.4743  0.2002  0.1635
 4298SOL    HW124527   1.418   0.698   3.776  0.5233  0.2402 -2.2338
 4298SOL    HW224528   1.293   0.745   3.856  0.5616 -1.6784  1.1192
 4299SOL     OW24529   3.166   1.331   3.353  0.3415 -0.2590 -0.1002
 4299SOL    HW124530   3.240   1.274   3.332 -0.6220 -1.9227  1.0171
 4299SOL    HW224531   3.138   1.365   3.269  0.7702  0.7912  0.1894
 4300SOL     OW24532   2.711   0.123  15.000  0.3673  0.2149  0.4813
 4300SOL    HW124533   2.711   0.054  15.066 -0.5075  1.1067  1.4267
 4300SOL    HW224534   2.636   0.178  15.023  0.4992  0.0695  1.2545
 4301SOL     OW24535   4.360   2.846  16.506 -0.3505 -0.2340 -0.0014
 4301SOL    HW124536   4.265   2.857  16.519 -0.4603 -1.4160  0.2345
 4301SOL    HW224537   4.377   2.918  16.447  0.3612 -0.8288 -0.5173
 4302SOL     OW24538   2.678   1.620  15.706  0.3238 -0.7706  0.1719
 4302SOL    HW124539   2.655   1.558  15.637  0.1812 -1.8835  1.2284
 4302SOL    HW224540   2.768   1.587  15.702  0.6632 -0.1209  2.2633
 4303SOL     OW24541   0.689   1.646  16.274 -0.4466 -0.4851 -0.4901
 4303SOL    HW124542   0.747   1.665  16.200 -0.7312 -3.2121 -1.4258
 4303SOL    HW224543   0.747   1.611  16.340 -1.2380  2.4312  1.7526
 4304SOL     OW24544   2.949   0.268   4.804 -0.3917  0.3025  0.4283
 4304SOL    HW124545   2.971   0.174   4.805 -2.5168 -0.2265 -1.7532
 4304SOL    HW224546   2.867   0.274   4.852 -1.2625 -0.3688 -0.9698
 4305SOL     OW24547   1.004   1.126   7.604  0.3365 -0.0062  0.3801
 4305SOL    HW124548   0.973   1.103   7.692 -1.0379 -0.9108 -0.3462
 4305SOL    HW224549   0.937   1.095   7.544 -3.2259  2.2887  3.1242
 4306SOL     OW24550   4.172   4.688   7.044 -0.0647 -0.6456 -0.3424
 4306SOL    HW124551   4.225   0.032   7.052 -2.1157  0.6780 -0.0772
 4306SOL    HW224552   4.108   4.717   7.109  1.2339  0.6072  0.3965
 4307SOL     OW24553   2.780   2.346   7.887  0.4084  0.4983  0.1399
 4307SOL    HW124554   2.873   2.365   7.882  0.7438 -1.3136 -0.5427
 4307SOL    HW224555   2.778   2.257   7.922 -1.0898  0.5351  0.1809
 4308SOL     OW24556   3.212   3.026   7.945  0.7676 -0.2219  0.6473
 4308SOL    HW124557   3.244   2.991   7.863  0.3483  1.9423 -0.4526
 4308SOL    HW224558   3.247   3.116   7.944  0.2659  0.0063  2.2400
 4309SOL     OW24559   1.136   1.400   9.084  0.2657 -0.7922 -0.2462
 4309SOL    HW124560   1.219   1.373   9.123  0.7807  1.5832  0.2544
 4309SOL    HW224561   1.096   1.313   9.082 -2.6847  0.6425 -3.5673
 4310SOL     OW24562   2.743   0.028  16.888  0.4091  0.2339 -0.4197
 4310SOL    HW124563   2.738   4.668  16.891  2.2805  0.1388 -0.6309
 4310SOL    HW224564   2.720   0.041  16.980 -0.7878  2.7341 -1.0709
 4311SOL     OW24565   1.751   3.714  11.749 -0.6395  0.1854 -0.0749
 4311SOL    HW124566   1.803   3.681  11.676  2.3650 -0.9084  2.5335
 4311SOL    HW224567   1.663   3.718  11.711 -0.2389  3.8217 -0.6431
 4312SOL     OW24568   3.364   1.531  15.810  0.4459  0.2299  0.4109
 4312SOL    HW124569   3.389   1.439  15.800  0.0653  0.4050 -1.9990
 4312SOL    HW224570   3.453   1.563  15.825  0.6825  0.4395 -1.5099
 4313SOL     OW24571   3.878   0.827   0.536  0.7190  0.4938  0.2690
 4313SOL    HW124572   3.820   0.884   0.485  0.3165 -0.1076  0.0471
 4313SOL    HW224573   3.888   0.761   0.467  0.3321  0.9255 -0.2123
 4314SOL     OW24574   3.395   0.181   9.279  0.6810  0.0718  0.0314
 4314SOL    HW124575   3.425   0.169   9.369 -1.2837 -3.7158  0.2038
 4314SOL    HW224576   3.444   0.113   9.232 -0.7660 -0.5485 -0.5783
 4315SOL     OW24577   4.693   2.053   8.768 -0.1324  0.3145  0.7002
 4315SOL    HW124578   4.636   1.977   8.762  0.6203 -0.2429  0.6857
 4315SOL    HW224579   0.003   2.049   8.852 -3.3124 -0.1853  2.4180
 4316SOL     OW24580   2.451   3.316   3.229  0.3310 -0.9645 -0.3920
 4316SOL    HW124581   2.487   3.386   3.175  0.3117 -0.0535  0.7793
 4316SOL    HW224582   2.445   3.257   3.154  2.9830 -1.0593 -0.5461
 4317SOL     OW24583   4.709   2.672   7.574  0.4611  0.3080 -0.1400
 4317SOL    HW124584   4.693   2.752   7.624 -0.9600 -0.0510 -0.0318
 4317SOL    HW224585   0.066   2.679   7.551  0.3761 -1.8283 -1.1454
 4318SOL     OW24586   1.251   0.873   4.791  0.4399  0.2611  0.2114
 4318SOL    HW124587   1.343   0.898   4.795 -0.2110  2.6619  0.0739
 4318SOL    HW224588   1.211   0.958   4.810  0.1469  0.3950 -1.0165
 4319SOL     OW24589   1.392   0.554   3.125 -0.0165  0.0897  0.1490
 4319SOL    HW124590   1.390   0.649   3.136 -0.9397 -0.1088  1.6703
 4319SOL    HW224591   1.351   0.549   3.039 -1.4125 -1.3099  0.9083
 4320SOL     OW24592   0.772   2.854   6.358  0.3967  0.6593  0.5808
 4320SOL    HW124593   0.794   2.769   6.319  0.8015  0.0964  2.0504
 4320SOL    HW224594   0.719   2.892   6.287  0.9312  0.5424  0.1245
 4321SOL     OW24595   1.944   0.038   7.138  0.0608  0.1468 -0.7730
 4321SOL    HW124596   1.929   0.119   7.090 -0.7368  1.7577  2.2164
 4321SOL    HW224597   1.959   0.066   7.229 -2.5451  0.1604 -0.3512
 4322SOL     OW24598   3.866   0.740   4.231 -0.7066  0.3916 -0.3922
 4322SOL    HW124599   3.925   0.771   4.163  0.9119  0.2894  0.9678
 4322SOL    HW224600   3.813   0.677   4.182 -0.3317 -0.7472  0.6677
 4323SOL     OW24601   1.021   0.685   5.957  0.6939 -0.1201 -0.3459
 4323SOL    HW124602   1.007   0.720   5.868 -0.8256 -2.1758 -0.9048
 4323SOL    HW224603   1.041   0.596   5.928  1.1443 -0.2797  0.4824
 4324SOL     OW24604   0.054   3.568   8.798  0.1939  0.0531  0.6528
 4324SOL    HW124605   0.064   3.661   8.819 -1.9757  0.9438 -2.2783
 4324SOL    HW224606   0.142   3.536   8.781  1.4870  2.1702  3.2718
 4325SOL     OW24607   3.012   1.416   2.711 -0.0055 -0.0303  0.4844
 4325SOL    HW124608   2.991   1.479   2.781  1.0267  0.2803  0.5098
 4325SOL    HW224609   2.989   1.463   2.631 -1.0310  1.1161  1.4596
 4326SOL     OW24610   3.333   1.995   2.016  0.7589 -0.7475 -0.1309
 4326SOL    HW124611   3.375   1.928   1.962  0.9239 -0.6898 -0.0769
 4326SOL    HW224612   3.366   2.065   1.960 -0.0057  0.1320  0.5234
 4327SOL     OW24613   0.551   2.543  10.354  0.0524 -0.2144  0.0695
 4327SOL    HW124614   0.524   2.552  10.262 -0.0944  0.4207  0.1749
 4327SOL    HW224615   0.470   2.518  10.398  0.5385  1.1203  1.7376
 4328SOL     OW24616   2.809   0.758   9.261  0.3524 -0.4048  0.5960
 4328SOL    HW124617   2.827   0.761   9.167 -1.4429 -1.0270  0.2380
 4328SOL    HW224618   2.768   0.672   9.263  0.4044 -0.5109 -2.7448
 4329SOL     OW24619   0.555   4.712   7.237 -0.1700 -0.3700  0.7373
 4329SOL    HW124620   0.616   0.032   7.188  0.5892 -2.8619 -1.1374
 4329SOL    HW224621   0.617   4.640   7.246 -0.8555 -1.0701 -0.1866
 4330SOL     OW24622   1.781   3.349   4.385  0.6150  0.0570  0.5003
 4330SOL    HW124623   1.851   3.313   4.329  0.5311 -1.6019  1.4511
 4330SOL    HW224624   1.718   3.386   4.323  0.5626 -0.6808  0.1022
 4331SOL     OW24625   3.803   1.190   3.545 -0.4728 -0.0981  0.0371
 4331SOL    HW124626   3.769   1.250   3.478 -0.6974 -1.0941 -0.7434
 4331SOL    HW224627   3.761   1.107   3.523 -1.8447  0.0822  2.0119
 4332SOL     OW24628   4.180   2.800   3.891 -0.1498 -0.0032 -0.1367
 4332SOL    HW124629   4.232   2.738   3.840  1.2592  1.4959 -0.5198
 4332SOL    HW224630   4.088   2.789   3.867  0.0348 -1.8099  0.0445
 4333SOL     OW24631   2.819   1.424   4.967 -0.0484 -0.0233  0.5204
 4333SOL    HW124632   2.852   1.511   4.944  3.0539 -1.4048 -0.2982
 4333SOL    HW224633   2.836   1.387   4.881 -1.6247  3.3330 -1.2201
 4334SOL     OW24634   3.315   2.403   6.004  0.8864 -0.2383  0.2202
 4334SOL    HW124635   3.326   2.407   6.099 -2.0704  3.5302  0.3830
 4334SOL    HW224636   3.322   2.308   5.995 -0.9927 -0.4746  1.4796
 4335SOL     OW24637   3.817   0.618   4.861  0.1542  0.1305  0.0846
 4335SOL    HW124638   3.770   0.699   4.880 -0.2498  0.4836 -2.3095
 4335SOL    HW224639   3.882   0.655   4.801 -0.8801 -1.6981 -2.1672
 4336SOL     OW24640   4.347   2.871  13.753  0.5626  0.5081  0.1192
 4336SOL    HW124641   4.401   2.833  13.822 -0.3291 -1.7606 -0.4144
 4336SOL    HW224642   4.351   2.810  13.679  0.8506 -0.2815  0.7963
 4337SOL     OW24643   2.569   1.874   1.714 -0.0215  0.5582  0.0978
 4337SOL    HW124644   2.611   1.957   1.736 -0.0794  0.9208 -1.1146
 4337SOL    HW224645   2.476   1.898   1.716 -0.1932 -0.0387 -0.4892
 4338SOL     OW24646   0.271   3.631  14.623  0.9909  1.0899  0.8053
 4338SOL    HW124647   0.238   3.611  14.536 -0.7311  3.2634  0.9257
 4338SOL    HW224648   0.359   3.601  14.602  0.8828  2.2876 -1.3467
 4339SOL     OW24649   0.769   0.979   6.106  0.6723  0.0694 -0.0845
 4339SOL    HW124650   0.796   0.887   6.105 -2.7136 -0.9095  0.6947
 4339SOL    HW224651   0.710   0.974   6.181  1.6020 -0.7834  0.6062
 4340SOL     OW24652   2.324   0.158  14.031  0.1333  0.7397  0.0223
 4340SOL    HW124653   2.240   0.118  14.010 -0.6403  0.4490  3.6099
 4340SOL    HW224654   2.325   0.158  14.127 -0.6492  1.0330  0.0297
 4341SOL     OW24655   1.867   3.184   4.917 -0.5335  0.1286  0.3258
 4341SOL    HW124656   1.820   3.221   4.842  0.7586 -0.4914 -0.7810
 4341SOL    HW224657   1.957   3.193   4.887 -0.9051 -0.1531 -0.8830
 4342SOL     OW24658   1.339   1.002   7.194  0.6629  0.3117 -0.4913
 4342SOL    HW124659   1.290   1.064   7.249  0.9488 -2.3331  2.7749
 4342SOL    HW224660   1.301   1.013   7.107 -0.3499  3.8145  0.4198
 4343SOL     OW24661   4.126   4.468   1.980 -0.4578 -0.1307  0.1074
 4343SOL    HW124662   4.219   4.452   1.994 -0.3805  1.1009  1.0088
 4343SOL    HW224663   4.099   4.378   1.999 -2.1698  0.4203  0.2989
 4344SOL     OW24664   2.846   3.992  14.326  0.1880 -0.0656  0.2381
 4344SOL    HW124665   2.929   3.950  14.345 -1.3278 -3.7705 -1.2538
 4344SOL    HW224666   2.852   4.009  14.231  0.4292  1.6631  0.5609
 4345SOL     OW24667   4.013   2.670   3.204 -0.3273 -0.1687 -0.1344
 4345SOL    HW124668   3.999   2.761   3.177 -1.1061 -0.1727  0.2409
 4345SOL    HW224669   4.067   2.631   3.136 -0.1764  0.6977 -0.5112
 4346SOL     OW24670   3.219   0.903   2.204 -0.7776 -0.1694  0.0184
 4346SOL    HW124671   3.291   0.850   2.171  2.0953  0.7970  4.6279
 4346SOL    HW224672   3.151   0.839   2.184 -1.3099  0.3191  0.2648
 4347SOL     OW24673   2.163   3.671   3.560 -0.6111  0.0922  0.3613
 4347SOL    HW124674   2.079   3.691   3.520 -1.7959 -0.5402  2.5123
 4347SOL    HW224675   2.197   3.761   3.565 -1.9804  0.6930 -1.0687
 4348SOL     OW24676   4.142   3.628  10.948  0.2328 -0.0192 -0.2195
 4348SOL    HW124677   4.220   3.674  10.915 -0.0190  0.3387 -0.3151
 4348SOL    HW224678   4.166   3.577  11.025  0.2704  0.4373  0.0722
 4349SOL     OW24679   0.898   4.327   4.517 -0.3740 -0.0592  0.1385
 4349SOL    HW124680   0.846   4.261   4.470 -1.0434  0.8203 -0.3651
 4349SOL    HW224681   0.895   4.278   4.599 -1.7102 -0.1141  0.0561
 4350SOL     OW24682   3.988   0.248   5.648  0.4157  0.3064  0.3425
 4350SOL    HW124683   3.988   0.234   5.553  0.7951 -1.2021  0.5660
 4350SOL    HW224684   3.925   0.192   5.694 -0.9014  0.4357 -1.3004
 4351SOL     OW24685   2.408   0.473  15.972  0.2052 -0.2103 -0.4048
 4351SOL    HW124686   2.441   0.535  16.037  1.2235 -0.4042 -0.7479
 4351SOL    HW224687   2.487   0.447  15.926 -0.1639  0.5587 -1.4696
 4352SOL     OW24688   2.229   0.063   5.415 -0.0822 -0.5715 -0.4318
 4352SOL    HW124689   2.202   4.708   5.435 -2.6602  0.6009  1.4768
 4352SOL    HW224690   2.207   0.078   5.323 -1.9627 -1.5342 -0.1579
 4353SOL     OW24691   0.009   0.275   4.352  0.5066  0.1309  0.4215
 4353SOL    HW124692   4.699   0.232   4.280  1.5209 -0.1901 -0.0421
 4353SOL    HW224693   4.691   0.354   4.357  3.7699  2.2631  1.9353
 4354SOL     OW24694   1.218   3.823  11.838 -0.6809 -0.3869  0.5657
 4354SOL    HW124695   1.237   3.850  11.748 -1.0564 -0.4040  0.4793
 4354SOL    HW224696   1.126   3.795  11.830 -1.0791  1.2843 -0.9158
 4355SOL     OW24697   3.541   0.945  14.048  0.0352  0.2825  0.4304
 4355SOL    HW124698   3.560   0.951  13.955  2.2245  0.2040  0.8782
 4355SOL    HW224699   3.629   0.915  14.070 -0.6902 -0.0575  2.8923
 4356SOL     OW24700   0.928   2.591   7.073  0.0868 -0.6356 -0.1494
 4356SOL    HW124701   1.004   2.610   7.018 -0.7803 -0.0054 -1.1239
 4356SOL    HW224702   0.864   2.545   7.019 -1.7222  0.1232  1.3724
 4357SOL     OW24703   1.924   3.245   3.952  0.4406  0.3326  0.5078
 4357SOL    HW124704   1.911   3.317   3.889  0.5762 -0.6733 -0.6697
 4357SOL    HW224705   1.999   3.195   3.920  0.9249  1.1767  0.2992
 4358SOL     OW24706   3.669   3.440   4.276 -0.2554  0.2426 -1.1591
 4358SOL    HW124707   3.622   3.490   4.342 -1.6468 -1.4023 -0.9109
 4358SOL    HW224708   3.701   3.514   4.225  1.2992 -0.8719 -1.8107
 4359SOL     OW24709   0.366   3.872   4.270  0.0244  0.0352  0.5524
 4359SOL    HW124710   0.283   3.840   4.306  0.3101  1.5119  2.5207
 4359SOL    HW224711   0.422   3.832   4.337 -0.1146 -0.3685  0.4285
 4360SOL     OW24712   1.693   3.893   1.238 -0.4144  0.6740  0.4230
 4360SOL    HW124713   1.656   3.910   1.324  1.0415 -2.4045  1.6623
 4360SOL    HW224714   1.672   3.800   1.237 -3.4747  1.3679 -1.2665
 4361SOL     OW24715   1.928   4.256   8.105 -0.2245  0.8528 -0.2185
 4361SOL    HW124716   1.911   4.167   8.136 -1.0113  0.6971 -1.0840
 4361SOL    HW224717   1.902   4.245   8.013 -0.8689  1.4423 -0.1122
 4362SOL     OW24718   3.076   1.738   6.829  0.4183 -0.0728 -0.6319
 4362SOL    HW124719   3.091   1.761   6.737 -1.4125  0.2533 -0.8582
 4362SOL    HW224720   2.987   1.770   6.841 -0.0681 -1.0322 -1.5701
 4363SOL     OW24721   0.908   1.550   7.622 -0.0461  0.0833 -0.0385
 4363SOL    HW124722   0.983   1.497   7.594 -1.3562 -2.0470  0.5021
 4363SOL    HW224723   0.964   1.617   7.661  1.8304 -1.6817  0.3254
 4364SOL     OW24724   3.337   2.740   9.119 -0.2999  0.3564 -0.2087
 4364SOL    HW124725   3.417   2.690   9.134 -1.5191 -0.7613  2.4910
 4364SOL    HW224726   3.277   2.668   9.139 -0.4660  0.0015 -1.9378
 4365SOL     OW24727   2.158   3.520   6.239  0.4876  0.3964  0.4053
 4365SOL    HW124728   2.065   3.545   6.242  0.6528  1.2010 -0.9609
 4365SOL    HW224729   2.163   3.425   6.236 -2.5556  0.2307 -0.0643
 4366SOL     OW24730   1.809   1.871  15.346 -0.3119  0.3509  0.2199
 4366SOL    HW124731   1.812   1.930  15.421  1.1915  0.4498  0.0853
 4366SOL    HW224732   1.811   1.786  15.389 -3.2699  0.0340 -0.2630
 4367SOL     OW24733   1.032   2.549   8.590  0.1329 -0.5015  0.0835
 4367SOL    HW124734   1.103   2.585   8.641  0.9411  2.6035 -3.2441
 4367SOL    HW224735   1.013   2.479   8.653 -0.7901 -1.4318 -1.2097
 4368SOL     OW24736   1.427   3.947   8.055 -0.0368  0.6817 -0.5743
 4368SOL    HW124737   1.384   3.901   8.127 -1.9933  2.2478 -0.7567
 4368SOL    HW224738   1.403   3.882   7.989 -1.3052 -0.5787  1.1512
 4369SOL     OW24739   0.961   2.250   3.783  0.0111  0.4980 -0.1086
 4369SOL    HW124740   0.877   2.206   3.769  0.2381 -0.6164  1.9640
 4369SOL    HW224741   0.986   2.270   3.693  1.2504  1.7250  0.5082
 4370SOL     OW24742   4.679   2.467   3.761  0.2279 -0.1402 -0.2037
 4370SOL    HW124743   4.674   2.371   3.759  0.8804 -0.1575 -1.0340
 4370SOL    HW224744   4.592   2.499   3.785  0.7225  1.3150 -0.3425
 4371SOL     OW24745   0.122   1.271  13.676  0.0349 -0.3931  0.1504
 4371SOL    HW124746   0.133   1.236  13.587  2.7425  0.6249  0.0587
 4371SOL    HW224747   0.169   1.220  13.742  1.4558  0.9543  0.1926
 4372SOL     OW24748   4.607   2.029   4.672 -0.0866  0.1142 -0.2401
 4372SOL    HW124749   4.527   1.977   4.681  0.0683  0.0046  0.5390
 4372SOL    HW224750   4.639   2.032   4.762  0.0764 -2.3460 -0.2045
 4373SOL     OW24751   1.927   2.163  11.232 -0.0159  0.3990 -0.0628
 4373SOL    HW124752   1.942   2.197  11.320  0.1441 -2.9208  1.2142
 4373SOL    HW224753   1.924   2.070  11.253 -0.3417  0.7100  1.2476
 4374SOL     OW24754   1.416   0.306  17.735 -0.0683  0.1833 -0.5059
 4374SOL    HW124755   1.356   0.242   0.033  0.7080  0.3910  1.0128
 4374SOL    HW224756   1.390   0.389   0.033 -2.7784 -0.8408 -0.0924
 4375SOL     OW24757   1.181   2.061   3.114  0.1314 -0.6939  0.0185
 4375SOL    HW124758   1.212   1.981   3.157  1.0789 -1.2317 -1.6943
 4375SOL    HW224759   1.121   2.082   3.186 -1.7401  2.0523 -2.3611
 4376SOL     OW24760   2.400   0.215   7.949  0.5185  0.7357 -0.1129
 4376SOL    HW124761   2.419   0.261   7.867 -1.4778  0.6961 -0.6002
 4376SOL    HW224762   2.357   0.281   8.004 -2.4143 -1.7328  0.5693
 4377SOL     OW24763   2.436   2.626  11.700 -0.2514 -0.3702 -0.0815
 4377SOL    HW124764   2.491   2.555  11.666  1.0603  0.0326  1.2083
 4377SOL    HW224765   2.443   2.622  11.795 -1.6643  1.6631  0.1078
 4378SOL     OW24766   0.981   3.466   4.877 -0.1623 -0.0944  0.4030
 4378SOL    HW124767   1.018   3.537   4.930  1.2303  0.7650 -1.7086
 4378SOL    HW224768   1.054   3.449   4.818  1.5965  0.5409  2.3946
 4379SOL     OW24769   0.521   2.162   6.508  0.0155 -0.2519  0.1163
 4379SOL    HW124770   0.512   2.213   6.427  1.0424 -0.2881 -0.0188
 4379SOL    HW224771   0.612   2.174   6.533 -0.2627  0.1617  0.9272
 4380SOL     OW24772   4.400   1.688   3.588 -0.2795 -0.3079  1.0055
 4380SOL    HW124773   4.488   1.652   3.579  0.0624  0.8455 -0.3107
 4380SOL    HW224774   4.346   1.609   3.584 -0.4157 -0.0658 -1.7707
 4381SOL     OW24775   4.154   0.890  12.367 -0.2555 -0.0207 -0.0666
 4381SOL    HW124776   4.236   0.887  12.318 -0.5278 -0.4278 -0.5020
 4381SOL    HW224777   4.153   0.978  12.404  0.7085  1.1984 -2.9767
 4382SOL     OW24778   1.803   1.642   7.199 -0.3311 -0.0711  0.0100
 4382SOL    HW124779   1.773   1.570   7.144 -2.3307 -0.3516  1.4798
 4382SOL    HW224780   1.718   1.676   7.228 -0.6431 -0.1785 -0.7806
 4383SOL     OW24781   2.275   2.366  11.813  0.1331 -1.2575 -0.1935
 4383SOL    HW124782   2.272   2.286  11.760  0.0651 -0.1681 -1.8530
 4383SOL    HW224783   2.316   2.337  11.895 -0.0616 -2.0286 -0.3650
 4384SOL     OW24784   4.416   4.565   4.683  0.0010 -0.0601 -0.4936
 4384SOL    HW124785   4.454   4.624   4.748  0.2803 -0.1192 -0.6055
 4384SOL    HW224786   4.333   4.610   4.666  1.0491  1.7524 -0.6892
 4385SOL     OW24787   4.038   1.614   0.679 -0.8742 -0.3338  0.1522
 4385SOL    HW124788   4.091   1.556   0.734  3.7388  1.8143 -1.9898
 4385SOL    HW224789   3.989   1.556   0.622 -1.3706 -0.4294  0.6807
 4386SOL     OW24790   1.363   0.601   8.065  0.0789  0.0245  0.4138
 4386SOL    HW124791   1.428   0.643   8.008 -0.1188  0.8375  0.7841
 4386SOL    HW224792   1.287   0.656   8.047 -0.0011 -0.9551 -2.2046
 4387SOL     OW24793   1.049   1.825   6.838 -0.2608 -0.2423 -0.6108
 4387SOL    HW124794   1.121   1.879   6.872 -0.5694 -1.0122  1.3030
 4387SOL    HW224795   1.093   1.763   6.779  1.4297  0.9822 -0.6308
 4388SOL     OW24796   0.125   0.305   2.763 -0.0735 -0.7786  0.7536
 4388SOL    HW124797   0.133   0.333   2.854 -2.4717 -2.1208  1.3791
 4388SOL    HW224798   0.173   0.376   2.720 -1.3654  1.2203  2.5798
 4389SOL     OW24799   2.140   0.001   6.184 -0.3832  0.4834 -0.4014
 4389SOL    HW124800   2.156   4.706   6.273 -0.4113  0.3588 -0.4393
 4389SOL    HW224801   2.224   0.042   6.161 -0.8047  1.1597 -0.7167
 4390SOL     OW24802   4.021   0.156   5.393  0.0734  0.0027  0.6406
 4390SOL    HW124803   4.050   0.086   5.335  0.2443  0.7690 -0.2101
 4390SOL    HW224804   4.070   0.232   5.362 -1.3938  0.9249  0.5794
 4391SOL     OW24805   2.979   3.604   4.279 -0.0721 -0.3525 -0.7512
 4391SOL    HW124806   2.984   3.661   4.356 -1.6426 -0.0845 -0.8446
 4391SOL    HW224807   3.051   3.545   4.301  0.8038  0.7124 -0.7985
 4392SOL     OW24808   3.183   2.461   2.816 -0.1464 -0.2538  0.3005
 4392SOL    HW124809   3.137   2.442   2.734 -0.1997 -1.6901  0.6679
 4392SOL    HW224810   3.147   2.547   2.836  0.1045 -1.0636  4.2488
 4393SOL     OW24811   2.828   0.483  17.163 -0.7325 -0.3413  0.3888
 4393SOL    HW124812   2.751   0.501  17.218  0.8835 -0.8381  2.8395
 4393SOL    HW224813   2.868   0.409  17.209  1.3709 -0.3548 -1.4958
 4394SOL     OW24814   0.219   0.589   5.002  0.6213 -0.0253  0.2105
 4394SOL    HW124815   0.143   0.572   5.057  1.1087 -3.3997 -0.1504
 4394SOL    HW224816   0.246   0.674   5.036  1.3891  0.4917 -1.6840
 4395SOL     OW24817   0.861   0.674   7.541  0.2393  0.3782  0.0421
 4395SOL    HW124818   0.862   0.728   7.620  0.0999  0.5713 -0.0869
 4395SOL    HW224819   0.910   0.721   7.474  0.6782  0.5721  0.4998
 4396SOL     OW24820   3.735   2.630   6.261 -0.4244  0.0214  0.3127
 4396SOL    HW124821   3.689   2.616   6.179  0.4938  0.0753 -0.2132
 4396SOL    HW224822   3.728   2.725   6.274 -0.8283  0.0872 -0.4016
 4397SOL     OW24823   2.648   1.946   7.671  0.3851 -0.1281 -0.2002
 4397SOL    HW124824   2.625   2.017   7.731  2.1978 -0.9033  1.4251
 4397SOL    HW224825   2.625   1.870   7.725  2.7120 -0.7836 -0.1272
 4398SOL     OW24826   3.912   1.392  16.678  0.0037 -0.1122  0.0704
 4398SOL    HW124827   3.883   1.483  16.686 -1.9746 -0.6201 -1.3285
 4398SOL    HW224828   3.905   1.353  16.766  0.7714  2.1219  1.1226
 4399SOL     OW24829   2.711   0.222   7.492  0.4182 -0.5453  0.3288
 4399SOL    HW124830   2.786   0.232   7.434  1.4682 -1.3680  1.5448
 4399SOL    HW224831   2.753   0.176   7.565 -0.7197 -1.0667  0.6608
 4400SOL     OW24832   2.927   0.449   8.440  0.4864  0.3930  0.0959
 4400SOL    HW124833   2.923   0.472   8.347 -1.9562 -3.0340 -0.6449
 4400SOL    HW224834   2.962   0.529   8.480 -0.0749  0.5528  0.2687
 4401SOL     OW24835   0.952   4.333   7.849  0.4463 -0.0151  0.7952
 4401SOL    HW124836   0.895   4.260   7.875  1.9103 -1.6684 -0.6943
 4401SOL    HW224837   0.978   4.343   7.941  3.3057 -0.8916  0.0704
 4402SOL     OW24838   3.515   2.514  10.961  0.3631 -0.3891  0.1317
 4402SOL    HW124839   3.562   2.513  10.877 -1.0144  1.1864 -0.6568
 4402SOL    HW224840   3.454   2.441  10.952  0.8655 -0.7864 -0.0883
 4403SOL     OW24841   1.383   2.938  13.486  0.8004  0.6170  0.3778
 4403SOL    HW124842   1.337   2.909  13.407 -0.1957  0.0567  1.1601
 4403SOL    HW224843   1.309   2.960  13.543  1.1610  2.4709  0.1516
 4404SOL     OW24844   4.557   2.723   3.994 -0.3506 -0.1084 -0.0095
 4404SOL    HW124845   4.517   2.639   3.971  0.9702 -0.6651 -0.2440
 4404SOL    HW224846   4.570   2.753   3.904  0.7513 -1.2221 -0.2138
 4405SOL     OW24847   1.241   2.193   3.936  0.2469  0.4659  0.1551
 4405SOL    HW124848   1.213   2.117   3.988  2.2785  1.3500  2.5860
 4405SOL    HW224849   1.226   2.161   3.848 -0.0827  3.3750 -0.8494
 4406SOL     OW24850   4.389   4.461  13.213  0.1767 -0.4084  0.2476
 4406SOL    HW124851   4.439   4.535  13.247 -2.1714  0.2109  2.3017
 4406SOL    HW224852   4.381   4.489  13.121  3.9903 -1.8465 -0.5224
 4407SOL     OW24853   3.552   1.914  15.593 -0.7170 -0.1949  0.2960
 4407SOL    HW124854   3.618   1.895  15.526 -0.4896 -0.6824  0.6642
 4407SOL    HW224855   3.474   1.915  15.537  0.4213  1.7964 -1.2540
 4408SOL     OW24856   2.177   2.372  13.881 -0.0228 -0.4030 -0.0199
 4408SOL    HW124857   2.231   2.309  13.833 -1.1609 -2.9702  2.0562
 4408SOL    HW224858   2.149   2.323  13.958  0.8575 -1.5313 -0.4207
 4409SOL     OW24859   1.962   3.967   4.346 -0.1270  0.1939 -0.2451
 4409SOL    HW124860   1.975   3.880   4.384  2.0172  0.1678 -1.0553
 4409SOL    HW224861   2.042   4.008   4.379 -1.0097 -0.5247  2.7926
 4410SOL     OW24862   3.222   3.451  17.153 -0.5356 -0.0053  0.3256
 4410SOL    HW124863   3.184   3.381  17.206 -1.8420  0.9331  0.6497
 4410SOL    HW224864   3.276   3.408  17.087  0.1261  2.5259 -0.7827
 4411SOL     OW24865   0.249   4.264   5.616 -0.1432  0.6292  0.4338
 4411SOL    HW124866   0.205   4.210   5.681 -1.0215  1.0908  0.2255
 4411SOL    HW224867   0.314   4.304   5.674 -0.7389 -1.2008  2.3579
 4412SOL     OW24868   3.821   3.531   6.154 -0.4176 -0.3151  0.0290
 4412SOL    HW124869   3.902   3.482   6.165  1.2685  2.0731 -1.6969
 4412SOL    HW224870   3.756   3.461   6.151 -1.6874  0.7446  3.3627
 4413SOL     OW24871   4.213   1.314   9.355  0.0370  0.4622 -0.2347
 4413SOL    HW124872   4.294   1.362   9.334  0.4861  0.0195  0.4579
 4413SOL    HW224873   4.176   1.380   9.413 -0.3878  0.4534 -0.4996
 4414SOL     OW24874   2.251   3.288  16.127 -0.1097 -0.0741  0.1356
 4414SOL    HW124875   2.188   3.226  16.164  1.2346 -2.9424 -2.4161
 4414SOL    HW224876   2.217   3.372  16.158  0.0750  0.7124 -1.8435
 4415SOL     OW24877   3.093   2.547  15.446 -0.0809  0.0009  0.1451
 4415SOL    HW124878   3.113   2.454  15.438 -2.6586 -0.6642  1.5090
 4415SOL    HW224879   3.153   2.592  15.387 -0.9194 -0.1388 -0.7922
 4416SOL     OW24880   2.409   2.564   6.931  0.5902  0.9651 -0.1997
 4416SOL    HW124881   2.337   2.552   6.993  1.7220 -0.6132  0.8050
 4416SOL    HW224882   2.381   2.495   6.872 -0.5055 -0.4550  1.9895
 4417SOL     OW24883   0.483   3.198   0.104  0.1887 -0.0673  0.3806
 4417SOL    HW124884   0.543   3.254   0.055 -1.4969 -0.0848 -1.7530
 4417SOL    HW224885   0.483   3.114   0.057 -0.7487 -1.4682  2.9030
 4418SOL     OW24886   4.624   2.563  10.517 -0.4567  0.4920 -0.4876
 4418SOL    HW124887   4.699   2.538  10.570 -0.5022  0.5998 -0.3728
 4418SOL    HW224888   4.554   2.537  10.576 -1.9294 -1.3778 -3.0353
 4419SOL     OW24889   4.613   4.120   7.447 -0.3412  0.2110 -0.3600
 4419SOL    HW124890   4.552   4.083   7.383  0.2713 -1.1828 -0.1355
 4419SOL    HW224891   4.627   4.037   7.492  0.4979  1.1499  1.0870
 4420SOL     OW24892   0.250   4.160   0.469  0.0294 -0.1830 -0.0579
 4420SOL    HW124893   0.163   4.190   0.495 -0.1754 -0.1430 -0.7816
 4420SOL    HW224894   0.226   4.108   0.393 -0.3917 -2.1157  1.4150
 4421SOL     OW24895   0.373   2.719   4.004 -0.2803  0.9924 -0.2997
 4421SOL    HW124896   0.391   2.776   3.929 -1.4816 -0.9721 -2.0694
 4421SOL    HW224897   0.359   2.637   3.958 -0.0694  1.0226 -0.4162
 4422SOL     OW24898   0.316   0.748  14.143  1.0174 -0.2399 -0.5236
 4422SOL    HW124899   0.225   0.760  14.169  1.6608  0.9536  1.1711
 4422SOL    HW224900   0.353   0.704  14.219 -1.4013  2.4875  2.2611
 4423SOL     OW24901   2.136   3.978  17.593 -0.2808  0.0361  0.2694
 4423SOL    HW124902   2.136   4.069  17.623 -0.6203 -0.8020  2.8028
 4423SOL    HW224903   2.072   3.932  17.647 -1.4103  1.4239  0.1054
 4424SOL     OW24904   3.278   1.846   4.162  0.2537 -0.6767 -0.1305
 4424SOL    HW124905   3.248   1.755   4.159 -0.4699 -0.3223 -3.5726
 4424SOL    HW224906   3.368   1.820   4.182  0.1669 -1.2723 -0.5245
 4425SOL     OW24907   2.382   1.225  16.490 -0.3215  0.0441  0.2371
 4425SOL    HW124908   2.311   1.244  16.428  2.1638 -1.9058 -3.1997
 4425SOL    HW224909   2.383   1.308  16.538  0.4578  1.2948 -1.9378
 4426SOL     OW24910   4.585   0.468   3.174 -0.9491 -0.0853 -0.3159
 4426SOL    HW124911   4.583   0.373   3.171 -1.0203 -0.1339  1.0198
 4426SOL    HW224912   4.555   0.490   3.086 -0.7893 -1.4960 -0.7074
 4427SOL     OW24913   4.009   0.169  15.513  0.0504 -0.2488  0.0811
 4427SOL    HW124914   4.043   0.249  15.472 -2.2962  1.1561  0.9251
 4427SOL    HW224915   4.032   0.101  15.449  0.0537  0.0878 -0.2717
 4428SOL     OW24916   4.282   1.637   8.145 -0.4800 -0.3535 -0.1990
 4428SOL    HW124917   4.244   1.656   8.060  1.2102 -1.1313 -1.1373
 4428SOL    HW224918   4.315   1.722   8.176 -2.5923  0.4649 -0.1863
 4429SOL     OW24919   2.649   1.741  12.187  0.1436  0.0790 -0.5349
 4429SOL    HW124920   2.660   1.806  12.256  3.3699 -2.0495  0.9461
 4429SOL    HW224921   2.689   1.667  12.233  0.2431  0.4855  0.0290
 4430SOL     OW24922   2.041   0.860   2.914 -0.5576  0.1506  0.4921
 4430SOL    HW124923   2.079   0.948   2.914  2.6242 -1.2346  2.1045
 4430SOL    HW224924   1.996   0.856   2.998 -1.8434  2.4669 -0.0873
 4431SOL     OW24925   3.120   4.507   3.821 -0.2017  0.4556 -0.2216
 4431SOL    HW124926   3.144   4.434   3.878  3.8158  1.7119 -0.2797
 4431SOL    HW224927   3.140   4.585   3.873  2.4522  0.4723 -1.2246
 4432SOL     OW24928   3.121   4.503   5.048 -0.5741 -0.0820  0.0053
 4432SOL    HW124929   3.046   4.559   5.067 -0.3010  0.3388 -0.1523
 4432SOL    HW224930   3.081   4.425   5.011 -4.6682  1.5269  1.0832
 4433SOL     OW24931   3.026   0.380   6.072 -0.4637  0.0461  0.3671
 4433SOL    HW124932   3.079   0.340   6.003 -0.3338  2.6273 -1.0394
 4433SOL    HW224933   3.046   0.473   6.060  1.1761 -0.2784  0.5084
 4434SOL     OW24934   2.094   3.495   7.273 -0.3157  0.8558 -0.3421
 4434SOL    HW124935   2.035   3.421   7.262 -0.1488  0.7218 -0.3347
 4434SOL    HW224936   2.108   3.516   7.180  1.8568 -1.1016 -0.4584
 4435SOL     OW24937   2.351   0.451   2.928  0.2112  0.0077 -0.4280
 4435SOL    HW124938   2.289   0.479   2.861  0.1366  2.9652  0.8985
 4435SOL    HW224939   2.338   0.503   3.007 -1.2067 -1.6034  0.4168
 4436SOL     OW24940   2.830   2.103   7.324  0.1421  0.2276  0.3536
 4436SOL    HW124941   2.807   2.017   7.359 -0.6647  0.8871  1.4711
 4436SOL    HW224942   2.739   2.123   7.299 -0.1474 -0.3356  0.9650
 4437SOL     OW24943   0.165   1.365   9.346 -0.2446  0.2111  0.2309
 4437SOL    HW124944   0.258   1.365   9.323 -0.5989  1.6192 -1.2208
 4437SOL    HW224945   0.168   1.386   9.439 -0.9636 -0.4300  0.3966
 4438SOL     OW24946   0.103   2.349   8.558 -0.3451 -0.1823  0.1938
 4438SOL    HW124947   0.061   2.426   8.596 -1.0345 -0.1911 -0.5552
 4438SOL    HW224948   0.112   2.388   8.472 -2.4632 -1.3240 -0.5424
 4439SOL     OW24949   2.274   0.038   8.701  0.1799 -0.0864 -0.2288
 4439SOL    HW124950   2.270   0.029   8.797  1.9678  1.1381 -0.0411
 4439SOL    HW224951   2.282   0.132   8.689 -0.3872 -0.2303 -1.7131
 4440SOL     OW24952   4.138   4.009   9.960  0.4399  0.0738 -0.7999
 4440SOL    HW124953   4.218   4.060   9.971  0.8338 -1.0668  1.7445
 4440SOL    HW224954   4.158   3.971   9.875 -1.7477 -0.6716 -0.9931
 4441SOL     OW24955   0.101   4.372   3.984 -0.4498 -0.4099 -0.3713
 4441SOL    HW124956   0.098   4.375   3.888  0.3037  0.0055 -0.3739
 4441SOL    HW224957   0.051   4.449   4.009 -3.6073 -2.2109 -1.0732
 4442SOL     OW24958   0.212   2.291   3.345  0.1316  0.1851  0.6205
 4442SOL    HW124959   0.129   2.335   3.326 -0.2342 -0.1508  1.4311
 4442SOL    HW224960   0.277   2.358   3.325  0.3788 -0.3315 -0.3280
 4443SOL     OW24961   1.585   3.679   7.902 -0.0334  0.4415 -0.5808
 4443SOL    HW124962   1.596   3.773   7.890  0.2886  0.8464  2.7653
 4443SOL    HW224963   1.500   3.655   7.941 -0.2243  0.1099 -1.2074
 4444SOL     OW24964   0.544   1.330   2.087 -0.0976 -0.7287 -0.3827
 4444SOL    HW124965   0.603   1.305   2.158 -1.6353 -0.1946  1.0887
 4444SOL    HW224966   0.474   1.358   2.146 -0.0762 -1.6380  0.0710
 4445SOL     OW24967   0.184   3.286  16.427 -0.4085  0.1420 -0.3955
 4445SOL    HW124968   0.107   3.297  16.372 -0.6488  2.8644  0.4795
 4445SOL    HW224969   0.165   3.347  16.499 -1.6545  0.5954 -1.1184
 4446SOL     OW24970   0.095   3.557  16.058 -0.3144  0.3413 -0.7402
 4446SOL    HW124971   0.034   3.525  16.125  2.1973 -0.2348  1.2436
 4446SOL    HW224972   0.069   3.649  16.053  2.0231  0.9142 -2.2506
 4447SOL     OW24973   2.075   3.559  17.008  0.3637 -0.5142  0.4503
 4447SOL    HW124974   2.105   3.645  17.037  1.8303 -1.5739  2.0560
 4447SOL    HW224975   2.156   3.511  16.990  1.6628  1.4383  1.2016
 4448SOL     OW24976   3.735   0.941  10.260  0.6798  0.0978 -0.1196
 4448SOL    HW124977   3.668   0.893  10.211  1.7740 -1.2031 -0.3519
 4448SOL    HW224978   3.766   0.878  10.325 -1.4685 -1.8863 -1.0074
 4449SOL     OW24979   3.954   1.773   0.322  0.1631 -0.1685 -0.7213
 4449SOL    HW124980   3.979   1.820   0.402  0.9432 -0.1002 -1.0109
 4449SOL    HW224981   4.024   1.710   0.309 -2.6402 -3.9256  2.3204
 4450SOL     OW24982   4.433   0.616  15.216  0.2699 -0.1166  0.1405
 4450SOL    HW124983   4.358   0.651  15.168  0.9813  3.0760  1.3515
 4450SOL    HW224984   4.427   0.671  15.293 -2.4969  0.3359 -0.3836
 4451SOL     OW24985   4.244   4.000  14.483  0.1878  0.1980  0.0733
 4451SOL    HW124986   4.302   4.007  14.560  0.8443 -1.0062 -0.3126
 4451SOL    HW224987   4.205   3.913  14.487  2.9771 -1.0504  0.4839
 4452SOL     OW24988   3.854   1.833   3.967  0.3025  0.2923  0.1474
 4452SOL    HW124989   3.935   1.836   3.917  0.4462  0.8604  0.4146
 4452SOL    HW224990   3.886   1.863   4.052 -2.4601 -2.2790  2.1000
 4453SOL     OW24991   4.435   0.857   6.759  0.0008  0.0781 -0.2038
 4453SOL    HW124992   4.431   0.863   6.854  0.5808  1.4251 -0.2642
 4453SOL    HW224993   4.526   0.834   6.741  0.1259  0.9565 -0.7335
 4454SOL     OW24994   1.664   0.874   2.293 -0.4648 -0.1934  0.1925
 4454SOL    HW124995   1.598   0.856   2.360 -0.7567 -1.3811 -0.4116
 4454SOL    HW224996   1.668   0.968   2.310  0.5008 -0.7432  2.9082
 4455SOL     OW24997   1.660   2.907   1.112 -0.2389  0.2131  0.4546
 4455SOL    HW124998   1.728   2.842   1.093 -1.2832 -0.7846  0.1629
 4455SOL    HW224999   1.715   2.985   1.105 -2.5342  1.7999  0.0759
 4456SOL     OW25000   2.436   2.621   4.490  0.1891 -0.3768  0.3710
 4456SOL    HW125001   2.381   2.688   4.532 -1.7358 -1.4520 -0.4255
 4456SOL    HW225002   2.515   2.673   4.473 -0.5306  0.2917 -0.9070
 4457SOL     OW25003   3.125   1.215   5.991 -0.0314 -0.0498  0.6265
 4457SOL    HW125004   3.174   1.138   6.021 -1.9404 -0.3400  3.0278
 4457SOL    HW225005   3.090   1.175   5.911  1.6377 -0.3150  0.0307
 4458SOL     OW25006   1.786   1.678   5.487 -0.3427  0.6812  0.0323
 4458SOL    HW125007   1.773   1.593   5.446  2.4503 -0.5822  1.7880
 4458SOL    HW225008   1.799   1.725   5.404  0.0684 -0.4362 -0.5360
 4459SOL     OW25009   4.552   3.160  15.595  0.3707 -0.1212 -0.2188
 4459SOL    HW125010   4.611   3.233  15.615 -0.5312  0.5305  0.0632
 4459SOL    HW225011   4.563   3.153  15.501  0.0946 -2.0602 -0.0995
 4460SOL     OW25012   0.080   1.369   8.854 -0.4598  0.4119  0.2167
 4460SOL    HW125013   0.116   1.455   8.876  0.6153  0.8087 -3.2436
 4460SOL    HW225014   4.730   1.386   8.894 -0.2365  0.8819  0.4927
 4461SOL     OW25015   3.590   1.728   3.913 -0.0143  0.1125  0.1740
 4461SOL    HW125016   3.680   1.752   3.935  0.0566  0.1208 -0.1361
 4461SOL    HW225017   3.562   1.727   4.005 -1.5934  4.4035 -0.2437
 4462SOL     OW25018   2.577   2.549   5.753 -0.0320 -0.5497 -0.4969
 4462SOL    HW125019   2.513   2.490   5.794  0.2668 -1.6413 -1.5909
 4462SOL    HW225020   2.645   2.509   5.699 -0.0540 -1.1597 -0.0742
 4463SOL     OW25021   2.788   2.138  11.521  0.2812 -0.5931 -0.1255
 4463SOL    HW125022   2.716   2.128  11.459  0.0239 -1.8152  0.3503
 4463SOL    HW225023   2.866   2.120  11.468  2.9293 -0.2232  3.6554
 4464SOL     OW25024   3.376   2.099  15.260 -0.2993  0.1483  1.4039
 4464SOL    HW125025   3.464   2.075  15.289 -0.7486 -1.6846  1.2767
 4464SOL    HW225026   3.332   2.014  15.272  0.8358 -0.6003  0.2830
 4465SOL     OW25027   3.698   4.127   4.466  0.9899  0.4596 -0.3293
 4465SOL    HW125028   3.686   4.221   4.453 -1.1814  0.4616  1.5808
 4465SOL    HW225029   3.693   4.125   4.561 -1.2670 -0.0513 -0.4654
 4466SOL     OW25030   4.024   4.295   5.772 -0.2349  0.3955  0.3088
 4466SOL    HW125031   4.019   4.200   5.773 -1.8752  0.4831  0.1860
 4466SOL    HW225032   3.943   4.323   5.815 -0.6730 -1.3352  0.5878
 4467SOL     OW25033   0.472   0.686   7.593  0.1122  0.5861 -0.2083
 4467SOL    HW125034   0.413   0.611   7.591 -1.5259  1.7740  2.8319
 4467SOL    HW225035   0.554   0.647   7.563  0.6388  1.8735 -0.4220
 4468SOL     OW25036   2.236   1.187  14.847  0.6061 -0.0506  0.6839
 4468SOL    HW125037   2.142   1.200  14.863  0.3073 -0.0083 -1.0623
 4468SOL    HW225038   2.235   1.092  14.835  2.4261  0.1484 -1.0232
 4469SOL     OW25039   1.804   0.123   2.708  0.8110  0.2728  0.2277
 4469SOL    HW125040   1.840   0.175   2.636  1.2338  0.9896  0.9571
 4469SOL    HW225041   1.709   0.138   2.697  0.4749 -0.5681  2.0480
 4470SOL     OW25042   4.448   2.436  16.695 -0.1801 -0.6041 -0.4061
 4470SOL    HW125043   4.520   2.374  16.686 -0.7678 -1.1296 -1.3706
 4470SOL    HW225044   4.491   2.514  16.660 -1.0665  0.2666  0.4211
 4471SOL     OW25045   3.223   3.445  14.086 -0.1616  0.4462 -0.0323
 4471SOL    HW125046   3.162   3.371  14.091  1.4122 -0.7596  1.1970
 4471SOL    HW225047   3.167   3.519  14.060  1.5501  2.5001  2.1453
 4472SOL     OW25048   3.438   3.867  16.777 -0.3871  0.1492 -0.2015
 4472SOL    HW125049   3.350   3.856  16.813 -1.8764  1.8779 -3.3580
 4472SOL    HW225050   3.452   3.786  16.729 -0.2971  0.3662 -0.5379
 4473SOL     OW25051   1.722   4.286   2.927  0.2896 -0.5873 -0.3723
 4473SOL    HW125052   1.751   4.202   2.891  0.0335 -1.1729  0.8217
 4473SOL    HW225053   1.696   4.341   2.852  1.2076  1.6836  0.9645
 4474SOL     OW25054   2.718   1.453  11.674 -0.2753 -0.5267 -0.0640
 4474SOL    HW125055   2.813   1.452  11.679 -0.2780 -0.1075  0.1117
 4474SOL    HW225056   2.694   1.504  11.752  0.3644 -1.0899  0.5030
 4475SOL     OW25057   3.177   0.517  12.679 -0.1966 -0.1660 -0.0013
 4475SOL    HW125058   3.093   0.562  12.668  0.9271  1.6641 -1.2221
 4475SOL    HW225059   3.174   0.510  12.774 -0.7178  0.5933  0.0366
 4476SOL     OW25060   3.246   0.366   2.282 -0.1429 -0.4937 -0.2973
 4476SOL    HW125061   3.207   0.429   2.342 -0.4829 -0.5631 -0.4453
 4476SOL    HW225062   3.262   0.300   2.349  0.9616  0.1193  0.0333
 4477SOL     OW25063   3.304   3.287   8.946 -0.1362  0.8186 -0.0707
 4477SOL    HW125064   3.382   3.342   8.948  0.7497 -0.4169 -1.2258
 4477SOL    HW225065   3.349   3.206   8.922 -0.3072  0.9507 -0.8527
 4478SOL     OW25066   2.868   3.735   9.871  0.2466  0.4175 -0.3582
 4478SOL    HW125067   2.937   3.726   9.804 -0.6427 -2.6328 -0.8769
 4478SOL    HW225068   2.797   3.683   9.833 -2.3265  1.4392  3.0549
 4479SOL     OW25069   1.521   4.328   3.105  0.3519  0.0816  0.1586
 4479SOL    HW125070   1.504   4.418   3.075 -2.2788 -0.3956  0.2206
 4479SOL    HW225071   1.597   4.306   3.051  0.0564  0.0083 -0.2329
 4480SOL     OW25072   2.861   4.037   4.037  0.3186  0.4785 -0.4691
 4480SOL    HW125073   2.777   4.021   4.079 -0.0284  0.4622 -1.1725
 4480SOL    HW225074   2.921   3.989   4.094  1.2154  0.8532 -1.0952
 4481SOL     OW25075   0.916   4.240   2.719 -0.5709 -0.6459  0.6234
 4481SOL    HW125076   0.933   4.306   2.785 -0.9992  0.6541 -0.5708
 4481SOL    HW225077   0.960   4.163   2.756 -0.9484 -0.5975  1.1618
 4482SOL     OW25078   2.229   0.818   2.706  0.4337  0.5218  0.0193
 4482SOL    HW125079   2.324   0.824   2.707  0.5786 -1.8161 -1.1919
 4482SOL    HW225080   2.206   0.815   2.799  1.4341  0.2025  0.2516
 4483SOL     OW25081   0.933   3.638   4.599 -0.5663 -0.0717 -0.2944
 4483SOL    HW125082   0.947   3.631   4.693 -2.4347 -1.6197 -0.1207
 4483SOL    HW225083   0.986   3.714   4.576 -1.7521  1.1197  0.9351
 4484SOL     OW25084   1.306   4.160  17.259 -0.7632 -0.4313 -0.4862
 4484SOL    HW125085   1.248   4.160  17.335  0.1120  2.3306  0.1881
 4484SOL    HW225086   1.381   4.211  17.289 -1.3946 -0.6490  1.4165
 4485SOL     OW25087   0.351   3.057   0.958  0.1769  0.2828 -0.2141
 4485SOL    HW125088   0.346   3.012   1.042  1.7499  1.9476  0.7541
 4485SOL    HW225089   0.290   3.003   0.907  1.2615 -0.4458 -0.7287
 4486SOL     OW25090   2.686   4.570  13.081  0.3445  0.3361  0.4907
 4486SOL    HW125091   2.707   4.528  12.997  0.0465 -0.4532  0.8081
 4486SOL    HW225092   2.646   4.648  13.043  1.5485  1.8943  2.4295
 4487SOL     OW25093   4.248   3.464   8.553 -0.2748  0.1732 -0.2814
 4487SOL    HW125094   4.326   3.513   8.579  0.6950 -1.1355 -0.7172
 4487SOL    HW225095   4.189   3.535   8.577  0.5872  1.0076 -0.6487
 4488SOL     OW25096   4.717   1.101  15.654  0.6174  0.3867  0.3330
 4488SOL    HW125097   0.031   1.164  15.602  0.3175  1.2530  1.0803
 4488SOL    HW225098   4.686   1.035  15.592  1.4366 -1.2401  1.6320
 4489SOL     OW25099   1.024   3.007   4.961 -0.2852  0.1909  0.1025
 4489SOL    HW125100   1.011   3.088   5.010 -0.7920 -0.6857  1.4209
 4489SOL    HW225101   1.072   3.045   4.887  2.7185 -1.0147  1.4068
 4490SOL     OW25102   0.861   0.121   8.583  0.5558 -0.1353 -0.2464
 4490SOL    HW125103   0.820   0.094   8.501  0.0704 -0.7249  0.1997
 4490SOL    HW225104   0.852   0.036   8.626 -0.4969  0.0471 -0.1076
 4491SOL     OW25105   4.272   4.079   9.591 -0.6152 -0.3493 -0.1142
 4491SOL    HW125106   4.227   4.018   9.649  1.4227 -1.1297  0.6255
 4491SOL    HW225107   4.344   4.024   9.560  0.1184 -0.1313  1.2226
 4492SOL     OW25108   3.164   0.297   4.065  0.0681  0.0990  0.1178
 4492SOL    HW125109   3.175   0.253   3.981  1.0819 -0.3905  0.5082
 4492SOL    HW225110   3.128   0.385   4.049 -1.0948 -0.0868  1.7832
 4493SOL     OW25111   2.205   2.165   4.151  0.7875 -0.2255  0.3076
 4493SOL    HW125112   2.142   2.204   4.212 -1.0846 -1.4797 -0.8330
 4493SOL    HW225113   2.280   2.158   4.210 -1.2388  3.2439  3.3501
 4494SOL     OW25114   2.994   4.537   7.529  0.5375  0.1750  0.5015
 4494SOL    HW125115   2.915   4.513   7.578  0.8863  0.8195  1.3718
 4494SOL    HW225116   3.057   4.501   7.592  0.4940  0.3265  0.6327
 4495SOL     OW25117   2.302   1.683   5.416 -0.2709 -0.2309  0.3793
 4495SOL    HW125118   2.377   1.635   5.450  1.0321 -0.7342 -3.2273
 4495SOL    HW225119   2.236   1.618   5.439  1.6835 -1.5392  2.1883
 4496SOL     OW25120   3.499   3.749   6.713 -0.5765  0.0252 -0.1060
 4496SOL    HW125121   3.514   3.789   6.798  0.4962 -0.1886 -0.1994
 4496SOL    HW225122   3.512   3.654   6.718  1.1132  0.4536  3.4905
 4497SOL     OW25123   3.785   3.161   6.827  0.6987 -0.6653 -0.5649
 4497SOL    HW125124   3.717   3.156   6.894  0.0858 -0.0596 -1.1574
 4497SOL    HW225125   3.763   3.087   6.771 -0.0755 -2.9954  2.8332
 4498SOL     OW25126   3.662   3.049   3.339  0.3200 -0.1200 -0.5896
 4498SOL    HW125127   3.598   2.981   3.360 -0.4007  0.1034 -2.0314
 4498SOL    HW225128   3.609   3.099   3.277  0.5136  0.7994 -0.0111
 4499SOL     OW25129   3.082   3.665  14.073  0.4474 -0.3829 -0.1281
 4499SOL    HW125130   3.036   3.699  14.150  0.6274  2.2621 -1.1721
 4499SOL    HW225131   3.024   3.683  13.999 -0.7670 -0.9662  0.6826
 4500SOL     OW25132   0.414   1.726  10.058  0.2313  0.5860 -0.2189
 4500SOL    HW125133   0.368   1.810  10.049  1.3524  1.1862 -0.3656
 4500SOL    HW225134   0.455   1.715   9.972 -1.8466  1.1829 -1.3023
 4501SOL     OW25135   0.924   2.916   2.472  0.1059 -0.0375  0.6799
 4501SOL    HW125136   0.992   2.983   2.474  1.0011 -0.9113 -0.6186
 4501SOL    HW225137   0.853   2.951   2.418  1.1222 -1.9411 -1.9157
 4502SOL     OW25138   3.852   3.402   5.458 -0.0807 -0.4963 -0.0616
 4502SOL    HW125139   3.925   3.436   5.406 -1.2460  0.3771 -1.1097
 4502SOL    HW225140   3.779   3.419   5.398 -0.8401  0.6341  1.1966
 4503SOL     OW25141   0.766   4.049   1.379 -0.4548  0.3992 -0.6682
 4503SOL    HW125142   0.756   3.988   1.452  3.4862 -0.2567 -0.6820
 4503SOL    HW225143   0.828   3.993   1.332  0.7248 -0.0613  1.4243
 4504SOL     OW25144   4.219   1.497   7.271 -0.6199 -0.2589 -0.0995
 4504SOL    HW125145   4.260   1.555   7.207 -0.6479  0.7848  0.8281
 4504SOL    HW225146   4.228   1.536   7.358  1.2592 -1.0641  0.0670
 4505SOL     OW25147   1.887   0.018   2.935 -0.6894  0.4773 -0.2024
 4505SOL    HW125148   1.918   0.107   2.947  0.6837  0.0742 -0.6888
 4505SOL    HW225149   1.836   0.034   2.856  1.2613  0.2825 -1.5087
 4506SOL     OW25150   4.461   1.890  10.788  0.1770  0.5735  0.7733
 4506SOL    HW125151   4.410   1.915  10.711 -1.5859  0.6559  1.9588
 4506SOL    HW225152   4.535   1.949  10.797  0.7350  0.0411 -0.4403
 4507SOL     OW25153   3.788   3.065  13.301  0.1200 -0.0378 -0.1278
 4507SOL    HW125154   3.720   3.099  13.359  0.6789  1.6698 -0.4804
 4507SOL    HW225155   3.862   3.061  13.363 -0.1308 -0.0838  0.1704
 4508SOL     OW25156   4.601   0.407   7.645  0.2271  0.1497 -0.0525
 4508SOL    HW125157   4.694   0.398   7.627  0.1347 -0.8548 -0.0573
 4508SOL    HW225158   4.574   0.316   7.657  0.0295 -0.2842 -3.9001
 4509SOL     OW25159   4.443   3.171   8.657  0.4658  0.2803 -0.0095
 4509SOL    HW125160   4.430   3.203   8.568  2.9852  3.3908  0.7371
 4509SOL    HW225161   4.360   3.125   8.672  0.8453 -0.6969 -0.9222
 4510SOL     OW25162   0.874   0.462  16.124  0.0835 -0.0602 -0.2801
 4510SOL    HW125163   0.929   0.385  16.134 -1.7951 -1.2158  1.2185
 4510SOL    HW225164   0.910   0.532  16.179 -0.9295 -1.3863  2.0449
 4511SOL     OW25165   2.334   0.203   3.422 -0.0946  0.1930  0.1202
 4511SOL    HW125166   2.358   0.287   3.463  2.3670  0.1740 -1.3058
 4511SOL    HW225167   2.314   0.221   3.330 -2.9216  0.9969  0.8845
 4512SOL     OW25168   3.353   4.464   1.337 -0.7121 -0.1332  0.6931
 4512SOL    HW125169   3.417   4.509   1.282 -0.6083 -1.0882  0.0390
 4512SOL    HW225170   3.364   4.376   1.300 -1.1433 -0.0405  0.3548
 4513SOL     OW25171   1.805   0.582   2.055  0.8324 -0.0349  0.2042
 4513SOL    HW125172   1.855   0.597   1.975  1.1651 -0.4784  0.3257
 4513SOL    HW225173   1.728   0.631   2.027 -0.2804 -2.0542 -0.3372
 4514SOL     OW25174   3.333   1.932   2.298 -0.0355  0.1647  0.0849
 4514SOL    HW125175   3.321   1.966   2.209  1.8071 -0.3984 -0.3659
 4514SOL    HW225176   3.427   1.928   2.311 -0.3527 -0.1542  2.2208
 4515SOL     OW25177   4.328   1.832   7.112  0.4087  0.8849 -0.5263
 4515SOL    HW125178   4.370   1.912   7.081  0.5726  1.7978  1.9859
 4515SOL    HW225179   4.347   1.773   7.039  0.6679  2.2144 -1.5313
 4516SOL     OW25180   0.328   1.446   4.657 -0.7657 -0.8123 -0.6331
 4516SOL    HW125181   0.414   1.459   4.617 -0.6307  2.5857  0.8148
 4516SOL    HW225182   0.267   1.459   4.584 -1.9193 -0.4430  0.4129
 4517SOL     OW25183   0.038   0.927  15.850 -0.4719  0.2265 -0.6403
 4517SOL    HW125184   0.012   0.980  15.775  0.0789  1.8752  0.3221
 4517SOL    HW225185   0.039   0.998  15.914 -0.2343 -1.9353  1.7682
 4518SOL     OW25186   4.581   3.208   0.478  0.2442 -0.0307 -0.1541
 4518SOL    HW125187   4.592   3.281   0.539  0.6732  0.4492 -0.7999
 4518SOL    HW225188   4.673   3.181   0.479 -0.2793 -1.8028 -0.7269
 4519SOL     OW25189   0.337   3.021   6.515  0.1162  0.3099  0.3372
 4519SOL    HW125190   0.248   3.054   6.520  0.4646  1.1961  0.5943
 4519SOL    HW225191   0.376   3.092   6.566 -1.1067  1.7730 -0.7680
 4520SOL     OW25192   1.891   2.036  14.755  0.2900  0.6313 -0.2276
 4520SOL    HW125193   1.801   2.068  14.761 -0.3487 -1.6603  2.3333
 4520SOL    HW225194   1.943   2.081  14.821  0.9812  0.1721 -0.4552
 4521SOL     OW25195   2.880   1.590  12.766 -0.2999 -0.6993 -0.6006
 4521SOL    HW125196   2.950   1.585  12.832 -2.4425  0.6929  1.7868
 4521SOL    HW225197   2.894   1.665  12.708 -1.7633  0.3523  0.3905
 4522SOL     OW25198   0.735   0.204   8.840  0.2747  0.1951 -0.3443
 4522SOL    HW125199   0.762   0.203   8.748 -1.9058  1.3050 -0.9798
 4522SOL    HW225200   0.823   0.192   8.876  0.3886  0.5887 -0.4914
 4523SOL     OW25201   3.649   2.416  15.247 -0.2559  0.4085 -0.3565
 4523SOL    HW125202   3.654   2.511  15.259  3.9604  0.3289 -1.3889
 4523SOL    HW225203   3.587   2.422  15.175 -0.4978  2.1230  0.0047
 4524SOL     OW25204   1.068   0.433   8.753 -0.4206  0.1732 -0.0585
 4524SOL    HW125205   1.072   0.386   8.669  1.5818  0.8829 -0.3724
 4524SOL    HW225206   1.118   0.512   8.734  0.0677 -0.9317 -3.3577
 4525SOL     OW25207   3.054   2.753   9.197  0.0816 -0.1309 -0.1159
 4525SOL    HW125208   2.968   2.716   9.176  0.9888 -1.4185 -1.5836
 4525SOL    HW225209   3.047   2.839   9.155  0.8982  0.7946  1.6695
 4526SOL     OW25210   0.140   2.131   6.997 -0.1073 -0.4592 -0.1651
 4526SOL    HW125211   0.214   2.133   6.937 -0.5092  0.5626 -0.6254
 4526SOL    HW225212   0.115   2.223   7.008  0.5674 -0.1287 -1.3908
 4527SOL     OW25213   2.868   0.624   8.734  0.0918  0.5294 -0.3617
 4527SOL    HW125214   2.908   0.554   8.786  0.6359 -0.7310 -2.4644
 4527SOL    HW225215   2.931   0.644   8.664 -0.9917  0.1450 -1.4394
 4528SOL     OW25216   0.446   2.939  16.226 -0.2058  0.3234 -0.1621
 4528SOL    HW125217   0.397   2.863  16.256  0.6008  0.0178  0.3899
 4528SOL    HW225218   0.415   2.999  16.295  0.9579 -0.7374  1.2892
 4529SOL     OW25219   1.218   4.393   7.132 -0.3774  0.3617  0.2644
 4529SOL    HW125220   1.161   4.466   7.158  0.0448  1.1781 -1.1098
 4529SOL    HW225221   1.212   4.334   7.206  2.2384  2.0425  1.7884
 4530SOL     OW25222   0.886   3.033  15.480  0.3676  0.6038 -0.2615
 4530SOL    HW125223   0.816   3.081  15.524  0.6200 -0.2803  1.1371
 4530SOL    HW225224   0.933   3.106  15.440  0.6840  0.7005  0.2851
 4531SOL     OW25225   0.425   0.309   2.395  0.1490 -0.1631 -0.3696
 4531SOL    HW125226   0.442   0.215   2.384 -0.0086 -0.5545  2.7073
 4531SOL    HW225227   0.334   0.310   2.366 -0.0972  0.7413  0.4514
 4532SOL     OW25228   2.490   1.587   2.129 -0.2780 -0.8272 -0.3206
 4532SOL    HW125229   2.492   1.533   2.050  0.2214 -0.9620 -0.2115
 4532SOL    HW225230   2.432   1.534   2.184 -0.4151 -0.2338  0.1052
 4533SOL     OW25231   3.157   0.809   8.843 -0.3491  0.1647 -0.9075
 4533SOL    HW125232   3.123   0.861   8.770 -0.9906 -1.0044 -1.4431
 4533SOL    HW225233   3.143   0.871   8.915  4.4519 -0.1052  0.2821
 4534SOL     OW25234   0.750   1.925   3.692 -0.0598  0.3226 -0.4682
 4534SOL    HW125235   0.689   1.880   3.635 -1.8473  0.5121  1.2975
 4534SOL    HW225236   0.685   1.991   3.716 -2.0594 -2.3361  1.3816
 4535SOL     OW25237   1.631   1.693  16.454 -0.3496 -0.4755 -0.1846
 4535SOL    HW125238   1.700   1.736  16.505  2.1566  0.9546 -4.7265
 4535SOL    HW225239   1.546   1.696  16.497 -0.7001 -0.8711 -0.8476
 4536SOL     OW25240   0.543   1.536   0.495  0.2202  0.3769 -0.2033
 4536SOL    HW125241   0.479   1.553   0.565  0.6150  1.2702 -0.0655
 4536SOL    HW225242   0.518   1.599   0.428 -0.9369 -0.1593 -0.2672
 4537SOL     OW25243   3.274   0.248   4.305  0.6338 -0.6113  0.2266
 4537SOL    HW125244   3.312   0.169   4.267 -0.4251 -0.9625 -0.1230
 4537SOL    HW225245   3.218   0.278   4.233  1.1362  1.4051  0.6705
 4538SOL     OW25246   4.117   1.760  15.949  0.4799 -0.2827 -0.3842
 4538SOL    HW125247   4.172   1.788  15.876  1.6739 -0.1179  0.5766
 4538SOL    HW225248   4.187   1.722  16.001  1.3843  1.5685 -0.2711
 4539SOL     OW25249   0.221   3.514   2.929  0.0125  0.9675  0.8983
 4539SOL    HW125250   0.290   3.555   2.878  1.2638  0.8787  2.5188
 4539SOL    HW225251   0.251   3.522   3.020  0.6741  1.1412  0.6660
 4540SOL     OW25252   0.084   0.852   0.847 -0.2342  1.1106  0.2913
 4540SOL    HW125253   0.062   0.945   0.852  1.0373  1.5235 -2.0404
 4540SOL    HW225254   0.037   0.811   0.920  0.9022  2.6132  1.8990
 4541SOL     OW25255   4.624   2.115   3.080  0.0152  0.3048 -0.1735
 4541SOL    HW125256   4.561   2.136   3.149  0.4409  0.8328  0.0484
 4541SOL    HW225257   4.702   2.081   3.124 -1.3379 -0.6437  1.5177
 4542SOL     OW25258   4.415   4.569   6.313 -0.1640 -0.5265 -0.1916
 4542SOL    HW125259   4.327   4.543   6.341  0.1973 -1.4372  0.1170
 4542SOL    HW225260   4.447   4.482   6.290 -1.3498 -0.9721 -0.1730
 4543SOL     OW25261   0.290   4.472  10.127  0.5702  0.2191 -0.3210
 4543SOL    HW125262   0.265   4.496  10.216 -4.1014 -3.4116 -0.6673
 4543SOL    HW225263   0.383   4.464  10.148  0.6326  0.3526 -0.5465
 4544SOL     OW25264   3.636   3.286   6.161  0.1338 -0.2760 -0.4604
 4544SOL    HW125265   3.631   3.196   6.191  1.0860  0.3163  1.5046
 4544SOL    HW225266   3.592   3.322   6.238  0.0013  1.1966 -1.2131
 4545SOL     OW25267   2.524   3.741   5.168 -0.1278 -0.1635  0.5458
 4545SOL    HW125268   2.617   3.720   5.178  0.4658  1.3359 -1.7624
 4545SOL    HW225269   2.524   3.834   5.144 -2.3486 -0.0227  1.1211
 4546SOL     OW25270   2.221   1.173  13.388 -0.1339 -0.1021 -0.1134
 4546SOL    HW125271   2.127   1.192  13.390  0.0755  0.9327  0.1502
 4546SOL    HW225272   2.217   1.099  13.327 -0.6921 -1.8384  2.0455
 4547SOL     OW25273   3.245   3.121   1.641 -0.5511  0.1154  0.0151
 4547SOL    HW125274   3.207   3.162   1.563 -2.5914 -0.9574  0.4365
 4547SOL    HW225275   3.187   3.045   1.649 -0.9350  0.3029 -0.9200
 4548SOL     OW25276   3.894   0.990   9.767  0.0046 -0.1992 -0.0758
 4548SOL    HW125277   3.854   1.047   9.832  0.6962  0.9607 -0.6702
 4548SOL    HW225278   3.909   0.914   9.824  1.1763  0.1970  0.1506
 4549SOL     OW25279   1.234   2.066   4.931 -0.2477 -0.1308  0.2284
 4549SOL    HW125280   1.253   2.158   4.913 -2.2034  0.2085 -0.1081
 4549SOL    HW225281   1.282   2.046   5.011  0.1588  1.3907  0.3645
 4550SOL     OW25282   0.911   4.315   7.573  0.5960  0.0308 -0.0145
 4550SOL    HW125283   0.817   4.334   7.576  0.7119  0.3685  1.7639
 4550SOL    HW225284   0.930   4.324   7.666  0.8853 -0.8719  0.0209
 4551SOL     OW25285   0.165   2.542  13.137  0.3791 -0.2145  0.2352
 4551SOL    HW125286   0.077   2.506  13.120  0.1729  0.6069 -0.3905
 4551SOL    HW225287   0.175   2.611  13.073  0.0956 -0.3467  0.0458
 4552SOL     OW25288   3.509   1.361  13.705  0.1597 -0.2612 -0.4304
 4552SOL    HW125289   3.530   1.308  13.781  1.2302 -1.8818 -1.8425
 4552SOL    HW225290   3.535   1.315  13.625 -1.7689 -2.8130  0.4359
 4553SOL     OW25291   0.009   3.240   1.982  0.8212 -0.2665 -0.3019
 4553SOL    HW125292   0.039   3.149   1.974  0.8638 -0.0863 -2.0453
 4553SOL    HW225293   0.063   3.265   2.058  0.0369  0.1175  0.1216
 4554SOL     OW25294   3.448   3.805   5.492  0.6175 -0.0526 -0.2916
 4554SOL    HW125295   3.474   3.736   5.431  2.5537 -0.5317  1.0851
 4554SOL    HW225296   3.389   3.753   5.547  0.3929  0.3598 -0.1432
 4555SOL     OW25297   1.999   4.194  11.545  0.0112 -0.2592  0.3946
 4555SOL    HW125298   1.958   4.185  11.631 -0.3893 -1.3035  0.0948
 4555SOL    HW225299   2.017   4.103  11.522 -0.8596 -0.3024 -0.1137
 4556SOL     OW25300   4.600   1.309  13.614 -0.3802 -0.3506 -0.1553
 4556SOL    HW125301   4.570   1.229  13.657  0.1269 -0.6719 -0.3905
 4556SOL    HW225302   4.679   1.332  13.663 -0.9194  2.4717 -0.6189
 4557SOL     OW25303   0.231   3.505  14.372 -0.2269 -0.1120 -0.6791
 4557SOL    HW125304   0.248   3.476  14.283 -0.9131 -0.1125 -0.8079
 4557SOL    HW225305   0.194   3.430  14.419  1.4707 -0.7067 -0.2524
 4558SOL     OW25306   0.244   3.290   1.813  0.0429  0.0027  0.1805
 4558SOL    HW125307   0.224   3.199   1.833 -0.1745  0.4796  2.0918
 4558SOL    HW225308   0.161   3.331   1.834 -0.6224  0.1531 -2.7192
 4559SOL     OW25309   0.711   4.131   5.645 -0.4047 -0.3712 -0.4019
 4559SOL    HW125310   0.650   4.173   5.706 -1.2651  0.1652 -1.6359
 4559SOL    HW225311   0.646   4.080   5.597 -0.7900 -1.8286  1.6699
 4560SOL     OW25312   0.019   3.665   9.457 -0.4935 -0.4760 -0.0102
 4560SOL    HW125313   0.003   3.759   9.452 -0.8326 -0.5263  0.1394
 4560SOL    HW225314   4.669   3.641   9.492 -0.2322 -0.4751  0.6250
 4561SOL     OW25315   2.461   3.051   5.846  0.5055 -0.2843 -0.6502
 4561SOL    HW125316   2.374   3.043   5.887  1.2136  0.3916  1.0078
 4561SOL    HW225317   2.513   2.995   5.903 -0.3051  0.0670  0.4530
 4562SOL     OW25318   0.325   2.904   4.234 -0.0745  0.3332  0.6224
 4562SOL    HW125319   0.327   2.853   4.153  1.2673  0.6111  0.4878
 4562SOL    HW225320   0.245   2.954   4.216 -1.8410 -2.8694 -0.4420
 4563SOL     OW25321   2.005   3.962   6.464  0.4515  1.0144  0.5395
 4563SOL    HW125322   2.062   3.885   6.478  0.5380  0.9832  0.0184
 4563SOL    HW225323   1.976   3.935   6.377  1.0100  0.6325  0.4640
 4564SOL     OW25324   1.895   2.078   2.293 -0.7895  0.5290 -0.5001
 4564SOL    HW125325   1.946   1.999   2.309 -0.4261  1.0133  0.7532
 4564SOL    HW225326   1.824   2.073   2.358 -0.1385 -3.4326 -0.1237
 4565SOL     OW25327   3.832   2.516   4.705  0.1645  0.1793  0.2883
 4565SOL    HW125328   3.791   2.432   4.682  1.2838  0.3290 -2.2254
 4565SOL    HW225329   3.897   2.521   4.635 -0.3515  4.5257  0.1427
 4566SOL     OW25330   4.609   3.328   4.773  0.3756 -0.2347 -0.1384
 4566SOL    HW125331   4.651   3.311   4.688 -0.5948  2.2418 -1.1211
 4566SOL    HW225332   4.530   3.377   4.750  0.6406  0.3013  0.1042
 4567SOL     OW25333   1.872   0.903   3.135 -0.3577 -0.4762  0.1322
 4567SOL    HW125334   1.862   0.997   3.152  1.9161 -0.3411  0.7728
 4567SOL    HW225335   1.781   0.875   3.124  0.1268 -1.1456 -2.2392
 4568SOL     OW25336   4.314   2.017   3.083 -0.3612  0.2436 -0.1065
 4568SOL    HW125337   4.342   2.058   3.001 -2.0542  2.0160  0.2081
 4568SOL    HW225338   4.251   2.077   3.122 -0.2395 -0.2303  0.8201
 4569SOL     OW25339   3.003   3.574   4.757  0.3425  0.1174 -0.1204
 4569SOL    HW125340   3.037   3.524   4.683  0.3948  0.6371 -0.4505
 4569SOL    HW225341   2.911   3.563   4.735 -0.2762  0.0712  2.5389
 4570SOL     OW25342   3.882   4.153   2.742 -0.3838  0.4939 -1.0759
 4570SOL    HW125343   3.932   4.072   2.741 -0.1804  0.6188 -0.9742
 4570SOL    HW225344   3.797   4.121   2.713 -0.9483 -0.7426  1.9704
 4571SOL     OW25345   4.172   1.297   4.206  0.1194 -0.0323  0.0105
 4571SOL    HW125346   4.188   1.226   4.143  2.2160  1.7386 -1.4598
 4571SOL    HW225347   4.217   1.267   4.285  1.2688  0.8517 -0.3016
 4572SOL     OW25348   0.153   2.037   6.110 -0.2129  0.0443  0.5653
 4572SOL    HW125349   0.162   1.943   6.125 -2.2631  0.1839  2.7288
 4572SOL    HW225350   0.230   2.052   6.055  0.0310 -3.2633 -0.0147
 4573SOL     OW25351   4.293   2.681   7.331  0.3406  0.2486  0.2875
 4573SOL    HW125352   4.266   2.664   7.241  0.3257  1.2784  0.0988
 4573SOL    HW225353   4.222   2.723   7.378  0.6765  1.6786 -0.4759
 4574SOL     OW25354   4.593   3.022  12.805 -0.0688 -0.4918  0.2227
 4574SOL    HW125355   4.546   2.992  12.882 -0.8714 -2.2698 -0.9544
 4574SOL    HW225356   4.570   2.956  12.739  2.7107 -0.5610 -0.6969
 4575SOL     OW25357   1.118   1.653   8.006 -0.1893  0.3851  0.2799
 4575SOL    HW125358   1.128   1.706   8.086 -1.7234  1.5466 -0.2914
 4575SOL    HW225359   1.055   1.588   8.037  2.4763 -1.4621  1.8162
 4576SOL     OW25360   3.278   1.711   6.490 -0.0399 -0.7259  0.1581
 4576SOL    HW125361   3.196   1.760   6.490  0.2193 -0.2938 -0.8784
 4576SOL    HW225362   3.297   1.720   6.397 -1.9738 -0.3092 -0.1850
 4577SOL     OW25363   2.441   3.547   6.124  0.9385  0.5934 -0.0032
 4577SOL    HW125364   2.443   3.611   6.052  0.9559 -0.1589 -0.6810
 4577SOL    HW225365   2.348   3.527   6.131  1.4118 -2.7745 -2.9844
 4578SOL     OW25366   1.230   1.335   3.813 -0.4032  0.1175 -0.0007
 4578SOL    HW125367   1.140   1.317   3.786  0.3523 -1.0427 -1.8328
 4578SOL    HW225368   1.273   1.286   3.742 -0.3444  0.8026 -0.4336
 4579SOL     OW25369   0.596   2.277   1.013  0.4267 -0.1159  0.1344
 4579SOL    HW125370   0.569   2.320   0.932 -1.1385  1.3156  1.4348
 4579SOL    HW225371   0.691   2.287   1.013  0.4023  0.3039 -3.5089
 4580SOL     OW25372   0.492   2.715  11.840  0.7569 -0.3300 -0.1603
 4580SOL    HW125373   0.404   2.739  11.868  0.5924  0.5398 -1.4273
 4580SOL    HW225374   0.516   2.670  11.921 -2.3181 -1.2159  0.2494
 4581SOL     OW25375   2.316   1.880   4.710  0.0514 -0.3957  0.2022
 4581SOL    HW125376   2.221   1.868   4.718 -0.2452  3.0381  1.7511
 4581SOL    HW225377   2.352   1.799   4.746 -1.0100 -0.4503  1.1418
 4582SOL     OW25378   4.209   2.998   9.614  0.3952 -0.0700  0.0091
 4582SOL    HW125379   4.175   2.975   9.701  1.5767  1.0438  0.7555
 4582SOL    HW225380   4.153   3.074   9.598  1.6472  1.1403  1.5015
 4583SOL     OW25381   2.121   4.252  10.891 -0.6956 -0.2762 -0.0735
 4583SOL    HW125382   2.040   4.283  10.851 -2.1065 -0.8731  2.3749
 4583SOL    HW225383   2.087   4.177  10.940  0.6777  0.8746  2.6433
 4584SOL     OW25384   0.927   0.137   3.381 -0.4250 -0.1728 -0.5302
 4584SOL    HW125385   0.980   0.129   3.461  0.5430  1.4040 -1.0140
 4584SOL    HW225386   0.853   0.077   3.390 -0.3271  0.2839  3.2438
 4585SOL     OW25387   1.590   2.379   2.778 -0.3393  0.3686 -0.4351
 4585SOL    HW125388   1.673   2.373   2.825 -0.6161 -0.5318 -0.0487
 4585SOL    HW225389   1.622   2.347   2.693 -1.2220 -1.5271 -0.0696
 4586SOL     OW25390   0.965   2.901   3.452  0.1836  0.1193 -0.5849
 4586SOL    HW125391   0.946   2.817   3.494  1.3958  0.8875  1.4898
 4586SOL    HW225392   0.898   2.900   3.384 -1.0012  0.0931  0.5661
 4587SOL     OW25393   0.931   0.915   3.715  0.4193 -0.0138 -0.4008
 4587SOL    HW125394   0.965   0.827   3.703 -0.8968 -0.8577  1.9095
 4587SOL    HW225395   1.002   0.964   3.674  0.9805  0.6219  1.3015
 4588SOL     OW25396   3.884   0.811   5.383 -0.0128 -0.2785  0.1629
 4588SOL    HW125397   3.965   0.838   5.340 -0.3718  3.3922  1.7784
 4588SOL    HW225398   3.829   0.888   5.388  0.1419 -0.1170 -0.6424
 4589SOL     OW25399   0.261   0.714   9.489  0.5651 -0.2426 -0.1465
 4589SOL    HW125400   0.325   0.643   9.485 -0.1265 -0.9377  0.9669
 4589SOL    HW225401   0.273   0.721   9.584  0.1475 -1.2438 -0.0188
 4590SOL     OW25402   2.398   3.952   2.114 -0.1893  0.0437  0.0516
 4590SOL    HW125403   2.321   3.913   2.072  0.6408 -1.4430 -0.0924
 4590SOL    HW225404   2.395   3.914   2.201 -0.4021  0.3871  0.1939
 4591SOL     OW25405   2.269   1.278  12.149 -0.4928 -0.0064 -0.2782
 4591SOL    HW125406   2.191   1.256  12.200  0.1348 -0.1066  0.6380
 4591SOL    HW225407   2.342   1.286  12.211  0.9820 -0.0756 -1.9855
 4592SOL     OW25408   2.662   0.525   2.211 -0.0628 -0.5058 -0.3283
 4592SOL    HW125409   2.670   0.489   2.299  1.7448  2.3150  0.6538
 4592SOL    HW225410   2.699   0.453   2.159 -1.5349 -0.8307 -0.9288
 4593SOL     OW25411   4.217   3.652   4.843 -0.1141  0.2016 -0.1273
 4593SOL    HW125412   4.285   3.719   4.846 -1.0867  1.1254  1.1266
 4593SOL    HW225413   4.158   3.705   4.790  1.0939  0.4298 -1.2294
 4594SOL     OW25414   2.379   3.904   2.393  0.2353 -0.1405  0.1805
 4594SOL    HW125415   2.361   3.819   2.432  0.9362 -0.0193  0.7837
 4594SOL    HW225416   2.348   3.961   2.464 -2.1222  0.9235 -1.7109
 4595SOL     OW25417   3.531   0.485   2.045 -0.7349 -0.0688 -0.5986
 4595SOL    HW125418   3.561   0.404   2.087  0.2492  0.5188 -0.1511
 4595SOL    HW225419   3.618   0.521   2.026 -1.2846  1.5580  0.0287
 4596SOL     OW25420   3.029   0.004   9.421 -0.6198 -0.2003 -0.0595
 4596SOL    HW125421   2.994   4.654   9.446 -0.2863 -0.6916 -1.3135
 4596SOL    HW225422   3.121   4.715   9.430 -0.4360  1.2985  2.3426
 4597SOL     OW25423   3.029   4.249   8.657 -0.7752  0.0065 -0.2236
 4597SOL    HW125424   3.080   4.256   8.738 -0.6151 -0.4215 -0.2834
 4597SOL    HW225425   2.942   4.224   8.689 -0.3754 -0.9790  0.1144
 4598SOL     OW25426   2.685   4.601   6.967  0.0426 -0.5051 -0.2164
 4598SOL    HW125427   2.724   4.620   6.881 -0.6383  2.8365  0.2139
 4598SOL    HW225428   2.614   4.548   6.930 -0.0272  1.7279 -3.2402
 4599SOL     OW25429   0.352   2.239   7.692  0.1688  0.9612  0.5654
 4599SOL    HW125430   0.295   2.236   7.615  2.3050  1.0465 -1.0069
 4599SOL    HW225431   0.435   2.223   7.648  0.7067  0.0145  1.8872
 4600SOL     OW25432   0.743   1.269  15.221 -0.0873 -0.1094  0.5646
 4600SOL    HW125433   0.706   1.349  15.183  1.1990  1.2737  2.2617
 4600SOL    HW225434   0.780   1.236  15.139  0.0571  0.9793  0.1842
 4601SOL     OW25435   2.259   2.441   8.734  0.1662  0.2867  0.2447
 4601SOL    HW125436   2.195   2.437   8.805 -0.7997 -1.2050 -0.7147
 4601SOL    HW225437   2.220   2.505   8.675 -1.9024 -2.4341 -1.3227
 4602SOL     OW25438   4.571   1.749   8.872 -0.5029  0.0024  0.5557
 4602SOL    HW125439   4.644   1.739   8.811 -0.2096 -0.5117  0.9903
 4602SOL    HW225440   4.511   1.794   8.813  1.0649 -0.9170 -1.7455
 4603SOL     OW25441   2.600   4.012   8.312  0.0383  0.1739 -0.3706
 4603SOL    HW125442   2.673   4.010   8.373  0.1182  0.3152 -0.4606
 4603SOL    HW225443   2.597   4.104   8.285 -2.7632  0.2289  0.1502
 4604SOL     OW25444   2.740   0.622   2.966  0.3736  0.5660 -0.2252
 4604SOL    HW125445   2.830   0.638   2.997 -0.3934  0.8926  1.8074
 4604SOL    HW225446   2.701   0.695   3.014 -0.8352  1.5531 -2.7079
 4605SOL     OW25447   0.422   2.704   7.326 -0.3518 -0.1325 -0.5790
 4605SOL    HW125448   0.436   2.610   7.336  1.3017 -0.0073 -1.6785
 4605SOL    HW225449   0.478   2.718   7.249  1.4838 -0.0204  0.7914
 4606SOL     OW25450   2.603   1.369   8.156  0.2026  0.4167 -1.0891
 4606SOL    HW125451   2.648   1.346   8.074  1.2640  1.0195 -0.6800
 4606SOL    HW225452   2.666   1.317   8.206 -1.9223 -1.3379 -0.2390
 4607SOL     OW25453   0.320   0.578   1.582 -0.5401 -0.6214 -0.3140
 4607SOL    HW125454   0.328   0.487   1.554  1.2796  0.0138 -1.8855
 4607SOL    HW225455   0.261   0.607   1.512 -0.4849 -1.9790 -0.9114
 4608SOL     OW25456   0.107   3.297   6.026  0.1399  0.0953  0.0289
 4608SOL    HW125457   0.147   3.349   5.957  0.8639 -0.9061 -0.3064
 4608SOL    HW225458   0.015   3.296   5.999  0.4970  0.7319 -1.2230
 4609SOL     OW25459   0.940   2.732   0.323 -0.0269  0.2525 -0.0756
 4609SOL    HW125460   0.945   2.674   0.248 -0.5354  1.1230 -0.7905
 4609SOL    HW225461   1.016   2.789   0.313 -1.3367  1.6203 -2.4771
 4610SOL     OW25462   3.701   4.645  10.706 -0.7271  0.0482  0.3385
 4610SOL    HW125463   3.621   4.691  10.681  0.0675  2.3418  2.0679
 4610SOL    HW225464   3.676   4.558  10.675  1.1952 -0.7425  1.0272
 4611SOL     OW25465   2.109   4.219   8.307  0.3074  0.0706 -0.2738
 4611SOL    HW125466   2.071   4.241   8.222  1.1983 -2.4291 -1.3189
 4611SOL    HW225467   2.033   4.225   8.365 -0.3203  1.0504 -1.1944
 4612SOL     OW25468   0.987   1.724  16.524 -0.3842  0.1168  0.4109
 4612SOL    HW125469   0.957   1.808  16.560  1.5164  0.1806  1.8452
 4612SOL    HW225470   1.008   1.750  16.434 -0.3379  1.7568  0.8962
 4613SOL     OW25471   2.101   0.507  10.939 -0.8023  0.0038 -0.6023
 4613SOL    HW125472   2.153   0.587  10.931  1.2545 -1.1239  1.3575
 4613SOL    HW225473   2.043   0.538  11.008  0.0997  0.5577 -0.0905
 4614SOL     OW25474   4.390   0.894   5.090  0.0396  0.3311 -0.3787
 4614SOL    HW125475   4.429   0.809   5.070  0.3004  0.3386  0.1055
 4614SOL    HW225476   4.446   0.951   5.037  0.6923 -1.5041 -1.6764
 4615SOL     OW25477   4.268   0.671   2.326 -0.0015  0.2802  0.2873
 4615SOL    HW125478   4.253   0.737   2.258 -1.2180  1.2975  1.5471
 4615SOL    HW225479   4.261   0.726   2.404 -2.3293  0.0793  0.1988
 4616SOL     OW25480   3.834   3.312  17.659  0.4159  0.0581  0.0499
 4616SOL    HW125481   3.830   3.361   0.000 -2.5329 -0.3132  0.0941
 4616SOL    HW225482   3.916   3.350  17.626 -0.7263  0.8319 -1.8545
 4617SOL     OW25483   4.563   1.838   9.311 -0.0090 -0.0711  0.8097
 4617SOL    HW125484   4.579   1.763   9.368  1.4725  0.2912  0.8652
 4617SOL    HW225485   4.470   1.831   9.290  0.1676  0.9089 -0.3271
 4618SOL     OW25486   4.544   4.319   6.856  0.2384 -0.2087  0.2455
 4618SOL    HW125487   4.590   4.385   6.803 -0.2003 -0.4537 -0.4421
 4618SOL    HW225488   4.464   4.365   6.880  1.8407  1.8015  1.7813
 4619SOL     OW25489   1.125   0.208   6.533  0.3347  0.9594 -0.1614
 4619SOL    HW125490   1.164   0.123   6.554 -0.0552  1.1112  1.1707
 4619SOL    HW225491   1.085   0.223   6.618  0.9368 -2.7362  0.7977
 4620SOL     OW25492   4.008   1.016   2.205 -0.3463 -0.3043  0.0847
 4620SOL    HW125493   4.052   1.100   2.214 -0.2991 -0.3803  0.5665
 4620SOL    HW225494   3.933   1.032   2.148 -1.4696 -0.2100  1.5891
 4621SOL     OW25495   3.745   1.543   5.775 -0.3096  0.0846 -0.5045
 4621SOL    HW125496   3.797   1.608   5.728  1.1531 -0.5049  0.2997
 4621SOL    HW225497   3.802   1.470   5.754  0.0276 -0.4271  2.1738
 4622SOL     OW25498   2.808   3.744   7.469 -0.3214 -0.3932  0.0468
 4622SOL    HW125499   2.746   3.719   7.538  0.4938 -1.8616  0.2454
 4622SOL    HW225500   2.856   3.663   7.451  0.0595  0.1451 -1.2850
 4623SOL     OW25501   3.471   0.315  13.021 -0.3717 -0.2183 -0.0832
 4623SOL    HW125502   3.385   0.339  12.987 -0.0606  2.3025  0.9316
 4623SOL    HW225503   3.504   0.395  13.062 -2.2126 -0.2115  1.3585
 4624SOL     OW25504   1.412   2.045   8.185  0.4558 -0.0739 -0.1875
 4624SOL    HW125505   1.486   2.006   8.231  0.1045 -1.6269 -0.9336
 4624SOL    HW225506   1.376   1.975   8.131  0.5485 -0.2492 -0.0190
 4625SOL     OW25507   0.475   1.810   4.120  0.1003  0.2556 -0.2742
 4625SOL    HW125508   0.569   1.796   4.106  0.2391 -0.5067  1.3764
 4625SOL    HW225509   0.437   1.772   4.041  0.1876 -0.6406  0.1196
 4626SOL     OW25510   2.654   3.584  14.504  0.1367 -0.0011  0.5739
 4626SOL    HW125511   2.644   3.640  14.428  0.4038 -0.5322  0.1473
 4626SOL    HW225512   2.566   3.594  14.539 -0.0620 -0.2231  0.1365
 4627SOL     OW25513   2.545   2.041   4.724  0.2884 -0.0584 -0.4150
 4627SOL    HW125514   2.491   2.118   4.707  0.5425 -0.4019 -2.7236
 4627SOL    HW225515   2.479   1.980   4.690 -0.9415  0.4729  1.0196
 4628SOL     OW25516   0.208   3.653  17.471 -0.3038  0.0242  0.1555
 4628SOL    HW125517   0.274   3.596  17.512  0.8575  1.2131 -0.0683
 4628SOL    HW225518   0.170   3.588  17.412  2.5497 -0.7746 -0.8232
 4629SOL     OW25519   0.336   2.486   2.721  0.2847 -0.4061 -0.0710
 4629SOL    HW125520   0.243   2.463   2.719  0.4183 -0.9373 -0.1056
 4629SOL    HW225521   0.334   2.539   2.642 -1.7147 -0.8455 -0.3042
 4630SOL     OW25522   3.751   2.938   3.702  0.6486  0.1054  0.6637
 4630SOL    HW125523   3.825   2.963   3.647 -0.6219 -1.1151 -1.5718
 4630SOL    HW225524   3.742   3.009   3.766  0.1506 -0.0039  0.7121
 4631SOL     OW25525   0.276   4.125   8.290  0.7733 -0.2347 -0.3017
 4631SOL    HW125526   0.226   4.092   8.216  1.2216 -3.8142  1.0125
 4631SOL    HW225527   0.321   4.050   8.328  2.4367  0.6073 -0.6162
 4632SOL     OW25528   0.815   1.253  14.964  0.4711 -0.4285  0.6107
 4632SOL    HW125529   0.837   1.308  14.889  1.4859 -1.6480  0.0219
 4632SOL    HW225530   0.833   1.169  14.923  1.6144  0.7550 -1.3007
 4633SOL     OW25531   2.843   3.690  11.970  0.5331 -0.3578 -0.4316
 4633SOL    HW125532   2.863   3.602  11.939  0.0061 -0.4565 -0.4870
 4633SOL    HW225533   2.921   3.737  11.941  2.8454 -3.9112  0.0473
 4634SOL     OW25534   0.896   0.801  15.888 -0.2283 -0.1420 -0.0176
 4634SOL    HW125535   0.813   0.768  15.922 -0.5135 -0.6729 -1.2167
 4634SOL    HW225536   0.940   0.718  15.872  2.1624  0.8341  1.4142
 4635SOL     OW25537   2.905   2.641   8.762  0.2262  0.0124 -0.0578
 4635SOL    HW125538   2.999   2.662   8.763 -0.2681  2.1262  0.8036
 4635SOL    HW225539   2.861   2.720   8.730 -0.0857 -0.5034 -0.9012
 4636SOL     OW25540   1.486   2.593   4.422 -0.2312  0.2953  0.3076
 4636SOL    HW125541   1.522   2.515   4.379 -1.7007 -0.2044 -0.0222
 4636SOL    HW225542   1.517   2.659   4.361  1.6202  0.3128  1.2766
 4637SOL     OW25543   4.254   4.247  16.085  0.0911 -0.0421 -0.1719
 4637SOL    HW125544   4.271   4.339  16.105 -2.5676  0.3473  0.3121
 4637SOL    HW225545   4.309   4.241  16.007 -1.3175 -1.2420 -1.0702
 4638SOL     OW25546   0.861   2.711  16.694 -0.0488  0.6450  0.2958
 4638SOL    HW125547   0.914   2.790  16.683 -1.1462  1.3692  0.2817
 4638SOL    HW225548   0.791   2.749  16.642 -1.3126 -1.2422  0.6078
 4639SOL     OW25549   0.518   2.797  16.013 -0.9975  0.1212 -0.0633
 4639SOL    HW125550   0.514   2.862  16.083  1.6080 -1.0157  1.1686
 4639SOL    HW225551   0.449   2.734  16.033 -0.5428 -0.4798 -0.3962
 4640SOL     OW25552   1.467   4.126  11.385 -0.6354 -0.0316  0.7703
 4640SOL    HW125553   1.530   4.192  11.414 -1.4167  0.2917  1.7425
 4640SOL    HW225554   1.514   4.083  11.314 -0.6427  0.9716  0.1512
 4641SOL     OW25555   3.841   0.318  16.182  0.1952 -0.3290 -0.9139
 4641SOL    HW125556   3.906   0.368  16.231 -0.2645  0.1202 -0.7630
 4641SOL    HW225557   3.754   0.356  16.196  2.2626  2.4184  4.2842
 4642SOL     OW25558   2.493   3.986  11.321 -0.5120 -0.3686 -0.6996
 4642SOL    HW125559   2.476   4.071  11.362  1.0010 -0.2894 -0.1988
 4642SOL    HW225560   2.546   3.935  11.383  1.2883  0.4805 -1.5397
 4643SOL     OW25561   1.373   4.441   4.182  0.2311 -0.0666  0.0858
 4643SOL    HW125562   1.434   4.510   4.157 -0.8117  0.3261 -1.3613
 4643SOL    HW225563   1.406   4.406   4.265  1.5926 -1.3308 -0.9946
 4644SOL     OW25564   0.229   0.965   8.598  0.0141  0.5060  0.0041
 4644SOL    HW125565   0.245   0.979   8.691  0.6015 -0.4732  0.0569
 4644SOL    HW225566   0.292   1.033   8.576  1.5558 -1.3145 -1.2786
 4645SOL     OW25567   2.552   2.150  11.361  0.5357 -0.8770  0.1406
 4645SOL    HW125568   2.472   2.183  11.400  1.1861  1.9391 -0.9486
 4645SOL    HW225569   2.523   2.095  11.288  1.8328 -0.4538 -0.6956
 4646SOL     OW25570   3.973   2.645   6.766  0.1211  0.6819  0.2206
 4646SOL    HW125571   4.020   2.567   6.737  1.3643  1.3454  0.4369
 4646SOL    HW225572   4.032   2.709   6.725  0.1280 -1.2914 -2.8822
 4647SOL     OW25573   2.216   0.209   3.141 -0.0395  0.0606 -0.1828
 4647SOL    HW125574   2.145   0.208   3.076 -0.7822 -1.1446  0.6334
 4647SOL    HW225575   2.295   0.188   3.091 -1.3801 -1.8602 -1.5622
 4648SOL     OW25576   1.373   0.698  11.890 -0.2166 -0.0643 -0.0800
 4648SOL    HW125577   1.343   0.731  11.975 -0.6043 -1.3299  0.2704
 4648SOL    HW225578   1.444   0.643  11.922  0.6260  0.8075 -0.4749
 4649SOL     OW25579   2.653   0.485   8.056 -0.3539  0.0517 -0.3747
 4649SOL    HW125580   2.625   0.574   8.080  0.1011 -0.2981  1.4795
 4649SOL    HW225581   2.697   0.495   7.972  1.9787  1.9408  1.0717
 4650SOL     OW25582   2.148   2.077  11.894 -0.1302  1.1012 -0.7516
 4650SOL    HW125583   2.167   2.049  11.804 -1.9300 -0.5508 -0.6371
 4650SOL    HW225584   2.110   1.996  11.928 -0.5191  0.4128 -2.7849
 4651SOL     OW25585   3.991   2.893   9.021 -0.4820  0.5531 -0.1026
 4651SOL    HW125586   4.018   2.801   9.025 -2.2308  0.0703  0.6444
 4651SOL    HW225587   3.991   2.905   8.926  1.2706  1.5869  0.0156
 4652SOL     OW25588   3.648   1.458   2.660  0.1750  0.5968  0.0797
 4652SOL    HW125589   3.582   1.458   2.591  0.3880  2.3357 -0.1127
 4652SOL    HW225590   3.609   1.496   2.739 -3.3228 -2.0923 -0.3481
 4653SOL     OW25591   4.130   4.116  11.265 -0.1531 -0.5758 -0.0636
 4653SOL    HW125592   4.223   4.128  11.244 -0.2849  0.6807  0.0686
 4653SOL    HW225593   4.094   4.173  11.198  1.1785  2.1044  1.4603
 4654SOL     OW25594   2.859   3.952  14.046 -0.4389  0.2505 -0.5522
 4654SOL    HW125595   2.791   3.887  14.031  1.1941 -0.8870 -3.0003
 4654SOL    HW225596   2.911   3.936  13.968  1.2994  0.6108  0.5285
 4655SOL     OW25597   0.501   4.648   5.340  0.2252 -0.4148  0.0883
 4655SOL    HW125598   0.440   4.686   5.404 -1.1537 -2.3096 -0.1037
 4655SOL    HW225599   0.526   4.718   5.281  1.9194 -0.1138  1.1702
 4656SOL     OW25600   4.158   0.409   5.277  0.0289  0.2861 -0.8850
 4656SOL    HW125601   4.210   0.456   5.343 -0.6221 -0.8771  0.4644
 4656SOL    HW225602   4.076   0.458   5.288  0.7119  1.0590  0.7479
 4657SOL     OW25603   2.015   2.638  15.186  0.3687 -0.3877  0.1532
 4657SOL    HW125604   1.979   2.631  15.274 -1.7006 -0.1990 -0.6817
 4657SOL    HW225605   1.941   2.663  15.130  0.9060  2.0298  0.5485
 4658SOL     OW25606   2.736   0.356   5.449  0.1078 -0.2336  0.3399
 4658SOL    HW125607   2.826   0.348   5.482  0.6147 -0.4842 -1.0912
 4658SOL    HW225608   2.745   0.341   5.355 -0.7704  2.3074 -0.1275
 4659SOL     OW25609   2.159   1.368   4.580 -0.8535  0.2527 -0.0664
 4659SOL    HW125610   2.204   1.302   4.633 -0.2842  0.8296  0.1660
 4659SOL    HW225611   2.115   1.420   4.648 -0.0273  0.5820  0.2198
 4660SOL     OW25612   2.746   3.056   4.721  0.1793 -0.2949  0.1761
 4660SOL    HW125613   2.666   3.092   4.684  1.5228  0.2292 -2.2234
 4660SOL    HW225614   2.774   3.135   4.768  0.2314 -1.5072  2.1598
 4661SOL     OW25615   3.652   3.692   2.833 -0.1106 -0.1018 -0.0955
 4661SOL    HW125616   3.591   3.689   2.760 -1.6220 -0.4328  1.1925
 4661SOL    HW225617   3.704   3.612   2.823 -1.0616 -0.6937 -0.2156
 4662SOL     OW25618   1.024   4.659   6.876 -0.2316  0.2287 -0.2413
 4662SOL    HW125619   0.999   4.572   6.905 -0.7386  0.8967  1.3437
 4662SOL    HW225620   0.960   4.657   6.805  0.9153 -1.3540 -1.2168
 4663SOL     OW25621   0.664   0.577   8.057  0.4160  0.2794 -0.1270
 4663SOL    HW125622   0.759   0.567   8.050  0.5272 -0.3944  2.3129
 4663SOL    HW225623   0.665   0.574   8.153  0.6960  2.4789 -0.0681
 4664SOL     OW25624   4.534   2.621  17.585  0.9089  0.3163 -0.0960
 4664SOL    HW125625   4.510   2.680  17.656 -0.1093  0.2476 -0.3933
 4664SOL    HW225626   4.577   2.675  17.519  0.6569  1.0066  0.3003
 4665SOL     OW25627   2.544   0.800   9.021  0.1759  0.1604 -0.0067
 4665SOL    HW125628   2.541   0.843   8.936  1.1466  1.4645  0.6224
 4665SOL    HW225629   2.602   0.726   9.003 -1.2521 -0.7991 -0.6512
 4666SOL     OW25630   0.062   4.169   6.846  0.2645  0.3950  0.2249
 4666SOL    HW125631   0.069   4.179   6.941 -0.3261 -2.3634  0.5402
 4666SOL    HW225632   4.719   4.218   6.823 -0.2825 -0.5604  0.0682
 4667SOL     OW25633   1.660   3.951   8.449  0.1330  0.3435  0.0584
 4667SOL    HW125634   1.663   3.856   8.459 -2.0380  0.0783 -1.8737
 4667SOL    HW225635   1.705   3.985   8.527 -0.6221 -0.2127  0.7313
 4668SOL     OW25636   4.344   3.101   4.199  0.3076 -0.2766 -0.2811
 4668SOL    HW125637   4.308   3.171   4.254  0.3134 -0.1065 -0.4957
 4668SOL    HW225638   4.420   3.150   4.171 -0.4127  0.7932 -0.3596
 4669SOL     OW25639   3.059   4.705   1.921 -0.0099  0.3288  0.2467
 4669SOL    HW125640   3.062   0.027   1.845  1.8420  1.7293  1.3898
 4669SOL    HW225641   3.000   0.006   1.987 -0.4732 -1.4488  0.8328
 4670SOL     OW25642   4.641   4.448   7.904  0.3961  0.3969  0.6752
 4670SOL    HW125643   4.698   4.503   7.956  1.5651 -0.0312 -0.1439
 4670SOL    HW225644   4.612   4.507   7.834  1.4474 -1.1298 -1.0805
 4671SOL     OW25645   0.443   4.583   2.195  0.2729  0.4776  0.1133
 4671SOL    HW125646   0.423   4.596   2.102 -2.0620  0.5760  0.6328
 4671SOL    HW225647   0.357   4.568   2.234  0.3936 -0.4688  0.0015
 4672SOL     OW25648   4.454   3.721  11.450  0.0449  0.0848  0.4680
 4672SOL    HW125649   4.392   3.763  11.510 -2.1983  0.1977 -1.8982
 4672SOL    HW225650   4.452   3.635  11.491  0.2987 -0.6885 -1.1407
 4673SOL     OW25651   3.331   4.013   7.310 -0.0572  0.4431  0.0460
 4673SOL    HW125652   3.366   4.012   7.399  1.7977 -0.4126 -0.6966
 4673SOL    HW225653   3.316   4.108   7.300  2.1762  0.8379  0.4106
 4674SOL     OW25654   1.213   0.975   8.574  0.7614 -0.0458 -0.2868
 4674SOL    HW125655   1.182   0.903   8.629  1.0256 -0.6387 -0.9070
 4674SOL    HW225656   1.166   1.051   8.609 -0.4227 -0.6152 -0.6349
 4675SOL     OW25657   0.905   4.331   9.695  0.3860  0.0754 -0.0922
 4675SOL    HW125658   0.899   4.375   9.780 -0.7771 -0.3920  0.0678
 4675SOL    HW225659   0.901   4.243   9.732 -0.0336  1.1562  2.4142
 4676SOL     OW25660   2.397   0.601   2.504 -0.5925 -0.2592  0.1437
 4676SOL    HW125661   2.455   0.674   2.527 -0.1881 -0.3713 -0.4982
 4676SOL    HW225662   2.350   0.627   2.425 -3.2155 -0.7244  1.5704
 4677SOL     OW25663   0.866   0.818   7.777  0.5528  0.1080 -0.4106
 4677SOL    HW125664   0.778   0.842   7.807  0.3365  1.1407 -1.9310
 4677SOL    HW225665   0.913   0.887   7.823  0.6181 -1.4255  1.8692
 4678SOL     OW25666   3.775   1.297   6.712 -0.0494 -0.0795 -0.0181
 4678SOL    HW125667   3.705   1.341   6.760  1.2204  1.0614  0.8021
 4678SOL    HW225668   3.775   1.214   6.759 -1.3819  0.5982  1.1908
 4679SOL     OW25669   3.259   3.970  17.034 -0.0694  0.0251 -0.5820
 4679SOL    HW125670   3.328   3.910  17.061  0.7416  2.1588  2.0992
 4679SOL    HW225671   3.222   3.927  16.957  0.9986 -0.9810 -0.5396
 4680SOL     OW25672   1.045   2.368  10.591  0.3642 -0.3265  0.4368
 4680SOL    HW125673   0.954   2.394  10.578  0.3307  0.0147  1.4269
 4680SOL    HW225674   1.052   2.358  10.685 -2.6866 -2.5077  0.4295
 4681SOL     OW25675   1.288   2.046  10.002 -0.2916  0.1105 -0.5319
 4681SOL    HW125676   1.245   2.035  10.087  0.1849  0.2256 -0.2768
 4681SOL    HW225677   1.380   2.050  10.029 -0.0764  1.2460 -1.4696
 4682SOL     OW25678   4.393   4.221   0.944  0.4073 -0.5447 -0.0690
 4682SOL    HW125679   4.402   4.287   1.012  0.7269  0.1186 -0.7547
 4682SOL    HW225680   4.298   4.224   0.933  0.1958 -1.0775  1.5992
 4683SOL     OW25681   2.480   2.576   1.109  0.4468  0.4158 -0.2703
 4683SOL    HW125682   2.564   2.549   1.070  0.9368  0.5043  0.7335
 4683SOL    HW225683   2.507   2.621   1.189  0.6508 -1.2621  0.5822
 4684SOL     OW25684   0.780   4.681   5.560 -0.2809  0.0052 -0.1625
 4684SOL    HW125685   0.783   4.586   5.563  2.5236  0.0267 -2.0543
 4684SOL    HW225686   0.866   4.709   5.593 -0.5472  1.1613 -0.4414
 4685SOL     OW25687   2.957   1.503   6.581 -0.2486 -0.2476 -0.5551
 4685SOL    HW125688   2.875   1.549   6.596  0.2917  0.6638 -0.3519
 4685SOL    HW225689   2.940   1.426   6.636 -1.2213  1.5613  1.7032
 4686SOL     OW25690   4.563   2.555   7.320 -0.4325 -0.2911  0.4534
 4686SOL    HW125691   4.476   2.561   7.362 -0.0775  2.2962  0.8052
 4686SOL    HW225692   4.623   2.587   7.387  0.9181  2.1841 -1.9674
 4687SOL     OW25693   0.192   4.624   2.644  0.5971  0.0353  0.1764
 4687SOL    HW125694   0.240   4.612   2.726 -1.1334  0.0632  1.1910
 4687SOL    HW225695   0.145   4.541   2.648  0.0144  0.3454 -0.4369
 4688SOL     OW25696   1.640   0.763   5.060 -0.0822  0.6697  0.1474
 4688SOL    HW125697   1.613   0.689   5.114 -2.2877  0.0905 -1.7391
 4688SOL    HW225698   1.562   0.815   5.076 -0.2788  0.2391  0.5788
 4689SOL     OW25699   0.526   1.096   1.934 -0.0977 -0.0984  0.3481
 4689SOL    HW125700   0.527   1.173   1.991 -1.6137  2.1823 -2.7571
 4689SOL    HW225701   0.601   1.045   1.966  2.8403  3.3244 -0.9935
 4690SOL     OW25702   3.181   2.867  17.595  0.4250  0.2942 -0.0169
 4690SOL    HW125703   3.131   2.879  17.676  1.9780 -0.1904  1.0108
 4690SOL    HW225704   3.120   2.910  17.535 -0.9127  2.6599  3.0086
 4691SOL     OW25705   2.028   2.279  12.018 -0.0781 -0.1751 -0.1857
 4691SOL    HW125706   2.060   2.197  11.982  1.0951 -0.1364  0.7467
 4691SOL    HW225707   2.036   2.335  11.941 -4.1717  3.4188  2.0013
 4692SOL     OW25708   2.976   1.425   4.198 -0.2350  0.0204 -0.1849
 4692SOL    HW125709   3.001   1.465   4.115 -1.4768 -4.5114 -2.7360
 4692SOL    HW225710   2.910   1.360   4.173 -1.9354  1.3507  0.8333
 4693SOL     OW25711   1.935   3.771  13.137  0.4095  0.3016  0.5547
 4693SOL    HW125712   1.999   3.704  13.161  0.1211  0.5191  1.8855
 4693SOL    HW225713   1.940   3.752  13.043  2.1548 -1.2085  0.9487
 4694SOL     OW25714   1.831   1.874   7.833 -0.1037 -0.5447  0.2806
 4694SOL    HW125715   1.746   1.910   7.857 -0.1678 -2.5691  3.0397
 4694SOL    HW225716   1.860   1.886   7.923  0.7241 -0.1127 -0.0408
 4695SOL     OW25717   3.265   0.597   2.627  0.0012 -0.5833  0.6250
 4695SOL    HW125718   3.249   0.679   2.672  1.8430 -0.0403  0.3191
 4695SOL    HW225719   3.350   0.618   2.588 -0.3049 -0.0065  0.2647
 4696SOL     OW25720   3.569   3.721  14.314  0.0841 -0.1759 -0.3450
 4696SOL    HW125721   3.552   3.640  14.266 -1.1477 -0.0004 -0.1906
 4696SOL    HW225722   3.544   3.783  14.245 -1.2719  0.2807  0.5540
 4697SOL     OW25723   3.112   2.160  12.690 -0.0223  0.1477 -0.0024
 4697SOL    HW125724   3.031   2.117  12.717  0.2336  2.2549  4.0826
 4697SOL    HW225725   3.084   2.251  12.692  0.6637  0.3852 -0.8028
 4698SOL     OW25726   2.549   2.893  15.228  0.3076 -0.1847 -0.3588
 4698SOL    HW125727   2.639   2.919  15.248 -0.2546  1.4223  0.0736
 4698SOL    HW225728   2.502   2.949  15.289 -0.7853 -2.0630  0.5226
 4699SOL     OW25729   2.171   3.543   2.303  0.2102  0.0399 -0.4467
 4699SOL    HW125730   2.167   3.453   2.270  0.2779 -0.2041  0.2092
 4699SOL    HW225731   2.087   3.545   2.349  0.8914 -0.2123  0.8018
 4700SOL     OW25732   4.328   1.706   9.316 -0.1211 -0.2264  0.0561
 4700SOL    HW125733   4.297   1.686   9.404  1.2581 -0.1135  0.5606
 4700SOL    HW225734   4.262   1.770   9.287  0.2554  1.3370  2.7010
 4701SOL     OW25735   4.602   0.692  13.551  0.3102 -0.1883 -0.3927
 4701SOL    HW125736   4.608   0.609  13.597 -2.5048 -0.8709 -1.2619
 4701SOL    HW225737   4.690   0.706  13.516 -0.7850  0.6318 -2.8338
 4702SOL     OW25738   3.272   4.614  17.724  0.1478 -0.1746  0.2391
 4702SOL    HW125739   3.314   4.633  17.640  0.4027 -0.7166  0.2443
 4702SOL    HW225740   3.182   4.603  17.692  0.9166 -1.4222 -1.4776
 4703SOL     OW25741   2.790   1.596   7.372  0.5620  0.1490  0.1234
 4703SOL    HW125742   2.841   1.581   7.293  0.6909  0.2311  0.1900
 4703SOL    HW225743   2.708   1.553   7.348  0.9314 -0.8828  0.6645
 4704SOL     OW25744   3.344   0.722   3.634  0.1062  0.3719  0.0628
 4704SOL    HW125745   3.396   0.708   3.555 -0.7537  1.6209 -0.7344
 4704SOL    HW225746   3.331   0.637   3.677 -1.0662  1.6546  2.2169
 4705SOL     OW25747   1.465   3.112  11.913  0.3415  0.1485  0.9155
 4705SOL    HW125748   1.519   3.162  11.851  0.4640 -0.6218  0.3993
 4705SOL    HW225749   1.506   3.026  11.901  0.1082  0.3013 -1.0595
 4706SOL     OW25750   0.168   0.893   3.691 -0.3364  0.0496 -0.2791
 4706SOL    HW125751   0.224   0.844   3.751 -0.8926 -0.2306  0.0129
 4706SOL    HW225752   0.218   0.974   3.679 -2.2036  1.5234  1.7875
 4707SOL     OW25753   4.014   2.063   9.592  0.1300 -0.4754 -0.9090
 4707SOL    HW125754   3.951   2.110   9.537 -1.1052 -1.5623 -0.4245
 4707SOL    HW225755   4.004   2.101   9.679  1.2156 -1.8607 -0.1881
 4708SOL     OW25756   0.528   0.465   2.593  1.2044 -0.0499  0.0067
 4708SOL    HW125757   0.467   0.420   2.534 -0.0188  1.4977  0.0635
 4708SOL    HW225758   0.610   0.417   2.581  1.8692  1.3892 -1.2849
 4709SOL     OW25759   2.247   4.009   6.885  0.2196 -0.5069  0.5634
 4709SOL    HW125760   2.184   3.938   6.896  1.4132 -1.6818 -0.1049
 4709SOL    HW225761   2.266   4.012   6.791 -1.3788 -1.2435  0.2112
 4710SOL     OW25762   1.858   3.500   7.679  0.9010  0.2159 -0.2480
 4710SOL    HW125763   1.780   3.557   7.678  0.8204  0.0768 -1.7115
 4710SOL    HW225764   1.909   3.547   7.613 -0.1323  2.6921  0.7179
 4711SOL     OW25765   3.837   0.282   7.115  0.0912  0.3680 -0.3018
 4711SOL    HW125766   3.875   0.270   7.028  0.1308  3.8763 -0.7549
 4711SOL    HW225767   3.841   0.190   7.139 -2.0213  1.1381  2.9029
 4712SOL     OW25768   1.328   1.580   7.003  0.2010 -0.1888 -0.3064
 4712SOL    HW125769   1.241   1.591   7.042  0.6141 -0.0760  0.6018
 4712SOL    HW225770   1.351   1.672   6.989 -0.7480  0.1906  0.6465
 4713SOL     OW25771   3.915   1.262   2.496 -0.3496 -0.6410  0.2610
 4713SOL    HW125772   3.853   1.305   2.438  1.4244 -2.2562 -2.7962
 4713SOL    HW225773   3.855   1.204   2.542 -0.1535 -0.0470  1.2961
 4714SOL     OW25774   3.181   2.966  11.109  0.3387  0.2987 -0.4816
 4714SOL    HW125775   3.205   2.988  11.019  1.9223 -1.4368 -0.4824
 4714SOL    HW225776   3.244   2.897  11.128  0.5338  0.5941 -0.0469
 4715SOL     OW25777   2.488   1.951   7.447  0.1564 -0.0353 -0.1068
 4715SOL    HW125778   2.527   2.006   7.379  0.1801  3.8144  3.0190
 4715SOL    HW225779   2.561   1.924   7.503 -0.2491  0.1021  0.4851
 4716SOL     OW25780   1.592   1.200  11.323 -0.3295  0.2144 -0.5680
 4716SOL    HW125781   1.686   1.186  11.335 -0.6700  0.0467  1.9216
 4716SOL    HW225782   1.583   1.163  11.236  0.2414  0.8447 -0.8989
 4717SOL     OW25783   1.111   1.568   7.175 -0.5793  0.2736  0.4101
 4717SOL    HW125784   1.043   1.617   7.129 -0.7270  1.4593  1.8677
 4717SOL    HW225785   1.135   1.626   7.248  0.7005 -1.9494  1.7467
 4718SOL     OW25786   1.579   1.677   8.693 -0.3168  0.0102  0.0069
 4718SOL    HW125787   1.582   1.752   8.635 -1.0605 -0.0966 -0.1752
 4718SOL    HW225788   1.571   1.601   8.635 -1.9125  0.6802 -0.6279
 4719SOL     OW25789   4.682   3.572   5.073 -0.1582  0.6218  0.0406
 4719SOL    HW125790   4.718   3.489   5.040  0.7721  0.4128  1.5815
 4719SOL    HW225791   0.016   3.625   5.033 -0.5350  1.2479  0.2236
 4720SOL     OW25792   1.025   2.713  15.038 -0.3324  0.2711 -0.7044
 4720SOL    HW125793   0.989   2.639  14.988 -1.2865  0.1620  0.1470
 4720SOL    HW225794   1.117   2.688  15.029 -0.3314 -0.8771  2.7934
 4721SOL     OW25795   2.594   3.154   3.402  0.3872 -0.6139 -0.4647
 4721SOL    HW125796   2.541   3.208   3.343 -1.3968 -2.6354 -0.7257
 4721SOL    HW225797   2.529   3.087   3.423 -0.8655  0.6933 -0.1220
 4722SOL     OW25798   0.982   3.945   2.916 -0.3664 -0.3769 -0.3827
 4722SOL    HW125799   1.039   3.966   2.842  1.3751  1.8922  1.6025
 4722SOL    HW225800   0.993   4.029   2.960 -0.5465  0.4301 -1.8587
 4723SOL     OW25801   1.855   3.019   2.505 -0.4816 -0.0192  0.2562
 4723SOL    HW125802   1.780   3.064   2.542 -0.4672  0.4074 -0.2253
 4723SOL    HW225803   1.821   2.934   2.476  0.3459 -0.1485 -0.3543
 4724SOL     OW25804   0.576   1.128   4.939 -0.3219  0.0898  1.0228
 4724SOL    HW125805   0.510   1.170   4.995 -1.6667  2.6465 -2.4181
 4724SOL    HW225806   0.555   1.162   4.851 -1.0197  0.2787  1.2571
 4725SOL     OW25807   0.209   3.690   9.188 -0.0383 -0.7373  0.5730
 4725SOL    HW125808   0.121   3.661   9.212  0.6318  0.0918  3.9962
 4725SOL    HW225809   0.232   3.748   9.260 -1.2383  0.1525  0.2409
 4726SOL     OW25810   0.706   0.148   5.388  0.0383  0.0806 -0.0324
 4726SOL    HW125811   0.719   0.063   5.429  0.6185  0.8565  1.3740
 4726SOL    HW225812   0.611   0.156   5.378  0.0671 -0.0552 -0.4183
 4727SOL     OW25813   2.885   2.502  15.639 -0.3803  0.2782 -0.2746
 4727SOL    HW125814   2.838   2.426  15.604 -1.0075  1.5112 -2.0790
 4727SOL    HW225815   2.947   2.528  15.571 -0.2257 -1.8284 -0.9336
 4728SOL     OW25816   1.298   4.317  12.709  0.8159 -0.0737 -0.5153
 4728SOL    HW125817   1.239   4.332  12.636  1.4910 -2.8778 -1.6296
 4728SOL    HW225818   1.327   4.407  12.720 -0.7073  0.4927 -1.1931
 4729SOL     OW25819   3.847   2.136   9.397 -0.2812 -0.7567 -0.0267
 4729SOL    HW125820   3.765   2.176   9.368  0.7931  0.6484 -1.0949
 4729SOL    HW225821   3.908   2.192   9.349  2.1852 -2.7045  0.8423
 4730SOL     OW25822   2.292   2.547  12.722 -0.0530  0.3806  0.7673
 4730SOL    HW125823   2.327   2.487  12.656  1.1702  1.3405  0.5483
 4730SOL    HW225824   2.356   2.619  12.715  0.8457 -0.2950  1.9955
 4731SOL     OW25825   2.517   0.548   5.082  0.3146 -0.2562  0.9568
 4731SOL    HW125826   2.529   0.543   5.177  3.2892 -0.2046  0.5706
 4731SOL    HW225827   2.586   0.499   5.038 -0.8842  1.1755 -2.6030
 4732SOL     OW25828   2.742   3.225   6.328 -0.0090 -0.1738  0.4527
 4732SOL    HW125829   2.662   3.275   6.312 -1.0177 -0.8656  3.3362
 4732SOL    HW225830   2.756   3.243   6.421 -2.4974 -0.6274  0.9045
 4733SOL     OW25831   4.300   0.958   7.807  0.4746  0.5629  0.2221
 4733SOL    HW125832   4.266   0.868   7.808  0.0152  0.7307  0.0051
 4733SOL    HW225833   4.222   1.008   7.783  0.3291  1.3951  2.5011
 4734SOL     OW25834   1.163   0.287   4.720  0.5717  0.6515 -0.5694
 4734SOL    HW125835   1.140   0.379   4.725 -0.6264  0.3545 -0.6076
 4734SOL    HW225836   1.250   0.279   4.758 -0.4503  0.3095  1.6944
 4735SOL     OW25837   3.845   0.762   9.092  0.0237 -0.8119 -0.3650
 4735SOL    HW125838   3.923   0.779   9.040 -1.2165  1.3998 -1.4902
 4735SOL    HW225839   3.893   0.723   9.165  2.7181 -0.9553 -2.2021
 4736SOL     OW25840   2.777   4.619   6.069  0.1851  0.0300 -0.3363
 4736SOL    HW125841   2.701   4.641   6.123  1.7766 -0.3014  2.0370
 4736SOL    HW225842   2.743   4.650   5.985  1.7188  1.0310 -0.5932
 4737SOL     OW25843   1.538   2.615   5.524 -0.8785  0.0100  0.0612
 4737SOL    HW125844   1.610   2.567   5.564  0.4056  0.7577 -1.3451
 4737SOL    HW225845   1.583   2.700   5.525 -1.4199  0.3043 -0.5439
 4738SOL     OW25846   3.335   0.446   7.459 -0.2492 -0.0249 -0.5523
 4738SOL    HW125847   3.385   0.444   7.377  0.7537 -1.2349  0.0865
 4738SOL    HW225848   3.297   0.358   7.457 -0.1215 -0.0912 -0.1084
 4739SOL     OW25849   2.538   4.650  14.198  0.4788 -0.4766  0.0439
 4739SOL    HW125850   2.527   4.696  14.281 -0.1034 -0.6857  0.0832
 4739SOL    HW225851   2.583   4.712  14.141  0.1684 -0.8268 -0.5814
 4740SOL     OW25852   2.864   2.582   5.902  0.0082 -0.2277 -0.6281
 4740SOL    HW125853   2.810   2.539   5.968 -0.1900 -0.2646 -0.8169
 4740SOL    HW225854   2.864   2.511   5.838 -0.9752 -1.9521  1.2852
 4741SOL     OW25855   0.750   1.255   8.356  0.4006 -0.3980 -0.1213
 4741SOL    HW125856   0.692   1.180   8.368  0.6239 -0.2537  1.9978
 4741SOL    HW225857   0.758   1.273   8.450  1.8626  1.2658 -0.5530
 4742SOL     OW25858   1.853   4.581   6.988  0.4922  0.2230  0.2803
 4742SOL    HW125859   1.795   4.554   7.059 -0.8884 -0.4629 -1.1117
 4742SOL    HW225860   1.890   4.660   7.028 -1.0596  1.1104 -0.0476
 4743SOL     OW25861   3.085   4.402   9.371 -0.3096 -0.5291  0.1314
 4743SOL    HW125862   3.132   4.407   9.288 -0.2811  1.9249  0.3085
 4743SOL    HW225863   3.123   4.322   9.408 -1.8113 -1.0738  0.5333
 4744SOL     OW25864   0.224   1.769   7.310  0.5128  0.2452 -0.2160
 4744SOL    HW125865   0.179   1.846   7.345 -0.3846  0.3627 -1.5905
 4744SOL    HW225866   0.153   1.705   7.322  1.4617 -0.6744  0.4503
 4745SOL     OW25867   4.666   3.784   3.111 -0.4793 -0.1223  0.2132
 4745SOL    HW125868   4.719   3.773   3.191  2.1571 -0.5242 -1.5875
 4745SOL    HW225869   4.615   3.858   3.144  1.2453  0.2681  1.9760
 4746SOL     OW25870   4.216   1.247   2.317  0.6681 -0.0952  0.3074
 4746SOL    HW125871   4.179   1.335   2.327 -2.1751 -1.0123 -2.2655
 4746SOL    HW225872   4.301   1.263   2.278  0.9711  0.3796  1.1585
 4747SOL     OW25873   4.687   3.502  14.162 -0.0376 -0.0585  0.1240
 4747SOL    HW125874   4.728   3.417  14.149 -0.5846 -0.5268  1.4086
 4747SOL    HW225875   0.027   3.560  14.160 -1.2717  1.5631 -0.4721
 4748SOL     OW25876   2.542   1.189  14.347  0.6607  0.0384  0.0443
 4748SOL    HW125877   2.450   1.178  14.371  1.0854  0.7063  1.9607
 4748SOL    HW225878   2.539   1.181  14.252 -1.9599 -0.0823  0.1224
 4749SOL     OW25879   1.832   2.679   3.352 -0.3300 -0.4841 -0.0550
 4749SOL    HW125880   1.771   2.752   3.360  1.2799  1.1970 -3.0334
 4749SOL    HW225881   1.813   2.637   3.436 -1.1841  3.1531  1.5626
 4750SOL     OW25882   2.704   0.623   7.610 -0.0549  0.2370  0.2873
 4750SOL    HW125883   2.744   0.638   7.525  0.7640 -0.8658  0.4766
 4750SOL    HW225884   2.679   0.713   7.630 -1.6993  0.2309 -1.7917
 4751SOL     OW25885   3.814   0.321   2.448 -0.4424  0.2850 -0.1087
 4751SOL    HW125886   3.894   0.364   2.477  1.2638 -1.3425 -2.4417
 4751SOL    HW225887   3.855   0.255   2.393  1.3959  2.0207 -0.8141
 4752SOL     OW25888   2.638   0.422   7.230 -0.2944 -0.1449 -0.4772
 4752SOL    HW125889   2.720   0.387   7.262 -1.8750 -3.5636 -0.1452
 4752SOL    HW225890   2.586   0.440   7.308 -0.7690 -0.7331 -0.6595
 4753SOL     OW25891   1.135   2.778   6.211  0.2625 -0.0652 -0.4433
 4753SOL    HW125892   1.154   2.741   6.125  2.6507  1.1887 -0.4517
 4753SOL    HW225893   1.060   2.833   6.191 -1.0307 -1.1267  1.4355
 4754SOL     OW25894   0.602   1.167   7.661 -0.8134 -0.0085 -0.1412
 4754SOL    HW125895   0.657   1.206   7.729  0.8882  0.3839 -1.7384
 4754SOL    HW225896   0.595   1.078   7.696 -0.4459 -0.4932 -1.2690
 4755SOL     OW25897   1.615   2.278   2.353 -0.0488 -0.3433 -0.6556
 4755SOL    HW125898   1.632   2.246   2.264  0.3129 -0.0294 -0.6978
 4755SOL    HW225899   1.542   2.338   2.341 -2.1857 -2.4163  1.7433
 4756SOL     OW25900   1.675   2.510  10.041 -0.1023  0.1950 -0.0244
 4756SOL    HW125901   1.751   2.483   9.989 -1.6057 -2.0331 -1.0606
 4756SOL    HW225902   1.599   2.478   9.993 -0.0704 -1.6191  1.1391
 4757SOL     OW25903   3.040   3.599   3.539  0.0597  0.2853 -0.5779
 4757SOL    HW125904   3.012   3.521   3.490  1.2823 -0.9537  0.6829
 4757SOL    HW225905   3.002   3.670   3.488 -1.4938  0.7454  1.1883
 4758SOL     OW25906   3.135   1.361   3.820  0.0514 -0.1307 -0.1338
 4758SOL    HW125907   3.129   1.400   3.732  1.2254  2.1906  0.8129
 4758SOL    HW225908   3.053   1.388   3.862  0.7430 -2.4484  2.6447
 4759SOL     OW25909   1.869   3.827  17.017  0.1400  0.2778 -0.4246
 4759SOL    HW125910   1.904   3.832  16.928  0.2745 -1.1747 -0.4541
 4759SOL    HW225911   1.951   3.813  17.064  0.3909  0.7019 -0.7310
 4760SOL     OW25912   2.952   3.845   4.726 -0.0049 -0.0309 -0.0354
 4760SOL    HW125913   2.979   3.870   4.638 -2.8002  1.3065 -0.5052
 4760SOL    HW225914   2.980   3.754   4.729 -0.8182 -0.3184 -1.4098
 4761SOL     OW25915   1.647   0.921  10.628  0.6555  0.1508  0.5782
 4761SOL    HW125916   1.724   0.927  10.572 -0.1196  0.7327 -0.4300
 4761SOL    HW225917   1.591   0.996  10.611 -2.7896 -2.4302  0.4569
 4762SOL     OW25918   0.590   2.853   0.511  0.1895  0.2073  0.2968
 4762SOL    HW125919   0.511   2.856   0.457  0.6491  1.2017 -0.3229
 4762SOL    HW225920   0.567   2.923   0.573 -2.2237  1.8435 -2.4189
 4763SOL     OW25921   3.199   1.257   8.830 -0.0324 -0.0381  0.2186
 4763SOL    HW125922   3.210   1.222   8.741  0.4412 -0.6427  0.5212
 4763SOL    HW225923   3.257   1.333   8.826 -0.6192  0.3138 -1.9130
 4764SOL     OW25924   3.277   0.521   0.673  0.4098 -0.1221  0.4113
 4764SOL    HW125925   3.337   0.451   0.698 -0.8717 -1.3637  0.0176
 4764SOL    HW225926   3.194   0.508   0.720 -0.2897  1.1733 -0.4889
 4765SOL     OW25927   1.364   1.469   8.775  0.2435  0.5139  0.3983
 4765SOL    HW125928   1.416   1.550   8.770  0.4836  0.3581  0.3649
 4765SOL    HW225929   1.418   1.414   8.833 -2.3438 -1.5872  0.8045
 4766SOL     OW25930   3.187   2.931   7.665  0.7814 -0.0788  0.0307
 4766SOL    HW125931   3.275   2.963   7.646  0.7451 -0.7182 -1.2536
 4766SOL    HW225932   3.140   3.008   7.632  0.4078  1.0325  3.2216
 4767SOL     OW25933   2.779   2.723   3.886  0.0392  0.1622 -0.2155
 4767SOL    HW125934   2.690   2.756   3.869 -1.0183 -2.5478  0.1226
 4767SOL    HW225935   2.777   2.636   3.847  1.2114  0.3944 -0.7728
 4768SOL     OW25936   2.760   0.582   4.206 -0.0608 -0.0123  0.2002
 4768SOL    HW125937   2.720   0.668   4.196  0.4546  0.0760 -1.0548
 4768SOL    HW225938   2.712   0.534   4.139 -1.1793  1.4390 -0.0272
 4769SOL     OW25939   3.175   4.716   3.984 -0.3934  0.0658  0.4155
 4769SOL    HW125940   3.254   0.001   4.033 -1.4325  1.1822  1.5918
 4769SOL    HW225941   3.121   4.706   4.062  2.9801 -2.0692  2.4444
 4770SOL     OW25942   4.058   0.755   4.019  0.5640  0.2727 -0.0723
 4770SOL    HW125943   3.989   0.784   3.959  1.7003 -1.8068 -2.3835
 4770SOL    HW225944   4.062   0.663   3.993 -0.5371  0.3029 -0.3539
 4771SOL     OW25945   3.199   3.266   5.105  0.6156 -0.5751 -0.1733
 4771SOL    HW125946   3.116   3.305   5.134  0.9646  1.4299 -1.8620
 4771SOL    HW225947   3.166   3.184   5.068 -4.4719  1.6542 -0.5154
 4772SOL     OW25948   0.433   3.150  16.425 -0.1336 -0.5782  0.5350
 4772SOL    HW125949   0.487   3.217  16.467 -1.0148  0.8959 -0.6841
 4772SOL    HW225950   0.351   3.199  16.419 -0.4156 -0.9176  1.6276
 4773SOL     OW25951   0.275   3.587   9.669 -0.1270  0.2481 -0.1610
 4773SOL    HW125952   0.215   3.626   9.606 -1.6542 -2.5126 -0.4371
 4773SOL    HW225953   0.255   3.643   9.744  0.3768 -0.5437  0.5747
 4774SOL     OW25954   4.246   3.835   8.422 -0.7874  0.4765 -0.1427
 4774SOL    HW125955   4.319   3.773   8.423 -1.2444 -0.1371 -4.0573
 4774SOL    HW225956   4.187   3.793   8.484  1.3293 -0.0345  1.5508
 4775SOL     OW25957   2.384   0.786   7.067  0.2583 -0.2483 -0.0702
 4775SOL    HW125958   2.303   0.766   7.019 -1.1968  1.1338  1.8250
 4775SOL    HW225959   2.442   0.718   7.031  2.3029  1.9875 -0.9860
 4776SOL     OW25960   0.208   3.032   3.192  0.4326  0.1121 -0.4174
 4776SOL    HW125961   0.136   3.089   3.217  0.4001 -0.0529 -0.1304
 4776SOL    HW225962   0.173   2.986   3.116  0.2826 -2.6049  1.2971
 4777SOL     OW25963   2.021   2.141   9.228 -0.3724  0.8011  0.3448
 4777SOL    HW125964   1.995   2.104   9.143  0.2564 -2.9269  1.7634
 4777SOL    HW225965   2.025   2.060   9.279 -0.6547  0.3382 -0.3668
 4778SOL     OW25966   3.791   3.236   2.069 -0.4822 -0.7952  0.0716
 4778SOL    HW125967   3.807   3.234   1.974  1.0917  0.8465  0.2931
 4778SOL    HW225968   3.872   3.274   2.102  0.1694 -0.0228 -2.3823
 4779SOL     OW25969   3.052   1.015   4.617 -0.0175 -0.3679 -0.0375
 4779SOL    HW125970   3.012   0.931   4.593 -0.9018 -0.0156  0.2240
 4779SOL    HW225971   3.136   0.988   4.655  0.7860  0.1073 -1.4632
 4780SOL     OW25972   2.221   0.963   5.222 -0.0714  0.0301  0.2041
 4780SOL    HW125973   2.156   0.931   5.284  0.6248 -1.4137  0.1794
 4780SOL    HW225974   2.230   0.885   5.167 -0.3745  1.5805 -2.0630
 4781SOL     OW25975   3.732   4.634   2.013  0.1157 -0.0454  0.3794
 4781SOL    HW125976   3.642   4.660   2.031 -0.1342 -1.0472  0.5762
 4781SOL    HW225977   3.723   4.539   2.024  0.1578 -0.3224 -1.9564
 4782SOL     OW25978   0.041   2.030   9.015 -0.4575 -0.3006  0.3865
 4782SOL    HW125979   0.040   1.940   9.045 -0.7097  0.0632  1.4760
 4782SOL    HW225980   0.078   2.083   9.085 -0.5968  0.6959 -0.2843
 4783SOL     OW25981   4.092   0.257   7.866  0.7185  0.1215 -0.1495
 4783SOL    HW125982   4.046   0.187   7.820  1.1909  0.1303 -0.6334
 4783SOL    HW225983   4.012   0.291   7.906  2.1388  2.8430  0.4142
 4784SOL     OW25984   2.264   1.040   2.481  0.3094 -0.3144 -0.6020
 4784SOL    HW125985   2.238   0.973   2.545 -0.4181  0.3576 -0.1862
 4784SOL    HW225986   2.248   0.986   2.404  1.0961 -0.8639 -0.3836
 4785SOL     OW25987   0.360   3.105   5.664  0.4741  0.0678  0.5541
 4785SOL    HW125988   0.335   3.082   5.574 -0.0339 -0.4151  0.8184
 4785SOL    HW225989   0.288   3.066   5.714  0.4656 -0.8916 -0.1916
 4786SOL     OW25990   3.932   4.426   4.521 -0.4568 -0.4581 -0.5775
 4786SOL    HW125991   3.941   4.499   4.583 -0.7938  0.6149 -1.7897
 4786SOL    HW225992   4.010   4.381   4.553 -1.5108 -0.4802  1.9438
 4787SOL     OW25993   3.315   3.848   6.280  0.4853  0.1163  0.5522
 4787SOL    HW125994   3.258   3.783   6.240  0.3104  0.6584 -0.0849
 4787SOL    HW225995   3.242   3.881   6.332  0.2601 -0.0598  0.3431
 4788SOL     OW25996   1.309   0.814  12.144  0.2279  0.5370 -0.3560
 4788SOL    HW125997   1.263   0.877  12.200  0.6597 -0.7837  1.4970
 4788SOL    HW225998   1.397   0.851  12.140  0.9095 -0.9040  1.1938
 4789SOL     OW25999   2.362   3.661   4.091  0.2028 -0.1782  0.2906
 4789SOL    HW126000   2.394   3.663   4.181  2.8779  0.5509 -0.6620
 4789SOL    HW226001   2.303   3.587   4.098  0.0970 -0.0227  1.0159
 4790SOL     OW26002   3.428   2.657   7.715 -0.2847 -0.3199 -0.3787
 4790SOL    HW126003   3.437   2.749   7.692  0.6712 -0.8462 -2.1146
 4790SOL    HW226004   3.522   2.638   7.717  0.2022  2.2852  0.3099
 4791SOL     OW26005   0.446   4.017  11.870 -0.2583 -0.0455 -0.1529
 4791SOL    HW126006   0.382   3.948  11.851 -2.4962  1.7356  0.9099
 4791SOL    HW226007   0.397   4.059  11.940  0.5997 -1.9586  1.5935
 4792SOL     OW26008   2.610   4.238   4.925 -0.0879 -0.0433 -0.3515
 4792SOL    HW126009   2.664   4.163   4.902  0.6515  0.2545  0.3847
 4792SOL    HW226010   2.662   4.254   5.004 -0.3540 -0.0901 -0.1690
 4793SOL     OW26011   0.326   3.984   6.164  0.4868 -0.0946 -0.5212
 4793SOL    HW126012   0.300   3.932   6.240 -0.0955 -0.3467 -0.8903
 4793SOL    HW226013   0.417   3.959   6.151  0.6895 -0.7790  2.3061
 4794SOL     OW26014   0.729   2.827  15.372  0.1013 -0.1604 -0.4897
 4794SOL    HW126015   0.776   2.902  15.408 -2.3137  0.5372  1.2390
 4794SOL    HW226016   0.800   2.769  15.343  0.5216  0.6684 -1.1137
 4795SOL     OW26017   4.209   0.136   8.973 -0.3775 -0.1287 -0.0829
 4795SOL    HW126018   4.161   0.211   9.009 -0.0568  0.5374 -1.0371
 4795SOL    HW226019   4.155   0.061   8.999 -1.7598  1.0388  0.4166
 4796SOL     OW26020   1.437   2.211   7.405  0.4600  0.0367 -0.2296
 4796SOL    HW126021   1.532   2.200   7.412  0.7922  1.6092 -2.4481
 4796SOL    HW226022   1.414   2.241   7.493 -1.4103 -3.6734  0.5430
 4797SOL     OW26023   4.083   3.315  13.277 -0.3138  0.1257  0.3763
 4797SOL    HW126024   4.035   3.283  13.200 -0.2784  1.0155 -0.0082
 4797SOL    HW226025   4.048   3.404  13.283 -0.3375  0.0091  1.9992
 4798SOL     OW26026   2.302   3.656   2.506 -0.1639  0.5017 -0.1333
 4798SOL    HW126027   2.237   3.617   2.447  0.1947 -2.5379  1.4416
 4798SOL    HW226028   2.322   3.582   2.563  0.1170  0.9317  0.3264
 4799SOL     OW26029   1.685   0.518   3.016  0.1538  0.3945 -0.0313
 4799SOL    HW126030   1.677   0.460   2.941  0.8089  0.4574 -0.1463
 4799SOL    HW226031   1.596   0.506   3.050 -0.5144  2.7587 -0.9354
 4800SOL     OW26032   2.948   4.182   5.889 -0.0089 -0.4376 -0.4706
 4800SOL    HW126033   2.960   4.116   5.958 -0.2260  0.6501  0.6098
 4800SOL    HW226034   2.945   4.260   5.944  3.2314  1.4703 -3.0168
 4801SOL     OW26035   3.903   0.281   3.806  0.2664  0.2944 -0.0901
 4801SOL    HW126036   3.919   0.219   3.877 -1.3734 -0.3991 -0.3117
 4801SOL    HW226037   3.814   0.260   3.777  0.9323  0.0411 -1.9944
 4802SOL     OW26038   2.072   3.044   3.407  0.5758  0.2041  0.4165
 4802SOL    HW126039   2.159   3.007   3.392  0.6708  0.3978  0.4953
 4802SOL    HW226040   2.030   3.013   3.326  0.9672  2.6411 -0.7191
 4803SOL     OW26041   0.647   3.854   2.230  0.1028  0.0391 -0.1115
 4803SOL    HW126042   0.615   3.777   2.276  2.5310  0.4953  2.3644
 4803SOL    HW226043   0.723   3.875   2.284 -0.5931  0.2896  0.7562
 4804SOL     OW26044   4.463   2.629  15.026  0.5492 -0.2228  0.6706
 4804SOL    HW126045   4.533   2.660  14.968 -2.3469  2.8145 -1.2106
 4804SOL    HW226046   4.479   2.535  15.026  2.8371  0.1744  0.9170
 4805SOL     OW26047   3.028   0.845   3.974 -0.5920  0.0288 -0.7409
 4805SOL    HW126048   2.964   0.850   3.903 -1.2255  2.0761 -0.0128
 4805SOL    HW226049   3.067   0.931   3.965  0.4447 -0.2882  0.7984
 4806SOL     OW26050   1.725   0.514  13.440  0.3493  0.1946  0.1860
 4806SOL    HW126051   1.768   0.598  13.424  0.7880 -0.1968 -0.6467
 4806SOL    HW226052   1.768   0.495  13.524 -0.5360 -1.0380  0.3562
 4807SOL     OW26053   3.447   1.473  17.024  0.3263 -0.0927  0.6766
 4807SOL    HW126054   3.457   1.383  17.056  4.3188  0.1024 -0.0132
 4807SOL    HW226055   3.535   1.509  17.014  1.1472 -1.7559  1.8432
 4808SOL     OW26056   4.722   3.740   7.712  0.1249  0.2687 -0.1029
 4808SOL    HW126057   0.036   3.711   7.788 -0.7751  1.2849  0.8879
 4808SOL    HW226058   4.651   3.676   7.717  0.1362  0.2799  0.1996
 4809SOL     OW26059   3.937   2.740   2.807  0.1299  0.3460 -1.1141
 4809SOL    HW126060   3.844   2.718   2.803  0.5290 -1.7045  0.8235
 4809SOL    HW226061   3.946   2.822   2.758 -2.5604  0.9222 -0.6106
 4810SOL     OW26062   4.184   3.492  14.624 -0.6583  0.0352 -0.2502
 4810SOL    HW126063   4.169   3.492  14.718  4.6520 -0.8390  0.5984
 4810SOL    HW226064   4.096   3.497  14.586 -0.6167  1.0030 -0.1964
 4811SOL     OW26065   0.193   3.541  12.312  0.1989 -0.0528 -0.2222
 4811SOL    HW126066   0.175   3.602  12.383 -1.2443  0.4755 -1.0385
 4811SOL    HW226067   0.238   3.606  12.258 -0.2972  1.0273  0.6616
 4812SOL     OW26068   2.697   0.144   3.392 -0.1839 -0.0240  0.2888
 4812SOL    HW126069   2.639   0.199   3.339 -0.5741  0.6917  1.4689
 4812SOL    HW226070   2.740   0.101   3.318 -0.6562  0.6182 -0.3726
 4813SOL     OW26071   2.221   3.532  12.783  0.1759  0.0698  0.8095
 4813SOL    HW126072   2.260   3.539  12.696 -1.9389 -0.2000 -0.1681
 4813SOL    HW226073   2.282   3.580  12.839  1.2970 -1.0919  0.5581
 4814SOL     OW26074   1.425   3.494   3.330  0.5569 -0.2226 -0.4674
 4814SOL    HW126075   1.407   3.423   3.391  1.5709 -0.0139  0.0742
 4814SOL    HW226076   1.359   3.466   3.267  1.0909 -1.1623 -0.6083
 4815SOL     OW26077   1.489   0.277   6.524 -0.2943  0.3751 -0.1872
 4815SOL    HW126078   1.465   0.318   6.441  1.5742  2.4461  0.3009
 4815SOL    HW226079   1.579   0.249   6.509  0.2001  0.5751  2.3364
 4816SOL     OW26080   3.553   2.778   1.476 -0.2896  0.2295 -0.5543
 4816SOL    HW126081   3.552   2.712   1.406 -0.3872  0.7022 -0.9950
 4816SOL    HW226082   3.567   2.727   1.556  0.4306  0.7123 -0.3813
 4817SOL     OW26083   0.760   2.544   5.680 -0.4310  1.0425 -0.4112
 4817SOL    HW126084   0.737   2.561   5.771 -0.7758  0.7077 -0.4352
 4817SOL    HW226085   0.724   2.456   5.668  1.9202 -0.1014  0.7980
 4818SOL     OW26086   0.548   1.394   8.572 -0.5118  0.6094 -0.1625
 4818SOL    HW126087   0.506   1.419   8.490 -0.8041  1.9698  0.4141
 4818SOL    HW226088   0.594   1.477   8.588  0.7631  0.1393 -1.3802
 4819SOL     OW26089   1.178   4.527  11.310  0.0627  0.1083 -0.4059
 4819SOL    HW126090   1.274   4.520  11.307 -0.1009 -1.7888 -1.4483
 4819SOL    HW226091   1.143   4.454  11.259  0.3813  0.2132 -0.7813
 4820SOL     OW26092   0.570   4.223   8.932  0.0359  0.5191  0.3311
 4820SOL    HW126093   0.568   4.315   8.961  0.2677  0.2280  1.2650
 4820SOL    HW226094   0.585   4.223   8.838 -0.4064  0.1667  0.2644
 4821SOL     OW26095   1.161   0.848   8.810 -0.0904  0.2012  0.1263
 4821SOL    HW126096   1.158   0.753   8.807  2.1172  0.1101  1.2645
 4821SOL    HW226097   1.084   0.871   8.862 -0.2284  2.4514 -1.0497
 4822SOL     OW26098   3.043   0.672   8.532  0.0138  0.0533  0.1634
 4822SOL    HW126099   3.063   0.745   8.473 -1.0340 -1.2159 -1.7922
 4822SOL    HW226100   3.126   0.656   8.577  0.7555  0.4558 -1.0570
 4823SOL     OW26101   0.082   3.775   1.728 -0.2947 -0.4201  0.2498
 4823SOL    HW126102   0.137   3.773   1.650  0.3404 -0.2871  0.6869
 4823SOL    HW226103   0.071   3.870   1.736 -1.5518 -0.6078  0.7356
 4824SOL     OW26104   3.644   1.319   9.083 -0.1326 -0.0617 -0.4208
 4824SOL    HW126105   3.571   1.381   9.096 -1.7152 -2.2639  1.1871
 4824SOL    HW226106   3.675   1.322   8.993  1.0719  1.5469  0.0606
 4825SOL     OW26107   1.016   2.701   3.631 -0.3405 -0.3056 -0.5671
 4825SOL    HW126108   1.029   2.607   3.618  0.2546 -0.4064  0.7186
 4825SOL    HW226109   1.007   2.713   3.726  0.1368  0.5548 -0.6261
 4826SOL     OW26110   3.094   0.632   5.117  0.4136  0.0097 -0.5238
 4826SOL    HW126111   3.187   0.615   5.101  0.4293  0.0342 -0.4595
 4826SOL    HW226112   3.077   0.659   5.026 -0.6836 -2.3539 -1.0090
 4827SOL     OW26113   3.812   0.189  15.255  0.1781  0.1435 -0.3400
 4827SOL    HW126114   3.864   0.236  15.319  1.7675 -1.7387 -0.2582
 4827SOL    HW226115   3.832   0.096  15.267 -0.5700 -0.3159 -2.5112
 4828SOL     OW26116   1.917   4.400  16.244  0.2636  0.2089 -0.3748
 4828SOL    HW126117   1.951   4.455  16.314 -1.4301  1.2310 -0.3715
 4828SOL    HW226118   1.911   4.317  16.291 -0.9096 -0.3278 -1.4478
 4829SOL     OW26119   4.059   4.420   1.720 -0.2811 -0.1007 -0.0494
 4829SOL    HW126120   4.079   4.458   1.806 -0.3402 -2.9118  1.2090
 4829SOL    HW226121   4.142   4.397   1.680  0.0577 -0.3690  0.8125
 4830SOL     OW26122   0.904   1.862   4.300 -0.5284  0.2266  0.0848
 4830SOL    HW126123   0.902   1.958   4.293  0.6134 -0.0212 -3.4840
 4830SOL    HW226124   0.998   1.854   4.314 -0.2682 -0.5907 -2.1733
 4831SOL     OW26125   0.206   0.392   3.430 -1.0487 -0.2903  0.3689
 4831SOL    HW126126   0.290   0.408   3.472 -0.3120 -1.2702 -0.7142
 4831SOL    HW226127   0.192   0.479   3.394  2.4980  0.3035  0.4278
 4832SOL     OW26128   0.645   4.451   7.348  0.3502  0.0654 -0.1175
 4832SOL    HW126129   0.565   4.401   7.332 -0.2841 -0.0928  3.4645
 4832SOL    HW226130   0.657   4.461   7.443  0.5913  1.1283 -0.2580
 4833SOL     OW26131   1.519   0.214  13.001 -0.0587 -0.0631  0.4560
 4833SOL    HW126132   1.502   0.238  13.092 -0.9733  0.5967  0.1116
 4833SOL    HW226133   1.604   0.256  12.987  1.1477 -2.5955  0.2175
 4834SOL     OW26134   0.733   3.457   1.483 -0.5809  0.2744  0.5735
 4834SOL    HW126135   0.654   3.505   1.460 -1.6494  0.1599  3.9173
 4834SOL    HW226136   0.697   3.371   1.506  1.8049 -1.1038 -0.8785
 4835SOL     OW26137   3.484   2.655   8.594  0.1766 -0.6063 -0.3956
 4835SOL    HW126138   3.551   2.629   8.657  0.3918 -0.9252 -0.7615
 4835SOL    HW226139   3.478   2.569   8.552 -1.6658 -1.0251  0.6983
 4836SOL     OW26140   0.396   2.030   2.124 -0.6558 -0.7565  0.2736
 4836SOL    HW126141   0.324   2.086   2.154 -0.4078 -0.2071 -0.1391
 4836SOL    HW226142   0.461   2.071   2.182 -1.3689  0.5075  0.1876
 4837SOL     OW26143   1.288   2.624   5.766 -0.1994  0.6210 -0.5234
 4837SOL    HW126144   1.368   2.673   5.784  1.1602 -1.3956 -1.1792
 4837SOL    HW226145   1.276   2.631   5.672  1.5294  1.5127 -0.6678
 4838SOL     OW26146   4.348   3.745  10.853  0.0863  0.7907  0.1281
 4838SOL    HW126147   4.372   3.833  10.823  0.9001  0.8229  0.8356
 4838SOL    HW226148   4.432   3.702  10.839  1.2289  2.9897  0.1716
 4839SOL     OW26149   2.328   4.519   7.714  0.6094 -0.6020 -0.2953
 4839SOL    HW126150   2.379   4.579   7.769 -1.3022  0.4822  0.2987
 4839SOL    HW226151   2.276   4.473   7.781 -1.1576  1.5470 -0.1774
 4840SOL     OW26152   1.626   3.218   9.860  0.6698  0.0287  0.6336
 4840SOL    HW126153   1.692   3.253   9.801  0.3133  1.6435  1.1874
 4840SOL    HW226154   1.606   3.138   9.811  1.9057 -1.1708  2.0794
 4841SOL     OW26155   1.138   4.394   2.964 -0.0491  0.5129  0.3056
 4841SOL    HW126156   1.166   4.446   2.889 -0.0982 -0.6540 -0.5141
 4841SOL    HW226157   1.178   4.450   3.030  2.2566  1.2179 -1.7233
 4842SOL     OW26158   0.338   3.271   9.031 -0.6193 -0.4550 -0.7307
 4842SOL    HW126159   0.251   3.269   9.071 -0.1772 -0.0773  0.2451
 4842SOL    HW226160   0.344   3.366   9.028  0.1297 -0.5033 -0.8894
 4843SOL     OW26161   2.343   4.071   3.201 -0.3400  0.1460  0.1183
 4843SOL    HW126162   2.392   4.037   3.276  1.3524  1.2017 -0.4853
 4843SOL    HW226163   2.334   4.165   3.220 -0.5188 -0.2308  1.8588
 4844SOL     OW26164   0.757   3.190   9.518  0.3453 -0.7069  0.2861
 4844SOL    HW126165   0.704   3.238   9.581 -0.8398 -1.4794 -0.1414
 4844SOL    HW226166   0.842   3.234   9.525  0.8105 -1.5342 -0.1596
 4845SOL     OW26167   0.724   1.842   8.335  0.2246  0.6352 -0.1121
 4845SOL    HW126168   0.641   1.882   8.308  0.3562  0.7405 -0.3590
 4845SOL    HW226169   0.788   1.876   8.273 -1.4829  1.2074 -1.5462
 4846SOL     OW26170   0.396   1.284   5.485 -0.6440  0.0631  0.0404
 4846SOL    HW126171   0.407   1.357   5.424  1.7802 -0.8054 -0.5454
 4846SOL    HW226172   0.339   1.324   5.551  0.3852 -1.2824  1.7270
 4847SOL     OW26173   0.065   3.977   1.981  0.1642 -0.6465 -0.1719
 4847SOL    HW126174   0.158   3.982   1.959 -0.1262 -1.6548 -1.6893
 4847SOL    HW226175   0.066   3.986   2.076 -2.7971 -1.8809 -0.0308
 4848SOL     OW26176   0.839   1.361   3.098 -0.3281  0.3528  0.0150
 4848SOL    HW126177   0.905   1.326   3.038  0.0967 -0.4355  0.9501
 4848SOL    HW226178   0.850   1.456   3.106 -1.7641  0.6709 -1.6344
 4849SOL     OW26179   2.993   3.116   8.093 -0.4901 -0.0353 -0.0856
 4849SOL    HW126180   3.037   3.067   8.024 -1.3282  1.4856 -1.6989
 4849SOL    HW226181   3.071   3.157   8.129  0.6602 -1.2016 -1.2799
 4850SOL     OW26182   3.258   3.623  13.547  0.1335  0.1314  0.0246
 4850SOL    HW126183   3.338   3.592  13.589  0.5870  1.2231 -0.0349
 4850SOL    HW226184   3.238   3.539  13.505 -0.5005 -0.4825  1.5384
 4851SOL     OW26185   2.487   2.412   8.980 -0.0725  0.0606  0.0574
 4851SOL    HW126186   2.398   2.407   9.014 -0.6865  2.0587 -1.2709
 4851SOL    HW226187   2.500   2.502   8.951 -0.5781  0.8433  2.2739
 4852SOL     OW26188   0.775   0.734   4.846  0.3373  0.1044 -0.5331
 4852SOL    HW126189   0.730   0.771   4.922 -0.9348  1.2521 -1.8319
 4852SOL    HW226190   0.760   0.801   4.779 -1.5228 -1.1950 -1.4015
 4853SOL     OW26191   3.662   0.727   2.748  0.1386  1.1399 -0.2855
 4853SOL    HW126192   3.756   0.734   2.767 -0.5316 -0.3841  3.6319
 4853SOL    HW226193   3.651   0.640   2.710 -0.7381  1.5582 -0.9684
 4854SOL     OW26194   0.033   1.660   2.177 -0.0594  0.1539  0.3836
 4854SOL    HW126195   4.728   1.711   2.247 -2.7398 -2.2358  0.5506
 4854SOL    HW226196   0.104   1.613   2.221  1.0910  0.2196 -1.4322
 4855SOL     OW26197   1.176   1.830   6.489  0.4508  0.1931 -0.5355
 4855SOL    HW126198   1.171   1.755   6.548 -1.9773  0.2275 -0.6856
 4855SOL    HW226199   1.271   1.839   6.482  0.3975  0.0102 -1.6410
 4856SOL     OW26200   3.015   3.372   3.397  0.2207  0.4454 -0.0118
 4856SOL    HW126201   3.102   3.347   3.429  0.2181 -0.2872 -0.5769
 4856SOL    HW226202   2.968   3.289   3.406  0.7084  0.1269 -0.3856
 4857SOL     OW26203   2.339   4.102   5.609  0.2333 -0.1358  0.4697
 4857SOL    HW126204   2.303   4.103   5.521  0.4740 -1.9320  0.3497
 4857SOL    HW226205   2.425   4.068   5.583 -0.1460 -0.3871 -0.4297
 4858SOL     OW26206   4.712   4.236   9.533  0.0680  0.1465  0.2686
 4858SOL    HW126207   4.735   4.328   9.541 -0.1728 -0.0074  2.7679
 4858SOL    HW226208   4.643   4.236   9.599  0.1161  0.3922  0.3187
 4859SOL     OW26209   1.793   4.559   9.068  0.2331  0.4444  0.3155
 4859SOL    HW126210   1.834   4.472   9.061  0.3309  0.4342  1.0117
 4859SOL    HW226211   1.868   4.614   9.048 -0.3913  2.0508  2.4470
 4860SOL     OW26212   1.655   2.738  10.172 -0.6141  0.3540  0.1346
 4860SOL    HW126213   1.662   2.652  10.130  2.0507 -0.1529  1.6169
 4860SOL    HW226214   1.617   2.780  10.095  0.0209 -0.3282 -0.5428
 4861SOL     OW26215   2.794   3.453  14.217 -0.4651  0.1298 -0.0612
 4861SOL    HW126216   2.708   3.442  14.257 -0.8543 -0.8672 -1.2049
 4861SOL    HW226217   2.815   3.363  14.194 -0.0513  0.3264 -0.4723
 4862SOL     OW26218   3.427   1.856   3.706  0.0540 -0.8080  0.2553
 4862SOL    HW126219   3.441   1.803   3.784  1.5847  2.2464  2.0390
 4862SOL    HW226220   3.519   1.869   3.682 -0.2904 -0.0342 -0.6328
 4863SOL     OW26221   4.201   0.118   2.028 -0.6807 -0.1025 -0.5833
 4863SOL    HW126222   4.131   0.055   2.048  0.5326 -0.6681  1.9219
 4863SOL    HW226223   4.158   0.195   1.991 -0.9945 -0.7136 -1.5209
 4864SOL     OW26224   4.473   2.400   2.871  0.0133 -0.0756  0.5037
 4864SOL    HW126225   4.424   2.456   2.810 -0.9918 -2.5969 -0.9801
 4864SOL    HW226226   4.497   2.465   2.937  0.0227 -1.0735  1.4879
 4865SOL     OW26227   2.559   1.671   7.753 -0.1371  0.0093 -0.3651
 4865SOL    HW126228   2.565   1.585   7.712  1.2335  0.0111 -0.1543
 4865SOL    HW226229   2.477   1.660   7.801  0.2734  0.8882  0.5394
 4866SOL     OW26230   3.267   1.092   0.427 -0.2831  0.7274  0.2211
 4866SOL    HW126231   3.317   1.141   0.492 -0.1440  0.4305  0.3388
 4866SOL    HW226232   3.336   1.078   0.363  0.6661  0.3497  1.3133
 4867SOL     OW26233   3.302   3.756   4.625  0.3561  0.1633 -0.3064
 4867SOL    HW126234   3.252   3.676   4.640  0.0801  0.9904  3.0618
 4867SOL    HW226235   3.311   3.751   4.530 -0.9773  3.7465 -0.6227
 4868SOL     OW26236   1.406   1.255   0.533  0.2326 -0.0919 -0.7455
 4868SOL    HW126237   1.414   1.350   0.535  1.9179 -0.1821 -2.7245
 4868SOL    HW226238   1.465   1.229   0.604  0.1444  2.4458  0.2736
 4869SOL     OW26239   1.436   2.077  11.980  0.0879 -0.5145 -0.0912
 4869SOL    HW126240   1.397   2.153  12.024  0.7888 -0.2211  0.0259
 4869SOL    HW226241   1.524   2.105  11.952 -0.1472 -0.5640 -0.8733
 4870SOL     OW26242   1.406   4.393   5.126  0.0388 -0.2034 -0.0361
 4870SOL    HW126243   1.321   4.413   5.086  0.5041 -1.5012 -1.6201
 4870SOL    HW226244   1.402   4.300   5.103  0.1935 -0.3943  0.6954
 4871SOL     OW26245   4.294   2.697   7.802  0.3672  0.2659 -0.6939
 4871SOL    HW126246   4.319   2.728   7.890 -2.5465 -0.7307  0.4825
 4871SOL    HW226247   4.264   2.779   7.765 -2.3453 -0.7848 -0.8329
 4872SOL     OW26248   0.638   2.602   2.507 -0.0420 -0.0621  0.5186
 4872SOL    HW126249   0.639   2.544   2.582  0.5558  0.0907  0.6332
 4872SOL    HW226250   0.652   2.540   2.435  1.1800 -0.1273  0.8158
 4873SOL     OW26251   0.753   0.459   4.926 -0.3652  0.1692  0.8085
 4873SOL    HW126252   0.779   0.546   4.896  2.3929 -1.2816 -1.0600
 4873SOL    HW226253   0.726   0.472   5.017 -1.2290  0.4773  0.5114
 4874SOL     OW26254   2.516   0.833   2.549 -0.1014  0.3568  0.0161
 4874SOL    HW126255   2.608   0.811   2.559 -0.0534  0.8421  0.6417
 4874SOL    HW226256   2.526   0.881   2.467  1.9155  1.5284  0.9662
 4875SOL     OW26257   2.946   2.269   2.351 -0.4669 -0.1209  0.1457
 4875SOL    HW126258   2.942   2.173   2.351 -0.5621 -0.1131  0.7818
 4875SOL    HW226259   2.871   2.279   2.292 -1.6073  1.6256  1.9145
 4876SOL     OW26260   2.076   4.465   0.909  0.0529  0.4638  0.0938
 4876SOL    HW126261   1.987   4.466   0.873 -0.4731 -0.0689  1.3413
 4876SOL    HW226262   2.066   4.381   0.955  1.1614  0.5518  0.4895
 4877SOL     OW26263   0.630   2.426   4.242 -0.7022  0.2908  0.1329
 4877SOL    HW126264   0.689   2.392   4.309  2.3797 -1.3458 -3.4333
 4877SOL    HW226265   0.595   2.506   4.282  2.4896  1.6779  0.1687
 4878SOL     OW26266   3.208   0.983   2.916  0.4938  0.3266  0.0892
 4878SOL    HW126267   3.129   0.950   2.959  0.4084 -0.9657 -1.0973
 4878SOL    HW226268   3.205   1.079   2.916  0.1495  0.3271  2.1489
 4879SOL     OW26269   0.136   1.837   4.766  0.0494  0.3558  0.1078
 4879SOL    HW126270   0.202   1.785   4.811  0.0713  0.2434 -0.0539
 4879SOL    HW226271   0.169   1.821   4.677 -1.3819  1.6682 -0.6583
 4880SOL     OW26272   4.016   1.682   2.393  0.2094 -0.4980  0.5547
 4880SOL    HW126273   3.922   1.676   2.410  0.0649  1.6776  0.4720
 4880SOL    HW226274   4.048   1.610   2.447 -0.9849 -1.1723  0.3700
 4881SOL     OW26275   1.742   1.343   8.485  0.2826 -0.5588 -0.2568
 4881SOL    HW126276   1.666   1.392   8.456  1.9387  1.1587 -1.7164
 4881SOL    HW226277   1.808   1.403   8.449  1.9824 -2.1294  0.2146
 4882SOL     OW26278   0.684   2.495   6.733  0.1502  0.0126  0.0536
 4882SOL    HW126279   0.611   2.527   6.681 -0.6612 -2.1268 -0.1245
 4882SOL    HW226280   0.753   2.490   6.666 -0.4445 -0.9963 -0.4889
 4883SOL     OW26281   1.156   3.212   4.837 -0.0113 -0.8094  0.4743
 4883SOL    HW126282   1.185   3.283   4.780 -2.2474 -0.8269 -0.6833
 4883SOL    HW226283   1.236   3.194   4.888 -0.7060  0.8600  2.1526
 4884SOL     OW26284   0.781   4.152   6.050 -0.2282 -0.2525 -0.5911
 4884SOL    HW126285   0.726   4.229   6.057 -0.3384 -0.2668 -1.2610
 4884SOL    HW226286   0.711   4.098   6.013 -0.1321 -0.5616 -0.3202
 4885SOL     OW26287   4.385   4.010  11.173  0.1988  0.6322 -0.4305
 4885SOL    HW126288   4.346   4.005  11.086 -0.5612  0.1018 -0.0539
 4885SOL    HW226289   4.456   3.945  11.176 -1.2557 -0.9306  0.0806
 4886SOL     OW26290   4.418   4.370   7.618 -0.1113 -0.1937  0.0497
 4886SOL    HW126291   4.370   4.307   7.564  0.4302  0.4326 -1.1670
 4886SOL    HW226292   4.348   4.430   7.644 -0.2020  0.1507 -0.9922
 4887SOL     OW26293   2.284   3.532  10.753  0.8517 -0.4386  0.8938
 4887SOL    HW126294   2.253   3.485  10.676  1.4644 -1.9497  1.5686
 4887SOL    HW226295   2.204   3.561  10.798  0.2221  0.7711 -1.0101
 4888SOL     OW26296   3.227   1.537   7.338  0.4579  0.0812  0.1203
 4888SOL    HW126297   3.156   1.480   7.309  0.9139 -0.9998  1.1236
 4888SOL    HW226298   3.306   1.506   7.294  0.0102 -1.7787  0.6023
 4889SOL     OW26299   1.575   0.982  10.286 -0.1113  0.2836 -0.0940
 4889SOL    HW126300   1.524   1.048  10.239  0.7727  0.6646 -0.5142
 4889SOL    HW226301   1.623   1.044  10.340 -0.4479  0.2984  0.1827
 4890SOL     OW26302   4.152   0.184   0.424 -0.0610  0.2525 -0.3910
 4890SOL    HW126303   4.112   0.126   0.488 -0.4045 -0.5482 -1.3275
 4890SOL    HW226304   4.100   0.184   0.344  0.3383 -0.6500 -0.6514
 4891SOL     OW26305   1.770   3.986   0.756  0.2010 -0.6023  0.6735
 4891SOL    HW126306   1.764   4.081   0.764  3.2718 -0.6137  2.8858
 4891SOL    HW226307   1.753   3.972   0.663 -1.8323 -2.2923  1.2989
 4892SOL     OW26308   0.148   2.707   7.333  0.2491  0.0047 -0.1518
 4892SOL    HW126309   0.145   2.646   7.259  0.3342  0.6194 -0.6609
 4892SOL    HW226310   0.243   2.718   7.338  0.2492 -0.0952  0.0942
 4893SOL     OW26311   3.924   3.837   9.962  0.3595  0.2121 -0.0773
 4893SOL    HW126312   3.910   3.779   9.887 -0.3718  0.5966 -0.2399
 4893SOL    HW226313   3.993   3.901   9.945  1.6158 -1.5592 -1.5560
 4894SOL     OW26314   1.911   0.746  17.489 -0.3376  0.2700  0.1857
 4894SOL    HW126315   1.989   0.718  17.442 -0.3280 -0.5700  0.6942
 4894SOL    HW226316   1.872   0.663  17.515  0.2281  0.0900  0.4511
 4895SOL     OW26317   3.633   0.007   6.509  0.2449  0.4141  0.8101
 4895SOL    HW126318   3.707   0.007   6.569  0.2870  1.3382  0.7641
 4895SOL    HW226319   3.591   0.089   6.536  2.5269  1.6574  0.5622
 4896SOL     OW26320   4.447   1.397   3.272  0.7439  0.0634 -0.2902
 4896SOL    HW126321   4.530   1.369   3.311 -0.5289 -2.4902  0.5621
 4896SOL    HW226322   4.386   1.350   3.329  1.4894  0.5421  0.9063
 4897SOL     OW26323   0.804   2.194   1.783  0.0235 -0.1262  0.8375
 4897SOL    HW126324   0.759   2.191   1.699 -0.2226 -1.7788  1.0420
 4897SOL    HW226325   0.769   2.111   1.815 -0.5772 -0.5660 -0.9943
 4898SOL     OW26326   2.960   2.225   6.413 -0.1363 -0.5580 -0.2853
 4898SOL    HW126327   2.965   2.158   6.481 -3.6858 -0.3457  0.1699
 4898SOL    HW226328   2.893   2.192   6.354 -0.4797 -0.0225 -0.1981
 4899SOL     OW26329   0.136   0.636   1.392  0.7673  0.5876 -0.1057
 4899SOL    HW126330   0.069   0.700   1.416 -0.2249  0.1161 -1.5801
 4899SOL    HW226331   0.138   0.637   1.296  0.4547 -1.5145 -0.1327
 4900SOL     OW26332   3.576   2.203   6.832 -0.8171  0.4518  0.0730
 4900SOL    HW126333   3.606   2.130   6.777 -0.2372 -0.1883  1.2528
 4900SOL    HW226334   3.656   2.253   6.817 -1.1244  0.2743 -2.1267
 4901SOL     OW26335   4.386   0.005   5.727 -0.0731  0.1937  0.0496
 4901SOL    HW126336   4.341   0.072   5.779 -0.1959  0.4585 -0.3899
 4901SOL    HW226337   4.372   0.051   5.644  1.4937  3.5451  1.6495
 4902SOL     OW26338   0.099   1.212  11.086 -0.4781  0.4224  0.2627
 4902SOL    HW126339   0.158   1.141  11.062 -0.4898  0.2115  0.8499
 4902SOL    HW226340   0.076   1.186  11.176 -0.7423  1.1052  0.3978
 4903SOL     OW26341   3.968   2.557   8.198  0.2461  0.1721 -0.1265
 4903SOL    HW126342   3.894   2.541   8.257 -0.1323  0.7439 -0.4449
 4903SOL    HW226343   3.976   2.471   8.156  0.6129  0.4300 -0.5829
 4904SOL     OW26344   2.790   2.117   1.998  0.2438  0.1244  0.2955
 4904SOL    HW126345   2.869   2.064   2.008 -0.2221 -0.9395 -1.5412
 4904SOL    HW226346   2.815   2.189   2.056  0.6607 -0.4096  0.7712
 4905SOL     OW26347   2.383   4.118   4.187 -0.5465  0.9172  0.7973
 4905SOL    HW126348   2.326   4.182   4.144 -0.4387  0.1375 -0.5099
 4905SOL    HW226349   2.332   4.054   4.237 -1.9036 -0.2647 -2.0970
 4906SOL     OW26350   2.073   1.045   5.860  0.4570  0.0361 -0.2885
 4906SOL    HW126351   2.047   1.137   5.862  0.0917 -0.0726 -0.0139
 4906SOL    HW226352   2.146   1.035   5.799 -1.3682 -0.6476 -2.3645
 4907SOL     OW26353   3.869   2.380   7.702  0.4056  0.3201  0.6372
 4907SOL    HW126354   3.867   2.451   7.638  0.9885  1.2240  1.6201
 4907SOL    HW226355   3.953   2.391   7.747 -0.1472  2.1806  1.2106
 4908SOL     OW26356   1.535   1.004   5.720  0.3333  0.4242  0.1165
 4908SOL    HW126357   1.513   0.971   5.633 -0.6924  0.0679  0.5012
 4908SOL    HW226358   1.575   0.923   5.754  1.3712  0.7971 -0.2249
 4909SOL     OW26359   2.891   1.254   9.211 -0.3390 -0.2221 -0.4083
 4909SOL    HW126360   2.914   1.225   9.123 -1.5058  0.3384 -0.9076
 4909SOL    HW226361   2.974   1.292   9.238  1.3914 -3.3611 -1.4235
 4910SOL     OW26362   1.595   1.379   0.114  0.7588  0.1810  0.2727
 4910SOL    HW126363   1.581   1.471   0.138  0.3601 -0.1157  1.1927
 4910SOL    HW226364   1.508   1.339   0.115 -0.1889  2.2647  0.6407
 4911SOL     OW26365   2.144   0.667   5.678  0.1977  0.8047  0.3291
 4911SOL    HW126366   2.109   0.590   5.634  2.3000  0.0893 -0.0956
 4911SOL    HW226367   2.238   0.656   5.665 -0.2457 -0.6250 -1.5800
 4912SOL     OW26368   1.022   2.616  10.267  0.0008 -0.4037 -0.4938
 4912SOL    HW126369   1.041   2.626  10.360 -1.1983  0.2163 -0.3197
 4912SOL    HW226370   1.109   2.591  10.236  0.3845  0.1577  0.1194
 4913SOL     OW26371   0.167   3.037   6.071  0.0616  0.2358 -0.0573
 4913SOL    HW126372   0.089   3.021   6.124  0.3465  1.4243  0.7282
 4913SOL    HW226373   0.154   3.130   6.051  1.2490  0.3618 -0.2418
 4914SOL     OW26374   3.784   0.077   5.689  0.0894 -0.0322 -0.2274
 4914SOL    HW126375   3.785   4.717   5.691 -2.8817 -0.0564  0.3058
 4914SOL    HW226376   3.690   0.088   5.702 -0.2443 -1.3020 -1.6256
 4915SOL     OW26377   4.188   4.438   6.363 -0.1477 -0.5686  0.1117
 4915SOL    HW126378   4.157   4.353   6.395  1.6147 -1.2162  0.0666
 4915SOL    HW226379   4.110   4.492   6.378  0.4122 -0.6259  3.2221
 4916SOL     OW26380   3.221   4.059   8.907  0.2512 -0.1232 -0.3971
 4916SOL    HW126381   3.280   4.132   8.926  0.7096 -0.1482 -1.6730
 4916SOL    HW226382   3.150   4.088   8.964  0.3730  1.1867 -0.8898
 4917SOL     OW26383   1.543   2.950  10.871 -0.3501 -0.3396 -0.0324
 4917SOL    HW126384   1.500   3.011  10.812 -0.9870  0.3303  1.1332
 4917SOL    HW226385   1.552   2.888  10.799  1.7379 -1.1208  0.9098
 4918SOL     OW26386   2.815   1.150   8.566 -0.1040 -0.6826 -0.6920
 4918SOL    HW126387   2.783   1.240   8.572  0.0240 -0.7355  0.7559
 4918SOL    HW226388   2.892   1.139   8.622 -0.8373 -0.2059  0.4229
 4919SOL     OW26389   1.212   3.523   5.925 -0.1217 -0.4119 -0.1123
 4919SOL    HW126390   1.220   3.602   5.872  0.1917 -0.0207  0.5169
 4919SOL    HW226391   1.123   3.525   5.961 -0.2923 -0.8921 -0.5131
 4920SOL     OW26392   3.000   1.668   2.891  0.9682  0.2017  0.2135
 4920SOL    HW126393   3.050   1.664   2.972 -0.3639 -2.0265  0.9557
 4920SOL    HW226394   2.924   1.720   2.918 -0.0096 -1.6113  0.9934
 4921SOL     OW26395   1.051   4.329  10.101 -0.0333 -0.1818 -0.5331
 4921SOL    HW126396   1.126   4.388  10.100 -0.0888 -0.1144 -0.6971
 4921SOL    HW226397   1.057   4.312  10.195 -1.8905 -1.3139 -0.6114
 4922SOL     OW26398   2.053   2.808   7.323  0.0388  0.0963  0.5675
 4922SOL    HW126399   2.090   2.720   7.314  1.4147  0.8208 -0.8327
 4922SOL    HW226400   2.000   2.800   7.402  1.5781  2.2674  1.7962
 4923SOL     OW26401   0.241   1.402   1.896  0.4478  0.2530  0.1989
 4923SOL    HW126402   0.199   1.481   1.930 -1.1531 -0.1575 -0.8149
 4923SOL    HW226403   0.208   1.408   1.806  3.1125  2.8324 -0.5983
 4924SOL     OW26404   0.178   1.180   3.607  0.1655  0.4010 -0.3623
 4924SOL    HW126405   0.221   1.180   3.693 -0.5905  3.5943  0.0456
 4924SOL    HW226406   0.108   1.246   3.614 -0.5146 -0.2961 -0.6033
 4925SOL     OW26407   3.406   4.561   8.945 -0.1117  0.1395  0.4876
 4925SOL    HW126408   3.489   4.607   8.952  0.8333 -1.5835  0.7245
 4925SOL    HW226409   3.405   4.526   9.034  0.7388  2.8821  1.5629
 4926SOL     OW26410   2.291   2.140   4.964 -0.3995 -0.4241 -0.6682
 4926SOL    HW126411   2.242   2.083   4.905 -0.1804 -0.0448 -1.2202
 4926SOL    HW226412   2.277   2.226   4.924  1.5635 -0.9421 -2.4902
 4927SOL     OW26413   2.723   1.611   6.964 -0.1427  0.6720 -1.1942
 4927SOL    HW126414   2.652   1.672   6.944 -1.3900 -0.5640 -0.5566
 4927SOL    HW226415   2.791   1.668   6.999  0.3484 -0.6462  0.0104
 4928SOL     OW26416   4.107   3.467  15.857  0.1685 -0.7443 -0.0229
 4928SOL    HW126417   4.063   3.511  15.929  0.5174 -3.4732  1.8804
 4928SOL    HW226418   4.065   3.504  15.779 -1.1720  0.8390  1.4558
 4929SOL     OW26419   0.774   1.273   2.293 -0.7333  0.1637  0.1453
 4929SOL    HW126420   0.854   1.254   2.243 -1.5100 -0.5792 -0.8116
 4929SOL    HW226421   0.801   1.335   2.361  1.4366 -1.1792  0.5103
 4930SOL     OW26422   1.326   3.796  10.985  0.0250 -0.4033  0.9870
 4930SOL    HW126423   1.365   3.791  10.898 -1.7464  4.3725 -0.1275
 4930SOL    HW226424   1.396   3.769  11.044  0.8640 -1.7614 -0.6351
 4931SOL     OW26425   4.549   2.162   1.699  0.3075 -0.2143  0.4859
 4931SOL    HW126426   4.619   2.227   1.697  1.4064 -1.3701  1.7346
 4931SOL    HW226427   4.581   2.073   1.709  0.4881 -0.1329  0.6388
 4932SOL     OW26428   4.678   2.983  10.652  0.3178  0.2815 -0.8813
 4932SOL    HW126429   4.699   3.045  10.722 -0.4212  1.1104 -1.3995
 4932SOL    HW226430   4.685   2.907  10.709  0.2968  0.8863 -0.0771
 4933SOL     OW26431   1.442   1.493   4.672 -0.2799  0.0658 -0.3385
 4933SOL    HW126432   1.521   1.456   4.633  0.0433  0.2973  0.0973
 4933SOL    HW226433   1.400   1.518   4.590  0.5366  2.1554 -0.1047
 4934SOL     OW26434   2.729   2.000  13.821  0.0748  0.0360  0.0268
 4934SOL    HW126435   2.753   1.915  13.857  0.8146  0.1917 -0.0952
 4934SOL    HW226436   2.819   2.032  13.817  0.1232 -0.2706 -1.5275
 4935SOL     OW26437   3.738   0.127   9.755  0.8141  0.0074 -0.0763
 4935SOL    HW126438   3.682   0.062   9.712  0.1571  0.1258  0.5997
 4935SOL    HW226439   3.819   0.107   9.709 -0.0530 -0.8434 -1.2321
 4936SOL     OW26440   0.402   2.454  14.320  0.4990  0.1865 -0.3079
 4936SOL    HW126441   0.309   2.477  14.310  0.6198  0.5990 -0.4987
 4936SOL    HW226442   0.436   2.535  14.358 -0.6567  0.3561  0.3701
 4937SOL     OW26443   3.970   1.436   6.163 -0.4567 -0.3086  0.1436
 4937SOL    HW126444   3.905   1.367   6.172 -0.6254 -0.0883  0.6285
 4937SOL    HW226445   3.919   1.505   6.206 -1.5600 -1.9445  1.4691
 4938SOL     OW26446   2.602   0.530   6.204 -0.2791  0.1620 -0.2174
 4938SOL    HW126447   2.608   0.437   6.228 -0.2926  1.0365  3.1269
 4938SOL    HW226448   2.621   0.573   6.287 -0.7005  0.2934 -0.1890
 4939SOL     OW26449   3.241   2.903   5.733 -0.3130  0.2537  0.0176
 4939SOL    HW126450   3.157   2.901   5.778  0.1964 -0.3814  0.9380
 4939SOL    HW226451   3.290   2.851   5.797 -1.2077 -1.3066 -0.5597
 4940SOL     OW26452   1.158   0.447  15.029  0.2649  0.3781  0.2124
 4940SOL    HW126453   1.157   0.391  15.106  0.4256 -0.0271 -0.0810
 4940SOL    HW226454   1.144   0.535  15.065  0.1714  0.8948 -1.1043
 4941SOL     OW26455   2.383   3.331   7.205  0.0866  0.0814 -0.3347
 4941SOL    HW126456   2.338   3.363   7.127  1.6039  1.1837 -0.7674
 4941SOL    HW226457   2.364   3.237   7.211  0.5770  0.0649  0.9464
 4942SOL     OW26458   2.676   1.130   6.303 -0.3741 -0.1738  0.0695
 4942SOL    HW126459   2.772   1.124   6.307 -0.4687 -0.4789  1.9376
 4942SOL    HW226460   2.665   1.080   6.384 -0.1307  1.1267  0.9106
 4943SOL     OW26461   0.234   1.975   2.510  0.5043  0.0458  0.1219
 4943SOL    HW126462   0.140   1.990   2.526  1.1132  1.2544  2.5439
 4943SOL    HW226463   0.226   1.956   2.417 -0.4897 -0.7434  0.3611
 4944SOL     OW26464   3.946   0.580   5.284  0.0968 -0.1771  0.8555
 4944SOL    HW126465   3.956   0.670   5.315  0.1717  0.6368 -1.4726
 4944SOL    HW226466   3.867   0.556   5.332 -0.7343  2.0060  0.5919
 4945SOL     OW26467   2.180   0.769  15.753 -0.0905  0.4622  0.4604
 4945SOL    HW126468   2.174   0.762  15.849 -1.0434 -1.2675  0.2703
 4945SOL    HW226469   2.258   0.825  15.754 -0.9736  1.6943 -0.0066
 4946SOL     OW26470   0.148   0.270   2.336 -0.1095  0.2575 -0.5525
 4946SOL    HW126471   0.137   0.206   2.406 -1.0992 -0.3776 -1.2810
 4946SOL    HW226472   0.084   0.233   2.275 -0.1725 -1.6513  0.6783
 4947SOL     OW26473   4.351   0.443   8.025 -0.2837  0.1541 -0.4200
 4947SOL    HW126474   4.418   0.415   8.087 -1.5787 -0.7545  0.5655
 4947SOL    HW226475   4.383   0.388   7.954 -0.1090  0.2426 -0.4098
 4948SOL     OW26476   3.565   1.550  12.203  0.1754 -0.1969 -0.5620
 4948SOL    HW126477   3.595   1.514  12.287  0.4879  1.1605 -0.0920
 4948SOL    HW226478   3.646   1.541  12.152  1.2360 -0.4242  1.1245
 4949SOL     OW26479   0.965   0.289   2.232  0.1629 -0.8422  0.1825
 4949SOL    HW126480   0.884   0.238   2.231 -1.9179  2.4533  2.2891
 4949SOL    HW226481   0.929   0.364   2.279 -2.7708  0.7367 -4.4995
 4950SOL     OW26482   2.468   4.384   2.573 -0.4130 -0.1316  0.3849
 4950SOL    HW126483   2.410   4.357   2.645 -2.4279 -0.2926 -1.3081
 4950SOL    HW226484   2.529   4.311   2.583 -1.3895 -0.9984  0.1041
 4951SOL     OW26485   2.643   1.609  14.736  0.0232 -0.3040 -0.1344
 4951SOL    HW126486   2.664   1.516  14.743 -2.3163 -0.9835 -2.0605
 4951SOL    HW226487   2.551   1.613  14.763  0.3046  1.9165  0.5009
 4952SOL     OW26488   0.414   2.791   7.986  0.0749 -0.7170  0.1083
 4952SOL    HW126489   0.467   2.870   7.991 -1.6789  0.4357  0.6266
 4952SOL    HW226490   0.478   2.727   8.018  0.4227 -0.8027 -0.7666
 4953SOL     OW26491   2.320   4.515   3.319  0.0897  0.3189 -0.7164
 4953SOL    HW126492   2.264   4.594   3.321  0.0700  0.3100 -0.9050
 4953SOL    HW226493   2.276   4.459   3.383  0.1962  1.7619  0.6185
 4954SOL     OW26494   0.378   2.426   6.770  0.3486 -0.1911  0.0226
 4954SOL    HW126495   0.355   2.501   6.825 -1.2264 -0.6279 -0.0557
 4954SOL    HW226496   0.422   2.470   6.697 -0.7343  0.8371 -0.0146
 4955SOL     OW26497   2.440   0.604  17.175 -0.1680 -0.3485  0.6072
 4955SOL    HW126498   2.508   0.639  17.117  0.9488 -0.7037  1.7118
 4955SOL    HW226499   2.470   0.515  17.194 -0.7091 -0.6011  0.2980
 4956SOL     OW26500   1.059   4.563   7.272  1.1542  0.0411  0.1412
 4956SOL    HW126501   0.969   4.590   7.257  1.4980  1.4624  0.6185
 4956SOL    HW226502   1.062   4.544   7.365  0.2804  0.2180  0.1977
 4957SOL     OW26503   2.604   0.051  12.901  0.0533 -0.2420 -0.0957
 4957SOL    HW126504   2.670   0.027  12.836  0.2227 -1.7216  0.6185
 4957SOL    HW226505   2.578   0.136  12.866 -4.1772 -1.0433  1.1560
 4958SOL     OW26506   1.994   1.188   2.270  0.2556  0.7317 -0.3398
 4958SOL    HW126507   1.956   1.109   2.233  0.4131  0.0815  0.8766
 4958SOL    HW226508   2.008   1.166   2.362 -0.8385  3.4177  0.4781
 4959SOL     OW26509   2.649   1.753   6.298  0.4907 -0.3376 -0.0355
 4959SOL    HW126510   2.573   1.734   6.244  0.3199  1.5828 -0.4625
 4959SOL    HW226511   2.724   1.714   6.253 -0.0115  0.2651 -1.3769
 4960SOL     OW26512   0.244   2.197  13.616 -0.3626  0.5685  0.1723
 4960SOL    HW126513   0.304   2.271  13.618 -0.6108  0.7162  1.8509
 4960SOL    HW226514   0.164   2.244  13.592  0.4796  0.7345 -2.3775
 4961SOL     OW26515   3.075   3.179   6.906 -0.4331 -0.0933  0.1518
 4961SOL    HW126516   3.109   3.101   6.950 -1.3493 -0.3096  0.4805
 4961SOL    HW226517   3.019   3.140   6.839  1.8862 -1.0355 -1.2381
 4962SOL     OW26518   4.170   0.064   1.547  0.1477 -0.7346  0.0930
 4962SOL    HW126519   4.222   0.041   1.471 -1.4197  0.0077 -1.1957
 4962SOL    HW226520   4.222   0.021   1.615  0.9561  1.0238  0.5912
 4963SOL     OW26521   2.965   4.613   1.304 -0.1400 -0.4522  0.3868
 4963SOL    HW126522   2.904   4.540   1.315  1.0151 -1.4555 -0.0222
 4963SOL    HW226523   3.033   4.594   1.369  1.7730 -0.7716 -1.7482
 4964SOL     OW26524   0.753   0.547  13.243 -0.0906  0.4828  0.3445
 4964SOL    HW126525   0.833   0.598  13.235 -1.4904  2.8953  1.4443
 4964SOL    HW226526   0.710   0.570  13.161 -1.1280 -0.7746  0.5388
 4965SOL     OW26527   0.094   2.188   9.230  0.2127  0.0966  0.4212
 4965SOL    HW126528   0.178   2.233   9.226  0.6986 -0.9331 -0.7657
 4965SOL    HW226529   0.043   2.267   9.249  1.5511  0.7224  1.3319
 4966SOL     OW26530   1.047   1.015   9.760  0.3760 -0.3978  0.0898
 4966SOL    HW126531   1.079   0.993   9.848  1.0408 -0.9655 -0.2987
 4966SOL    HW226532   1.084   0.946   9.705 -0.2302 -1.0365  0.4911
 4967SOL     OW26533   4.294   2.467   1.961  0.4814 -0.1008 -0.7202
 4967SOL    HW126534   4.335   2.460   1.875  2.9817 -1.1176  0.5571
 4967SOL    HW226535   4.349   2.404   2.007 -1.6135 -1.3349  0.1063
 4968SOL     OW26536   3.433   3.629   2.096  0.3058 -0.0491  0.1470
 4968SOL    HW126537   3.409   3.645   2.004 -2.4955 -0.2906  0.8392
 4968SOL    HW226538   3.437   3.720   2.125  0.9765  0.1614 -0.5967
 4969SOL     OW26539   1.960   3.660   2.082  0.1660 -0.2366  0.1393
 4969SOL    HW126540   1.971   3.754   2.064 -0.4955  0.3207  2.6252
 4969SOL    HW226541   1.913   3.659   2.165 -1.6539 -0.2231 -0.8894
 4970SOL     OW26542   1.532   0.082   2.646 -0.3445  0.2120 -0.1844
 4970SOL    HW126543   1.492   0.008   2.600  0.0607  0.9151 -1.6677
 4970SOL    HW226544   1.456   0.128   2.681 -0.3702 -0.4453  0.6279
 4971SOL     OW26545   4.728   4.252   1.686  0.2724 -0.4960  0.3273
 4971SOL    HW126546   4.660   4.319   1.696 -0.0107 -0.6266 -0.6947
 4971SOL    HW226547   4.686   4.175   1.726 -0.3077 -0.4255 -0.1439
 4972SOL     OW26548   2.207   1.402   3.588  0.4175 -0.4247 -0.6009
 4972SOL    HW126549   2.259   1.341   3.535  0.6507 -0.1666 -0.6740
 4972SOL    HW226550   2.227   1.376   3.678 -0.8783 -1.0649 -0.4971
 4973SOL     OW26551   0.351   4.284   4.251 -0.0743 -0.3295  0.4459
 4973SOL    HW126552   0.270   4.259   4.294  0.2096 -1.0182  0.5803
 4973SOL    HW226553   0.405   4.311   4.325  0.9973  1.1494 -0.8685
 4974SOL     OW26554   3.439   2.801  15.190  0.3959  0.0501  0.0558
 4974SOL    HW126555   3.433   2.875  15.251  1.4960  0.7067 -0.6395
 4974SOL    HW226556   3.441   2.847  15.106 -1.6818 -0.9581 -0.5460
 4975SOL     OW26557   3.605   3.872   2.490 -0.1933  0.1657 -0.3302
 4975SOL    HW126558   3.607   3.865   2.394 -2.0492  0.0109 -0.3482
 4975SOL    HW226559   3.691   3.838   2.515  0.0621  1.3059  0.3414
 4976SOL     OW26560   1.261   0.630   8.616  0.3437 -0.4141  0.2574
 4976SOL    HW126561   1.323   0.697   8.587  0.5397 -0.5532  0.3533
 4976SOL    HW226562   1.218   0.603   8.535  0.1051  1.1373 -0.1384
 4977SOL     OW26563   2.301   1.661   3.725 -0.4164  0.7566  0.1606
 4977SOL    HW126564   2.379   1.666   3.779 -1.2518  0.2403  1.4187
 4977SOL    HW226565   2.230   1.643   3.786 -1.7816  1.3515 -1.2380
 4978SOL     OW26566   1.850   0.384   5.793 -0.2908  0.2603 -0.2428
 4978SOL    HW126567   1.778   0.369   5.732 -0.4816  0.3218 -0.0340
 4978SOL    HW226568   1.918   0.402   5.729  0.3908 -0.5964  0.2381
 4979SOL     OW26569   2.940   2.714  10.066 -0.2069 -0.1235 -0.2532
 4979SOL    HW126570   2.914   2.735  10.156 -0.0311  2.8353 -0.9125
 4979SOL    HW226571   2.850   2.724  10.034  0.2678  0.9741 -1.2148
 4980SOL     OW26572   0.268   0.997  10.992  0.4562 -0.1617 -0.3812
 4980SOL    HW126573   0.291   0.922  10.938 -0.2529 -1.9209  1.7514
 4980SOL    HW226574   0.354   1.023  11.024 -1.1592  1.1226  2.9380
 4981SOL     OW26575   2.609   1.293   5.031 -0.1074 -0.3048  0.4116
 4981SOL    HW126576   2.641   1.205   5.052  1.1222  0.2067  0.7237
 4981SOL    HW226577   2.686   1.333   4.990 -0.5875 -1.6850 -1.7903
 4982SOL     OW26578   1.097   1.421   8.825 -0.2055  0.5034 -0.8092
 4982SOL    HW126579   1.188   1.418   8.796 -0.0530  0.1995 -0.2817
 4982SOL    HW226580   1.098   1.450   8.916 -0.1658 -1.6821 -0.1385
 4983SOL     OW26581   1.552   3.955   3.043 -0.1731  0.1880  0.5902
 4983SOL    HW126582   1.552   3.877   3.099  0.8302  0.4624  0.9782
 4983SOL    HW226583   1.463   3.986   3.056 -0.5213 -0.3917 -0.5018
 4984SOL     OW26584   0.538   2.131   8.905 -0.7294  0.1984  0.3225
 4984SOL    HW126585   0.476   2.059   8.900  0.2530 -0.6294  0.0913
 4984SOL    HW226586   0.509   2.167   8.989 -0.2789  0.6121  0.3008
 4985SOL     OW26587   2.883   1.132   3.004 -0.2739  0.0878 -0.3810
 4985SOL    HW126588   2.866   1.222   2.976  1.0511  1.3658  2.9705
 4985SOL    HW226589   2.908   1.135   3.096  0.3172  1.3431 -0.5847
 4986SOL     OW26590   3.568   4.121   1.792  0.3010 -0.0812  0.3940
 4986SOL    HW126591   3.613   4.093   1.712  0.1101  1.9469 -0.4176
 4986SOL    HW226592   3.480   4.141   1.760  0.4063  0.5135  0.4768
 4987SOL     OW26593   2.964   0.189   6.793  0.0043 -0.7375 -0.2219
 4987SOL    HW126594   2.983   0.100   6.764  1.5488 -0.2011 -0.8679
 4987SOL    HW226595   2.876   0.179   6.828 -0.8307 -1.2386 -2.4611
 4988SOL     OW26596   4.485   4.354   8.673 -0.0636 -0.7336  0.3012
 4988SOL    HW126597   4.470   4.434   8.723  2.0380  0.2176 -0.6129
 4988SOL    HW226598   4.488   4.392   8.585 -0.4194 -0.4346  0.4171
 4989SOL     OW26599   3.461   1.805  17.496 -0.2271  0.1750 -0.1740
 4989SOL    HW126600   3.430   1.872  17.435 -0.0225  1.1376  0.7707
 4989SOL    HW226601   3.468   1.733  17.434 -1.0356  0.4747 -0.6080
 4990SOL     OW26602   2.680   3.707   0.801  0.4763  0.0768  0.5666
 4990SOL    HW126603   2.590   3.731   0.825  0.1987  0.9870 -1.4149
 4990SOL    HW226604   2.694   3.622   0.842 -3.1198  0.3149  2.2953
 4991SOL     OW26605   0.886   2.280  15.692 -0.2779  0.6582 -0.4475
 4991SOL    HW126606   0.819   2.247  15.752 -0.5186 -0.5430 -1.3834
 4991SOL    HW226607   0.954   2.277  15.759  0.2086  1.3981 -0.9091
 4992SOL     OW26608   2.666   2.137   1.766  0.0712  0.2756  0.4500
 4992SOL    HW126609   2.735   2.170   1.708 -2.2594  3.0183 -0.7225
 4992SOL    HW226610   2.715   2.132   1.848  0.6689  1.5806  0.1745
 4993SOL     OW26611   1.134   4.250   3.488 -0.7546  0.4662 -0.0501
 4993SOL    HW126612   1.103   4.270   3.576  3.7181 -0.9976  1.8512
 4993SOL    HW226613   1.221   4.215   3.508 -1.0986  0.0503  0.7323
 4994SOL     OW26614   4.543   1.468   4.091 -0.3410  0.4929  0.4877
 4994SOL    HW126615   4.575   1.555   4.066  0.7296 -0.3815 -1.1123
 4994SOL    HW226616   4.465   1.472   4.036 -1.0511  0.5216  1.4770
 4995SOL     OW26617   1.840   1.282   1.958  0.1146  0.2570 -0.2050
 4995SOL    HW126618   1.883   1.339   1.894  0.6697 -1.2326 -1.1606
 4995SOL    HW226619   1.752   1.289   1.923  0.4420 -0.9341 -1.2887
 4996SOL     OW26620   3.497   0.823   8.022  0.2674  0.1103  0.2370
 4996SOL    HW126621   3.492   0.830   7.927 -0.5959 -0.8498  0.1999
 4996SOL    HW226622   3.501   0.915   8.048 -0.0063  0.2594 -0.2474
 4997SOL     OW26623   1.420   2.018   2.603  0.2386  0.6116  0.3193
 4997SOL    HW126624   1.494   2.063   2.563  0.4357  0.4221  0.4672
 4997SOL    HW226625   1.451   1.927   2.604  0.3806  0.6444 -0.9445
 4998SOL     OW26626   4.119   1.891   4.815  0.5862 -0.0518  0.2376
 4998SOL    HW126627   4.069   1.925   4.741  0.5152  1.9756  1.2133
 4998SOL    HW226628   4.134   1.797   4.805 -0.7660 -0.2643  0.1792
 4999SOL     OW26629   2.066   3.285   3.504 -0.2651  0.4723  0.0633
 4999SOL    HW126630   2.076   3.193   3.479  1.7441  0.7644 -0.1424
 4999SOL    HW226631   2.097   3.325   3.423 -0.3812 -0.2364 -0.3317
 5000SOL     OW26632   4.406   1.693   1.183  0.2263 -0.0280  0.1481
 5000SOL    HW126633   4.494   1.654   1.180  0.0977 -0.3262  0.2662
 5000SOL    HW226634   4.425   1.787   1.180 -0.5136  0.0712 -1.5519
 5001SOL     OW26635   3.538   0.288  12.078 -0.4315 -0.0885  0.5102
 5001SOL    HW126636   3.617   0.281  12.132  1.6126  1.4517 -2.2724
 5001SOL    HW226637   3.512   0.376  12.106 -0.9348 -0.7161  1.9785
 5002SOL     OW26638   3.398   0.605   1.359  0.0884 -0.1282 -0.2893
 5002SOL    HW126639   3.349   0.683   1.383  0.2240 -0.5014  1.2013
 5002SOL    HW226640   3.357   0.583   1.275  0.3681  0.9675 -0.7150
 5003SOL     OW26641   3.542   1.482   3.040 -0.9755 -0.4813 -0.5586
 5003SOL    HW126642   3.470   1.535   3.073 -0.1487  0.2712  0.0332
 5003SOL    HW226643   3.625   1.530   3.040 -1.9720  1.2408 -1.7035
 5004SOL     OW26644   4.019   2.303   9.271  0.1563  0.5367  0.2211
 5004SOL    HW126645   4.087   2.257   9.221  0.6422  0.0046  1.3550
 5004SOL    HW226646   4.063   2.375   9.316  1.2237 -0.3550  0.6272
 5005SOL     OW26647   0.951   0.329   0.961  0.0942 -0.1045 -0.6312
 5005SOL    HW126648   0.867   0.340   0.917  1.0095  2.6396 -1.6450
 5005SOL    HW226649   1.008   0.380   0.904  1.7354 -1.1961  0.0281
 5006SOL     OW26650   0.563   3.549   6.161 -0.0962  0.3250 -0.1675
 5006SOL    HW126651   0.511   3.486   6.111 -1.1699  2.1953 -1.3767
 5006SOL    HW226652   0.536   3.530   6.250  0.5749 -1.6862 -0.3764
 5007SOL     OW26653   0.496   2.388   0.051  0.5156  0.3404  0.4467
 5007SOL    HW126654   0.523   2.461   0.107  0.0160  1.5086 -0.8425
 5007SOL    HW226655   0.492   2.429  17.707 -2.2495  0.5265  0.6874
 5008SOL     OW26656   1.280   1.984   1.277  0.2916 -0.5736  0.0260
 5008SOL    HW126657   1.345   1.982   1.206  0.0266  0.0433 -0.2318
 5008SOL    HW226658   1.219   2.050   1.242 -0.8894 -0.7158  1.8546
 5009SOL     OW26659   2.673   0.905   7.518 -0.2891  0.8073  0.3420
 5009SOL    HW126660   2.623   0.883   7.440 -1.2566 -1.0290  1.4782
 5009SOL    HW226661   2.598   0.927   7.573 -0.4416 -0.1234  0.5021
 5010SOL     OW26662   4.152   1.911   7.717 -0.0761 -0.7424 -0.0294
 5010SOL    HW126663   4.059   1.922   7.735 -0.3146 -2.1203 -0.4003
 5010SOL    HW226664   4.164   1.929   7.624  1.5971  1.7515  0.6571
 5011SOL     OW26665   0.527   3.649   5.792 -0.0554  0.2696 -0.3778
 5011SOL    HW126666   0.472   3.707   5.740  1.3055  1.9737  0.1007
 5011SOL    HW226667   0.524   3.572   5.735  1.7013 -0.7193  0.8795
 5012SOL     OW26668   2.889   3.841   2.040  0.4199  0.3158  0.6906
 5012SOL    HW126669   2.968   3.787   2.045 -0.0243 -0.4680 -0.6544
 5012SOL    HW226670   2.925   3.929   2.043 -2.9328  1.6099  1.6097
 5013SOL     OW26671   1.223   1.854   8.455  0.6809  0.0418 -0.0683
 5013SOL    HW126672   1.318   1.856   8.459  0.6337 -2.6885  1.9976
 5013SOL    HW226673   1.209   1.822   8.543 -1.4869  1.3104  0.0488
 5014SOL     OW26674   2.372   3.158  16.836 -0.0434 -0.2198 -0.0621
 5014SOL    HW126675   2.322   3.108  16.772  0.4572  0.1409 -0.7311
 5014SOL    HW226676   2.407   3.083  16.884  1.8869  2.2140  2.3588
 5015SOL     OW26677   0.416   2.026   4.267 -0.5770 -0.1153  0.5557
 5015SOL    HW126678   0.473   1.995   4.337  1.5693 -1.8056 -1.9090
 5015SOL    HW226679   0.420   1.955   4.203 -0.3203 -0.5705  1.0756
 5016SOL     OW26680   0.083   1.284  17.273 -0.4700  0.5351 -0.4315
 5016SOL    HW126681   0.172   1.249  17.271 -0.6673 -0.0713  2.0502
 5016SOL    HW226682   0.086   1.351  17.342  5.6572  0.1360 -0.3663
 5017SOL     OW26683   0.539   4.735   6.745  0.4276 -0.1170  0.6703
 5017SOL    HW126684   0.619   0.051   6.750 -0.5147  1.7389 -2.6189
 5017SOL    HW226685   0.464   0.053   6.770 -0.1815 -0.0742 -1.1773
 5018SOL     OW26686   3.329   2.140   7.811 -0.3577 -0.7124  0.8135
 5018SOL    HW126687   3.253   2.081   7.810 -2.1840  1.6658 -1.3735
 5018SOL    HW226688   3.317   2.190   7.731  2.6837 -2.1089 -0.5195
 5019SOL     OW26689   2.650   2.024   3.393 -0.3717  0.2610  0.0361
 5019SOL    HW126690   2.561   2.027   3.357 -0.4383 -2.1000  0.0215
 5019SOL    HW226691   2.637   2.098   3.453  1.1030  0.6382 -0.1039
 5020SOL     OW26692   1.419   0.493  10.963  0.1003 -0.2150 -0.1027
 5020SOL    HW126693   1.375   0.528  11.041  2.9566 -0.5845  1.6608
 5020SOL    HW226694   1.393   0.402  10.949  0.3742 -0.6687  2.3179
 5021SOL     OW26695   2.253   4.356   2.805 -0.0872  0.5417 -0.2064
 5021SOL    HW126696   2.272   4.266   2.834 -1.1997  0.1692 -0.6333
 5021SOL    HW226697   2.165   4.377   2.836 -0.3754  1.0903 -1.4069
 5022SOL     OW26698   4.121   2.943   1.664  0.1023 -0.2496  0.3600
 5022SOL    HW126699   4.074   2.872   1.621 -1.1719  0.1282  1.1130
 5022SOL    HW226700   4.197   2.897   1.701  0.4772  0.5797  0.6175
 5023SOL     OW26701   0.649   3.928   9.272  0.2472  0.1829  0.2404
 5023SOL    HW126702   0.629   3.839   9.301  0.1103 -0.1566 -0.8780
 5023SOL    HW226703   0.671   3.981   9.348  0.8082  1.2984 -0.6963
 5024SOL     OW26704   4.724   3.739   2.224  0.0194 -0.3593 -0.5071
 5024SOL    HW126705   0.035   3.822   2.213 -0.5525  0.0282 -0.0360
 5024SOL    HW226706   0.028   3.707   2.306 -0.1402  0.6477 -0.0344
 5025SOL     OW26707   0.562   0.989   6.291  0.4077 -0.4421 -0.5223
 5025SOL    HW126708   0.478   0.944   6.286  0.0010  0.1530  0.8055
 5025SOL    HW226709   0.552   1.021   6.381 -1.7658  0.2984 -1.0321
 5026SOL     OW26710   4.058   2.382   2.315  0.2203 -0.3243 -0.5473
 5026SOL    HW126711   3.999   2.425   2.252 -2.3254 -2.4693  0.3638
 5026SOL    HW226712   4.129   2.391   2.252 -0.3229 -0.3945 -1.1772
 5027SOL     OW26713   1.465   4.410   3.670  0.3573 -0.0663  0.1601
 5027SOL    HW126714   1.473   4.441   3.579  3.1283 -0.8707  0.1128
 5027SOL    HW226715   1.457   4.316   3.654 -1.4372  0.1126  0.0263
 5028SOL     OW26716   4.653   0.456  15.153 -0.4326  0.3177  0.2023
 5028SOL    HW126717   4.613   0.378  15.113 -0.9899  0.5112  0.3765
 5028SOL    HW226718   4.572   0.503  15.172 -0.3192  1.9297 -3.2536
 5029SOL     OW26719   1.674   4.110  10.838  0.2300 -0.0729  0.6162
 5029SOL    HW126720   1.723   4.117  10.920  1.7598  0.2778 -0.3154
 5029SOL    HW226721   1.614   4.037  10.855 -0.9090  0.8637  0.6191
 5030SOL     OW26722   4.556   4.373   4.561 -0.1690 -0.2067 -0.9125
 5030SOL    HW126723   4.491   4.437   4.592  0.0197  0.3836 -1.7216
 5030SOL    HW226724   4.632   4.428   4.582 -0.3122 -0.2598 -0.2576
 5031SOL     OW26725   3.334   1.487  12.637 -0.4451 -0.4620 -0.0206
 5031SOL    HW126726   3.351   1.506  12.730 -1.6062  0.8437 -0.0796
 5031SOL    HW226727   3.239   1.500  12.636 -0.3762  0.1033  0.8357
 5032SOL     OW26728   4.423   3.993   7.299  0.0069  0.5825 -0.1466
 5032SOL    HW126729   4.353   3.930   7.285 -1.1051  2.1640 -1.7984
 5032SOL    HW226730   4.489   3.951   7.243  1.4968  1.2477  1.1102
 5033SOL     OW26731   1.651   3.488  12.972 -0.1927 -0.5914  0.7312
 5033SOL    HW126732   1.646   3.583  12.986 -1.4155 -0.2948 -1.8186
 5033SOL    HW226733   1.694   3.474  12.887 -2.1407  2.2855 -0.7041
 5034SOL     OW26734   2.372   1.758   1.945 -0.0414  0.3505  0.3477
 5034SOL    HW126735   2.378   1.852   1.962  1.8043  0.2763  0.0312
 5034SOL    HW226736   2.430   1.722   2.012 -0.4913  0.2943  0.7139
 5035SOL     OW26737   2.615   2.408   9.301  0.7764 -0.1496 -0.6369
 5035SOL    HW126738   2.525   2.412   9.333  1.6953  2.2473  1.7285
 5035SOL    HW226739   2.635   2.316   9.319 -1.0815  0.0088  2.1822
 5036SOL     OW26740   4.073   0.698  12.535 -0.3433  0.2021 -0.2490
 5036SOL    HW126741   4.112   0.769  12.484 -0.5564  0.6296  0.1870
 5036SOL    HW226742   4.030   0.745  12.607  1.5136  0.6959  0.5391
 5037SOL     OW26743   2.091   3.486  16.406  0.4922  0.3766  0.3436
 5037SOL    HW126744   2.154   3.509  16.339  0.5827  1.9051  0.9654
 5037SOL    HW226745   2.016   3.450  16.358  1.0842 -1.4893  0.7953
 5038SOL     OW26746   1.949   4.088   4.940 -0.6309 -0.1592 -0.3820
 5038SOL    HW126747   1.945   4.065   4.847 -0.8322  0.2517 -0.4779
 5038SOL    HW226748   1.947   4.004   4.985  2.4942 -0.4019 -0.6761
 5039SOL     OW26749   3.717   3.677  11.452  0.1329  0.5829 -0.4155
 5039SOL    HW126750   3.725   3.583  11.468  1.8571  0.5829 -1.2275
 5039SOL    HW226751   3.786   3.708  11.511 -0.3232  1.4982 -0.3755
 5040SOL     OW26752   0.737   3.448  15.890  0.1571 -0.2979 -0.3045
 5040SOL    HW126753   0.792   3.408  15.958  1.0331 -1.6409 -1.8050
 5040SOL    HW226754   0.655   3.401  15.909 -0.0627  1.9186  4.1433
 5041SOL     OW26755   2.462   1.649   5.953  0.2452 -0.2837  0.3255
 5041SOL    HW126756   2.531   1.589   5.979  0.9536  0.5261  0.3193
 5041SOL    HW226757   2.392   1.585   5.941  0.7588 -0.7551 -0.1938
 5042SOL     OW26758   1.153   2.192  11.536  0.1014  0.1162 -0.3397
 5042SOL    HW126759   1.195   2.277  11.551 -0.0290 -0.4224  3.2149
 5042SOL    HW226760   1.152   2.169  11.629 -0.5438  0.0524 -0.3657
 5043SOL     OW26761   0.482   4.057   6.782 -0.6107  0.0669 -0.2002
 5043SOL    HW126762   0.447   3.974   6.751 -1.5436  0.2278  0.4341
 5043SOL    HW226763   0.424   4.127   6.753 -0.3409  0.8304  1.1487
 5044SOL     OW26764   2.829   4.496  10.493  0.3785  0.5202  0.6325
 5044SOL    HW126765   2.749   4.549  10.487  0.2178  0.2877  0.6958
 5044SOL    HW226766   2.824   4.476  10.587 -0.9988  1.1726  0.6939
 5045SOL     OW26767   3.041   4.414   2.350 -0.2858  0.2854 -0.1876
 5045SOL    HW126768   3.041   4.432   2.255 -0.1605  0.2388 -0.1968
 5045SOL    HW226769   2.985   4.337   2.355 -2.1283  1.5373 -1.5387
 5046SOL     OW26770   0.015   1.253  12.463  0.7226  0.2241 -0.2720
 5046SOL    HW126771   4.657   1.240  12.450  0.8035 -0.6896  0.0506
 5046SOL    HW226772   0.036   1.203  12.542  1.6946 -0.1334 -0.7482
 5047SOL     OW26773   0.432   1.132   2.566  0.2454  0.2902 -0.1010
 5047SOL    HW126774   0.347   1.172   2.549 -0.1631 -1.0427 -1.2105
 5047SOL    HW226775   0.454   1.181   2.645 -3.3287  0.4728  0.7649
 5048SOL     OW26776   3.189   4.369   9.120  0.3757 -0.4166 -0.2600
 5048SOL    HW126777   3.164   4.421   9.044  1.0642  1.8498  1.0762
 5048SOL    HW226778   3.233   4.293   9.083  1.8334 -0.2868  1.2036
 5049SOL     OW26779   0.513   1.554   8.912  0.0594 -0.0398  0.2460
 5049SOL    HW126780   0.451   1.491   8.874 -1.8221  1.0332  1.5633
 5049SOL    HW226781   0.517   1.615   8.838  0.7018 -1.3471 -0.7983
 5050SOL     OW26782   0.953   0.937   8.952  0.4834 -0.5029  0.3702
 5050SOL    HW126783   0.966   0.920   9.046  1.2609 -0.1549  0.3309
 5050SOL    HW226784   0.871   0.985   8.940  1.6962  1.0635 -1.5403
 5051SOL     OW26785   4.522   3.923  10.151 -0.2666 -0.3434 -0.3893
 5051SOL    HW126786   4.458   3.868  10.196 -1.0783  1.8891  1.1687
 5051SOL    HW226787   4.498   4.007  10.190  1.3232  0.0431 -0.2458
 5052SOL     OW26788   1.399   1.655  10.548 -0.0614 -0.5444  0.5405
 5052SOL    HW126789   1.476   1.675  10.602  0.5850 -1.2707 -0.1015
 5052SOL    HW226790   1.455   1.656  10.470 -2.1487  0.3575 -0.9316
 5053SOL     OW26791   3.314   3.828   5.111  0.2001 -0.1860 -0.3971
 5053SOL    HW126792   3.401   3.804   5.144  0.5245 -0.0368 -1.1375
 5053SOL    HW226793   3.309   3.923   5.125  1.0303 -0.7737  3.7983
 5054SOL     OW26794   2.549   3.177   4.598  0.1747 -0.0978 -0.3537
 5054SOL    HW126795   2.494   3.141   4.528 -1.0200 -0.8440  0.9914
 5054SOL    HW226796   2.474   3.192   4.655  0.2133  0.9315 -0.5638
 5055SOL     OW26797   2.732   2.147  15.911  0.4502 -0.5246  0.3756
 5055SOL    HW126798   2.763   2.211  15.975 -1.1790  0.2595  0.3662
 5055SOL    HW226799   2.737   2.192  15.827  0.2445 -1.0954  0.0571
 5056SOL     OW26800   3.951   1.827   3.690  0.1916 -0.6783  0.5067
 5056SOL    HW126801   4.018   1.858   3.752  1.3886 -0.0071 -1.1210
 5056SOL    HW226802   3.951   1.732   3.706 -0.8130 -0.4908  1.5585
 5057SOL     OW26803   4.081   3.300   6.138  0.6574 -0.3966  0.3519
 5057SOL    HW126804   4.066   3.218   6.091 -0.1181 -0.9261  1.5243
 5057SOL    HW226805   4.163   3.287   6.186 -0.9648 -0.4069  3.1164
 5058SOL     OW26806   0.483   1.632  13.765 -0.5366 -0.6996 -0.4300
 5058SOL    HW126807   0.513   1.560  13.709 -1.9950 -1.0582 -0.7524
 5058SOL    HW226808   0.460   1.695  13.697  0.1284  0.4894  0.4387
 5059SOL     OW26809   1.920   2.026   9.019 -0.3218  0.2658  0.1364
 5059SOL    HW126810   1.825   2.028   9.011 -0.6324 -5.2660  2.1202
 5059SOL    HW226811   1.940   1.943   8.974  1.1571  1.6495 -1.7545
 5060SOL     OW26812   0.041   0.127  10.247 -0.5153 -0.0662 -0.3318
 5060SOL    HW126813   4.691   0.168  10.238  0.8378  2.9429  0.3639
 5060SOL    HW226814   0.098   0.198  10.276  0.3973 -1.1924  0.6394
 5061SOL     OW26815   2.273   4.003   8.274  0.1539  0.0187 -0.1253
 5061SOL    HW126816   2.351   4.046   8.311 -1.5920  3.8428 -0.9072
 5061SOL    HW226817   2.215   4.080   8.276  1.6483  1.1740 -2.1050
 5062SOL     OW26818   3.511   3.031   1.583 -0.3911 -0.0921 -0.3432
 5062SOL    HW126819   3.442   3.080   1.537 -0.5830 -1.2588 -1.2735
 5062SOL    HW226820   3.496   2.946   1.543  0.8530 -0.7452  0.5953
 5063SOL     OW26821   1.552   2.802  10.423  0.5925 -0.1327  0.1419
 5063SOL    HW126822   1.584   2.749  10.349 -0.8039 -0.7872  0.0035
 5063SOL    HW226823   1.507   2.872  10.376 -0.4509 -2.2617 -2.0871
 5064SOL     OW26824   3.503   3.242   9.940 -0.4837  0.5369  0.2117
 5064SOL    HW126825   3.491   3.148   9.956 -1.6913  0.9269  1.5968
 5064SOL    HW226826   3.533   3.256  10.030  0.7124 -0.1559 -0.0812
 5065SOL     OW26827   2.335   0.310   8.838 -0.3483 -0.2142  0.5071
 5065SOL    HW126828   2.426   0.319   8.867 -0.0551  1.7755 -0.9618
 5065SOL    HW226829   2.321   0.382   8.776 -1.9754 -0.1705  0.9330
 5066SOL     OW26830   2.805   4.711   4.026  0.2628 -0.3323 -0.1035
 5066SOL    HW126831   2.862   0.033   3.975 -0.8378 -0.4633 -1.4574
 5066SOL    HW226832   2.781   4.641   3.965 -0.7791 -0.5460  0.5515
 5067SOL     OW26833   1.334   0.378   4.003  0.2576  0.1879  0.2142
 5067SOL    HW126834   1.349   0.373   4.098 -1.6002  1.2970  0.5581
 5067SOL    HW226835   1.375   0.298   3.971  0.4396  0.7373 -0.9365
 5068SOL     OW26836   4.516   3.330   6.521 -0.6400  0.1450 -0.5545
 5068SOL    HW126837   4.458   3.392   6.477  0.3553  2.1490  0.9923
 5068SOL    HW226838   4.591   3.347   6.464  0.3083  1.3077  1.0458
 5069SOL     OW26839   3.746   1.774  13.672 -0.2486  0.2422 -0.5725
 5069SOL    HW126840   3.668   1.721  13.655 -1.4842  1.3615  1.5619
 5069SOL    HW226841   3.711   1.844  13.728 -0.4957 -0.0261 -0.3957
 5070SOL     OW26842   0.820   2.789  17.623  0.2293  0.2521  0.5467
 5070SOL    HW126843   0.892   2.814  17.565  1.5976  1.2723  2.6602
 5070SOL    HW226844   0.833   2.848  17.698 -0.0898  0.5996  0.3324
 5071SOL     OW26845   3.818   2.361   2.927  0.5038 -0.1320 -0.3740
 5071SOL    HW126846   3.739   2.347   2.874  0.5906 -1.6497 -0.1124
 5071SOL    HW226847   3.787   2.426   2.991  2.7446  0.1748  0.3849
 5072SOL     OW26848   0.597   0.169  12.743 -0.7082  0.4589  0.3539
 5072SOL    HW126849   0.685   0.169  12.706 -0.8167 -1.1972  0.0671
 5072SOL    HW226850   0.617   0.125  12.825 -0.3974  0.4149  0.2551
 5073SOL     OW26851   0.856   3.089   4.659 -0.1322  0.2423 -0.4513
 5073SOL    HW126852   0.793   3.029   4.697  0.7068  1.4752  2.8635
 5073SOL    HW226853   0.851   3.154   4.729 -0.4984  2.0181 -2.0998
 5074SOL     OW26854   1.254   3.823   5.074  0.2506 -0.0516  0.0496
 5074SOL    HW126855   1.223   3.914   5.077 -1.7961 -0.6977 -1.4862
 5074SOL    HW226856   1.308   3.840   4.996 -0.2530 -1.3399 -0.5890
 5075SOL     OW26857   4.549   2.382   0.012 -0.4648 -0.2297 -0.3675
 5075SOL    HW126858   4.638   2.405   0.040 -1.2042  0.3968  1.5254
 5075SOL    HW226859   4.538   2.450  17.687  1.5790  0.0257 -0.4556
 5076SOL     OW26860   2.407   1.130   3.982  0.2195  1.0388  0.1643
 5076SOL    HW126861   2.341   1.101   4.045 -0.8480 -0.1524 -1.4864
 5076SOL    HW226862   2.486   1.126   4.035  0.3968 -2.1727 -0.3323
 5077SOL     OW26863   4.135   3.020   1.981 -0.1993 -0.6381  0.0797
 5077SOL    HW126864   4.141   3.100   1.929  0.3365 -0.0283  1.0634
 5077SOL    HW226865   4.223   2.982   1.975  0.0340 -0.1120  0.2026
 5078SOL     OW26866   3.185   3.569  10.480  0.7901  0.6366  0.0083
 5078SOL    HW126867   3.265   3.573  10.533 -0.5316  1.3080  1.9280
 5078SOL    HW226868   3.177   3.659  10.449  1.0836  0.5475 -0.3340
 5079SOL     OW26869   1.238   4.186   5.463  0.5146  0.5122  0.4033
 5079SOL    HW126870   1.222   4.103   5.419  1.0251  0.4737  0.2921
 5079SOL    HW226871   1.159   4.196   5.516  1.0468  0.9655  1.1201
 5080SOL     OW26872   0.338   2.130  13.318  0.0096  0.6227  0.1533
 5080SOL    HW126873   0.258   2.103  13.363 -0.8312  2.2884 -0.3070
 5080SOL    HW226874   0.350   2.223  13.341 -0.7490  0.3538  1.6522
 5081SOL     OW26875   0.006   0.765   8.941 -0.3645 -0.0321 -0.3413
 5081SOL    HW126876   0.015   0.860   8.937 -1.0658  0.0197 -0.7255
 5081SOL    HW226877   0.073   0.745   9.006 -0.6259  1.2874  0.3326
 5082SOL     OW26878   1.595   2.682  11.295 -0.3604  0.2560  0.0512
 5082SOL    HW126879   1.669   2.709  11.241 -1.4523  2.2275 -0.4863
 5082SOL    HW226880   1.600   2.587  11.291 -0.9806  0.2303 -0.1057
 5083SOL     OW26881   1.951   4.072   6.700 -0.3706 -0.4400  0.4439
 5083SOL    HW126882   1.894   3.999   6.723  0.5108 -1.3730 -0.2686
 5083SOL    HW226883   1.950   4.076   6.604  1.6278  1.5615  0.5098
 5084SOL     OW26884   1.018   3.081  16.278  0.3922 -0.3859 -0.2552
 5084SOL    HW126885   0.971   3.076  16.195 -2.7461 -1.6620  1.6388
 5084SOL    HW226886   0.951   3.116  16.335  0.9719  1.3207 -0.6240
 5085SOL     OW26887   0.426   3.142  14.374  0.4213 -0.2106 -0.1212
 5085SOL    HW126888   0.489   3.151  14.304 -2.4657  0.4674 -2.6446
 5085SOL    HW226889   0.356   3.100  14.323 -1.5340  0.9681  1.5678
 5086SOL     OW26890   1.436   3.551  11.855  0.1605 -0.3205 -0.2822
 5086SOL    HW126891   1.460   3.610  11.927  0.3522 -0.1411 -0.4954
 5086SOL    HW226892   1.498   3.479  11.848  0.1769 -0.3971  0.6464
 5087SOL     OW26893   3.883   3.786  17.087 -0.5411  0.3667 -0.4354
 5087SOL    HW126894   3.793   3.805  17.061 -0.7672 -0.7747 -0.4823
 5087SOL    HW226895   3.929   3.816  17.009 -1.3479 -0.1349 -1.1078
 5088SOL     OW26896   2.227   0.161   3.684  0.2332  0.1173  0.3338
 5088SOL    HW126897   2.268   0.172   3.599  2.2882  0.8475  1.4323
 5088SOL    HW226898   2.134   0.160   3.659  0.4227  0.8091 -0.4073
 5089SOL     OW26899   2.184   1.579   4.123 -0.5013 -0.7664 -0.3950
 5089SOL    HW126900   2.196   1.512   4.190  0.7097  0.8894  1.0586
 5089SOL    HW226901   2.221   1.652   4.172 -0.4835 -0.3363 -1.0480
 5090SOL     OW26902   3.611   4.075  17.090  0.2767  0.6502 -0.4271
 5090SOL    HW126903   3.567   4.159  17.077  0.6240  1.0640  1.0154
 5090SOL    HW226904   3.700   4.092  17.122  0.2374  0.8378 -0.4202
 5091SOL     OW26905   2.149   0.778   6.936 -0.2645 -0.3182 -0.0284
 5091SOL    HW126906   2.089   0.764   6.863 -0.5466  0.3248  0.0725
 5091SOL    HW226907   2.090   0.821   6.998 -1.3837  0.8662 -1.9077
 5092SOL     OW26908   3.142   0.410   6.729 -0.0100  0.1675  0.5813
 5092SOL    HW126909   3.189   0.380   6.652 -0.3295 -0.9012  0.7929
 5092SOL    HW226910   3.074   0.342   6.734 -0.7745  0.9897  1.6848
 5093SOL     OW26911   2.323   0.359   1.899  0.5400  0.1130 -0.3346
 5093SOL    HW126912   2.318   0.360   1.995 -0.5965 -1.0960 -0.3804
 5093SOL    HW226913   2.390   0.292   1.891 -0.1463 -0.1440 -3.6478
 5094SOL     OW26914   3.698   1.529  17.085  0.3148 -0.1096 -0.0867
 5094SOL    HW126915   3.659   1.593  17.144  1.8651  1.7644 -1.0983
 5094SOL    HW226916   3.790   1.547  17.104  0.7549  1.1864 -3.4522
 5095SOL     OW26917   1.830   3.997   7.290  0.1603  0.0822  0.0700
 5095SOL    HW126918   1.922   4.011   7.267 -0.4776  0.7364 -2.0428
 5095SOL    HW226919   1.800   4.087   7.277  0.6974  0.1095 -0.9670
 5096SOL     OW26920   2.921   4.097   1.637 -0.1431  0.0936  0.3704
 5096SOL    HW126921   2.856   4.031   1.661  0.4138 -0.9960 -1.1335
 5096SOL    HW226922   2.906   4.165   1.703 -0.5217  0.8965 -0.5522
 5097SOL     OW26923   1.490   0.863   0.798  0.0863 -0.0310  0.1739
 5097SOL    HW126924   1.487   0.824   0.711  2.4583 -2.2268  1.0685
 5097SOL    HW226925   1.425   0.805   0.837  0.7397 -0.2464  0.9586
 5098SOL     OW26926   4.033   1.648   4.283  0.3158  0.0643  1.3456
 5098SOL    HW126927   4.102   1.704   4.318  0.9095  0.5556 -0.6087
 5098SOL    HW226928   4.028   1.584   4.354  2.2807  1.8307  3.0811
 5099SOL     OW26929   1.475   2.555   7.010 -0.9152  0.7945  0.0378
 5099SOL    HW126930   1.564   2.553   7.044 -0.9845  2.1045  0.2939
 5099SOL    HW226931   1.435   2.595   7.087  1.3925 -0.1707  1.7340
 5100SOL     OW26932   3.474   0.705   7.323 -0.0138 -0.1615  0.2781
 5100SOL    HW126933   3.440   0.713   7.234  0.3022  0.4020  0.2088
 5100SOL    HW226934   3.537   0.634   7.311 -0.2085 -0.0099 -1.5633
 5101SOL     OW26935   1.030   2.562   3.126 -0.1411  0.9045 -0.2209
 5101SOL    HW126936   1.105   2.542   3.182 -0.4150 -0.0331 -0.1948
 5101SOL    HW226937   0.962   2.505   3.160 -2.0651  3.0552 -0.4907
 5102SOL     OW26938   2.591   2.380   2.577  0.2500 -0.2675  0.0560
 5102SOL    HW126939   2.634   2.379   2.662  0.6685  1.4146 -0.1274
 5102SOL    HW226940   2.533   2.456   2.569  0.0139 -0.6831 -2.1730
 5103SOL     OW26941   3.055   1.783   9.887  0.3087  0.8304  0.2241
 5103SOL    HW126942   2.969   1.780   9.928  1.0164 -0.8839  1.5970
 5103SOL    HW226943   3.111   1.771   9.963  0.0848 -1.1501  0.0656
 5104SOL     OW26944   1.335   3.403   8.955  0.3223  0.0430  0.0549
 5104SOL    HW126945   1.327   3.467   8.884  1.0972  1.2088  1.0017
 5104SOL    HW226946   1.251   3.415   9.000 -0.5199  1.2486 -1.8545
 5105SOL     OW26947   1.339   1.533   4.399  0.4897  0.0551  0.1767
 5105SOL    HW126948   1.270   1.477   4.434  2.2978 -1.3000  1.6188
 5105SOL    HW226949   1.353   1.476   4.324 -2.1626  0.3288 -0.5155
 5106SOL     OW26950   1.666   1.742   9.252 -0.0213 -0.4064  0.0879
 5106SOL    HW126951   1.586   1.702   9.219  1.3292 -0.9731 -2.5417
 5106SOL    HW226952   1.718   1.678   9.301  1.3540 -0.4350 -1.4021
 5107SOL     OW26953   3.302   2.793  15.802  0.0007 -0.1596 -0.3117
 5107SOL    HW126954   3.332   2.714  15.847  0.8036 -0.6787 -1.7377
 5107SOL    HW226955   3.284   2.859  15.869  5.1759  0.4869  0.4044
 5108SOL     OW26956   2.735   3.303   6.604 -0.0312  0.4203  0.0573
 5108SOL    HW126957   2.742   3.297   6.699 -0.3641 -0.5669  0.0220
 5108SOL    HW226958   2.667   3.369   6.592 -1.9268 -1.2733  1.4309
 5109SOL     OW26959   1.045   1.152   9.185 -0.4311  0.2617 -0.2111
 5109SOL    HW126960   1.061   1.070   9.140  1.3677  0.0487  0.8398
 5109SOL    HW226961   1.106   1.145   9.258  0.1780  0.2946 -0.7189
 5110SOL     OW26962   4.198   3.675   3.247  0.2910  0.1159  0.1440
 5110SOL    HW126963   4.200   3.762   3.287  1.8150 -0.0534  0.4409
 5110SOL    HW226964   4.121   3.633   3.285  0.0964 -1.6277 -2.2047
 5111SOL     OW26965   1.051   0.561   4.774  0.6287  0.3345  0.1623
 5111SOL    HW126966   0.978   0.613   4.809  0.7180  1.2393 -1.0146
 5111SOL    HW226967   1.120   0.612   4.816  0.8294 -0.0146  0.2561
 5112SOL     OW26968   1.184   1.618   0.553 -0.0835 -0.0314 -0.1859
 5112SOL    HW126969   1.139   1.537   0.578 -0.9158  0.4394 -0.1812
 5112SOL    HW226970   1.124   1.677   0.598 -3.3850 -2.9623 -0.7523
 5113SOL     OW26971   2.035   4.133   6.043 -0.1752 -0.3223 -0.0620
 5113SOL    HW126972   2.047   4.065   5.977  0.6161  0.1433 -0.4039
 5113SOL    HW226973   1.958   4.116   6.095  0.9426  1.0094  2.0216
 5114SOL     OW26974   1.188   2.621  16.892  0.1236 -0.4642 -0.1691
 5114SOL    HW126975   1.282   2.638  16.880  0.1374 -1.6948 -1.6956
 5114SOL    HW226976   1.160   2.599  16.803  1.0921 -2.2997 -0.0248
 5115SOL     OW26977   3.525   3.081  13.551 -0.1622  0.1541 -0.4597
 5115SOL    HW126978   3.523   3.134  13.472  0.2713 -0.9144 -1.1932
 5115SOL    HW226979   3.516   3.154  13.612  2.7716  0.6823 -0.6477
 5116SOL     OW26980   0.548   0.373   4.670 -1.1629  0.0537  0.8693
 5116SOL    HW126981   0.526   0.447   4.727 -0.7021  0.5103  0.4621
 5116SOL    HW226982   0.636   0.387   4.634 -1.6339  2.3983  0.6317
 5117SOL     OW26983   4.574   2.791   3.257 -0.4615 -0.0167  0.0554
 5117SOL    HW126984   4.513   2.798   3.184  0.2067  3.1158 -0.1987
 5117SOL    HW226985   4.559   2.697   3.269 -1.1894  0.1276  0.3109
 5118SOL     OW26986   4.504   1.225  10.032 -0.1549  0.3167 -0.0766
 5118SOL    HW126987   4.435   1.283  10.001 -1.3146 -0.6950  0.6037
 5118SOL    HW226988   4.491   1.155   9.968  0.9271 -2.2294  2.4777
 5119SOL     OW26989   3.154   1.794   5.998 -0.1744  0.6010  0.3237
 5119SOL    HW126990   3.125   1.703   5.992  0.0487  0.4484  1.4903
 5119SOL    HW226991   3.076   1.845   6.020 -0.7588 -0.5814  1.0422
 5120SOL     OW26992   3.344   2.670  12.001 -0.1684 -0.7878 -0.4435
 5120SOL    HW126993   3.423   2.696  11.953  0.8836 -0.9430  1.2127
 5120SOL    HW226994   3.393   2.624  12.069  0.7459  0.4868 -0.2470
 5121SOL     OW26995   4.007   2.459   4.488 -0.0427 -0.4448  0.4535
 5121SOL    HW126996   4.064   2.510   4.431 -0.3637  0.2736  0.7817
 5121SOL    HW226997   3.959   2.411   4.420 -0.8378 -1.6369  1.8533
 5122SOL     OW26998   0.788   2.262   4.089 -0.3442  0.0323 -0.0606
 5122SOL    HW126999   0.719   2.307   4.138 -0.4596  0.6104 -0.7593
 5122SOL    HW227000   0.737   2.240   4.011 -0.9522  0.3789  0.2398
 5123SOL     OW27001   1.383   0.212  15.747  0.4548  0.2270 -0.5183
 5123SOL    HW127002   1.334   0.131  15.761 -0.1290  0.2955 -2.1708
 5123SOL    HW227003   1.468   0.188  15.785  0.4772  1.4053  0.1528
 5124SOL     OW27004   2.736   0.879   3.101 -1.0045 -0.1234 -0.4559
 5124SOL    HW127005   2.786   0.911   3.027 -1.5851 -0.7127 -1.1070
 5124SOL    HW227006   2.698   0.959   3.136 -0.6173  0.0242 -0.3735
 5125SOL     OW27007   1.419   3.495  15.226 -0.3338  0.0134 -0.1686
 5125SOL    HW127008   1.334   3.540  15.231 -1.8937 -2.8683 -1.1073
 5125SOL    HW227009   1.472   3.571  15.204  0.6337 -0.3725  0.7973
 5126SOL     OW27010   2.325   2.976  11.661  0.0493 -0.2632  0.0579
 5126SOL    HW127011   2.338   2.904  11.600  1.4494 -1.1893  1.4621
 5126SOL    HW227012   2.277   2.951  11.740 -0.4633 -0.6267 -0.3741
 5127SOL     OW27013   3.038   2.142  17.215  0.0512  0.0510 -0.8031
 5127SOL    HW127014   2.943   2.138  17.201  0.2727  0.9020 -2.5421
 5127SOL    HW227015   3.078   2.071  17.165 -1.4206  0.3389 -2.3594
 5128SOL     OW27016   2.984   1.192   9.786 -0.1352  0.2730 -0.3072
 5128SOL    HW127017   3.064   1.238   9.813  1.7569 -2.5487 -1.1054
 5128SOL    HW227018   2.998   1.196   9.692 -1.5798 -2.3555 -0.6154
 5129SOL     OW27019   2.171   4.653   7.245  0.3840 -0.1809  0.6343
 5129SOL    HW127020   2.089   4.605   7.239  1.2988 -1.8121  1.1392
 5129SOL    HW227021   2.236   4.583   7.256  0.1831 -0.2987  1.0591
 5130SOL     OW27022   0.629   2.965   4.458  0.4462 -0.0913  0.0921
 5130SOL    HW127023   0.568   2.891   4.467  1.1053 -0.9289 -2.1366
 5130SOL    HW227024   0.623   3.013   4.540 -1.3354  2.1668 -1.3618
 5131SOL     OW27025   3.353   0.020  14.872  0.0122 -0.2668 -0.3889
 5131SOL    HW127026   3.335   0.108  14.839 -0.2990  0.1736  0.9174
 5131SOL    HW227027   3.289   4.704  14.824  1.8814 -1.6589 -1.3468
 5132SOL     OW27028   0.172   4.158  15.736  0.5298  0.3074 -0.2753
 5132SOL    HW127029   0.235   4.222  15.704 -0.0076  0.6490 -0.6318
 5132SOL    HW227030   0.186   4.088  15.672 -1.0612  0.1395 -0.4333
 5133SOL     OW27031   3.734   0.100   7.412  0.0360 -0.7924 -0.1374
 5133SOL    HW127032   3.696   0.186   7.390  1.5143 -0.5519 -1.7284
 5133SOL    HW227033   3.715   0.112   7.505  2.5532 -1.8867  0.4879
 5134SOL     OW27034   4.337   4.013   7.661  0.5300  0.2704 -0.4499
 5134SOL    HW127035   4.412   3.983   7.610 -0.4269 -1.3105 -0.9261
 5134SOL    HW227036   4.364   3.978   7.746  0.4814  1.9427  0.2547
 5135SOL     OW27037   0.347   1.774   9.410 -0.1942  0.0881  0.2460
 5135SOL    HW127038   0.389   1.803   9.329 -2.0155  0.3406 -0.5933
 5135SOL    HW227039   0.274   1.835   9.402 -1.4165 -1.2786  0.9351
 5136SOL     OW27040   0.345   1.226  17.364 -0.2033 -0.7360  0.3853
 5136SOL    HW127041   0.337   1.217  17.459 -4.4939  2.6415  0.3134
 5136SOL    HW227042   0.320   1.135  17.347 -0.0846 -0.4309 -1.3541
 5137SOL     OW27043   3.420   3.503  12.106  0.3012 -0.0743 -0.0160
 5137SOL    HW127044   3.435   3.413  12.135 -1.5581 -0.0323  1.0869
 5137SOL    HW227045   3.501   3.526  12.062  1.2806 -0.2651  1.6743
 5138SOL     OW27046   2.262   0.000   4.534  0.1472 -0.6461 -0.2870
 5138SOL    HW127047   2.175   0.038   4.543  0.1148 -0.9812  0.7492
 5138SOL    HW227048   2.250   4.695   4.448 -0.5776  0.0822 -0.5328
 5139SOL     OW27049   1.467   0.709   4.297 -0.0695 -0.1603 -0.5726
 5139SOL    HW127050   1.438   0.799   4.313  0.5965  0.2677 -1.7691
 5139SOL    HW227051   1.441   0.697   4.205  1.3360 -1.2886 -0.8172
 5140SOL     OW27052   3.008   0.612   7.934  0.4220  0.1771  0.5186
 5140SOL    HW127053   2.986   0.629   7.843 -0.5900  0.5313  0.8323
 5140SOL    HW227054   3.095   0.647   7.950 -0.0319  0.8323  1.6153
 5141SOL     OW27055   2.955   0.537  11.566  0.2202 -0.4335  0.5341
 5141SOL    HW127056   3.036   0.571  11.604 -0.0149  2.8200 -1.9325
 5141SOL    HW227057   2.891   0.585  11.618  1.4932  1.8795 -0.0383
 5142SOL     OW27058   4.526   2.113   1.435  0.5355  0.1096  0.0363
 5142SOL    HW127059   4.581   2.180   1.395  1.1956  0.1078  0.9421
 5142SOL    HW227060   4.533   2.138   1.527  0.9219  2.5248 -0.6540
 5143SOL     OW27061   4.452   3.584   7.706 -0.0513  0.3178  0.1063
 5143SOL    HW127062   4.473   3.613   7.795  1.6774 -0.1633 -0.1257
 5143SOL    HW227063   4.397   3.507   7.721  1.3239 -0.9086 -1.0225
 5144SOL     OW27064   0.164   4.185   7.396  0.3616  0.3319 -0.2851
 5144SOL    HW127065   0.185   4.129   7.471 -1.3421 -0.1574 -0.1860
 5144SOL    HW227066   0.071   4.201   7.410  0.6204  0.3620  1.3974
 5145SOL     OW27067   2.983   1.899  10.222  0.4418 -0.2839 -0.2739
 5145SOL    HW127068   3.021   1.845  10.153  0.3798  0.1849 -0.6717
 5145SOL    HW227069   3.035   1.867  10.296 -0.6080  0.8216  0.9575
 5146SOL     OW27070   2.877   0.945   1.802  0.6588  0.6879  0.2796
 5146SOL    HW127071   2.834   0.863   1.777  2.0286 -0.6405  2.2145
 5146SOL    HW227072   2.851   0.997   1.727  0.2107  0.8763  0.5671
 5147SOL     OW27073   2.306   2.552   0.899 -0.0890 -0.3422  0.3476
 5147SOL    HW127074   2.360   2.493   0.845 -1.5888 -0.9101 -0.5247
 5147SOL    HW227075   2.364   2.557   0.975 -0.4844 -0.4833  0.6577
 5148SOL     OW27076   3.556   2.410   7.504 -0.5792 -0.4420 -0.1479
 5148SOL    HW127077   3.587   2.349   7.571  0.0773 -1.9383 -1.8327
 5148SOL    HW227078   3.492   2.353   7.462 -0.1120 -0.7168 -0.4921
 5149SOL     OW27079   1.651   1.946   4.859 -0.1514 -0.6783  0.2359
 5149SOL    HW127080   1.597   2.021   4.836  2.6161  0.9650 -0.9538
 5149SOL    HW227081   1.597   1.870   4.880  0.2643 -1.0301  0.0320
 5150SOL     OW27082   1.488   2.510   9.103 -0.5787  0.6717  0.0570
 5150SOL    HW127083   1.565   2.508   9.160 -2.8681  1.5194  3.1363
 5150SOL    HW227084   1.527   2.519   9.016 -0.0670 -1.9386  0.0303
 5151SOL     OW27085   3.711   3.575   3.993  0.3915  0.2539  0.3396
 5151SOL    HW127086   3.796   3.573   3.950 -0.0272 -1.2712 -0.3958
 5151SOL    HW227087   3.671   3.491   3.970  1.7230 -0.3724  0.3098
 5152SOL     OW27088   4.569   1.670   6.666  0.1505 -0.3456 -0.3760
 5152SOL    HW127089   4.571   1.719   6.584  0.9592 -2.4223 -1.5990
 5152SOL    HW227090   4.547   1.579   6.647 -0.6119 -0.2555  0.0735
 5153SOL     OW27091   2.125   1.512   5.567  0.4884  0.6970  0.4209
 5153SOL    HW127092   2.036   1.532   5.597  0.7163  1.2187  0.7446
 5153SOL    HW227093   2.093   1.468   5.488  0.7520 -1.1210  1.3305
 5154SOL     OW27094   4.250   0.280  11.118  0.1346  0.4435  0.2310
 5154SOL    HW127095   4.207   0.266  11.202  1.7196 -1.3690  0.7575
 5154SOL    HW227096   4.178   0.306  11.061  1.1106  1.1136 -0.6895
 5155SOL     OW27097   1.916   1.208   4.769  0.6209 -0.2442 -0.1176
 5155SOL    HW127098   1.985   1.191   4.834  2.2843  0.0139 -1.8215
 5155SOL    HW227099   1.874   1.283   4.811 -0.5578 -2.2234  2.2658
 5156SOL     OW27100   0.505   4.467  16.898  0.5032 -0.5396  0.1831
 5156SOL    HW127101   0.487   4.561  16.901  1.4239 -0.4086  1.2096
 5156SOL    HW227102   0.438   4.438  16.960  3.0584 -1.4860  2.5168
 5157SOL     OW27103   4.233   2.506  12.811 -0.1956 -0.6597 -0.0265
 5157SOL    HW127104   4.287   2.585  12.801 -0.5210 -0.3315  0.7749
 5157SOL    HW227105   4.195   2.501  12.899 -0.2295 -0.5413 -0.0344
 5158SOL     OW27106   2.992   2.216   8.702 -0.3532  0.2188 -0.2441
 5158SOL    HW127107   2.940   2.162   8.642 -1.0086  0.6919 -0.1121
 5158SOL    HW227108   3.053   2.266   8.649 -1.3583  3.5363  1.6898
 5159SOL     OW27109   3.230   0.211   5.928  0.0815  0.7116 -0.2677
 5159SOL    HW127110   3.283   0.180   6.002  1.3901  1.1967 -1.0068
 5159SOL    HW227111   3.212   0.126   5.887  1.2496  0.0254  0.6196
 5160SOL     OW27112   0.306   1.649   8.178  0.5446 -0.2494 -0.1551
 5160SOL    HW127113   0.287   1.709   8.105  1.4568 -0.4194 -0.5328
 5160SOL    HW227114   0.277   1.574   8.128  0.2712 -0.4110  0.2472
 5161SOL     OW27115   4.725   2.094   2.570 -0.3237  0.1512  0.1162
 5161SOL    HW127116   4.651   2.113   2.513 -0.2856 -0.2285 -0.0560
 5161SOL    HW227117   4.720   2.136   2.657 -0.2785 -0.4367  0.4022
 5162SOL     OW27118   3.677   0.640   6.059 -0.3326 -0.0256  0.0043
 5162SOL    HW127119   3.761   0.610   6.094  0.2977  0.2364 -1.2751
 5162SOL    HW227120   3.690   0.734   6.052  2.3334 -0.7340 -4.9637
 5163SOL     OW27121   2.597   4.385  14.171 -0.0224  1.0547 -0.1957
 5163SOL    HW127122   2.569   4.462  14.222 -1.8092  1.9973 -2.6053
 5163SOL    HW227123   2.626   4.418  14.086  0.3934  1.2372  0.0129
 5164SOL     OW27124   3.707   3.666   8.586 -0.7305 -0.1990 -0.0565
 5164SOL    HW127125   3.673   3.586   8.544  1.1458 -1.6324  1.1870
 5164SOL    HW227126   3.631   3.717   8.615 -0.6631  0.5763 -1.2412
 5165SOL     OW27127   1.415   0.076   7.626  0.1973  0.0075 -0.3555
 5165SOL    HW127128   1.395   0.093   7.534  0.5286  0.0409 -0.4193
 5165SOL    HW227129   1.491   0.134   7.623 -0.9313  1.3596 -2.8376
 5166SOL     OW27130   3.891   4.511   7.034 -0.5610  0.0252  0.1065
 5166SOL    HW127131   3.960   4.575   7.050 -0.8995  0.6441 -0.8989
 5166SOL    HW227132   3.823   4.557   6.985 -1.1718 -2.2436 -1.1452
 5167SOL     OW27133   3.487   1.562   8.241  0.5029 -0.7562 -0.1546
 5167SOL    HW127134   3.443   1.550   8.156 -1.1073  1.2927  0.3858
 5167SOL    HW227135   3.576   1.528   8.230  0.2744 -1.1874 -0.7013
 5168SOL     OW27136   0.718   4.080   6.594  0.3027 -0.2735  0.0057
 5168SOL    HW127137   0.761   4.019   6.654  1.6472  0.2576 -0.4232
 5168SOL    HW227138   0.645   4.094   6.654 -0.8473 -1.9414 -1.0194
 5169SOL     OW27139   2.270   1.457  15.618  0.1343  0.1310  0.1047
 5169SOL    HW127140   2.316   1.530  15.660  1.4229 -1.0233  0.7199
 5169SOL    HW227141   2.288   1.465  15.525  2.1110 -1.0157  0.3698
 5170SOL     OW27142   3.708   0.450   4.644 -0.5863 -0.2007  0.1005
 5170SOL    HW127143   3.662   0.521   4.598  1.6472  1.2156  0.0672
 5170SOL    HW227144   3.711   0.482   4.734 -0.8966  0.5552 -0.1595
 5171SOL     OW27145   3.767   1.326   1.677 -0.5052 -0.9767 -0.2249
 5171SOL    HW127146   3.697   1.346   1.739  0.3221  1.0197  0.0297
 5171SOL    HW227147   3.785   1.412   1.641  0.2738 -1.2720 -0.5250
 5172SOL     OW27148   1.921   4.650   2.524  0.6798  0.8689  0.7908
 5172SOL    HW127149   1.835   4.609   2.516  0.7233  1.0803 -0.7190
 5172SOL    HW227150   1.927   4.683   2.614 -1.4064 -2.0692  2.0184
 5173SOL     OW27151   4.323   2.589   2.709  0.1105 -0.4458 -0.1982
 5173SOL    HW127152   4.242   2.542   2.731 -0.5678  0.0612 -1.6558
 5173SOL    HW227153   4.310   2.676   2.747 -0.2087 -0.4848 -0.2174
 5174SOL     OW27154   3.622   1.918   2.392 -0.0918  0.3853 -0.0882
 5174SOL    HW127155   3.604   1.960   2.476  1.8459  0.2832  0.3880
 5174SOL    HW227156   3.672   1.839   2.415 -0.0416  0.1390 -1.0373
 5175SOL     OW27157   0.697   2.246   3.003  0.5049  0.3667 -0.1644
 5175SOL    HW127158   0.634   2.176   2.984  0.2114  0.5388  0.1705
 5175SOL    HW227159   0.638   2.321   2.996  1.3181  1.2339  2.0651
 5176SOL     OW27160   3.488   3.663   2.612 -0.0006  0.1552  0.0559
 5176SOL    HW127161   3.484   3.604   2.536  0.5340 -0.9730  0.8987
 5176SOL    HW227162   3.519   3.747   2.577  0.0526  0.2273  0.2770
 5177SOL     OW27163   3.384   1.913  12.420 -0.0666 -0.5807  0.4255
 5177SOL    HW127164   3.421   1.856  12.487  1.4366 -0.1858 -0.0715
 5177SOL    HW227165   3.290   1.894  12.417 -0.2513  0.6767 -1.6499
 5178SOL     OW27166   2.855   0.021  15.541 -0.6458 -0.5754  0.1467
 5178SOL    HW127167   2.863   4.686  15.477 -2.3637  1.3696 -2.2322
 5178SOL    HW227168   2.766   0.050  15.522  0.2606  2.3946  0.5024
 5179SOL     OW27169   1.758   0.404   1.287  0.0231 -0.5539 -0.0252
 5179SOL    HW127170   1.814   0.338   1.248 -0.5653 -0.8632 -0.3573
 5179SOL    HW227171   1.749   0.476   1.224 -2.9525  1.0013  2.1473
 5180SOL     OW27172   0.106   2.940   8.865  0.6754  0.1415  0.2410
 5180SOL    HW127173   0.051   2.997   8.919 -1.0876 -1.9758  0.6673
 5180SOL    HW227174   0.037   2.914   8.804 -0.8160  4.4542  0.0674
 5181SOL     OW27175   3.152   4.203   6.891 -0.8397 -0.2015  0.7940
 5181SOL    HW127176   3.209   4.164   6.825 -0.8834 -1.2876  1.3966
 5181SOL    HW227177   3.149   4.130   6.953 -0.4471  0.2244  1.3111
 5182SOL     OW27178   0.132   0.351  16.713  0.0256 -0.0107  0.6032
 5182SOL    HW127179   0.085   0.303  16.645 -0.2213 -0.0735  0.8189
 5182SOL    HW227180   0.068   0.402  16.762 -1.9827 -1.5564 -0.4202
 5183SOL     OW27181   4.359   2.192   8.877 -0.2971  0.3648  0.2008
 5183SOL    HW127182   4.295   2.140   8.828  0.7919 -0.4189 -0.3676
 5183SOL    HW227183   4.334   2.161   8.964 -0.3350 -2.2629 -0.7553
 5184SOL     OW27184   1.841   3.548   7.057  0.2571  0.4802 -0.9611
 5184SOL    HW127185   1.759   3.499   7.045 -1.4321  3.0630 -0.0826
 5184SOL    HW227186   1.826   3.587   7.143  2.1505  1.0502 -0.8912
 5185SOL     OW27187   3.441   2.916  14.939  0.2064 -0.3986  0.1568
 5185SOL    HW127188   3.466   3.008  14.946  0.2032 -0.4753  1.2276
 5185SOL    HW227189   3.447   2.892  14.847 -0.2760  1.1796 -0.2855
 5186SOL     OW27190   0.764   2.733   6.871  0.2194 -0.1790  0.1732
 5186SOL    HW127191   0.796   2.777   6.792 -1.2231  1.4593  0.4810
 5186SOL    HW227192   0.738   2.651   6.831 -0.4812 -0.0030  0.2615
 5187SOL     OW27193   2.344   2.750   8.037  0.4090  0.2865  0.5683
 5187SOL    HW127194   2.417   2.808   8.059  0.4518  0.7055 -0.7231
 5187SOL    HW227195   2.281   2.812   8.000  0.8968 -0.9641 -2.3155
 5188SOL     OW27196   3.201   0.033  14.280 -0.3947  0.1750  0.2204
 5188SOL    HW127197   3.199   4.723  14.196 -1.1064  0.3550  0.1397
 5188SOL    HW227198   3.173   4.693  14.332  2.1093 -0.5183  0.5876
 5189SOL     OW27199   3.379   2.791  10.553 -0.2649 -0.1483 -0.3355
 5189SOL    HW127200   3.371   2.697  10.540  0.2617 -0.2350 -0.0516
 5189SOL    HW227201   3.390   2.795  10.648 -1.1929  1.4746 -0.2916
 5190SOL     OW27202   4.374   2.161   0.468  0.0324  0.3811  0.0099
 5190SOL    HW127203   4.413   2.212   0.397 -0.5785 -1.1896 -1.4413
 5190SOL    HW227204   4.305   2.112   0.423  0.9820 -0.6690 -0.2969
 5191SOL     OW27205   1.493   4.056   3.336 -0.5396 -0.1267  0.4187
 5191SOL    HW127206   1.401   4.047   3.311 -1.6712  0.3997  4.4093
 5191SOL    HW227207   1.536   3.971   3.325  0.2206  0.1671  1.1042
 5192SOL     OW27208   2.989   0.708   7.369  0.1246 -0.3607 -0.2048
 5192SOL    HW127209   3.018   0.743   7.284  1.2698 -1.0713 -0.1044
 5192SOL    HW227210   2.984   0.616   7.346  0.7245 -0.3030 -0.5782
 5193SOL     OW27211   3.378   2.175   3.491 -0.4402  0.0381 -0.0524
 5193SOL    HW127212   3.423   2.097   3.458 -1.4724 -1.3765  1.9238
 5193SOL    HW227213   3.350   2.215   3.409 -1.6948  0.0054  0.3658
 5194SOL     OW27214   4.030   0.874  13.198  0.5521 -0.3205 -0.2962
 5194SOL    HW127215   4.107   0.824  13.223 -1.2108 -2.4733  0.7315
 5194SOL    HW227216   4.055   0.916  13.116 -1.9119  1.8132  0.0475
 5195SOL     OW27217   1.357   0.598   2.231  0.4374  0.4005  0.3595
 5195SOL    HW127218   1.425   0.559   2.175 -0.4934 -0.1279 -0.4008
 5195SOL    HW227219   1.283   0.592   2.171  1.6359  2.5369 -1.3516
 5196SOL     OW27220   0.672   1.093  14.414 -0.8569 -0.0725  0.5981
 5196SOL    HW127221   0.646   1.059  14.500  0.3893  4.0347  2.5642
 5196SOL    HW227222   0.727   1.023  14.378  0.9939  0.4739  2.3593
 5197SOL     OW27223   3.505   1.960  14.578  0.0797  0.2252  0.1504
 5197SOL    HW127224   3.492   1.927  14.489  0.0619  1.6797 -0.3931
 5197SOL    HW227225   3.590   1.931  14.611 -0.2087 -0.7621  0.0206
 5198SOL     OW27226   4.067   0.259   7.395  0.3105 -0.2948  0.8385
 5198SOL    HW127227   4.103   0.310   7.468  1.1665 -0.2361  0.3840
 5198SOL    HW227228   4.109   0.304   7.322  4.0383 -0.5997  2.7344
 5199SOL     OW27229   2.613   2.183  17.427  0.2185 -0.4465 -0.6669
 5199SOL    HW127230   2.538   2.241  17.413  1.6842  2.1254  2.0728
 5199SOL    HW227231   2.672   2.234  17.483 -1.2432 -0.5205  0.9425
 5200SOL     OW27232   1.045   1.299   4.707  0.0310 -0.6229  0.2192
 5200SOL    HW127233   0.987   1.303   4.782  0.5742  1.4367  0.5248
 5200SOL    HW227234   1.131   1.312   4.746  1.2677  1.8111 -3.2591
 5201SOL     OW27235   1.982   1.422  14.939  0.3155  0.1659 -0.5958
 5201SOL    HW127236   1.973   1.513  14.910 -0.1849  0.6778  1.1631
 5201SOL    HW227237   1.997   1.380  14.855 -0.8653  0.5168 -0.9797
 5202SOL     OW27238   2.958   0.665  12.692  0.0560  0.1919  0.1825
 5202SOL    HW127239   2.907   0.720  12.633  3.8597  1.9559 -1.5235
 5202SOL    HW227240   2.954   0.726  12.765 -1.7804 -0.1823  0.3716
 5203SOL     OW27241   2.642   2.963   2.197 -0.5946  0.0843  0.7766
 5203SOL    HW127242   2.707   2.896   2.220 -1.7657 -0.6181  2.1131
 5203SOL    HW227243   2.675   3.040   2.242 -1.4761  1.1152 -0.3461
 5204SOL     OW27244   0.759   3.320   9.070  0.3785 -0.2610 -0.4104
 5204SOL    HW127245   0.704   3.246   9.043 -1.3473  0.6488  0.5980
 5204SOL    HW227246   0.843   3.287   9.038  0.9007 -0.5692  1.2757
 5205SOL     OW27247   1.632   1.490   2.623  0.4507  0.4114  0.4399
 5205SOL    HW127248   1.546   1.448   2.636 -0.8149  2.9119  0.0890
 5205SOL    HW227249   1.620   1.520   2.534  1.3810 -3.4693 -1.0002
 5206SOL     OW27250   3.206   0.123   6.429 -0.4578 -0.0548  0.3556
 5206SOL    HW127251   3.173   0.129   6.340  0.9235  2.8976  0.0575
 5206SOL    HW227252   3.231   0.214   6.444  1.0363 -0.2904 -0.6788
 5207SOL     OW27253   1.325   3.949  11.580  0.1203  0.0699  0.1108
 5207SOL    HW127254   1.291   3.938  11.491 -1.7915  1.3815  0.6989
 5207SOL    HW227255   1.377   4.029  11.567 -0.8522  0.7382  0.3293
 5208SOL     OW27256   2.638   3.872   6.941 -0.3318  0.2309 -0.1409
 5208SOL    HW127257   2.663   3.806   6.877  1.7040 -0.1504  1.0521
 5208SOL    HW227258   2.573   3.827   6.995  1.4594 -0.9466  1.0273
 5209SOL     OW27259   2.293   3.266   4.241 -0.7018 -0.2777 -0.3650
 5209SOL    HW127260   2.387   3.252   4.233 -0.7112  0.2684 -1.3990
 5209SOL    HW227261   2.279   3.332   4.174 -0.5725 -1.5343 -1.6355
 5210SOL     OW27262   3.484   0.569   2.452 -0.0111 -0.0282  1.1030
 5210SOL    HW127263   3.575   0.592   2.433 -0.2382  0.9580  1.2561
 5210SOL    HW227264   3.491   0.474   2.465  1.4803 -0.1893 -0.7558
 5211SOL     OW27265   4.377   2.219   0.750  0.6014 -0.3158 -0.0984
 5211SOL    HW127266   4.315   2.155   0.784  1.3324 -1.9803 -1.8389
 5211SOL    HW227267   4.366   2.205   0.656 -1.7646 -0.7781  0.2478
 5212SOL     OW27268   2.432   1.889   8.583 -0.3902 -0.5455 -0.7105
 5212SOL    HW127269   2.388   1.954   8.638 -1.3896 -0.5812 -1.4811
 5212SOL    HW227270   2.440   1.934   8.499  2.6228  0.6932  0.2160
 5213SOL     OW27271   0.817   4.270   8.619  0.3822  0.0954 -0.0899
 5213SOL    HW127272   0.911   4.284   8.616  0.3947  0.0698  0.1710
 5213SOL    HW227273   0.813   4.178   8.645  1.8035 -0.0595 -0.4311
 5214SOL     OW27274   0.245   3.719   6.315  0.1373  0.3043 -0.1340
 5214SOL    HW127275   0.155   3.690   6.326  0.5811 -1.2143 -0.5165
 5214SOL    HW227276   0.274   3.660   6.245 -1.8986  1.2902 -1.7835
 5215SOL     OW27277   3.793   3.495   5.761 -0.0354 -0.4052  0.2661
 5215SOL    HW127278   3.702   3.486   5.789  0.3569  0.6491  1.8771
 5215SOL    HW227279   3.773   3.475   5.670  0.5214 -3.7028  0.8662
 5216SOL     OW27280   1.797   2.548   3.114  0.0144 -0.1884 -0.0269
 5216SOL    HW127281   1.847   2.605   3.056  1.0302 -0.5772  0.4691
 5216SOL    HW227282   1.805   2.592   3.199 -0.0374 -0.1792 -0.0266
 5217SOL     OW27283   2.458   4.526   9.993 -0.2100 -0.0830  0.6605
 5217SOL    HW127284   2.428   4.578  10.068  1.6156 -1.8448  2.5870
 5217SOL    HW227285   2.544   4.564   9.977 -1.5389  1.8501 -1.9769
 5218SOL     OW27286   0.623   1.686  10.260  0.4145 -0.4984 -0.0285
 5218SOL    HW127287   0.698   1.735  10.227  0.2784  0.4124  1.0303
 5218SOL    HW227288   0.589   1.757  10.315 -1.2181 -2.1683  1.1279
 5219SOL     OW27289   1.585   4.544   8.074 -0.2585  0.0488 -0.3512
 5219SOL    HW127290   1.556   4.581   8.158 -0.8781 -2.2527  0.4661
 5219SOL    HW227291   1.670   4.587   8.075 -0.0124 -0.4343 -1.1507
 5220SOL     OW27292   2.522   2.826   1.981 -0.2743  0.7614 -0.3138
 5220SOL    HW127293   2.515   2.908   1.932 -0.3174  0.5462 -0.6649
 5220SOL    HW227294   2.580   2.866   2.046  0.6058  0.5764 -0.9932
 5221SOL     OW27295   3.572   1.218   5.101 -0.2828  0.1683  0.6260
 5221SOL    HW127296   3.499   1.242   5.158 -1.8526  0.1108 -1.3618
 5221SOL    HW227297   3.601   1.309   5.088 -0.2926  0.0958  0.0967
 5222SOL     OW27298   4.540   3.888   6.804 -0.3519  0.8355 -0.2829
 5222SOL    HW127299   4.545   3.823   6.734 -0.9593  0.3634  0.1040
 5222SOL    HW227300   4.548   3.968   6.752  1.1097  0.2542 -0.9249
 5223SOL     OW27301   0.190   3.658  13.279  0.2496  0.4616 -0.1725
 5223SOL    HW127302   0.265   3.680  13.224 -0.1332  2.6878  0.1885
 5223SOL    HW227303   0.154   3.589  13.223  1.0645  0.2093 -0.3788
 5224SOL     OW27304   3.904   2.829   3.948  0.2710  0.2364  0.4064
 5224SOL    HW127305   3.888   2.914   3.990 -1.1358 -0.5302  1.4287
 5224SOL    HW227306   3.820   2.802   3.912 -0.7636  0.4000  2.7017
 5225SOL     OW27307   4.395   2.289   0.215 -0.2245 -0.1364 -0.0995
 5225SOL    HW127308   4.307   2.300   0.177  0.1042  0.8917 -0.5590
 5225SOL    HW227309   4.450   2.334   0.151  0.4023 -1.1571 -0.2747
 5226SOL     OW27310   3.645   3.376   7.323  0.0095 -0.1827  0.0094
 5226SOL    HW127311   3.688   3.415   7.398 -1.0751  2.1596 -0.5867
 5226SOL    HW227312   3.713   3.380   7.256  0.2247 -0.7949  0.1867
 5227SOL     OW27313   1.784   3.420   8.163 -0.4773  0.2491  0.1527
 5227SOL    HW127314   1.764   3.489   8.226  1.7033 -1.1089  2.3677
 5227SOL    HW227315   1.800   3.474   8.086  2.9097  0.1407  0.7568
 5228SOL     OW27316   3.798   1.367  10.430 -0.0055 -0.1196 -0.1849
 5228SOL    HW127317   3.861   1.422  10.478  1.2438  0.7237 -2.7576
 5228SOL    HW227318   3.843   1.363  10.345  4.0115  3.5831  1.7117
 5229SOL     OW27319   2.235   1.285   8.160  0.4357  0.7220 -0.4917
 5229SOL    HW127320   2.227   1.231   8.082 -0.9978  0.1320  0.0419
 5229SOL    HW227321   2.239   1.223   8.233 -0.3428  0.1566 -0.9355
 5230SOL     OW27322   3.084   0.669   2.197  0.7324  0.4992 -0.2303
 5230SOL    HW127323   3.157   0.618   2.163 -0.8578  0.5491 -3.7309
 5230SOL    HW227324   3.069   0.628   2.282 -0.6344 -0.2626 -0.8447
 5231SOL     OW27325   4.185   1.692   7.913  0.3595 -0.0355 -0.2301
 5231SOL    HW127326   4.185   1.772   7.861  1.2097 -1.3456 -2.2715
 5231SOL    HW227327   4.091   1.673   7.916  0.6876 -1.5109  1.0210
 5232SOL     OW27328   3.495   1.773   5.953  0.7789  0.1804 -0.0956
 5232SOL    HW127329   3.401   1.793   5.961  0.5620 -0.7187 -0.3504
 5232SOL    HW227330   3.501   1.757   5.859 -0.1493 -2.8774  0.3507
 5233SOL     OW27331   1.255   0.223  17.204 -0.2736  1.1134  0.0088
 5233SOL    HW127332   1.174   0.176  17.181  0.5519 -0.2344 -0.1561
 5233SOL    HW227333   1.287   0.152  17.261  0.6179  0.2770 -1.5472
 5234SOL     OW27334   0.646   4.017   6.332 -0.4802  0.3317  0.0588
 5234SOL    HW127335   0.678   4.050   6.416  1.8593 -0.7183 -0.4238
 5234SOL    HW227336   0.574   4.076   6.306 -1.5965 -0.2518  1.8126
 5235SOL     OW27337   3.013   3.008   4.970  0.3127  0.1853 -0.2388
 5235SOL    HW127338   2.935   2.955   4.988  2.3569 -2.6274  0.2278
 5235SOL    HW227339   2.973   3.093   4.950 -1.5028 -0.4228  0.8345
 5236SOL     OW27340   3.894   2.414   6.020 -0.3066  0.7998 -0.3043
 5236SOL    HW127341   3.988   2.407   6.003 -0.5869 -0.3334 -1.3977
 5236SOL    HW227342   3.886   2.346   6.088  1.2068  0.8875 -0.0334
 5237SOL     OW27343   0.568   4.486  11.266  0.8998  0.0246  0.0583
 5237SOL    HW127344   0.631   4.415  11.277  2.9914  2.0190  1.1567
 5237SOL    HW227345   0.609   4.554  11.320  0.8186 -0.6543  0.9650
 5238SOL     OW27346   2.474   1.296  14.087 -0.1425  0.7060  0.1679
 5238SOL    HW127347   2.481   1.282  13.993  2.0675 -1.7752  0.6932
 5238SOL    HW227348   2.467   1.391  14.095  0.3314  0.8912 -1.6571
 5239SOL     OW27349   3.714   4.584   5.331  0.3661  0.4744 -0.1955
 5239SOL    HW127350   3.620   4.564   5.331  0.3127  0.7078 -0.8507
 5239SOL    HW227351   3.719   4.679   5.339  0.5698  0.6909 -2.7215
 5240SOL     OW27352   1.177   2.694   4.173  0.2888 -0.1828 -1.0053
 5240SOL    HW127353   1.150   2.786   4.179  3.2917  0.4776  2.7566
 5240SOL    HW227354   1.149   2.651   4.254 -0.2576 -0.9547 -1.6008
 5241SOL     OW27355   3.797   0.952   3.121 -0.1353 -0.3680 -0.2069
 5241SOL    HW127356   3.781   0.879   3.181 -1.1078  1.7370  2.1385
 5241SOL    HW227357   3.890   0.969   3.137 -0.6362  0.6315  1.6775
 5242SOL     OW27358   0.560   1.056   8.449  0.0847 -0.0794  0.3965
 5242SOL    HW127359   0.481   1.100   8.481 -0.5582 -1.1265  0.2554
 5242SOL    HW227360   0.532   0.983   8.393  0.3796 -1.7670  2.4728
 5243SOL     OW27361   4.254   1.942   0.845 -0.1269 -0.0165 -0.2448
 5243SOL    HW127362   4.231   1.941   0.938 -1.1638  1.0767 -0.4887
 5243SOL    HW227363   4.169   1.943   0.801  1.4332 -1.1444 -3.2125
 5244SOL     OW27364   0.334   0.755  10.789  0.0455 -0.7002  0.1594
 5244SOL    HW127365   0.303   0.670  10.756  1.2997 -1.2259  0.3365
 5244SOL    HW227366   0.410   0.772  10.734  0.1067 -4.2366 -0.8749
 5245SOL     OW27367   4.017   1.424   5.894 -0.3277  0.3219  0.3532
 5245SOL    HW127368   4.072   1.500   5.875 -2.1560  0.9191 -2.6634
 5245SOL    HW227369   4.013   1.424   5.989  0.7343 -0.0341  0.3933
 5246SOL     OW27370   0.288   0.908   6.571  0.2393 -0.4834  0.2850
 5246SOL    HW127371   0.365   0.959   6.545  0.6688 -0.2739  2.0025
 5246SOL    HW227372   0.253   0.964   6.640 -1.0849 -0.4108 -0.4346
 5247SOL     OW27373   1.696   2.584   5.902  0.1208  0.4815  0.0321
 5247SOL    HW127374   1.744   2.658   5.940 -3.4711  1.9743  1.6762
 5247SOL    HW227375   1.618   2.592   5.957 -1.3606  0.4828 -2.0952
 5248SOL     OW27376   1.562   1.767   7.256 -0.1590 -0.3266 -0.3839
 5248SOL    HW127377   1.534   1.756   7.166 -0.3231  1.7264 -0.5848
 5248SOL    HW227378   1.505   1.839   7.284  1.2610  0.0279  1.6571
 5249SOL     OW27379   2.149   2.167  14.087  0.2728 -0.2771  0.0493
 5249SOL    HW127380   2.233   2.172  14.134  0.1321  0.4263  0.2189
 5249SOL    HW227381   2.171   2.086  14.041  3.8465  1.8709 -2.0658
 5250SOL     OW27382   1.701   4.000   7.561 -0.4274  0.3086 -0.0313
 5250SOL    HW127383   1.685   3.969   7.472  0.2194  1.8094 -0.6773
 5250SOL    HW227384   1.704   4.094   7.542 -2.7199  0.4411  0.3397
 5251SOL     OW27385   1.040   4.159   2.493  0.1019 -0.2263 -0.5008
 5251SOL    HW127386   0.982   4.182   2.420 -2.2730 -2.0024  0.8183
 5251SOL    HW227387   0.993   4.208   2.561  0.1791 -3.0203  1.5414
 5252SOL     OW27388   1.910   2.270   8.599  0.2745  0.6874  0.0051
 5252SOL    HW127389   1.976   2.277   8.669 -0.6921  1.3855  0.8446
 5252SOL    HW227390   1.845   2.334   8.630  0.4617 -0.2043  2.2602
 5253SOL     OW27391   1.228   0.388  15.637 -0.3997  0.0638  0.2355
 5253SOL    HW127392   1.298   0.331  15.670  0.9012  0.1897 -2.3396
 5253SOL    HW227393   1.161   0.367  15.702  0.5057  0.3369  1.2742
 5254SOL     OW27394   0.639   0.531   3.751  0.4361 -0.1279  0.0135
 5254SOL    HW127395   0.689   0.579   3.817  0.3323 -1.2279  0.8997
 5254SOL    HW227396   0.674   0.575   3.674  0.5484 -0.6384 -0.2297
 5255SOL     OW27397   2.471   0.270   7.626  0.2221 -0.2412  0.6675
 5255SOL    HW127398   2.554   0.288   7.582 -0.0330  1.8813  1.0799
 5255SOL    HW227399   2.453   0.183   7.591  0.8900  0.0732 -0.4761
 5256SOL     OW27400   1.325   1.167   4.530  0.4566  0.1461  0.2802
 5256SOL    HW127401   1.332   1.100   4.462 -1.3132 -0.2556  0.4780
 5256SOL    HW227402   1.348   1.125   4.613 -0.5152  1.3462  1.1512
 5257SOL     OW27403   0.426   1.719   9.722 -0.6193 -0.3185  0.2993
 5257SOL    HW127404   0.350   1.671   9.755 -0.9561 -0.7767 -1.1603
 5257SOL    HW227405   0.399   1.800   9.679 -1.0890 -1.1302 -0.9208
 5258SOL     OW27406   0.630   3.409  15.535  0.2948  0.2384  0.6479
 5258SOL    HW127407   0.714   3.439  15.570  0.9735 -0.0922 -0.7035
 5258SOL    HW227408   0.645   3.320  15.568  2.1469  0.8664  1.4972
 5259SOL     OW27409   2.004   0.427   5.571  0.1558 -0.1718 -0.2464
 5259SOL    HW127410   1.978   0.482   5.497  0.4943  1.8762  1.1811
 5259SOL    HW227411   1.989   0.339   5.537  0.1267 -0.3689  0.2752
 5260SOL     OW27412   0.199   3.444   5.790  0.0314 -0.6008  0.3722
 5260SOL    HW127413   0.185   3.538   5.800  0.3288 -0.3148 -2.0460
 5260SOL    HW227414   0.141   3.423   5.717 -1.2242 -1.8251  1.7222
 5261SOL     OW27415   4.029   4.535   9.268  0.3094 -0.2088  0.1293
 5261SOL    HW127416   3.951   4.481   9.282  1.4495 -2.1036 -0.7236
 5261SOL    HW227417   4.090   4.461   9.273  1.1542  0.5328  0.6968
 5262SOL     OW27418   1.933   1.348   6.861  0.0566  0.8564 -0.5966
 5262SOL    HW127419   1.979   1.318   6.939  0.8671  2.0263 -0.6291
 5262SOL    HW227420   1.994   1.320   6.793 -1.1966 -0.9043 -0.9739
 5263SOL     OW27421   1.614   1.986   7.914 -0.7892 -0.0498  0.2614
 5263SOL    HW127422   1.618   2.081   7.920 -1.5159 -0.0676  1.0782
 5263SOL    HW227423   1.522   1.962   7.923 -1.0816  0.8816 -0.2994
 5264SOL     OW27424   4.226   3.044   6.938 -0.5375  0.5871  0.0055
 5264SOL    HW127425   4.247   2.956   6.907 -0.8577  0.8509 -0.9462
 5264SOL    HW227426   4.174   3.079   6.866  1.8502  0.3509 -1.8501
 5265SOL     OW27427   0.347   2.018   5.839  0.0903  0.5631  0.5260
 5265SOL    HW127428   0.416   2.084   5.850  2.5981 -1.9002 -0.7406
 5265SOL    HW227429   0.275   2.078   5.819  0.6256  1.7003  1.9404
 5266SOL     OW27430   3.267   2.245   9.582 -0.2884 -0.0025  0.9888
 5266SOL    HW127431   3.280   2.334   9.549 -2.6836 -0.0434 -0.0695
 5266SOL    HW227432   3.232   2.208   9.501  2.6645 -2.2572  0.7231
 5267SOL     OW27433   1.943   2.600   4.772  0.0655 -0.5241  0.4825
 5267SOL    HW127434   1.962   2.693   4.777 -0.6447 -0.3656  0.2010
 5267SOL    HW227435   1.867   2.594   4.713  0.3819 -0.4468  0.0689
 5268SOL     OW27436   4.344   3.934  11.618 -0.2219 -0.3148  0.1248
 5268SOL    HW127437   4.391   3.891  11.689 -0.5545  2.0237  1.7585
 5268SOL    HW227438   4.307   4.004  11.671 -1.0775  0.2927 -1.2653
 5269SOL     OW27439   0.425   3.906  13.005 -0.3142 -0.1901  0.1227
 5269SOL    HW127440   0.507   3.951  12.983 -0.2032 -0.6227 -0.3681
 5269SOL    HW227441   0.390   3.902  12.916 -1.3921  1.3021  0.4951
 5270SOL     OW27442   3.221   0.916   5.007 -0.7515  0.5341  0.2153
 5270SOL    HW127443   3.271   0.920   4.925 -0.9790 -0.9715  0.0095
 5270SOL    HW227444   3.133   0.902   4.971  0.1522 -0.3797 -1.6270
 5271SOL     OW27445   0.338   0.103  13.498  0.4206  0.1985  0.0041
 5271SOL    HW127446   0.430   0.124  13.515  0.6400 -0.8110  0.0814
 5271SOL    HW227447   0.355   0.010  13.479 -0.5402  0.2809 -1.2621
 5272SOL     OW27448   3.701   1.707  10.255 -0.3457 -0.4710  0.6560
 5272SOL    HW127449   3.696   1.623  10.210 -0.3886  0.2780 -0.7564
 5272SOL    HW227450   3.772   1.694  10.317  0.6516 -0.2772 -0.4571
 5273SOL     OW27451   3.589   4.019   6.690  0.4802 -0.8095  0.3395
 5273SOL    HW127452   3.563   3.927   6.686  0.1782 -0.7694  1.3471
 5273SOL    HW227453   3.681   4.007   6.716  0.3974  0.7213  1.3742
 5274SOL     OW27454   3.662   0.599  11.034 -0.0975  0.1348 -0.3297
 5274SOL    HW127455   3.733   0.618  11.095 -0.4615 -2.6213  0.9947
 5274SOL    HW227456   3.669   0.672  10.973 -3.5910  0.4890 -0.3556
 5275SOL     OW27457   2.287   4.467   3.994  0.0856 -0.0310 -0.1264
 5275SOL    HW127458   2.348   4.404   3.955 -0.2301  1.2482 -2.6630
 5275SOL    HW227459   2.346   4.543   3.997 -1.4637  1.1832 -0.9483
 5276SOL     OW27460   2.115   2.747   0.982  0.4882  0.6653 -0.4720
 5276SOL    HW127461   2.147   2.739   1.072 -1.2331 -1.8553 -0.0933
 5276SOL    HW227462   2.166   2.689   0.926  1.0974  0.0339  0.7298
 5277SOL     OW27463   2.004   3.995  11.111 -0.1310 -0.1371 -0.0314
 5277SOL    HW127464   2.013   3.904  11.084 -1.4807  0.7727 -3.4908
 5277SOL    HW227465   2.076   4.005  11.174 -0.4757  0.7816  0.2223
 5278SOL     OW27466   0.178   1.867   8.298 -0.3637  0.3867  0.1787
 5278SOL    HW127467   0.092   1.864   8.255  0.3981  0.6658 -1.3449
 5278SOL    HW227468   0.216   1.786   8.265 -0.1759  0.5214  0.0633
 5279SOL     OW27469   2.445   4.093  17.392  0.1087  0.0512 -0.4255
 5279SOL    HW127470   2.521   4.149  17.401 -0.9487  1.3135  0.7353
 5279SOL    HW227471   2.391   4.128  17.321  1.2083 -0.9805 -1.7761
 5280SOL     OW27472   3.617   3.864   3.201  0.5259 -0.0857  0.3508
 5280SOL    HW127473   3.670   3.884   3.278 -0.2183  1.2777  0.5066
 5280SOL    HW227474   3.536   3.832   3.242  1.4270  1.2327  3.1407
 5281SOL     OW27475   0.551   3.200   7.657 -0.1163  0.4739  0.0184
 5281SOL    HW127476   0.640   3.227   7.675  0.5096 -2.6392  1.6630
 5281SOL    HW227477   0.513   3.203   7.745  1.3117  2.1840  0.5604
 5282SOL     OW27478   1.891   2.959  12.033 -0.0034  0.0654  0.0844
 5282SOL    HW127479   1.972   2.935  11.988  0.1012 -0.7403  0.6928
 5282SOL    HW227480   1.902   2.903  12.110 -0.7731 -1.2699 -0.7704
 5283SOL     OW27481   0.490   4.496   3.230 -0.1518  0.2908  0.0656
 5283SOL    HW127482   0.526   4.526   3.314  1.4484 -1.4956  0.0110
 5283SOL    HW227483   0.446   4.573   3.196  0.6682 -0.1552 -1.9924
 5284SOL     OW27484   3.614   2.606  16.207  0.0116  0.2371  0.2153
 5284SOL    HW127485   3.693   2.591  16.259  0.1004  0.3297  0.1067
 5284SOL    HW227486   3.573   2.672  16.263  2.0209  0.4683  1.4309
 5285SOL     OW27487   0.366   2.055   7.877 -0.1217  0.8721 -0.1177
 5285SOL    HW127488   0.364   2.105   7.795  0.3395 -2.3624 -2.1036
 5285SOL    HW227489   0.428   2.101   7.932  0.3785 -0.2244  0.2390
 5286SOL     OW27490   1.575   1.385   3.547 -0.0196  0.6304 -0.2528
 5286SOL    HW127491   1.609   1.353   3.631 -2.2847  0.8587  0.7297
 5286SOL    HW227492   1.644   1.450   3.530  1.8021 -1.6314 -1.5494
 5287SOL     OW27493   4.383   1.881   8.189 -0.3297  0.0438  0.1294
 5287SOL    HW127494   4.306   1.934   8.168 -0.2104  0.3535  0.4729
 5287SOL    HW227495   4.440   1.914   8.120 -1.6800 -0.4310 -1.1995
 5288SOL     OW27496   1.609   3.842   3.502  0.4418 -0.0664  0.2442
 5288SOL    HW127497   1.615   3.777   3.433  1.3673  2.0449 -1.6719
 5288SOL    HW227498   1.514   3.841   3.519  0.3371  0.0311 -0.3490
 5289SOL     OW27499   2.034   1.002  16.663  0.3599  0.0694  0.5945
 5289SOL    HW127500   1.945   0.988  16.695 -1.1959  2.9630 -2.3361
 5289SOL    HW227501   2.079   0.985  16.746  1.6873 -1.5492 -0.4672
 5290SOL     OW27502   4.164   1.900   1.133 -0.0996 -0.1928  0.7125
 5290SOL    HW127503   4.106   1.908   1.208  0.7960  1.2607  1.2393
 5290SOL    HW227504   4.245   1.915   1.182  1.5518 -3.6361 -0.9760
 5291SOL     OW27505   1.868   4.288  10.751  0.6817 -0.4258 -0.1061
 5291SOL    HW127506   1.816   4.364  10.726 -1.4565 -1.8785 -0.0656
 5291SOL    HW227507   1.803   4.227  10.784 -0.9463 -0.2546 -3.0178
 5292SOL     OW27508   3.754   1.618   2.450 -0.0214 -0.2626 -0.3861
 5292SOL    HW127509   3.776   1.582   2.535  1.5034  1.0022 -0.2598
 5292SOL    HW227510   3.658   1.616   2.460 -0.1453  2.7484 -0.8759
 5293SOL     OW27511   4.604   1.336   2.981  0.2132 -0.4820  0.0074
 5293SOL    HW127512   4.589   1.400   3.052  1.6683 -1.7750  1.4872
 5293SOL    HW227513   4.583   1.382   2.900  0.4602 -2.4606 -1.1713
 5294SOL     OW27514   2.326   1.182   8.782  0.1000 -0.1037 -0.1313
 5294SOL    HW127515   2.399   1.123   8.766 -1.4992 -1.6463 -1.6608
 5294SOL    HW227516   2.265   1.136   8.839 -0.1222  0.0212 -0.2676
 5295SOL     OW27517   2.768   0.410  12.120 -0.5968 -0.6397  0.4698
 5295SOL    HW127518   2.830   0.339  12.139  0.4430 -0.1534 -1.1341
 5295SOL    HW227519   2.759   0.403  12.025  0.0945 -0.6341  0.4064
 5296SOL     OW27520   3.160   2.282  15.360  0.4106 -0.3355  0.2482
 5296SOL    HW127521   3.079   2.232  15.354  0.0106  0.6208 -2.4407
 5296SOL    HW227522   3.223   2.211  15.376 -0.7467 -1.3922  0.1449
 5297SOL     OW27523   0.080   0.094   4.863  0.2538  0.0715 -0.4673
 5297SOL    HW127524   0.016   0.033   4.901 -1.0577  1.6606 -0.1289
 5297SOL    HW227525   0.152   0.033   4.844 -2.2348 -3.1307  0.3962
 5298SOL     OW27526   2.369   0.499   7.780  0.2318 -0.3114 -0.5997
 5298SOL    HW127527   2.316   0.564   7.735 -0.6630 -0.6357 -0.0357
 5298SOL    HW227528   2.413   0.447   7.713  0.4347 -0.9216 -0.0020
 5299SOL     OW27529   4.657   0.472  10.982  0.1358  0.9493 -0.0901
 5299SOL    HW127530   4.567   0.460  11.011  0.7529 -2.6448  0.2558
 5299SOL    HW227531   4.661   0.568  10.977 -0.7506  0.8968 -1.7199
 5300SOL     OW27532   4.286   4.351   1.577  0.2265  0.3072 -0.1118
 5300SOL    HW127533   4.310   4.285   1.512  0.4811 -1.2992  1.6193
 5300SOL    HW227534   4.305   4.433   1.532 -1.1235 -0.7495 -2.6062
 5301SOL     OW27535   1.141   0.897   4.540 -0.5023 -0.4424 -0.3590
 5301SOL    HW127536   1.167   0.866   4.626 -1.3988  0.8525  0.3673
 5301SOL    HW227537   1.097   0.820   4.506 -1.0536 -0.1937 -0.2002
 5302SOL     OW27538   1.524   0.283   5.379 -0.4812  0.1214  0.4100
 5302SOL    HW127539   1.454   0.299   5.316  1.0147  3.0920 -0.5133
 5302SOL    HW227540   1.597   0.305   5.320 -0.3160 -1.8933 -0.1272
 5303SOL     OW27541   2.857   1.565  10.343 -0.2229 -0.2745 -0.0378
 5303SOL    HW127542   2.922   1.504  10.309  0.5275  1.8231 -2.3944
 5303SOL    HW227543   2.857   1.552  10.438  0.2779 -0.9633 -0.1388
 5304SOL     OW27544   0.012   3.028   1.542 -0.1599 -0.7453  0.1368
 5304SOL    HW127545   0.020   3.023   1.447 -0.7492  0.2069  0.0389
 5304SOL    HW227546   0.093   2.987   1.573 -0.9602 -2.5914 -0.1717
 5305SOL     OW27547   3.762   4.317   5.295  0.3880  0.0184  0.7486
 5305SOL    HW127548   3.764   4.411   5.282 -1.0323 -0.4217 -2.4423
 5305SOL    HW227549   3.842   4.293   5.248  0.1389  0.9498 -0.1257
 5306SOL     OW27550   3.871   1.692  13.426 -0.3817 -0.0499  0.0242
 5306SOL    HW127551   3.842   1.726  13.511 -0.5739 -0.6929  0.2169
 5306SOL    HW227552   3.863   1.767  13.366 -1.5562  0.2502  0.5567
 5307SOL     OW27553   2.071   0.674   3.608 -0.4888 -0.1005  0.1380
 5307SOL    HW127554   2.018   0.730   3.551 -2.1039 -1.4817  0.2836
 5307SOL    HW227555   2.008   0.648   3.674 -0.9369 -3.0160 -1.4352
 5308SOL     OW27556   1.307   1.677  12.795 -0.0647  0.8859  0.0867
 5308SOL    HW127557   1.395   1.708  12.816  0.7748 -0.3260 -1.6552
 5308SOL    HW227558   1.264   1.755  12.761 -0.7245  0.2886 -0.4701
 5309SOL     OW27559   1.784   1.506   3.099  0.3102  0.0619  0.5450
 5309SOL    HW127560   1.825   1.480   3.017 -0.7928  2.1261 -0.6673
 5309SOL    HW227561   1.745   1.586   3.062 -1.1417 -0.6199  0.6038
 5310SOL     OW27562   2.071   1.197   8.539 -0.5135 -0.5039  0.4837
 5310SOL    HW127563   2.044   1.206   8.630 -2.2150 -1.6122  0.0916
 5310SOL    HW227564   2.110   1.283   8.525 -0.3819 -0.9383 -1.8250
 5311SOL     OW27565   2.729   3.242   7.623  0.3694  0.2664 -0.2658
 5311SOL    HW127566   2.646   3.215   7.662  0.4387  0.7661  0.2214
 5311SOL    HW227567   2.788   3.166   7.627 -0.8118 -0.6225  0.0923
 5312SOL     OW27568   0.079   3.682   6.724 -0.4514  0.3959 -0.7759
 5312SOL    HW127569   4.722   3.697   6.704 -0.0015  2.7307 -1.1674
 5312SOL    HW227570   0.131   3.731   6.660 -1.4122  2.5612  0.0888
 5313SOL     OW27571   0.366   2.493   3.277  0.1852  0.4331 -0.1078
 5313SOL    HW127572   0.301   2.563   3.274  0.8355  1.0467  0.1631
 5313SOL    HW227573   0.450   2.534   3.261  1.6457 -2.0498  1.1784
 5314SOL     OW27574   4.447   2.644   1.093  0.0588  0.1688 -0.1207
 5314SOL    HW127575   4.402   2.562   1.072  1.9088 -1.5105  2.4337
 5314SOL    HW227576   4.536   2.617   1.067 -0.4973 -1.1813 -0.6413
 5315SOL     OW27577   2.161   4.713   3.351  0.2565  0.0776  0.3365
 5315SOL    HW127578   2.189   0.067   3.368 -0.7351  0.2983  0.8595
 5315SOL    HW227579   2.083   0.003   3.303  0.9027  0.5923 -0.4211
 5316SOL     OW27580   0.118   3.986   2.285 -0.0773 -0.0862 -0.1012
 5316SOL    HW127581   0.213   3.994   2.292 -0.0775  1.1838 -1.4049
 5316SOL    HW227582   0.089   4.056   2.344  0.3866 -1.1662  1.4043
 5317SOL     OW27583   0.777   1.563   3.923 -0.3460 -0.1134 -0.0698
 5317SOL    HW127584   0.789   1.642   3.977 -0.4198 -0.6259  0.6909
 5317SOL    HW227585   0.732   1.512   3.990 -0.4960  2.2945  1.7019
 5318SOL     OW27586   0.197   3.187   3.940 -0.5908  0.4745  0.9613
 5318SOL    HW127587   0.279   3.191   3.891  0.1599 -2.0840  2.0291
 5318SOL    HW227588   0.146   3.125   3.887  1.2222 -1.7600  1.8277
 5319SOL     OW27589   3.172   2.196   9.311 -0.0166 -0.2190 -0.2288
 5319SOL    HW127590   3.085   2.214   9.275 -0.9295  0.2059  2.2048
 5319SOL    HW227591   3.181   2.105   9.281 -1.2706 -0.3541 -0.1848
 5320SOL     OW27592   3.068   4.216   6.498  0.1202  0.2154  0.0354
 5320SOL    HW127593   3.021   4.256   6.425 -1.4531  1.0470  1.4756
 5320SOL    HW227594   3.127   4.283   6.534  0.0888  0.1854  0.1447
 5321SOL     OW27595   1.549   4.665   2.991  0.3345  0.3799  0.4356
 5321SOL    HW127596   1.559   0.020   2.964 -0.1481  0.5618  0.8685
 5321SOL    HW227597   1.575   4.668   3.083  1.7003  0.1802  0.0450
 5322SOL     OW27598   3.394   1.252  10.641 -0.0913  0.0575 -0.2833
 5322SOL    HW127599   3.485   1.279  10.650  0.1338 -0.9601  0.4886
 5322SOL    HW227600   3.370   1.251  10.734  1.2316 -2.8062  0.0244
 5323SOL     OW27601   4.720   1.958   4.946 -0.2968  0.5080  0.3292
 5323SOL    HW127602   0.033   1.917   4.874 -0.8094 -0.8605  0.7677
 5323SOL    HW227603   4.732   1.894   5.016  2.2425  0.9123  0.2831
 5324SOL     OW27604   1.983   4.300   3.579  0.7835  0.3729  0.0409
 5324SOL    HW127605   1.927   4.319   3.654  0.0768 -1.8087  0.0793
 5324SOL    HW227606   1.924   4.250   3.522  0.2075 -0.6541  1.5279
 5325SOL     OW27607   0.697   3.950  16.513  0.2973  0.0628 -0.0248
 5325SOL    HW127608   0.731   3.998  16.437  4.9899 -1.9410  0.7949
 5325SOL    HW227609   0.651   4.024  16.553  1.4194 -0.6096  2.5395
 5326SOL     OW27610   3.339   0.253  13.325 -0.1704 -0.3373 -0.0635
 5326SOL    HW127611   3.388   0.275  13.404 -0.2134 -0.1567 -0.0874
 5326SOL    HW227612   3.293   0.336  13.316  0.4109  0.0505  0.5356
 5327SOL     OW27613   1.193   1.646   6.698  0.2318  0.0221 -0.3289
 5327SOL    HW127614   1.142   1.572   6.731 -0.6231  1.3437  1.2622
 5327SOL    HW227615   1.282   1.627   6.729 -0.7870 -1.1507  1.9245
 5328SOL     OW27616   2.849   1.061  15.173  0.0840  0.0165  0.3696
 5328SOL    HW127617   2.941   1.084  15.166 -0.1192 -0.0277 -2.4835
 5328SOL    HW227618   2.848   0.965  15.168 -0.4289 -0.0378  1.3837
 5329SOL     OW27619   3.414   1.724   8.870  0.1491 -0.3279 -0.4552
 5329SOL    HW127620   3.361   1.804   8.878  1.9905  0.9138 -0.8729
 5329SOL    HW227621   3.498   1.767   8.860 -0.0716  0.5106  1.2143
 5330SOL     OW27622   2.571   2.610   1.780  0.1822 -0.4257 -0.0377
 5330SOL    HW127623   2.609   2.662   1.710 -0.4887 -0.9211 -0.7751
 5330SOL    HW227624   2.515   2.675   1.822  0.0361 -1.1533  0.8993
 5331SOL     OW27625   2.331   2.818   6.570 -0.2576  0.1160 -0.4876
 5331SOL    HW127626   2.252   2.835   6.520 -0.9235 -2.3874 -0.2768
 5331SOL    HW227627   2.393   2.812   6.497  0.6608  2.6349  0.0842
 5332SOL     OW27628   4.082   3.626  13.038 -0.1215 -0.2868 -0.2509
 5332SOL    HW127629   4.020   3.573  12.987  0.2608 -0.2437 -0.7580
 5332SOL    HW227630   4.063   3.708  12.993 -1.3325 -0.3832  0.0909
 5333SOL     OW27631   4.258   2.303   6.693  0.0647 -0.1236 -0.1885
 5333SOL    HW127632   4.230   2.276   6.780 -0.7618 -0.6161 -0.6052
 5333SOL    HW227633   4.341   2.257   6.684 -0.4629 -1.1778  0.3365
 5334SOL     OW27634   1.474   1.140   9.354  0.5910 -0.0093 -0.0577
 5334SOL    HW127635   1.436   1.156   9.268  0.7334  2.6066  0.3711
 5334SOL    HW227636   1.569   1.143   9.340  0.5206 -0.3087 -0.6105
 5335SOL     OW27637   4.729   0.889  17.316  0.3383 -0.1691  0.8472
 5335SOL    HW127638   0.050   0.835  17.262  0.1026 -1.2760  1.6913
 5335SOL    HW227639   0.057   0.882  17.387  1.7131  0.7634 -0.2936
 5336SOL     OW27640   2.801   3.303   1.768  0.5661  0.0998  0.2283
 5336SOL    HW127641   2.859   3.363   1.816 -0.8364  1.2533  0.4809
 5336SOL    HW227642   2.842   3.220   1.791 -1.8871 -0.6723  1.7908
 5337SOL     OW27643   4.460   2.095   6.691  0.3797  0.3890  0.0951
 5337SOL    HW127644   4.462   2.030   6.761  0.0696 -0.9104 -1.1136
 5337SOL    HW227645   4.553   2.088   6.672  0.2871 -0.2553 -0.1061
 5338SOL     OW27646   1.903   1.574   5.707 -0.6606 -0.2792  0.1508
 5338SOL    HW127647   1.859   1.627   5.641  1.7981 -0.3272 -1.5003
 5338SOL    HW227648   1.835   1.549   5.770  0.9545 -0.3254  1.8787
 5339SOL     OW27649   3.748   1.156   2.682 -0.0936  0.1411  0.2102
 5339SOL    HW127650   3.725   1.249   2.687  0.2435  0.2386 -0.0510
 5339SOL    HW227651   3.784   1.144   2.770 -0.6054 -1.0090  0.2538
 5340SOL     OW27652   3.509   1.038   4.888 -0.4980  0.4652  0.2049
 5340SOL    HW127653   3.417   1.062   4.881 -0.4722  0.0687 -1.4587
 5340SOL    HW227654   3.525   1.080   4.973  1.2889 -0.3481  0.2652
 5341SOL     OW27655   0.902   1.825   7.248  0.3124  0.2913 -0.0716
 5341SOL    HW127656   0.986   1.860   7.218 -0.5941  1.5095 -1.1760
 5341SOL    HW227657   0.877   1.760   7.182 -3.4673  0.3384  1.3623
 5342SOL     OW27658   1.214   1.871   3.534 -0.4818  0.0282  0.0658
 5342SOL    HW127659   1.239   1.787   3.571  0.8060  0.3754 -0.0021
 5342SOL    HW227660   1.125   1.850   3.505 -0.8900  0.5391  0.9478
 5343SOL     OW27661   3.625   1.079   2.264  0.3118 -0.0945  0.0779
 5343SOL    HW127662   3.661   1.155   2.310 -2.3317  0.5617  1.0705
 5343SOL    HW227663   3.592   1.024   2.335  1.3144 -0.2113  0.4578
 5344SOL     OW27664   3.095   0.722  13.949  0.1973 -0.2266 -0.1414
 5344SOL    HW127665   3.153   0.698  13.876  2.8685  1.5414  1.4085
 5344SOL    HW227666   3.062   0.633  13.964  0.4574 -0.4703 -0.9900
 5345SOL     OW27667   3.314   2.082   4.005 -0.4961  0.3014 -0.7544
 5345SOL    HW127668   3.262   2.097   3.926  0.3132  0.2993 -1.2835
 5345SOL    HW227669   3.291   1.997   4.042 -1.5306  0.2200 -1.5847
 5346SOL     OW27670   0.224   4.060   9.349  0.4432 -0.0036  0.3121
 5346SOL    HW127671   0.285   4.044   9.277  0.3962  1.6820 -0.0886
 5346SOL    HW227672   0.276   4.015   9.415 -3.5986 -0.9980  2.8097
 5347SOL     OW27673   4.611   0.897   4.334 -0.6554  0.4674 -0.3293
 5347SOL    HW127674   4.620   0.860   4.246  0.1379  0.7350 -0.3572
 5347SOL    HW227675   4.683   0.862   4.387  1.4398  1.6405 -2.4078
 5348SOL     OW27676   4.300   0.473   3.132  0.0861 -0.3925 -0.0643
 5348SOL    HW127677   4.258   0.551   3.095  0.2688  0.5721  1.7510
 5348SOL    HW227678   4.296   0.491   3.226  1.1920  0.5451 -0.1929
 5349SOL     OW27679   4.506   1.388   6.634 -0.4552 -0.2674  0.6509
 5349SOL    HW127680   4.458   1.376   6.552 -0.6816  0.9882  0.5927
 5349SOL    HW227681   4.543   1.300   6.641  1.1724  0.3041 -0.8447
 5350SOL     OW27682   2.677   0.167   6.838 -0.2309  0.5340 -0.5069
 5350SOL    HW127683   2.658   0.086   6.885 -0.5624  2.2036  2.2488
 5350SOL    HW227684   2.605   0.221   6.872 -0.0649  0.1294  0.4861
 5351SOL     OW27685   1.164   1.952   7.189  0.6419 -0.1010  0.0758
 5351SOL    HW127686   1.248   1.939   7.233 -0.1157 -1.2937  1.1799
 5351SOL    HW227687   1.126   2.017   7.248  2.5114  2.5337 -1.6569
 5352SOL     OW27688   2.672   1.138   2.704  0.2782  0.2853 -0.0022
 5352SOL    HW127689   2.669   1.155   2.610 -1.1599 -3.1958 -0.5922
 5352SOL    HW227690   2.767   1.138   2.716 -0.2456 -3.5329  4.0750
 5353SOL     OW27691   1.697   1.758   8.373 -0.4069  0.3609 -0.5391
 5353SOL    HW127692   1.789   1.747   8.397 -0.8901 -1.1007  0.6288
 5353SOL    HW227693   1.709   1.794   8.285 -1.4170  0.4876 -0.6217
 5354SOL     OW27694   1.886   0.299   2.480 -0.3142 -0.1901  0.0111
 5354SOL    HW127695   1.960   0.312   2.420 -1.8083  2.1105 -1.3029
 5354SOL    HW227696   1.815   0.285   2.418 -2.2113  1.8324  1.7291
 5355SOL     OW27697   0.005   1.887   6.983 -0.5462  0.6449 -0.3263
 5355SOL    HW127698   0.064   1.959   7.006  0.3336 -0.6164  1.3667
 5355SOL    HW227699   0.035   1.869   6.893 -1.3647  1.8011 -0.8213
 5356SOL     OW27700   3.034   3.062   7.496 -0.6838  0.0985  0.0662
 5356SOL    HW127701   3.068   3.100   7.415  0.6081 -1.2841 -0.0476
 5356SOL    HW227702   2.940   3.053   7.483 -0.4631 -0.7804 -0.9109
 5357SOL     OW27703   0.091   3.781  16.844 -0.1584  0.5864 -0.3718
 5357SOL    HW127704   0.176   3.786  16.801  1.1297  0.4264  2.1774
 5357SOL    HW227705   0.095   3.701  16.896 -0.2750  1.7345  1.3899
 5358SOL     OW27706   3.651   2.719   4.761 -0.3645  0.1118 -0.1904
 5358SOL    HW127707   3.726   2.669   4.729  0.2224  0.8836 -0.0338
 5358SOL    HW227708   3.605   2.736   4.679 -0.1107 -3.1201 -0.9971
 5359SOL     OW27709   1.765   1.076  13.299 -0.6740 -0.2146 -0.0001
 5359SOL    HW127710   1.732   1.101  13.385 -1.2801  2.3161 -0.9550
 5359SOL    HW227711   1.853   1.111  13.289 -0.5283 -0.9017 -1.1410
 5360SOL     OW27712   3.850   1.088   4.868  0.0748 -0.0938  0.1523
 5360SOL    HW127713   3.804   1.158   4.915  1.4125 -0.1797  1.5967
 5360SOL    HW227714   3.779   1.033   4.838 -0.6534 -1.2693  4.1024
 5361SOL     OW27715   3.276   2.081   3.724 -0.6788 -0.5029  0.0204
 5361SOL    HW127716   3.326   2.001   3.707  0.0724 -0.0871  0.2954
 5361SOL    HW227717   3.293   2.128   3.642  0.7583  0.3886  0.8367
 5362SOL     OW27718   0.792   1.828   4.048 -0.4477  0.2344 -0.2459
 5362SOL    HW127719   0.829   1.845   4.134 -1.9065 -2.0723  0.8414
 5362SOL    HW227720   0.851   1.884   3.997 -0.2783  0.5185  0.2633
 5363SOL     OW27721   3.756   2.801   9.113 -0.3533 -0.1274  0.4165
 5363SOL    HW127722   3.708   2.784   9.032  0.2244  2.8148 -0.5336
 5363SOL    HW227723   3.841   2.829   9.080 -1.4613  1.7714 -0.8456
 5364SOL     OW27724   2.929   4.527  13.293  0.1990 -0.6237 -0.3241
 5364SOL    HW127725   2.982   4.451  13.271 -0.0483 -0.5082 -1.2961
 5364SOL    HW227726   2.931   4.585  13.217  1.8430  1.5095  1.3397
 5365SOL     OW27727   2.889   0.161   8.212 -0.5642  0.3546 -0.4669
 5365SOL    HW127728   2.978   0.140   8.185 -0.5878  0.1726 -0.4024
 5365SOL    HW227729   2.895   0.244   8.260  0.7495  0.2336 -0.4302
 5366SOL     OW27730   0.312   3.307   1.392  0.7777 -0.0059  0.3584
 5366SOL    HW127731   0.281   3.352   1.314 -1.2479  0.1485  1.2413
 5366SOL    HW227732   0.250   3.345   1.455 -1.9518 -0.6501 -1.9084
 5367SOL     OW27733   0.738   4.104   5.224  0.4093 -0.2488  0.4561
 5367SOL    HW127734   0.777   4.039   5.167  2.5676  0.8451  0.6863
 5367SOL    HW227735   0.673   4.142   5.165  1.5852  4.1847  1.9823
 5368SOL     OW27736   2.413   3.500  17.331 -0.4451  0.1016 -0.5537
 5368SOL    HW127737   2.468   3.555  17.274 -0.8649  0.8095 -0.2633
 5368SOL    HW227738   2.413   3.557  17.407  0.3230  1.2937 -1.4463
 5369SOL     OW27739   0.439   1.328   4.022  0.3716 -0.3328 -0.1871
 5369SOL    HW127740   0.420   1.235   4.036 -0.6742 -0.0598  0.2213
 5369SOL    HW227741   0.526   1.322   4.061  0.3732 -1.1802 -0.3066
 5370SOL     OW27742   2.578   3.991   5.174 -0.0856 -0.1840  0.0594
 5370SOL    HW127743   2.569   4.016   5.266 -0.7975 -0.1655 -0.0110
 5370SOL    HW227744   2.670   4.011   5.158 -0.1965  0.2964  0.0296
 5371SOL     OW27745   3.408   0.017   3.118 -0.6077  0.2288 -0.3702
 5371SOL    HW127746   3.468   4.727   3.048 -1.4322 -0.0696 -0.9748
 5371SOL    HW227747   3.416   4.680   3.180 -0.0487  1.3846  0.8917
 5372SOL     OW27748   4.462   3.912   5.282  0.3033 -0.4673  0.1313
 5372SOL    HW127749   4.515   3.836   5.306  1.6149  0.9707  1.7050
 5372SOL    HW227750   4.391   3.856   5.249  0.1057 -0.5435  0.6819
 5373SOL     OW27751   2.365   3.820  16.128 -0.2986  0.8460 -0.3538
 5373SOL    HW127752   2.275   3.834  16.156 -0.0660  0.2665  0.6623
 5373SOL    HW227753   2.375   3.900  16.076  1.0617  0.2921 -0.9344
 5374SOL     OW27754   2.498   2.882   3.436 -0.1077  0.3428  0.2547
 5374SOL    HW127755   2.423   2.839   3.394 -0.3837  1.9320 -0.8905
 5374SOL    HW227756   2.567   2.855   3.375 -0.0857  0.8612  0.0543
 5375SOL     OW27757   3.681   3.628   9.005  0.0697  0.5687 -0.0825
 5375SOL    HW127758   3.697   3.722   9.018 -0.6350  0.8290 -1.0984
 5375SOL    HW227759   3.756   3.603   9.060 -0.3114  0.9412  0.6082
 5376SOL     OW27760   4.610   1.118  17.319 -0.2396  1.1407 -0.6100
 5376SOL    HW127761   4.689   1.172  17.315 -0.3154  1.0891 -2.9636
 5376SOL    HW227762   4.637   1.034  17.284 -1.7071  0.6989 -0.6696
 5377SOL     OW27763   3.191   1.237  13.070 -0.0310 -0.4102 -0.0291
 5377SOL    HW127764   3.277   1.261  13.035  0.3782  1.5722  2.3339
 5377SOL    HW227765   3.175   1.318  13.118  2.6659  0.3664 -0.4258
 5378SOL     OW27766   2.285   3.883   3.915 -0.3042 -0.6025 -0.7275
 5378SOL    HW127767   2.329   3.813   3.962  0.1156  0.9061  1.1435
 5378SOL    HW227768   2.193   3.857   3.912  0.3699 -2.6903 -2.7890
 5379SOL     OW27769   3.352   2.325   4.169 -0.1264 -0.8373  0.6705
 5379SOL    HW127770   3.313   2.255   4.118  0.0065 -0.7548  0.4545
 5379SOL    HW227771   3.390   2.382   4.102  0.9857 -1.3495  0.8478
 5380SOL     OW27772   2.488   1.415   1.899 -0.6220  0.3516  0.2813
 5380SOL    HW127773   2.481   1.452   1.811  1.3339  0.9155  0.3661
 5380SOL    HW227774   2.479   1.321   1.880 -2.3972  0.3868  0.8589
 5381SOL     OW27775   3.787   3.851  10.424  0.1689  0.0260 -0.3315
 5381SOL    HW127776   3.798   3.759  10.447 -1.9260 -0.1121  0.1020
 5381SOL    HW227777   3.855   3.888  10.480  2.3245 -0.1240 -2.8200
 5382SOL     OW27778   4.365   1.537   5.091 -0.2464 -0.4137 -0.1206
 5382SOL    HW127779   4.293   1.488   5.051  0.8409 -0.8388 -1.5690
 5382SOL    HW227780   4.433   1.470   5.078  2.3658  2.2190 -0.1604
 5383SOL     OW27781   1.665   1.268   4.245  0.0051 -0.1731 -0.1638
 5383SOL    HW127782   1.653   1.275   4.340  0.1333 -0.0284 -0.1597
 5383SOL    HW227783   1.711   1.349   4.226 -0.5326  0.7119  2.2176
 5384SOL     OW27784   1.463   4.210   8.046 -0.2970  0.0326  0.1707
 5384SOL    HW127785   1.392   4.247   7.994 -2.2552 -0.1693  2.6900
 5384SOL    HW227786   1.445   4.117   8.032 -0.8725  0.2411 -0.4561
 5385SOL     OW27787   1.757   1.118   1.396  0.4365 -0.0886 -0.2057
 5385SOL    HW127788   1.840   1.101   1.440  1.2526  0.5452 -1.5040
 5385SOL    HW227789   1.709   1.134   1.477  0.6819  0.0760 -0.0933
 5386SOL     OW27790   0.382   1.189   8.666  0.0138 -0.1160  0.1348
 5386SOL    HW127791   0.455   1.244   8.639 -1.7101  2.7182  1.1545
 5386SOL    HW227792   0.371   1.213   8.758 -0.1563  0.3614 -0.0077
 5387SOL     OW27793   4.485   4.235   3.252 -0.2222 -0.4692  0.0802
 5387SOL    HW127794   4.461   4.272   3.168 -3.7890 -1.5543  0.6431
 5387SOL    HW227795   4.420   4.279   3.307  1.4677  0.9764  0.9608
 5388SOL     OW27796   0.065   0.712   1.743 -0.3426 -0.2302  0.0932
 5388SOL    HW127797   0.026   0.691   1.658  0.0190  0.8388 -0.3278
 5388SOL    HW227798   0.122   0.780   1.709  1.3635 -2.3723 -1.3377
 5389SOL     OW27799   2.767   0.169   5.166 -0.0518  0.0032  0.0735
 5389SOL    HW127800   2.843   0.227   5.159 -0.7063  0.9140  0.5719
 5389SOL    HW227801   2.743   0.180   5.074 -0.8807 -2.9983 -0.0753
 5390SOL     OW27802   3.656   4.733   4.210  0.7266  0.3310  0.1439
 5390SOL    HW127803   3.728   0.040   4.257  0.9684 -1.6462  1.5387
 5390SOL    HW227804   3.618   4.669   4.270  2.2678 -1.2514 -0.5687
 5391SOL     OW27805   0.329   3.891  16.742  0.3216 -0.3931  0.1610
 5391SOL    HW127806   0.403   3.945  16.769  0.8120 -0.4487 -1.1064
 5391SOL    HW227807   0.298   3.944  16.668 -0.3129  0.2736  0.8887
 5392SOL     OW27808   2.361   1.170   5.020 -0.4299 -0.2168  0.3498
 5392SOL    HW127809   2.398   1.089   5.054 -2.5120 -1.6440 -0.8312
 5392SOL    HW227810   2.437   1.227   5.011 -0.7348  0.1308 -0.0130
 5393SOL     OW27811   4.312   2.160   4.897  0.4543 -0.4359 -0.2304
 5393SOL    HW127812   4.238   2.188   4.951 -0.0993 -0.0575 -1.1879
 5393SOL    HW227813   4.282   2.175   4.807  0.5797  0.3300 -0.1391
 5394SOL     OW27814   3.630   2.207   6.185  0.0100 -0.2111 -0.5547
 5394SOL    HW127815   3.709   2.248   6.219  0.5842 -1.7108 -0.0977
 5394SOL    HW227816   3.600   2.175   6.269 -0.2552  4.7161  1.2614
 5395SOL     OW27817   2.569   3.206   7.886  0.8901 -0.0251  0.1278
 5395SOL    HW127818   2.591   3.292   7.923 -0.3832  0.7820 -0.9904
 5395SOL    HW227819   2.476   3.219   7.866  0.9976 -0.5873 -0.7242
 5396SOL     OW27820   0.497   1.938   0.628 -0.2959 -0.4266  0.7098
 5396SOL    HW127821   0.527   1.848   0.616  0.9791 -0.1153  1.6144
 5396SOL    HW227822   0.535   1.975   0.547 -3.4752  0.9705 -0.1500
 5397SOL     OW27823   3.072   2.415   6.877  0.2109 -0.0812  0.0327
 5397SOL    HW127824   3.053   2.393   6.968  1.1688  1.5320  0.6218
 5397SOL    HW227825   3.121   2.494   6.896 -0.7458  0.4100  0.4396
 5398SOL     OW27826   1.130   1.163   8.746  0.6000 -0.3761 -0.5540
 5398SOL    HW127827   1.077   1.235   8.780 -0.4089 -1.2292 -0.2825
 5398SOL    HW227828   1.108   1.088   8.802 -0.2750  1.6676  1.8191
 5399SOL     OW27829   4.256   3.758   6.919 -0.2477  0.5606  0.4674
 5399SOL    HW127830   4.341   3.800   6.911  0.6821 -1.5121 -0.5048
 5399SOL    HW227831   4.259   3.707   7.000 -1.0063  0.6232  0.5343
 5400SOL     OW27832   2.264   2.576   8.294  0.7944  0.2713  0.3891
 5400SOL    HW127833   2.302   2.596   8.209 -0.7764 -0.0330 -0.3904
 5400SOL    HW227834   2.316   2.503   8.327 -0.3948 -0.8248 -0.1480
 5401SOL     OW27835   3.833   3.096   6.389 -0.3511 -0.4105 -0.4341
 5401SOL    HW127836   3.751   3.117   6.345 -0.3027 -0.6791 -0.6561
 5401SOL    HW227837   3.868   3.051   6.312  1.6397  0.7597 -0.2407
 5402SOL     OW27838   3.085   0.868   6.843 -1.3586 -0.3235 -0.4474
 5402SOL    HW127839   3.123   0.956   6.850 -2.0883 -0.0719  0.3737
 5402SOL    HW227840   3.151   0.821   6.792  0.2372 -0.0321  1.3380
 5403SOL     OW27841   1.180   2.712   3.334 -0.1787  0.5075  0.6027
 5403SOL    HW127842   1.139   2.784   3.382 -1.8787 -1.1235  1.6194
 5403SOL    HW227843   1.249   2.694   3.399  2.4154  1.0178 -2.0132
 5404SOL     OW27844   0.959   2.356   1.921  0.4233 -0.6368  0.1892
 5404SOL    HW127845   0.970   2.274   1.971 -2.0420 -0.5805  0.8541
 5404SOL    HW227846   0.886   2.323   1.869  2.0705 -1.2483 -1.7243
 5405SOL     OW27847   1.597   0.058   9.545  0.2928  0.7262  0.5953
 5405SOL    HW127848   1.566   4.716   9.592 -2.4467  1.7977  0.5724
 5405SOL    HW227849   1.685   0.071   9.580  1.6898 -1.3156 -2.1675
 5406SOL     OW27850   0.740   2.987  11.819 -0.5698  0.5102 -0.0540
 5406SOL    HW127851   0.720   3.081  11.822  1.5983  0.9716 -0.5892
 5406SOL    HW227852   0.701   2.969  11.733 -2.5772 -0.8259  1.1367
 5407SOL     OW27853   3.723   2.506  15.955 -0.1422  0.1394 -0.0240
 5407SOL    HW127854   3.811   2.508  15.991 -0.2999 -2.0735  0.4951
 5407SOL    HW227855   3.679   2.548  16.029  0.7312 -0.0234  0.5917
 5408SOL     OW27856   2.886   4.259   2.881 -0.6866 -0.5533 -0.2988
 5408SOL    HW127857   2.921   4.259   2.792 -1.8853 -0.9029 -0.7671
 5408SOL    HW227858   2.946   4.197   2.922  2.7500  1.7300 -1.8563
 5409SOL     OW27859   4.011   3.693  14.758 -0.4142 -0.0711  1.0314
 5409SOL    HW127860   3.925   3.686  14.799  0.3901 -1.4522  2.5156
 5409SOL    HW227861   4.062   3.722  14.833  0.0436 -1.2439  1.1714
 5410SOL     OW27862   0.174   0.420   8.224  0.3931  0.3664  0.2907
 5410SOL    HW127863   0.239   0.362   8.264 -0.2638 -1.2993 -1.0237
 5410SOL    HW227864   0.109   0.359   8.190 -0.5478  1.7501 -0.3769
 5411SOL     OW27865   0.362   1.888   8.501  0.0210  0.4756 -0.0194
 5411SOL    HW127866   0.335   1.979   8.511 -1.4686  0.0590 -0.2344
 5411SOL    HW227867   0.313   1.873   8.420 -0.2222  2.5298 -0.2590
 5412SOL     OW27868   0.812   0.680   0.754 -0.0154  0.0443  0.9783
 5412SOL    HW127869   0.854   0.701   0.838 -1.4170 -0.0714  1.7021
 5412SOL    HW227870   0.804   0.771   0.727 -1.7449 -0.5975 -0.6399
 5413SOL     OW27871   1.022   3.415   3.020 -0.1924  0.3212 -0.6622
 5413SOL    HW127872   1.043   3.507   3.005 -1.5911  0.9051  1.0370
 5413SOL    HW227873   0.930   3.426   3.041  0.2875  0.6224  1.3097
 5414SOL     OW27874   0.474   2.920  14.802  0.2438  0.4918  0.2091
 5414SOL    HW127875   0.452   2.987  14.866 -1.9409  0.4889 -0.5439
 5414SOL    HW227876   0.432   2.962  14.727 -0.1704  0.7605  0.5953
 5415SOL     OW27877   2.956   3.570   8.148  0.0071  0.0089  0.1111
 5415SOL    HW127878   3.000   3.530   8.224 -1.3563 -2.5324 -0.4589
 5415SOL    HW227879   3.014   3.548   8.075  0.2230  0.0194  0.2780
 5416SOL     OW27880   1.812   0.791  13.360  0.1586 -0.4437  0.3463
 5416SOL    HW127881   1.814   0.879  13.324  2.5615 -1.4319 -1.9411
 5416SOL    HW227882   1.892   0.756  13.321 -1.3801 -4.0885  0.4391
 5417SOL     OW27883   1.564   3.560   6.219 -0.3979 -0.4955 -0.1832
 5417SOL    HW127884   1.468   3.559   6.217 -0.4111 -0.3102  0.2927
 5417SOL    HW227885   1.578   3.637   6.164  0.7851 -0.0790  0.7220
 5418SOL     OW27886   4.359   3.872   5.784 -0.0628 -0.0961  1.0491
 5418SOL    HW127887   4.360   3.960   5.821  0.2751  1.0789 -1.7464
 5418SOL    HW227888   4.286   3.825   5.824 -1.2275  1.0173  0.2523
 5419SOL     OW27889   0.847   1.633   9.234  0.4214 -0.5760  0.3624
 5419SOL    HW127890   0.874   1.669   9.319 -2.4605  0.2983  0.9003
 5419SOL    HW227891   0.754   1.614   9.240  0.2022  0.0645 -1.1300
 5420SOL     OW27892   0.991   2.386   5.608 -0.0481  0.3104  0.1839
 5420SOL    HW127893   0.918   2.447   5.620 -0.1688  0.3080 -0.5283
 5420SOL    HW227894   0.953   2.335   5.536  0.5607 -1.0316  0.8135
 5421SOL     OW27895   1.045   2.387   8.804  0.6555 -0.4270 -0.1961
 5421SOL    HW127896   1.069   2.297   8.783  0.3096  0.6376 -5.1254
 5421SOL    HW227897   1.114   2.398   8.869 -0.1578 -1.2587  0.8053
 5422SOL     OW27898   2.508   1.124   0.851 -0.0948  0.1243  0.2393
 5422SOL    HW127899   2.530   1.197   0.793  1.4221 -0.5258 -0.0099
 5422SOL    HW227900   2.416   1.114   0.825  0.3927  0.9806 -1.8317
 5423SOL     OW27901   3.467   1.570   2.440  0.3244  0.5398  0.3126
 5423SOL    HW127902   3.383   1.555   2.397  0.0531 -2.4669  1.8895
 5423SOL    HW227903   3.445   1.632   2.510  2.2356  0.5556  0.9115
 5424SOL     OW27904   0.627   2.916  14.497 -0.0104  0.8987  0.1456
 5424SOL    HW127905   0.647   2.964  14.416  0.9195 -1.2884 -0.9087
 5424SOL    HW227906   0.652   2.988  14.554 -1.3766  2.6668 -1.4876
 5425SOL     OW27907   3.423   2.576   7.994  0.0892  0.4918 -0.8724
 5425SOL    HW127908   3.355   2.636   8.027 -0.4099  1.0352 -2.8918
 5425SOL    HW227909   3.433   2.622   7.911  0.8669  1.9078  0.0046
 5426SOL     OW27910   2.516   4.019   1.876  0.3597 -0.1518  0.2011
 5426SOL    HW127911   2.476   4.003   1.961  0.1249  1.8761  0.4604
 5426SOL    HW227912   2.467   3.960   1.819  0.7546 -0.0548 -0.2373
 5427SOL     OW27913   2.765   2.234   3.083 -0.1625  0.0193 -0.6010
 5427SOL    HW127914   2.674   2.207   3.080 -0.3734  0.9863 -2.6449
 5427SOL    HW227915   2.770   2.290   3.161  0.5333 -1.4380  0.4097
 5428SOL     OW27916   0.250   2.493   9.819  0.4019 -0.0299  0.6013
 5428SOL    HW127917   0.313   2.561   9.794  0.0206 -1.1395 -3.4620
 5428SOL    HW227918   0.181   2.547   9.857 -0.4188 -1.1371  0.6843
 5429SOL     OW27919   2.364   1.895   4.434  0.4485  0.1199 -0.0708
 5429SOL    HW127920   2.352   1.806   4.400 -0.0004  0.9480 -2.0933
 5429SOL    HW227921   2.398   1.873   4.521  0.4107 -0.7282 -0.2727
 5430SOL     OW27922   3.730   1.254  11.582 -0.6268  0.4117 -0.3483
 5430SOL    HW127923   3.813   1.225  11.544 -0.7538 -1.1364  0.5658
 5430SOL    HW227924   3.755   1.341  11.612  1.1204 -0.5780  1.0977
 5431SOL     OW27925   0.768   4.083   0.673  0.5049  0.5240  0.0489
 5431SOL    HW127926   0.677   4.110   0.660 -0.1551 -1.1996  1.0744
 5431SOL    HW227927   0.756   4.066   0.766  0.7237  0.9032  0.1509
 5432SOL     OW27928   0.791   1.721  15.664  0.8338 -0.2689  0.0510
 5432SOL    HW127929   0.878   1.711  15.625  0.8006 -1.0581  0.1798
 5432SOL    HW227930   0.734   1.666  15.611 -0.9497  0.5336  1.1061
 5433SOL     OW27931   4.357   3.315   9.404 -0.0023 -0.6117 -0.2025
 5433SOL    HW127932   4.271   3.323   9.445  0.1628  1.8863 -0.3174
 5433SOL    HW227933   4.333   3.241   9.348 -1.5773  1.0941 -1.7945
 5434SOL     OW27934   1.121   1.257   2.599  0.0362 -0.0885  0.3695
 5434SOL    HW127935   1.141   1.190   2.533 -0.3196  0.6424 -0.4761
 5434SOL    HW227936   1.203   1.304   2.612 -1.0005  2.5963 -2.7481
 5435SOL     OW27937   0.677   2.018   5.657 -1.0647  0.5297  0.2093
 5435SOL    HW127938   0.629   2.037   5.576 -0.4342 -1.7983 -0.7345
 5435SOL    HW227939   0.692   1.924   5.666  0.1722  0.4803 -2.3074
 5436SOL     OW27940   1.704   2.788   2.008 -0.5709  0.0846  0.3314
 5436SOL    HW127941   1.611   2.808   2.007 -0.8688 -1.2801 -0.3464
 5436SOL    HW227942   1.699   2.693   2.022 -0.0155 -0.4545 -3.0950
 5437SOL     OW27943   3.090   1.346   8.533 -0.0370 -0.5659 -0.1990
 5437SOL    HW127944   3.042   1.348   8.450 -1.7942  0.0037  0.8304
 5437SOL    HW227945   3.176   1.324   8.499 -0.7402 -1.3308 -1.4807
 5438SOL     OW27946   3.250   1.140  13.855 -0.1931  0.1951 -0.3420
 5438SOL    HW127947   3.193   1.134  13.932  0.4282 -0.0302  0.0956
 5438SOL    HW227948   3.331   1.159  13.901 -1.0382  2.8355  0.0265
 5439SOL     OW27949   2.649   2.812   4.438 -0.1611 -0.0385 -0.0603
 5439SOL    HW127950   2.603   2.896   4.436 -1.7767 -0.8697  1.7360
 5439SOL    HW227951   2.639   2.783   4.347  0.0509 -0.9148  0.1944
 5440SOL     OW27952   2.852   2.946  14.321 -0.1130 -0.2648 -0.5018
 5440SOL    HW127953   2.852   2.856  14.353  1.3180 -0.7923 -1.9317
 5440SOL    HW227954   2.922   2.947  14.256  1.4742  1.9462  1.2286
 5441SOL     OW27955   1.116   3.530   9.136  0.1434  0.4210 -0.2198
 5441SOL    HW127956   1.038   3.510   9.188  0.5338  1.1582  0.6489
 5441SOL    HW227957   1.094   3.481   9.056  0.7125  1.5856 -1.0820
 5442SOL     OW27958   1.814   3.855   2.627  0.1003 -0.6871  0.4574
 5442SOL    HW127959   1.775   3.820   2.707  0.5622  0.8422  1.3527
 5442SOL    HW227960   1.905   3.865   2.655 -0.0526  1.8509  0.0626
 5443SOL     OW27961   2.274   1.373   2.889 -0.1291  0.6663  0.4966
 5443SOL    HW127962   2.206   1.309   2.866  1.5670 -0.6277 -0.8801
 5443SOL    HW227963   2.344   1.310   2.904 -0.2837  1.0221  2.6991
 5444SOL     OW27964   0.573   4.348   4.727 -0.4097  0.0462  0.3243
 5444SOL    HW127965   0.644   4.406   4.756 -0.8563  0.4197  0.6697
 5444SOL    HW227966   0.517   4.330   4.802  1.3318 -2.6336  0.9781
 5445SOL     OW27967   3.178   4.144   3.507 -0.5196  0.7457 -0.6307
 5445SOL    HW127968   3.191   4.136   3.601  2.0175 -0.7148 -1.1131
 5445SOL    HW227969   3.082   4.145   3.505 -0.5431 -0.2202  0.3280
 5446SOL     OW27970   1.871   2.618  13.428  0.1706 -0.0466  0.0097
 5446SOL    HW127971   1.852   2.640  13.520 -4.2541  1.6180 -1.3044
 5446SOL    HW227972   1.880   2.708  13.398  0.5326  0.4014  1.4292
 5447SOL     OW27973   3.797   3.386   0.191  0.4487  0.2290  0.3295
 5447SOL    HW127974   3.874   3.332   0.209  0.9514  0.7001 -0.4126
 5447SOL    HW227975   3.827   3.457   0.247  2.4715 -0.3708 -0.0018
 5448SOL     OW27976   0.603   0.114   7.566 -0.5324  0.2543 -0.5565
 5448SOL    HW127977   0.655   0.181   7.611  0.3357 -0.3489 -0.6577
 5448SOL    HW227978   0.664   0.045   7.593  0.1803 -0.0405 -2.8563
 5449SOL     OW27979   4.169   0.753   6.271  0.4261 -0.4260  0.0434
 5449SOL    HW127980   4.125   0.805   6.339 -0.5116 -0.7778 -0.2826
 5449SOL    HW227981   4.240   0.707   6.315 -0.7567 -2.1924  0.1447
 5450SOL     OW27982   3.166   3.599  12.034 -0.0917  0.1334 -0.3301
 5450SOL    HW127983   3.256   3.579  12.061 -0.1926 -1.7089 -1.3892
 5450SOL    HW227984   3.134   3.515  12.002  1.5495 -0.6452  0.0667
 5451SOL     OW27985   3.447   2.796   4.967 -0.2566 -0.1491  0.7128
 5451SOL    HW127986   3.527   2.797   4.914  0.7610 -0.7954  2.2508
 5451SOL    HW227987   3.437   2.881   5.011  2.5348 -0.1124  1.2826
 5452SOL     OW27988   2.760   4.305  13.200  0.1562  0.2060  0.1978
 5452SOL    HW127989   2.672   4.294  13.237  0.7830 -0.8341  1.3800
 5452SOL    HW227990   2.757   4.398  13.179  0.1338  0.3541  0.8756
 5453SOL     OW27991   1.953   1.666   8.171 -0.0648 -0.5629 -0.0879
 5453SOL    HW127992   1.867   1.706   8.157 -1.0216 -2.3497  0.7971
 5453SOL    HW227993   2.009   1.742   8.188 -1.6948  1.0473 -1.9524
 5454SOL     OW27994   1.276   3.490   0.154 -0.0358 -0.2265 -0.3615
 5454SOL    HW127995   1.284   3.468   0.061 -0.1767 -0.1163 -0.3998
 5454SOL    HW227996   1.306   3.580   0.148 -0.8974  0.2555  2.5236
 5455SOL     OW27997   1.942   3.990   4.675 -0.4347 -0.1472 -0.4279
 5455SOL    HW127998   1.873   3.940   4.632 -0.4319 -1.4312  1.0796
 5455SOL    HW227999   1.996   4.003   4.597  0.1141  1.3947  0.2009
 5456SOL     OW28000   0.563   3.869   1.972 -0.1799  0.0661 -0.1846
 5456SOL    HW128001   0.596   3.871   2.062  0.3449  0.7399 -0.3964
 5456SOL    HW228002   0.644   3.845   1.927  1.0887 -0.8463  2.5675
 5457SOL     OW28003   3.120   4.506  14.421  0.9497  0.2333 -0.3893
 5457SOL    HW128004   3.056   4.460  14.474  0.2403 -1.7603 -2.9682
 5457SOL    HW228005   3.189   4.520  14.486 -0.5387 -0.1632  1.2667
 5458SOL     OW28006   3.513   0.535   3.158  0.1100  0.0363 -0.2143
 5458SOL    HW128007   3.485   0.559   3.069 -0.9558 -0.0482  0.0966
 5458SOL    HW228008   3.465   0.452   3.156 -0.4268  0.3252  0.8674
 5459SOL     OW28009   2.413   3.131   3.937 -0.4065 -0.4080  0.3571
 5459SOL    HW128010   2.444   3.058   3.991  0.5553 -0.1649  0.1463
 5459SOL    HW228011   2.495   3.149   3.891 -2.9687  2.9624 -2.8436
 5460SOL     OW28012   3.026   3.726   1.025  0.0186  0.4092 -0.4060
 5460SOL    HW128013   3.077   3.733   0.944 -0.6958  0.4730 -0.8488
 5460SOL    HW228014   2.994   3.636   1.024 -0.8945  0.7619 -2.7593
 5461SOL     OW28015   4.235   1.831   4.337  0.4332 -0.1392  0.0004
 5461SOL    HW128016   4.268   1.901   4.280 -1.6076 -0.5300 -1.6496
 5461SOL    HW228017   4.207   1.887   4.410  2.2916  0.9433 -0.1052
 5462SOL     OW28018   2.776   0.140  14.213  0.3278 -0.3911 -0.2927
 5462SOL    HW128019   2.816   0.085  14.146 -1.9094 -1.1025 -1.0241
 5462SOL    HW228020   2.718   0.187  14.153  1.5046 -0.7313 -1.7150
 5463SOL     OW28021   0.745   3.250   5.101  0.2502 -0.7254 -0.1748
 5463SOL    HW128022   0.839   3.236   5.111  0.0653 -0.6550  1.7101
 5463SOL    HW228023   0.715   3.190   5.169  0.3124 -1.7740 -1.0748
 5464SOL     OW28024   0.827   1.291   9.258 -0.0873 -0.3939 -0.5114
 5464SOL    HW128025   0.808   1.361   9.196 -1.1846  0.7122  1.0534
 5464SOL    HW228026   0.897   1.238   9.221 -1.1047 -1.3232 -1.1037
 5465SOL     OW28027   3.680   0.376   4.354 -0.6235  0.1199  0.1347
 5465SOL    HW128028   3.705   0.373   4.446 -0.8190  0.3748  0.1971
 5465SOL    HW228029   3.714   0.290   4.330 -3.1037 -0.5543 -0.9652
 5466SOL     OW28030   1.227   4.121   2.217  0.3318 -0.2077  0.2548
 5466SOL    HW128031   1.190   4.057   2.279 -3.0915 -0.1351 -1.7225
 5466SOL    HW228032   1.259   4.185   2.281 -0.1934  0.2678  0.0397
 5467SOL     OW28033   3.017   4.536   0.189  0.2727 -0.3652  0.3554
 5467SOL    HW128034   3.029   4.541   0.094 -0.0283 -0.3868  0.3173
 5467SOL    HW228035   2.963   4.458   0.201 -1.0786  0.2786 -1.6836
 5468SOL     OW28036   0.798   3.089   4.265  0.1945 -0.1352  0.5733
 5468SOL    HW128037   0.754   3.069   4.348 -2.2865 -1.5665 -1.0722
 5468SOL    HW228038   0.804   3.004   4.222 -3.2333  0.0047 -0.2057
 5469SOL     OW28039   3.279   2.726  12.741 -0.1084  0.2229  0.1541
 5469SOL    HW128040   3.312   2.752  12.656 -1.6295  1.4969 -0.0426
 5469SOL    HW228041   3.187   2.698  12.738 -0.0137  0.0423 -1.0117
 5470SOL     OW28042   3.567   1.666   1.716 -0.1186  0.1045  0.1551
 5470SOL    HW128043   3.583   1.761   1.716  0.6964 -0.0186  1.4523
 5470SOL    HW228044   3.492   1.656   1.658  0.1981  0.3338 -0.2926
 5471SOL     OW28045   3.906   2.715  15.755  0.1583  0.4832  0.6122
 5471SOL    HW128046   3.971   2.727  15.824  1.6210 -1.8648 -0.3766
 5471SOL    HW228047   3.901   2.620  15.752  1.7726  0.4148 -0.1438
 5472SOL     OW28048   2.298   3.311   8.131  0.7172 -0.6354 -0.2870
 5472SOL    HW128049   2.341   3.396   8.128  3.0639 -1.7542  1.7246
 5472SOL    HW228050   2.208   3.337   8.110  1.0066 -1.5549 -2.6151
 5473SOL     OW28051   3.522   0.186   3.907  0.1287 -0.2967 -0.3021
 5473SOL    HW128052   3.506   0.156   3.817  2.0921 -1.7920 -0.1536
 5473SOL    HW228053   3.511   0.280   3.896  0.0236 -0.1937  0.6959
 5474SOL     OW28054   2.774   3.221  15.591 -0.3081 -0.1624 -0.2184
 5474SOL    HW128055   2.822   3.155  15.540  1.6713  0.6978  0.5047
 5474SOL    HW228056   2.760   3.177  15.675 -0.2132 -2.8726 -1.6074
 5475SOL     OW28057   4.146   0.727   4.364 -0.4335  0.3441 -0.5256
 5475SOL    HW128058   4.055   0.730   4.334 -1.1966 -1.7715  1.6464
 5475SOL    HW228059   4.186   0.710   4.279  2.1140 -1.8351  1.1204
 5476SOL     OW28060   3.351   0.028  15.134  0.1706 -0.2524  0.0705
 5476SOL    HW128061   3.404   0.107  15.147  2.6421 -1.8478 -0.3585
 5476SOL    HW228062   3.348   0.024  15.038  2.1646 -0.9418  0.0300
 5477SOL     OW28063   4.370   4.229   3.894  0.2277 -0.0853  0.2253
 5477SOL    HW128064   4.410   4.315   3.884  0.7519 -0.2650  0.7693
 5477SOL    HW228065   4.419   4.185   3.963 -0.6860 -0.3259  0.7216
 5478SOL     OW28066   3.527   2.321   3.698  0.4256  0.5946  0.1661
 5478SOL    HW128067   3.584   2.344   3.625 -0.5960  0.6142 -0.6208
 5478SOL    HW228068   3.468   2.257   3.659 -1.8749  2.7321  0.0975
 5479SOL     OW28069   2.156   1.025   6.674 -0.6076  0.2509  0.0900
 5479SOL    HW128070   2.146   1.102   6.618 -1.4600 -0.0237 -0.1388
 5479SOL    HW228071   2.070   1.000   6.708 -0.4103  1.1016  1.2091
 5480SOL     OW28072   2.800   0.309  10.663 -0.6787  0.4984 -0.0892
 5480SOL    HW128073   2.843   0.224  10.655  1.1524  1.6287 -2.1032
 5480SOL    HW228074   2.708   0.283  10.675 -0.6278  0.3723  0.0279
 5481SOL     OW28075   0.671   4.410   7.655  0.1040  0.1599  0.4163
 5481SOL    HW128076   0.586   4.367   7.647  0.5025 -1.0547  2.6467
 5481SOL    HW228077   0.662   4.449   7.742  0.0784  1.5304 -0.1923
 5482SOL     OW28078   2.232   4.504   8.665  0.0448  0.2743 -0.4845
 5482SOL    HW128079   2.163   4.510   8.732  1.6156 -0.3023  1.1604
 5482SOL    HW228080   2.244   4.599   8.653  0.0971  0.4748  1.1471
 5483SOL     OW28081   1.977   3.029   0.186 -0.4357  0.0110 -0.4164
 5483SOL    HW128082   1.892   2.988   0.199 -1.1085  1.1173 -1.3868
 5483SOL    HW228083   2.031   2.968   0.136 -1.3076 -1.5935  0.6115
 5484SOL     OW28084   2.445   0.976   7.686  0.7140  0.0976 -0.3446
 5484SOL    HW128085   2.379   0.942   7.746  0.2018  2.6724  0.5616
 5484SOL    HW228086   2.394   1.033   7.629  2.6514  2.0799 -0.1205
 5485SOL     OW28087   3.568   1.631   6.497  0.0857 -0.1669 -0.6254
 5485SOL    HW128088   3.479   1.624   6.463 -0.8509  0.8447  1.5853
 5485SOL    HW228089   3.568   1.587   6.583 -0.3567  0.1519 -0.4623
 5486SOL     OW28090   3.876   1.738  12.551 -0.2874  0.4073 -0.2701
 5486SOL    HW128091   3.956   1.711  12.598 -1.4781 -0.0245  1.5134
 5486SOL    HW228092   3.811   1.699  12.609 -0.3655  2.3504  0.9623
 5487SOL     OW28093   1.122   2.173   4.618 -0.3775  0.3324 -0.2926
 5487SOL    HW128094   1.132   2.080   4.601 -1.1066  0.1456  0.2801
 5487SOL    HW228095   1.201   2.188   4.670 -1.6050  0.5904  1.5005
 5488SOL     OW28096   3.034   2.927   4.621 -0.2878  0.4593 -0.3825
 5488SOL    HW128097   2.976   2.919   4.697 -1.8042  1.9570 -1.3825
 5488SOL    HW228098   3.055   2.835   4.606  1.2619  0.6754  0.4727
 5489SOL     OW28099   3.000   0.535   9.402 -0.8265 -0.3946  0.0423
 5489SOL    HW128100   3.065   0.464   9.396 -0.7238 -0.2601 -0.4632
 5489SOL    HW228101   3.037   0.590   9.333 -0.5177 -2.6048 -1.5580
 5490SOL     OW28102   3.427   4.424   9.524 -0.5662 -0.1491  0.8113
 5490SOL    HW128103   3.363   4.352   9.522 -2.1177  1.3024 -1.4372
 5490SOL    HW228104   3.480   4.403   9.600  1.8861  2.0519 -0.3043
 5491SOL     OW28105   0.303   2.021   4.618  0.5008 -0.2324  0.5349
 5491SOL    HW128106   0.230   2.038   4.677  1.1151 -1.3647  1.6296
 5491SOL    HW228107   0.265   1.977   4.543 -0.3482  0.4333  0.5731
 5492SOL     OW28108   3.176   0.371   9.859 -0.1749 -0.1891 -0.3250
 5492SOL    HW128109   3.181   0.363   9.764 -2.0649 -1.8055 -0.2875
 5492SOL    HW228110   3.114   0.443   9.873 -2.3422 -2.1709  0.3642
 5493SOL     OW28111   3.454   3.497   2.352 -0.2448  0.5583 -0.0191
 5493SOL    HW128112   3.474   3.498   2.259 -2.8797 -1.6085 -0.5912
 5493SOL    HW228113   3.359   3.501   2.345 -0.1873  2.0758 -0.0205
 5494SOL     OW28114   1.935   2.454   7.604 -0.1949 -0.1311  0.4067
 5494SOL    HW128115   1.881   2.385   7.644 -0.9529  0.9491  1.2553
 5494SOL    HW228116   2.000   2.487   7.666 -2.2143  0.0374  2.4501
 5495SOL     OW28117   0.526   3.516   3.443 -0.1439 -0.1426  0.4969
 5495SOL    HW128118   0.605   3.554   3.405  0.7130 -1.2043  1.1916
 5495SOL    HW228119   0.545   3.539   3.534 -3.4587  1.5249  0.7622
 5496SOL     OW28120   3.515   1.735  12.574  0.1017  0.7260  0.7301
 5496SOL    HW128121   3.568   1.661  12.604  0.6875  1.3528  1.2441
 5496SOL    HW228122   3.481   1.757  12.660 -1.1777  1.4461  0.0340
 5497SOL     OW28123   2.772   1.342   7.942  0.0848 -0.2494  0.3842
 5497SOL    HW128124   2.748   1.307   7.856  1.5742  0.2099 -0.2261
 5497SOL    HW228125   2.836   1.412   7.928  0.8443 -0.5488  2.2953
 5498SOL     OW28126   0.203   1.500   2.874  0.4792 -0.4653 -0.1995
 5498SOL    HW128127   0.220   1.586   2.836  1.8779  0.4243  2.4444
 5498SOL    HW228128   0.117   1.517   2.913 -0.4532 -2.0864 -1.5769
 5499SOL     OW28129   3.853   1.282   3.271 -0.3471  0.4088 -0.2528
 5499SOL    HW128130   3.798   1.257   3.197 -0.4206  0.0385 -0.0722
 5499SOL    HW228131   3.818   1.371   3.276  0.8246  0.8886 -0.7018
 5500SOL     OW28132   1.040   4.285   4.991  0.6758 -0.0137 -0.4191
 5500SOL    HW128133   1.001   4.347   5.053  0.5494 -0.6327  0.1139
 5500SOL    HW228134   0.975   4.280   4.921  1.0727 -2.3333 -0.6091
 5501SOL     OW28135   4.126   4.343   7.119 -0.4438  0.0880  0.0001
 5501SOL    HW128136   4.070   4.388   7.182  0.5125  0.7927  0.3509
 5501SOL    HW228137   4.131   4.255   7.156  2.7153  0.3183  0.0702
 5502SOL     OW28138   3.262   0.102   4.547  0.3450 -0.4720 -0.3589
 5502SOL    HW128139   3.263   0.163   4.473  0.3585 -1.7073 -1.3593
 5502SOL    HW228140   3.172   0.108   4.580 -0.0273 -1.5299 -1.2062
 5503SOL     OW28141   0.873   4.100   8.281  0.0788  0.0258 -0.6928
 5503SOL    HW128142   0.793   4.073   8.237 -1.1033  0.8428  0.9762
 5503SOL    HW228143   0.898   4.022   8.331  0.9622  1.3709  0.9797
 5504SOL     OW28144   2.269   3.130  12.097  0.2936  0.9151 -0.3160
 5504SOL    HW128145   2.211   3.173  12.159 -2.3537 -2.3571 -0.4679
 5504SOL    HW228146   2.254   3.186  12.021  2.4945  1.2422 -0.5039
 5505SOL     OW28147   2.383   1.143   8.391 -1.0089  0.4701 -0.3529
 5505SOL    HW128148   2.358   1.066   8.441  1.4021 -0.5735 -0.7627
 5505SOL    HW228149   2.446   1.099   8.334 -0.9098  0.1007  0.0464
 5506SOL     OW28150   0.431   2.682  17.357  0.0466  0.9260 -0.0960
 5506SOL    HW128151   0.519   2.711  17.379 -0.0925  2.3514 -1.4164
 5506SOL    HW228152   0.433   2.725  17.272 -4.9831  0.5773 -0.3997
 5507SOL     OW28153   0.621   2.101   0.407  0.0988 -0.3896  0.3551
 5507SOL    HW128154   0.556   2.170   0.415  0.3752 -0.3525  2.2039
 5507SOL    HW228155   0.689   2.145   0.456  1.1081  0.9668 -2.2498
 5508SOL     OW28156   0.551   2.821   5.823 -0.1762  0.0505  0.4891
 5508SOL    HW128157   0.563   2.730   5.852 -1.7214 -1.0492 -2.3447
 5508SOL    HW228158   0.465   2.828   5.866 -0.5660  1.0356 -0.4665
 5509SOL     OW28159   4.553   2.318   8.756  0.0968  0.2868 -0.5683
 5509SOL    HW128160   4.605   2.238   8.754 -1.7847 -0.9179 -0.8716
 5509SOL    HW228161   4.467   2.276   8.758  1.4904 -2.6102 -1.0394
 5510SOL     OW28162   1.652   3.022   5.457 -0.9221 -0.1891 -0.7481
 5510SOL    HW128163   1.671   2.940   5.503 -2.8947 -0.4021 -0.2964
 5510SOL    HW228164   1.560   3.025   5.483 -1.0315 -0.2511 -1.1194
 5511SOL     OW28165   1.477   2.175   4.061  0.1000 -0.0956 -0.1398
 5511SOL    HW128166   1.513   2.263   4.048  2.3768 -0.7935  1.4021
 5511SOL    HW228167   1.398   2.181   4.008  0.5337  2.1667 -0.5485
 5512SOL     OW28168   1.384   2.040   0.229 -0.1360 -0.5640 -0.4490
 5512SOL    HW128169   1.300   1.993   0.228 -0.4800  0.0114  0.7910
 5512SOL    HW228170   1.447   1.979   0.268 -0.3746  0.0394  0.8888
 5513SOL     OW28171   0.893   0.517  17.033 -0.0380 -0.5021 -0.0601
 5513SOL    HW128172   0.899   0.611  17.045  0.1191 -0.6748  1.2503
 5513SOL    HW228173   0.977   0.486  17.067 -0.4454 -1.4344  0.0987
 5514SOL     OW28174   3.822   3.039  17.701  0.4671  0.3615 -0.3483
 5514SOL    HW128175   3.735   3.005  17.683  0.3454 -0.1873  1.2863
 5514SOL    HW228176   3.807   3.133  17.697  4.1367  0.8704 -2.6079
 5515SOL     OW28177   2.914   1.155   4.043  0.0303  0.1333 -0.3639
 5515SOL    HW128178   3.001   1.156   4.005 -0.1399 -1.6843 -0.7789
 5515SOL    HW228179   2.926   1.093   4.115  0.6154  2.5711  1.6537
 5516SOL     OW28180   1.912   1.020   2.534  0.5771  0.2551 -0.4752
 5516SOL    HW128181   1.912   0.925   2.543 -0.0088  0.0905 -2.0973
 5516SOL    HW228182   1.961   1.034   2.614 -0.1619  3.7612 -0.6387
 5517SOL     OW28183   2.358   1.870   8.047  0.0105  0.2293 -0.1305
 5517SOL    HW128184   2.330   1.813   7.976 -1.2835  1.7436 -0.8218
 5517SOL    HW228185   2.408   1.806   8.099 -1.9203  0.9742  2.6429
 5518SOL     OW28186   0.346   1.359   5.015 -0.6531 -0.0183  0.3114
 5518SOL    HW128187   0.271   1.311   4.980 -0.5069  1.7035 -2.4391
 5518SOL    HW228188   0.313   1.381   5.102 -0.8916 -1.2306  0.5196
 5519SOL     OW28189   0.951   0.170  12.764  0.2825 -0.1477  0.2684
 5519SOL    HW128190   0.998   0.092  12.796 -0.0137 -0.2618  0.4244
 5519SOL    HW228191   0.909   0.145  12.681 -0.5745  1.5851  0.1896
 5520SOL     OW28192   1.279   1.510  11.382  0.1113 -0.0611  0.0193
 5520SOL    HW128193   1.219   1.572  11.341  0.5630  0.3837  0.0290
 5520SOL    HW228194   1.283   1.544  11.471 -3.2541 -0.7900  0.4580
 5521SOL     OW28195   3.542   3.569   0.410  0.1904 -0.3136 -0.0870
 5521SOL    HW128196   3.534   3.525   0.495  2.0181  0.1070  0.3033
 5521SOL    HW228197   3.616   3.626   0.431  0.0570 -1.1419  2.6788
 5522SOL     OW28198   4.567   1.876   7.799  0.0513  0.3437 -0.6938
 5522SOL    HW128199   4.506   1.943   7.769 -0.2396  0.5552  0.3987
 5522SOL    HW228200   4.529   1.814   7.861 -2.5727  0.6629 -1.9753
 5523SOL     OW28201   2.860   3.161   3.426 -0.0195  0.3871 -0.2105
 5523SOL    HW128202   2.869   3.070   3.453  3.9658  0.5402 -1.0681
 5523SOL    HW228203   2.767   3.180   3.413 -0.1301  0.5154  0.7333
 5524SOL     OW28204   2.727   0.575   5.958  0.3255  0.5492  0.0665
 5524SOL    HW128205   2.675   0.529   5.892  2.9146 -2.4599  0.1274
 5524SOL    HW228206   2.685   0.544   6.038  0.3977 -2.2259 -0.9790
 5525SOL     OW28207   4.396   0.387   2.453  0.1341  0.3075 -0.0717
 5525SOL    HW128208   4.436   0.469   2.480  0.5272 -0.4008  1.4801
 5525SOL    HW228209   4.355   0.410   2.369  0.1255 -0.3909 -0.2591
 5526SOL     OW28210   0.413   1.213   3.113  0.3175 -0.4874 -0.5126
 5526SOL    HW128211   0.381   1.164   3.188  1.0585 -2.0247 -1.2109
 5526SOL    HW228212   0.381   1.302   3.131  0.4278 -0.7535  1.0265
 5527SOL     OW28213   4.522   3.634   7.438  0.3562  0.4203 -0.1079
 5527SOL    HW128214   4.455   3.625   7.505 -1.1951 -0.7079 -1.8139
 5527SOL    HW228215   4.491   3.583   7.362 -0.4045  0.3907  0.2290
 5528SOL     OW28216   4.263   2.222   6.967 -0.2494 -0.6411  0.2245
 5528SOL    HW128217   4.243   2.209   7.060  0.5672 -2.9891  0.0597
 5528SOL    HW228218   4.344   2.171   6.958  0.7976  1.3174 -1.5831
 5529SOL     OW28219   2.447   2.932  16.983  0.0104  0.1405  0.1046
 5529SOL    HW128220   2.435   2.859  16.923  1.9523 -0.1056  0.0135
 5529SOL    HW228221   2.386   2.906  17.053  0.2164  0.6977  0.4900
 5530SOL     OW28222   0.100   3.346   7.776  0.4698  0.3740 -0.5171
 5530SOL    HW128223   0.131   3.301   7.698 -1.0407 -0.6350 -0.5313
 5530SOL    HW228224   0.009   3.320   7.765  0.7325 -1.5753  1.8099
 5531SOL     OW28225   0.739   0.145   4.955  0.6088 -0.4335  0.7276
 5531SOL    HW128226   0.708   0.229   4.922  1.3300 -0.4498  0.0090
 5531SOL    HW228227   0.826   0.140   4.913  1.6401  2.4902  2.5109
 5532SOL     OW28228   2.303   1.715  17.240  0.2311 -0.2235  0.7560
 5532SOL    HW128229   2.372   1.677  17.294 -0.2383 -0.4558  1.1855
 5532SOL    HW228230   2.343   1.773  17.174  0.9477 -1.5295  0.0446
 5533SOL     OW28231   4.480   3.842  15.956 -0.1968  0.1158 -0.3580
 5533SOL    HW128232   4.485   3.747  15.962 -2.1738 -0.0301 -0.9467
 5533SOL    HW228233   4.398   3.854  16.004  1.2455 -2.1009  2.6367
 5534SOL     OW28234   3.044   3.069  15.748  0.6437  0.3394 -0.1007
 5534SOL    HW128235   3.020   3.121  15.824 -0.0260  3.0944 -2.1964
 5534SOL    HW228236   3.008   2.987  15.782  0.4779  1.1123  1.5393
 5535SOL     OW28237   1.366   0.268   8.581  0.1500 -0.3237 -0.5681
 5535SOL    HW128238   1.284   0.298   8.543  0.2350 -1.0773 -1.3274
 5535SOL    HW228239   1.382   0.330   8.652 -2.2092 -1.1273  0.6506
 5536SOL     OW28240   4.532   2.962  11.887  0.1334  0.2455 -0.7301
 5536SOL    HW128241   4.462   3.009  11.932 -1.4162 -2.6567 -0.1228
 5536SOL    HW228242   4.603   2.977  11.950  1.0290 -0.0506 -1.6564
 5537SOL     OW28243   2.473   1.808  10.860 -0.1334  0.0278  0.0725
 5537SOL    HW128244   2.404   1.857  10.816 -0.1593  1.4473  1.7131
 5537SOL    HW228245   2.420   1.741  10.903  0.7729 -0.1753  0.8881
 5538SOL     OW28246   3.162   1.056  10.725 -0.8208 -0.2435  0.5672
 5538SOL    HW128247   3.188   0.967  10.700 -0.0191 -0.5448  2.4667
 5538SOL    HW228248   3.239   1.069  10.781  0.0352 -0.7162 -0.5166
 5539SOL     OW28249   0.778   1.798   0.366 -0.0643 -0.7088  0.1818
 5539SOL    HW128250   0.704   1.806   0.426  0.3234 -0.7698  0.6720
 5539SOL    HW228251   0.759   1.709   0.337  0.0118 -0.0507 -1.8887
 5540SOL     OW28252   0.439   0.427   3.585 -0.6832 -0.0665 -0.2352
 5540SOL    HW128253   0.521   0.413   3.537 -0.1687  1.7007  0.1515
 5540SOL    HW228254   0.477   0.471   3.661 -1.8648  1.0642 -0.3045
 5541SOL     OW28255   1.396   4.440   5.398  0.7117  0.3698  0.4965
 5541SOL    HW128256   1.394   4.376   5.327 -0.2459  0.0465  0.8251
 5541SOL    HW228257   1.314   4.432   5.446  0.0061  1.0644 -0.5990
 5542SOL     OW28258   4.031   0.105   7.643  0.0666  0.0550  0.0763
 5542SOL    HW128259   3.948   0.057   7.646 -1.5573  2.9046  0.6780
 5542SOL    HW228260   4.040   0.151   7.560 -1.8039 -2.2221 -1.3899
 5543SOL     OW28261   0.571   2.043   4.827 -0.2237 -0.3087  0.3015
 5543SOL    HW128262   0.534   1.981   4.765 -0.0470 -0.3164  0.2043
 5543SOL    HW228263   0.540   2.127   4.792 -1.0928 -1.7008 -2.2456
 5544SOL     OW28264   4.426   1.695   6.887 -0.3381  0.6627 -0.1763
 5544SOL    HW128265   4.466   1.711   6.802 -0.9322  1.8947 -0.2246
 5544SOL    HW228266   4.500   1.651   6.928 -0.6034 -0.9360 -1.4070
 5545SOL     OW28267   1.906   2.767   2.980 -0.1726 -0.9757 -0.0936
 5545SOL    HW128268   1.930   2.781   2.889  1.1616 -0.8064  0.2827
 5545SOL    HW228269   1.812   2.787   2.979 -0.2118 -1.1113  1.0386
 5546SOL     OW28270   2.236   2.170   2.605  0.2192  0.4988 -0.1130
 5546SOL    HW128271   2.281   2.255   2.607  1.5037 -0.1637 -0.7707
 5546SOL    HW228272   2.222   2.168   2.510  0.6527 -2.6087 -0.1016
 5547SOL     OW28273   0.720   0.631  14.122 -0.3017  0.2242 -0.4705
 5547SOL    HW128274   0.769   0.619  14.203 -0.6458  2.7229  0.0981
 5547SOL    HW228275   0.771   0.573  14.065 -1.3905  1.3300 -2.5878
 5548SOL     OW28276   0.980   0.438   5.785  0.3112 -0.2120 -0.4343
 5548SOL    HW128277   0.966   0.357   5.835  0.2031 -1.2269 -2.0718
 5548SOL    HW228278   0.938   0.406   5.705  0.1879  0.1976 -0.5313
 5549SOL     OW28279   2.004   1.658   6.535 -0.4370  0.4012  0.2244
 5549SOL    HW128280   1.943   1.644   6.607 -1.2617  0.6453 -0.4283
 5549SOL    HW228281   1.968   1.606   6.463 -0.5326 -2.2734  2.2084
 5550SOL     OW28282   4.601   3.865   9.903  0.2410 -0.4021 -0.2470
 5550SOL    HW128283   4.630   3.944   9.856  1.0666 -0.8726 -0.5261
 5550SOL    HW228284   4.542   3.891   9.974  1.9407  0.0586  0.9932
 5551SOL     OW28285   3.534   1.174  11.327 -0.0674 -0.9759  0.0210
 5551SOL    HW128286   3.565   1.186  11.417  1.6605  0.7378 -0.8202
 5551SOL    HW228287   3.439   1.176  11.335 -0.1583  0.2507 -1.4476
 5552SOL     OW28288   0.500   2.278   8.384 -0.0368  0.5727  0.7960
 5552SOL    HW128289   0.593   2.303   8.386 -0.2065  1.3003 -0.7388
 5552SOL    HW228290   0.472   2.313   8.469  1.6076  2.9998  0.3590
 5553SOL     OW28291   0.325   0.709   2.411 -0.5660  0.2577 -0.2851
 5553SOL    HW128292   0.255   0.647   2.432  1.2218 -1.6364  0.1134
 5553SOL    HW228293   0.271   0.773   2.364  1.6317  1.4485 -1.1548
 5554SOL     OW28294   3.441   2.630   2.330 -0.5195 -0.2110 -0.1555
 5554SOL    HW128295   3.350   2.654   2.311 -0.3083 -0.5582 -1.6080
 5554SOL    HW228296   3.427   2.573   2.405  1.5730 -0.9432 -0.3499
 5555SOL     OW28297   3.585   2.681   7.425  0.1074 -0.2124 -0.6488
 5555SOL    HW128298   3.578   2.586   7.433 -0.8242 -0.1336 -0.5448
 5555SOL    HW228299   3.498   2.717   7.408  0.5583  0.3959 -1.6100
 5556SOL     OW28300   0.682   1.388   4.139  0.1811  0.3053 -0.0108
 5556SOL    HW128301   0.648   1.384   4.228  1.6880 -2.3794  0.4359
 5556SOL    HW228302   0.772   1.370   4.166  0.5951  1.3705 -0.6758
 5557SOL     OW28303   4.150   0.706   3.009 -0.0291  0.1800  0.1504
 5557SOL    HW128304   4.207   0.683   2.935 -0.7709  1.6957 -0.8812
 5557SOL    HW228305   4.151   0.801   3.005  0.5381  0.1258 -1.1578
 5558SOL     OW28306   1.197   0.071   5.398  0.5376 -0.5901  0.4814
 5558SOL    HW128307   1.111   0.035   5.421  0.4891  0.7685  2.4743
 5558SOL    HW228308   1.194   0.054   5.304  1.9409 -0.9809  0.5106
 5559SOL     OW28309   3.148   1.169  11.850 -0.0482  0.3318  0.3150
 5559SOL    HW128310   3.147   1.260  11.880  0.9706  0.5545 -0.3461
 5559SOL    HW228311   3.054   1.153  11.841 -0.2985  1.5869  0.7526
 5560SOL     OW28312   4.486   3.609  13.475 -0.0206  0.0528  0.0581
 5560SOL    HW128313   4.422   3.650  13.417  1.8373  1.1700 -1.2084
 5560SOL    HW228314   4.442   3.529  13.501 -1.0951 -0.4856 -3.5060
 5561SOL     OW28315   1.651   1.803   5.688  0.7497  0.1762 -0.2866
 5561SOL    HW128316   1.710   1.791   5.613 -2.6549 -0.1468 -2.9031
 5561SOL    HW228317   1.665   1.898   5.695 -1.6697  0.6910 -2.2374
 5562SOL     OW28318   0.532   4.490   8.570  0.5229 -0.5953  0.3699
 5562SOL    HW128319   0.541   4.395   8.567 -2.5190 -0.8376 -1.3550
 5562SOL    HW228320   0.587   4.519   8.643  0.0885 -0.5193  0.6661
 5563SOL     OW28321   2.841   0.951  15.945  0.2067  0.2724 -0.0129
 5563SOL    HW128322   2.803   1.016  15.885 -1.7396 -2.1408 -1.4254
 5563SOL    HW228323   2.828   0.989  16.031 -0.0767 -0.2358  0.1719
 5564SOL     OW28324   4.679   0.185  10.835  0.1650 -0.1752 -0.0267
 5564SOL    HW128325   4.715   0.247  10.899 -0.4843 -0.6533  0.8093
 5564SOL    HW228326   4.639   0.228  10.760  0.0331  1.1446  0.8088
 5565SOL     OW28327   2.254   0.406   4.420  0.1043 -0.0430  0.0799
 5565SOL    HW128328   2.276   0.491   4.380  1.5615  0.0625  1.1056
 5565SOL    HW228329   2.305   0.342   4.370 -0.4991 -0.0800 -0.4900
 5566SOL     OW28330   0.285   0.338   7.147  0.1151  0.0420 -0.4936
 5566SOL    HW128331   0.314   0.342   7.238 -0.2557 -2.0878 -0.2955
 5566SOL    HW228332   0.259   0.430   7.135  0.9700  0.3492 -0.0446
 5567SOL     OW28333   3.475   1.593   5.727  0.3402  0.5564  0.3923
 5567SOL    HW128334   3.422   1.526   5.769  0.2646  0.8552  0.7655
 5567SOL    HW228335   3.564   1.572   5.757 -0.1838 -0.4516  1.2431
 5568SOL     OW28336   2.013   4.064   2.356 -0.2046  0.0283 -0.1391
 5568SOL    HW128337   1.971   4.149   2.363  0.6485  0.6460 -2.5144
 5568SOL    HW228338   2.103   4.076   2.385 -0.4724 -0.8900  1.0934
 5569SOL     OW28339   3.629   2.234   2.785  0.2336 -0.1373 -0.0685
 5569SOL    HW128340   3.595   2.161   2.733 -0.3577  0.4296 -0.4705
 5569SOL    HW228341   3.701   2.274   2.736 -0.6581  2.2220  0.5851
 5570SOL     OW28342   0.679   3.162   2.992  0.3133 -0.7714 -0.3647
 5570SOL    HW128343   0.726   3.147   2.910  0.7932  0.4204 -0.3181
 5570SOL    HW228344   0.651   3.076   3.025 -0.6651  0.1311  1.1901
 5571SOL     OW28345   0.481   4.241   8.633 -0.2295  0.3307  0.3724
 5571SOL    HW128346   0.467   4.148   8.619  0.3620  0.2768  0.1378
 5571SOL    HW228347   0.394   4.270   8.660 -1.3673 -1.7391 -1.0926
 5572SOL     OW28348   3.415   2.825   8.281  0.1355  0.0059  0.1558
 5572SOL    HW128349   3.383   2.801   8.368  0.5182 -1.8060 -0.2138
 5572SOL    HW228350   3.335   2.826   8.229 -0.4812  2.2448  1.1355
 5573SOL     OW28351   4.396   1.167   8.013 -0.1078 -0.4471 -0.3187
 5573SOL    HW128352   4.352   1.146   7.930 -0.7518 -0.3277 -0.0133
 5573SOL    HW228353   4.485   1.187   7.985 -0.4687  2.3152  0.5247
 5574SOL     OW28354   2.642   2.009   2.638 -0.0445 -0.3471  0.4713
 5574SOL    HW128355   2.698   2.046   2.706  0.9048 -1.4530  0.2857
 5574SOL    HW228356   2.554   2.018   2.676 -0.8404 -1.5366 -1.0679
 5575SOL     OW28357   2.788   2.693   7.643  0.4716  0.6844  0.3068
 5575SOL    HW128358   2.868   2.651   7.612  0.8420  0.8067  1.0960
 5575SOL    HW228359   2.733   2.694   7.564 -2.1675 -0.8166  2.1368
 5576SOL     OW28360   4.179   1.232  12.093 -0.8252  0.2565  0.2294
 5576SOL    HW128361   4.238   1.262  12.023  0.8582 -0.5315  1.3059
 5576SOL    HW228362   4.148   1.152  12.052  1.0849 -1.1137  1.4545
 5577SOL     OW28363   0.642   1.600   7.632 -0.7868  0.0787  0.2417
 5577SOL    HW128364   0.737   1.603   7.620 -0.9665  2.6494 -0.7575
 5577SOL    HW228365   0.631   1.676   7.690 -0.8140  0.5753 -0.4033
 5578SOL     OW28366   4.111   4.598   5.697 -0.0813  0.2283  0.3165
 5578SOL    HW128367   4.119   4.638   5.784  1.7678  2.1317 -0.7483
 5578SOL    HW228368   4.125   4.506   5.718  0.5374 -0.0536 -1.3917
 5579SOL     OW28369   4.702   2.425   9.261 -0.1009 -0.8966 -0.1170
 5579SOL    HW128370   4.634   2.413   9.195  0.1636 -1.6709 -0.2386
 5579SOL    HW228371   4.733   2.514   9.243 -2.4359 -0.1222 -0.3360
 5580SOL     OW28372   2.615   0.429   3.271  0.3396 -0.7649 -0.2885
 5580SOL    HW128373   2.707   0.451   3.285 -0.4614  1.3226  1.6101
 5580SOL    HW228374   2.572   0.512   3.249  1.4276 -0.6813 -2.1267
 5581SOL     OW28375   1.844   4.615   8.137 -0.0779 -0.4539  0.2149
 5581SOL    HW128376   1.829   4.581   8.225  2.2550 -2.5736 -0.2073
 5581SOL    HW228377   1.900   4.692   8.151 -0.3404 -0.3463  0.6885
 5582SOL     OW28378   1.653   0.364   2.771  0.0978  0.0512  0.4648
 5582SOL    HW128379   1.595   0.387   2.699  2.6312  3.3526 -0.5327
 5582SOL    HW228380   1.741   0.377   2.735 -0.3588 -1.0740 -1.0187
 5583SOL     OW28381   1.927   1.689  14.891 -0.5795 -0.6249 -0.2107
 5583SOL    HW128382   1.914   1.779  14.862  1.4631 -1.0876 -2.5745
 5583SOL    HW228383   1.842   1.675  14.933 -0.3229 -0.3431  0.4014
 5584SOL     OW28384   2.402   0.165   6.402 -0.0129  0.0911  0.2201
 5584SOL    HW128385   2.358   0.093   6.447 -2.9093  3.2120  2.3342
 5584SOL    HW228386   2.358   0.239   6.444 -2.6718 -2.1884  1.3713
 5585SOL     OW28387   1.619   0.403   8.567  0.0762 -0.4414  0.5415
 5585SOL    HW128388   1.542   0.348   8.553 -1.3547  1.1748  1.9708
 5585SOL    HW228389   1.678   0.372   8.499 -0.9917 -1.1469 -0.0692
 5586SOL     OW28390   1.381   2.775  15.542 -0.0607  0.2042 -0.2260
 5586SOL    HW128391   1.317   2.839  15.510 -0.5255 -0.5838 -0.8899
 5586SOL    HW228392   1.322   2.705  15.571  0.1758 -0.7564 -2.0729
 5587SOL     OW28393   4.649   0.308   5.849 -0.5722  0.0820  0.2776
 5587SOL    HW128394   4.564   0.344   5.825  0.3151  1.9548 -0.0705
 5587SOL    HW228395   4.655   0.333   5.941  0.6358 -3.8995  1.3017
 5588SOL     OW28396   3.373   3.697   4.380  0.0586  0.0314 -1.0351
 5588SOL    HW128397   3.329   3.669   4.299 -2.9239  1.6880  0.0265
 5588SOL    HW228398   3.413   3.780   4.357  0.7628  0.5887  2.1885
 5589SOL     OW28399   3.240   2.991   3.345 -0.3525  0.3708 -0.1294
 5589SOL    HW128400   3.228   3.061   3.409 -0.0980  0.7353 -0.4802
 5589SOL    HW228401   3.244   3.055   3.274  0.6826  2.0795  1.4574
 5590SOL     OW28402   2.174   1.273   6.558 -0.2401  0.3914 -0.2651
 5590SOL    HW128403   2.260   1.274   6.600 -0.7813 -0.8153  0.8674
 5590SOL    HW228404   2.192   1.332   6.484  1.9355  2.9679  2.3550
 5591SOL     OW28405   1.581   2.408  11.257 -0.1532  0.0701 -0.5510
 5591SOL    HW128406   1.492   2.416  11.223  0.0233 -0.2274 -1.0738
 5591SOL    HW228407   1.623   2.349  11.195  2.2792  1.1052  0.1017
 5592SOL     OW28408   4.361   2.511  12.133 -0.1510 -0.0448 -0.9554
 5592SOL    HW128409   4.430   2.533  12.195 -0.6063 -0.1182 -0.4138
 5592SOL    HW228410   4.391   2.440  12.077 -1.6279 -0.4954 -1.1940
 5593SOL     OW28411   1.545   0.879   5.461 -0.6712 -0.4342 -0.2759
 5593SOL    HW128412   1.633   0.881   5.423 -0.6227  1.4978 -0.0355
 5593SOL    HW228413   1.526   0.786   5.449 -1.4311 -0.4904  1.4071
 5594SOL     OW28414   1.420   1.183   0.196  0.2451  0.3523 -0.0382
 5594SOL    HW128415   1.343   1.142   0.157  0.7850 -0.6057 -0.0878
 5594SOL    HW228416   1.384   1.211   0.280  0.0223  2.9784 -0.9836
 5595SOL     OW28417   0.058   1.007  12.946 -0.3712 -0.1181  0.5879
 5595SOL    HW128418   0.089   1.022  13.035 -3.3514 -1.4378  1.8497
 5595SOL    HW228419   4.718   0.949  12.950 -1.3035  1.0902  0.2265
 5596SOL     OW28420   1.464   1.289   3.312 -0.3464 -0.4607 -0.1225
 5596SOL    HW128421   1.509   1.327   3.387 -0.3883 -1.1421  0.2437
 5596SOL    HW228422   1.453   1.364   3.253  2.1793  0.6344  0.8197
 5597SOL     OW28423   3.323   1.669  13.910  0.3479 -0.2198 -0.3915
 5597SOL    HW128424   3.230   1.654  13.895  0.2675  0.1517 -0.2637
 5597SOL    HW228425   3.344   1.602  13.975 -1.6510  0.8817  1.3487
 5598SOL     OW28426   2.684   0.546   1.164  0.1505  0.3522  0.4877
 5598SOL    HW128427   2.765   0.495   1.160 -0.6952 -0.9166 -0.6269
 5598SOL    HW228428   2.688   0.604   1.087 -0.1715 -2.3636 -1.5993
 5599SOL     OW28429   4.219   3.460   2.606 -0.1066 -0.1838 -0.1958
 5599SOL    HW128430   4.225   3.533   2.667 -2.9798 -0.6262  0.5880
 5599SOL    HW228431   4.159   3.499   2.542 -2.3798 -0.5087  1.7413
 5600SOL     OW28432   2.935   3.516  10.506  0.4628 -0.2803 -0.6106
 5600SOL    HW128433   3.022   3.538  10.472  0.9845  0.6448  1.3156
 5600SOL    HW228434   2.956   3.531  10.598  1.9466 -0.5293 -0.9047
 5601SOL     OW28435   3.649   3.444  14.494 -0.2069 -0.2195  0.5483
 5601SOL    HW128436   3.682   3.367  14.540  4.0383  0.8540 -0.6623
 5601SOL    HW228437   3.720   3.506  14.513  0.1717 -0.7250  0.7816
 5602SOL     OW28438   1.144   4.397   8.337 -0.6026 -0.7375  0.1117
 5602SOL    HW128439   1.190   4.317   8.360  0.1890 -0.2762  0.1134
 5602SOL    HW228440   1.212   4.438   8.284 -0.9279 -2.3957 -1.5963
 5603SOL     OW28441   3.646   4.677   8.098  0.5289 -0.7021  0.0007
 5603SOL    HW128442   3.666   0.004   8.168  2.0679 -0.8896 -0.2654
 5603SOL    HW228443   3.675   4.729   8.023  0.3878 -0.7656 -0.0966
 5604SOL     OW28444   2.250   4.063   5.357  0.1372 -0.2004 -0.1462
 5604SOL    HW128445   2.174   4.108   5.319 -0.1915 -2.1724 -1.8371
 5604SOL    HW228446   2.291   4.033   5.276  0.7777 -2.1786  0.9053
 5605SOL     OW28447   4.505   2.484   8.432 -0.1532 -0.1605  0.3209
 5605SOL    HW128448   4.561   2.482   8.510  0.4215  0.5350 -0.0738
 5605SOL    HW228449   4.548   2.415   8.380 -0.0324  0.2903 -0.1736
 5606SOL     OW28450   4.206   1.157   9.940  0.3418  0.0953 -0.0966
 5606SOL    HW128451   4.227   1.135   9.849  0.6706 -2.6319  0.6453
 5606SOL    HW228452   4.167   1.075   9.972  0.7955  1.4431  3.8136
 5607SOL     OW28453   2.827   2.873   5.896 -0.2888  0.0154  0.4885
 5607SOL    HW128454   2.859   2.783   5.896  0.9485  0.4842  3.0248
 5607SOL    HW228455   2.740   2.856   5.932  0.2472  0.2273  1.8761
 5608SOL     OW28456   1.788   3.585   0.420  0.3386  0.5869 -0.4474
 5608SOL    HW128457   1.880   3.562   0.423  0.2757  0.0919 -2.3334
 5608SOL    HW228458   1.744   3.508   0.456  0.5700  1.0870  0.8859
 5609SOL     OW28459   2.291   3.107   2.063 -0.6944 -0.0392 -0.2703
 5609SOL    HW128460   2.351   3.121   1.990  1.5451 -1.8969  1.2106
 5609SOL    HW228461   2.251   3.025   2.034 -0.4565 -0.0889 -0.4596
 5610SOL     OW28462   4.563   0.160   7.012  0.3500 -0.0123  0.2273
 5610SOL    HW128463   4.644   0.208   6.993  1.5560 -2.9327 -1.9645
 5610SOL    HW228464   4.589   0.111   7.089  1.1131  3.1977  2.0398
 5611SOL     OW28465   2.177   0.532  13.557  0.1330  0.0399 -0.0425
 5611SOL    HW128466   2.216   0.619  13.555  0.7599 -0.1287  4.4466
 5611SOL    HW228467   2.250   0.469  13.551 -0.2619 -0.3088 -1.2240
 5612SOL     OW28468   2.123   3.082   3.867  0.3593  0.1736  0.7079
 5612SOL    HW128469   2.109   3.024   3.792  0.6661  0.9304  0.0664
 5612SOL    HW228470   2.215   3.075   3.890  0.7936 -1.2797 -1.5072
 5613SOL     OW28471   1.746   4.303  17.686 -0.7988  0.5530  0.1018
 5613SOL    HW128472   1.795   4.355   0.007 -0.0175  1.0647 -0.9420
 5613SOL    HW228473   1.655   4.327  17.704 -1.1693 -0.0089 -0.9765
 5614SOL     OW28474   1.675   1.669   7.492 -0.7245  0.1625 -0.5411
 5614SOL    HW128475   1.624   1.662   7.412 -0.9766 -1.9400 -0.1854
 5614SOL    HW228476   1.649   1.586   7.532  0.3370 -0.3952 -0.9924
 5615SOL     OW28477   3.778   0.474   1.893  0.1781  0.2947  0.7022
 5615SOL    HW128478   3.781   0.394   1.840 -1.3833 -0.0333  1.1122
 5615SOL    HW228479   3.754   0.532   1.820 -0.1835 -0.0055  0.5812
 5616SOL     OW28480   2.606   4.263   7.277 -0.5255 -0.0579 -0.5114
 5616SOL    HW128481   2.548   4.188   7.266 -0.3159  0.1278 -2.8343
 5616SOL    HW228482   2.677   4.223   7.328  0.0977  1.6567 -0.0209
 5617SOL     OW28483   3.288   1.807  11.815  0.3397 -0.5344  0.3224
 5617SOL    HW128484   3.276   1.879  11.752 -0.1246 -0.6660  0.2597
 5617SOL    HW228485   3.199   1.774  11.818 -0.6550  2.1147 -0.0548
 5618SOL     OW28486   0.647   0.084  13.433 -0.1920  0.2659 -0.4515
 5618SOL    HW128487   0.652   0.146  13.506 -0.4304  0.6506 -0.7620
 5618SOL    HW228488   0.681   0.139  13.362 -0.6089  1.2706  0.1357
 5619SOL     OW28489   3.812   1.570  12.082 -1.0494  0.1165  0.6110
 5619SOL    HW128490   3.860   1.653  12.075 -0.9336  0.0160  0.2107
 5619SOL    HW228491   3.881   1.511  12.112 -0.5523 -0.0026 -0.7594
 5620SOL     OW28492   0.760   4.479   1.890 -0.2939  0.1864  0.2102
 5620SOL    HW128493   0.832   4.420   1.870 -0.6651  0.5315 -2.1325
 5620SOL    HW228494   0.794   4.521   1.968 -0.5630  0.4346  0.1954
 5621SOL     OW28495   3.305   2.494  14.851 -0.1333 -0.0705  0.2239
 5621SOL    HW128496   3.260   2.431  14.907 -1.1330 -0.1706 -0.7116
 5621SOL    HW228497   3.254   2.571  14.875  0.2824 -0.1262  1.2757
 5622SOL     OW28498   4.725   3.632   2.894  0.0864  0.0767 -0.4814
 5622SOL    HW128499   4.712   3.672   2.980  0.6571 -1.4913  0.3256
 5622SOL    HW228500   0.074   3.588   2.899  0.6191  1.3386  1.6901
 5623SOL     OW28501   1.748   4.297  11.424  0.1829 -0.4339 -0.3134
 5623SOL    HW128502   1.750   4.393  11.417  0.9933 -0.4725 -0.5616
 5623SOL    HW228503   1.841   4.280  11.410  0.2810 -1.4255  1.5159
 5624SOL     OW28504   3.006   3.721  12.263 -0.4803 -0.2619 -0.1378
 5624SOL    HW128505   3.044   3.664  12.331 -0.7095  0.1142  0.3052
 5624SOL    HW228506   3.042   3.673  12.188 -0.8271  0.1612 -0.5733
 5625SOL     OW28507   0.578   1.647   2.071  0.2639 -0.7809  0.0780
 5625SOL    HW128508   0.621   1.702   2.138 -1.2407 -1.4056  1.5579
 5625SOL    HW228509   0.493   1.647   2.115  0.6305 -1.6240  0.7903
 5626SOL     OW28510   4.487   0.997   8.743 -0.5175 -0.4013 -0.8953
 5626SOL    HW128511   4.570   0.988   8.697  1.7905  0.7804  3.0685
 5626SOL    HW228512   4.466   0.904   8.752 -0.2727 -0.6623 -2.9801
 5627SOL     OW28513   3.226   3.251   5.546  0.0133 -0.0544 -0.2492
 5627SOL    HW128514   3.263   3.306   5.477  0.4634 -0.8563 -0.6508
 5627SOL    HW228515   3.236   3.309   5.622 -1.1977  0.6421 -0.6326
 5628SOL     OW28516   2.230   1.554  15.178 -0.1846 -0.0552 -0.7684
 5628SOL    HW128517   2.184   1.562  15.095 -1.0736 -1.2233 -0.3973
 5628SOL    HW228518   2.158   1.571  15.239 -1.2279 -0.4339 -1.8890
 5629SOL     OW28519   4.412   4.548   3.826 -1.3031 -0.1421  1.0688
 5629SOL    HW128520   4.332   4.523   3.780  1.6196 -1.0721 -3.5790
 5629SOL    HW228521   4.471   4.514   3.758 -1.4153  0.9298  0.4311
 5630SOL     OW28522   4.100   2.292   8.237 -0.7921  0.2751  0.6906
 5630SOL    HW128523   4.015   2.287   8.281 -1.2912 -2.1399 -0.5168
 5630SOL    HW228524   4.159   2.307   8.311  1.1296 -0.7099 -0.6329
 5631SOL     OW28525   1.940   2.411   2.380 -0.7902 -0.0233  0.0635
 5631SOL    HW128526   1.877   2.348   2.345 -1.2970  0.2460  0.4999
 5631SOL    HW228527   1.917   2.419   2.472 -1.9895  0.6371 -0.2918
 5632SOL     OW28528   1.872   1.390   3.333  0.0671 -0.4083  0.1356
 5632SOL    HW128529   1.832   1.407   3.248 -1.3323 -1.2273  0.6231
 5632SOL    HW228530   1.905   1.472   3.370  0.4488 -1.1197  1.4189
 5633SOL     OW28531   3.735   2.063   8.418  0.2330  0.4082 -0.1660
 5633SOL    HW128532   3.653   2.054   8.369 -0.4243 -0.0756  1.0196
 5633SOL    HW228533   3.799   2.024   8.359  0.6340 -0.4259  0.8265
 5634SOL     OW28534   0.881   3.495   2.679 -0.3120  0.3254  0.2663
 5634SOL    HW128535   0.973   3.519   2.666 -0.1311  0.9460  2.6390
 5634SOL    HW228536   0.854   3.563   2.740 -2.5645  0.1352 -0.5203
 5635SOL     OW28537   4.268   3.964   3.692 -0.4398 -0.5279 -0.3028
 5635SOL    HW128538   4.282   3.983   3.784  2.1836 -0.1362 -0.7552
 5635SOL    HW228539   4.357   3.951   3.657 -1.0413 -1.5463 -1.4513
 5636SOL     OW28540   2.441   2.689   7.264  0.0462  0.0734 -0.6720
 5636SOL    HW128541   2.469   2.723   7.348  1.4148  0.5083 -1.3030
 5636SOL    HW228542   2.476   2.747   7.197 -0.1624 -0.8209 -1.5645
 5637SOL     OW28543   1.833   3.855   6.999 -0.5097  0.1917 -0.0640
 5637SOL    HW128544   1.837   3.789   7.069  0.6975  0.4525  0.1122
 5637SOL    HW228545   1.906   3.912   7.025 -0.8886  0.1268  1.1405
 5638SOL     OW28546   1.320   1.202   8.162  0.1519  0.6754  0.5715
 5638SOL    HW128547   1.351   1.160   8.242  1.4100 -1.2156 -0.9049
 5638SOL    HW228548   1.366   1.285   8.163  0.0065  0.7661 -0.2631
 5639SOL     OW28549   3.775   0.608   7.879 -0.0487 -0.5117  0.0433
 5639SOL    HW128550   3.748   0.694   7.847  0.9618  0.1820  1.0614
 5639SOL    HW228551   3.807   0.637   7.964 -1.0292 -0.2744  0.3218
 5640SOL     OW28552   4.235   0.006   2.415 -0.0649  0.2645  0.7149
 5640SOL    HW128553   4.162   0.014   2.477  0.1491  0.9793  0.8677
 5640SOL    HW228554   4.303   0.064   2.450 -1.2311  1.4682  0.9823
 5641SOL     OW28555   0.221   4.019   7.623  0.1889 -0.3475  0.1288
 5641SOL    HW128556   0.234   4.101   7.671  2.1630  0.2679 -1.4558
 5641SOL    HW228557   0.217   3.964   7.701  1.2213 -1.0533 -0.3180
 5642SOL     OW28558   0.297   2.973   7.703  0.9250  0.5415 -0.3278
 5642SOL    HW128559   0.367   2.979   7.637  0.1723  2.0875 -0.9777
 5642SOL    HW228560   0.288   2.878   7.712 -1.1953  0.9393  1.5518
 5643SOL     OW28561   3.727   4.237  15.109 -0.3778  0.1024 -0.4793
 5643SOL    HW128562   3.771   4.252  15.026  0.8392 -1.5377 -0.1415
 5643SOL    HW228563   3.773   4.156  15.133  2.9310  1.6938 -1.4663
 5644SOL     OW28564   1.443   0.901  11.415 -0.5862  0.4345  0.5269
 5644SOL    HW128565   1.453   0.829  11.477  1.0373  0.6789  0.5469
 5644SOL    HW228566   1.536   0.908  11.398 -0.2401  1.8485  3.0304
 5645SOL     OW28567   3.587   3.584  11.135  0.0597 -0.2118 -0.4020
 5645SOL    HW128568   3.529   3.605  11.208 -0.8260  0.4086 -1.2883
 5645SOL    HW228569   3.640   3.664  11.127 -0.1623  0.1336  1.6566
 5646SOL     OW28570   1.576   0.899   2.041 -0.4740  0.1781 -0.3108
 5646SOL    HW128571   1.636   0.892   2.115 -1.2494  0.4265  0.3354
 5646SOL    HW228572   1.487   0.906   2.075 -0.8326  0.6624 -1.3342
 5647SOL     OW28573   2.490   0.100   5.518  0.4130 -0.1710  0.6280
 5647SOL    HW128574   2.406   0.073   5.480 -0.5228  0.6546  2.1073
 5647SOL    HW228575   2.549   0.074   5.447 -2.8092  1.0520 -2.4724
 5648SOL     OW28576   3.129   4.701   9.026  0.6021 -0.1125  0.0022
 5648SOL    HW128577   3.142   4.629   8.965  2.3610 -0.3693  0.6743
 5648SOL    HW228578   3.034   4.714   9.026  0.7314  0.8777  0.3924
 5649SOL     OW28579   3.325   0.954   6.381  0.4541  0.4381  0.0659
 5649SOL    HW128580   3.334   1.040   6.423 -2.1295  0.2371  1.0059
 5649SOL    HW228581   3.252   0.907   6.421 -0.5228  2.1134  0.2373
 5650SOL     OW28582   1.234   2.483   7.396  0.5637  0.5019  0.4523
 5650SOL    HW128583   1.274   2.397   7.408  1.2784  0.4636 -2.1137
 5650SOL    HW228584   1.232   2.501   7.490  0.2591  1.9187  0.1672
 5651SOL     OW28585   2.788   1.814  11.727  0.0396 -0.8716 -0.1781
 5651SOL    HW128586   2.816   1.824  11.818 -1.4977  1.3840  0.0669
 5651SOL    HW228587   2.702   1.857  11.732  0.0980 -1.0651  2.1833
 5652SOL     OW28588   2.215   1.687  13.945  0.3433  0.1915  0.2955
 5652SOL    HW128589   2.168   1.688  14.028 -0.3120  1.8908 -0.0954
 5652SOL    HW228590   2.301   1.656  13.972  0.3562  1.5317  1.7556
 5653SOL     OW28591   4.722   2.753   9.679 -0.1218  0.1464 -0.1373
 5653SOL    HW128592   4.699   2.823   9.739  0.7269  0.6158 -0.3644
 5653SOL    HW228593   0.016   2.811   9.609  2.0966  1.1832  1.6470
 5654SOL     OW28594   3.868   0.366  17.217  0.8394 -0.4124 -0.1614
 5654SOL    HW128595   3.888   0.459  17.224  0.7895 -0.2209 -2.5857
 5654SOL    HW228596   3.780   0.365  17.253  1.0283 -1.6539  0.2762
 5655SOL     OW28597   3.139   3.068  14.667  0.0305  0.0087 -0.6174
 5655SOL    HW128598   3.043   3.064  14.671 -0.1054  1.0145 -3.0337
 5655SOL    HW228599   3.154   3.160  14.646  0.0685  0.3889  1.1034
 5656SOL     OW28600   3.624   0.371   6.843 -0.0304  0.2834  0.5252
 5656SOL    HW128601   3.638   0.293   6.789  0.1314  0.7611 -0.1356
 5656SOL    HW228602   3.585   0.343   6.925 -0.6259  3.4487  1.3126
 5657SOL     OW28603   3.421   3.519  17.323  0.2064  0.2586 -0.5664
 5657SOL    HW128604   3.347   3.487  17.271 -0.0584 -0.0068 -0.0231
 5657SOL    HW228605   3.383   3.587  17.378  0.3772 -0.1283  0.0270
 5658SOL     OW28606   0.528   2.533   5.494 -0.3990 -0.1824 -0.3658
 5658SOL    HW128607   0.508   2.511   5.585  2.6046 -0.4383  0.2470
 5658SOL    HW228608   0.550   2.626   5.493 -1.2514  0.0114 -1.2854
 5659SOL     OW28609   2.756   2.913   5.091  0.3274  0.8880 -0.2034
 5659SOL    HW128610   2.677   2.877   5.131  1.6238  0.4369  1.9507
 5659SOL    HW228611   2.798   2.947   5.170  1.0167  0.6694 -0.4773
 5660SOL     OW28612   0.740   3.907   1.619  0.4954 -0.3819 -0.5783
 5660SOL    HW128613   0.726   3.997   1.648  1.6436 -0.2831 -0.3291
 5660SOL    HW228614   0.791   3.866   1.689 -0.5629  0.3206  0.6129
 5661SOL     OW28615   1.466   1.569   3.197  0.2838  0.2737  0.0907
 5661SOL    HW128616   1.387   1.576   3.145  0.3944 -1.3186 -0.2856
 5661SOL    HW228617   1.527   1.577   3.124  0.3646  1.8455  0.3337
 5662SOL     OW28618   0.235   4.269   1.556  0.1629  0.6725  0.0349
 5662SOL    HW128619   0.167   4.255   1.622  1.6643 -1.7779  1.0637
 5662SOL    HW228620   0.192   4.333   1.500 -2.0142 -0.4930  0.3599
 5663SOL     OW28621   1.455   0.990   0.447  0.2159 -0.2145 -0.2396
 5663SOL    HW128622   1.538   0.983   0.494 -1.2235 -0.5208  2.2690
 5663SOL    HW228623   1.430   1.080   0.468 -0.2959 -0.5405  0.5646
 5664SOL     OW28624   0.430   1.606   0.740 -0.1093  0.2288 -0.5893
 5664SOL    HW128625   0.507   1.564   0.776  0.6227  0.8891 -1.3886
 5664SOL    HW228626   0.399   1.661   0.812 -2.3240 -0.1886 -1.2083
 5665SOL     OW28627   0.982   4.181   3.044  0.0399 -0.1875 -0.4645
 5665SOL    HW128628   1.034   4.257   3.017  0.1723 -1.1599 -2.9855
 5665SOL    HW228629   0.907   4.227   3.081 -1.4753 -1.6794 -1.6787
 5666SOL     OW28630   3.910   4.664   8.851 -0.8133  0.1196 -0.6022
 5666SOL    HW128631   3.921   4.734   8.787  2.2554  0.3576  0.1880
 5666SOL    HW228632   3.931   4.710   8.932  0.6718 -1.0875 -0.2861
 5667SOL     OW28633   3.648   0.676   7.059  0.1243 -0.0591 -0.5238
 5667SOL    HW128634   3.688   0.596   7.095  0.7271  0.9120  0.9466
 5667SOL    HW228635   3.670   0.735   7.131 -1.8649 -1.3445  1.1364
 5668SOL     OW28636   0.663   1.857  15.854 -0.0796  0.3141 -0.3589
 5668SOL    HW128637   0.668   1.951  15.837 -0.2956  0.4719  0.4273
 5668SOL    HW228638   0.722   1.828  15.785  0.0131  0.4203 -0.3241
 5669SOL     OW28639   1.457   3.561   7.669  0.1682  0.6197 -0.3541
 5669SOL    HW128640   1.518   3.593   7.603  0.3658  0.5610 -0.2021
 5669SOL    HW228641   1.500   3.577   7.753  0.5880  0.6255 -0.5717
 5670SOL     OW28642   2.297   0.834   1.852 -0.2774 -0.1038 -0.0764
 5670SOL    HW128643   2.352   0.757   1.870 -0.6307 -0.4150 -0.3094
 5670SOL    HW228644   2.280   0.828   1.757 -1.4692  0.9880  0.0793
 5671SOL     OW28645   4.293   4.361   5.707  0.0306  0.7024  0.2411
 5671SOL    HW128646   4.382   4.379   5.676 -0.0029  0.7928  0.1970
 5671SOL    HW228647   4.262   4.286   5.658 -1.4999  1.4452  0.0573
 5672SOL     OW28648   1.531   1.557   6.637 -0.6940 -0.0722  0.1017
 5672SOL    HW128649   1.536   1.500   6.714 -0.8738  1.3072  1.1391
 5672SOL    HW228650   1.518   1.487   6.573 -0.5568 -0.2436  0.2650
 5673SOL     OW28651   2.611   3.579  11.153  0.1364 -0.1357 -0.2115
 5673SOL    HW128652   2.702   3.604  11.142 -0.3279  0.1488 -3.4268
 5673SOL    HW228653   2.574   3.601  11.067  1.3900 -1.7740 -1.1671
 5674SOL     OW28654   4.220   3.825   6.644  0.1763 -0.3630  0.5463
 5674SOL    HW128655   4.128   3.799   6.635 -0.1377  0.2050  2.0765
 5674SOL    HW228656   4.242   3.793   6.731 -2.3046 -0.1850  1.2404
 5675SOL     OW28657   2.279   0.247   6.004 -0.3576  0.2103  0.0036
 5675SOL    HW128658   2.343   0.177   6.015  1.0935  1.4486 -0.5240
 5675SOL    HW228659   2.223   0.217   5.932 -0.5393  0.1117  0.1874
 5676SOL     OW28660   2.232   0.235  11.025  0.2016 -0.2331 -0.2063
 5676SOL    HW128661   2.327   0.229  11.022  0.3840  2.0985  0.3069
 5676SOL    HW228662   2.230   0.325  10.993 -0.7990  0.4763  1.8174
 5677SOL     OW28663   1.516   2.243   5.484  0.5289  0.3517 -0.3421
 5677SOL    HW128664   1.447   2.279   5.541  0.2012  1.7725 -1.6320
 5677SOL    HW228665   1.581   2.311   5.499 -0.1703  1.1259 -0.7940
 5678SOL     OW28666   1.941   1.750   8.541 -0.6924  0.0067 -0.4297
 5678SOL    HW128667   1.922   1.665   8.579  0.0584  0.1510  0.2570
 5678SOL    HW228668   2.033   1.756   8.567 -0.7063 -2.0226  0.1067
 5679SOL     OW28669   2.209   1.563   8.081  0.1815 -0.2000  0.0645
 5679SOL    HW128670   2.196   1.469   8.093  1.4311 -0.3133  0.5275
 5679SOL    HW228671   2.146   1.601   8.143  0.9217 -0.2454  0.8435
 5680SOL     OW28672   0.631   1.497  15.462 -0.4174  0.7420  0.3059
 5680SOL    HW128673   0.623   1.526  15.371 -1.7622  4.2366  1.5316
 5680SOL    HW228674   0.541   1.473  15.487  0.9042 -1.5126  2.9032
 5681SOL     OW28675   2.790   2.095   6.242 -0.1845 -0.4162 -0.0935
 5681SOL    HW128676   2.707   2.057   6.214 -0.6797 -0.4109  1.3765
 5681SOL    HW228677   2.833   2.061   6.163  0.2519 -1.2650  0.5170
 5682SOL     OW28678   3.988   4.655   6.295 -0.1548 -0.4835  0.3308
 5682SOL    HW128679   3.910   4.702   6.264 -1.5895 -3.4882 -0.5803
 5682SOL    HW228680   3.982   4.579   6.238  0.0776  0.5453 -1.0718
 5683SOL     OW28681   0.077   3.708   5.822  0.4736  0.3177  0.4778
 5683SOL    HW128682   0.018   3.735   5.752 -1.0843 -1.0787  1.2526
 5683SOL    HW228683   0.103   3.791   5.864  1.0413  0.2088  0.3429
 5684SOL     OW28684   1.307   1.493   5.234 -0.8880 -0.2687 -0.1243
 5684SOL    HW128685   1.382   1.540   5.272  0.6113 -2.0458 -0.8614
 5684SOL    HW228686   1.364   1.430   5.190 -1.4340  0.6904 -2.1909
 5685SOL     OW28687   3.707   1.988   6.009  0.3444  0.6656  0.3714
 5685SOL    HW128688   3.656   1.910   6.033 -0.2743  0.1944 -2.4272
 5685SOL    HW228689   3.654   2.052   6.056  0.5138  1.0166  0.0829
 5686SOL     OW28690   4.637   1.569   5.764 -0.1317  0.6048  0.1197
 5686SOL    HW128691   4.655   1.510   5.836  0.8857 -0.2431 -0.8312
 5686SOL    HW228692   4.549   1.539   5.739  0.3270  0.1858 -1.0181
 5687SOL     OW28693   2.318   1.743   3.250  0.1484 -0.3347  0.8191
 5687SOL    HW128694   2.231   1.768   3.280 -0.9159 -2.1605 -0.7939
 5687SOL    HW228695   2.297   1.672   3.189 -1.8783 -2.1713  3.7290
 5688SOL     OW28696   1.238   3.080   0.510  0.1345 -0.1746  0.2110
 5688SOL    HW128697   1.212   3.134   0.435 -1.3813 -0.4361  0.5524
 5688SOL    HW228698   1.310   3.034   0.467 -2.8098 -2.1553 -2.5305
 5689SOL     OW28699   2.632   3.804  12.089 -0.1341 -0.5363 -0.2302
 5689SOL    HW128700   2.629   3.723  12.138  0.5498 -0.2296  0.3144
 5689SOL    HW228701   2.700   3.780  12.026 -0.3123 -1.7747  0.0551
 5690SOL     OW28702   3.955   4.688  16.782 -1.0182 -0.2140 -0.4053
 5690SOL    HW128703   3.936   4.695  16.689 -2.8920  2.5232  0.1844
 5690SOL    HW228704   3.923   4.599  16.796  0.9868 -0.8585  0.1485
 5691SOL     OW28705   4.035   1.049   7.815 -0.0496 -0.1718  0.0198
 5691SOL    HW128706   3.983   1.024   7.738  0.0989  0.6522 -0.3425
 5691SOL    HW228707   4.035   1.144   7.822  1.1458 -0.4321  3.2090
 5692SOL     OW28708   0.020   4.435  17.724  0.3639 -0.0107 -0.9552
 5692SOL    HW128709   0.039   4.516   0.030  1.4065 -1.2497  0.7530
 5692SOL    HW228710   4.722   4.385   0.056 -0.1887  0.7259 -0.7181
 5693SOL     OW28711   0.117   1.817   4.064  0.5110 -0.0534 -0.0923
 5693SOL    HW128712   0.109   1.897   4.116  2.6951  0.5527 -0.6933
 5693SOL    HW228713   0.079   1.756   4.127 -1.2815  0.1380 -0.9588
 5694SOL     OW28714   3.925   2.437  12.318  0.1566  0.0573 -0.3525
 5694SOL    HW128715   4.012   2.431  12.359  0.5396 -0.7792 -1.2898
 5694SOL    HW228716   3.959   2.513  12.271  1.4713  0.9325  1.9971
 5695SOL     OW28717   3.881   1.318   4.356 -0.0663  0.2966 -0.3869
 5695SOL    HW128718   3.968   1.321   4.316 -0.7630  0.3128 -1.9003
 5695SOL    HW228719   3.897   1.263   4.433 -3.4858 -1.5233 -0.9714
 5696SOL     OW28720   3.313   3.334  16.939  0.3204 -0.1825 -0.2115
 5696SOL    HW128721   3.354   3.267  16.884  1.9898  0.9199 -0.3098
 5696SOL    HW228722   3.220   3.316  16.926  0.2616 -1.5182  2.2142
 5697SOL     OW28723   4.659   0.740   4.101 -0.2020  0.2881 -0.2964
 5697SOL    HW128724   4.647   0.680   4.027 -0.3755  1.1706 -0.9846
 5697SOL    HW228725   0.018   0.754   4.098 -0.2744  1.1593  1.8970
 5698SOL     OW28726   1.402   1.950  12.817 -0.0350 -0.9286  0.7026
 5698SOL    HW128727   1.490   1.912  12.813  0.4838  0.1090  2.0730
 5698SOL    HW228728   1.430   2.033  12.856 -1.9293  0.8019 -1.6344
 5699SOL     OW28729   4.510   0.649   8.859  0.1804 -0.2560 -0.0863
 5699SOL    HW128730   4.587   0.703   8.876  0.6148 -0.5057 -1.2791
 5699SOL    HW228731   4.538   0.589   8.928 -0.0291  0.3251  0.5051
 5700SOL     OW28732   3.953   3.945   6.351 -0.2011  0.3523 -0.6686
 5700SOL    HW128733   3.873   3.963   6.300 -1.2828  0.1400  0.9391
 5700SOL    HW228734   3.992   3.882   6.291  0.8497  0.1974  0.1819
 5701SOL     OW28735   2.657   1.392   6.286 -0.3996 -0.0837 -0.4433
 5701SOL    HW128736   2.680   1.300   6.296  0.4456  0.1012 -0.6233
 5701SOL    HW228737   2.729   1.436   6.241 -0.4050  1.6177  1.2158
 5702SOL     OW28738   1.961   4.252   9.035  0.1615  0.3849  0.3682
 5702SOL    HW128739   1.884   4.270   8.981  0.4512  3.3508  0.9491
 5702SOL    HW228740   2.011   4.195   8.977  2.2204 -0.2917  2.8162
 5703SOL     OW28741   3.143   2.639   7.192  0.0551 -0.1843 -0.4422
 5703SOL    HW128742   3.168   2.676   7.277  0.0861 -0.1737 -0.4557
 5703SOL    HW228743   3.054   2.673   7.184 -0.2212 -1.5630 -3.1292
 5704SOL     OW28744   2.930   2.934   0.111  0.1842  0.2681 -0.1938
 5704SOL    HW128745   2.962   3.017   0.077 -0.9702 -0.2077 -2.4371
 5704SOL    HW228746   2.916   2.961   0.201  3.8631 -0.9572  0.7534
 5705SOL     OW28747   1.834   3.467  16.272 -0.5339  0.2198  0.0906
 5705SOL    HW128748   1.768   3.440  16.207  0.5844 -0.8072 -0.6160
 5705SOL    HW228749   1.910   3.483  16.216 -0.9266 -0.3641 -0.6127
 5706SOL     OW28750   0.210   2.180  16.687  0.0489 -0.4021  0.0333
 5706SOL    HW128751   0.239   2.120  16.755  1.0283 -1.1275 -1.0075
 5706SOL    HW228752   0.250   2.127  16.617  0.6466  2.5675 -1.8724
 5707SOL     OW28753   4.039   3.466  17.555  0.2523 -0.3246 -0.3120
 5707SOL    HW128754   4.090   3.511  17.623 -1.5348  1.6218 -0.2545
 5707SOL    HW228755   4.055   3.524  17.481  3.5902  1.9608  2.2218
 5708SOL     OW28756   2.925   3.488   6.657  0.4762 -0.3771  0.0864
 5708SOL    HW128757   2.908   3.546   6.582  0.1612  0.9521  1.1935
 5708SOL    HW228758   2.867   3.419   6.624  0.3778 -0.5228  0.5720
 5709SOL     OW28759   1.837   3.288   9.711  0.0635 -0.1416 -0.2917
 5709SOL    HW128760   1.827   3.378   9.680  0.4548 -0.7465 -2.1255
 5709SOL    HW228761   1.863   3.244   9.630  0.3801  1.4483 -1.0462
 5710SOL     OW28762   1.604   2.543   7.604  0.4511 -0.5676 -0.8332
 5710SOL    HW128763   1.649   2.614   7.557  1.8788 -0.0243  1.4013
 5710SOL    HW228764   1.656   2.549   7.684 -1.2525  2.7520  0.0219
 5711SOL     OW28765   3.449   3.325  13.680 -0.1094 -0.2672 -0.3792
 5711SOL    HW128766   3.470   3.417  13.695  0.8032 -0.4014 -0.8316
 5711SOL    HW228767   3.421   3.289  13.764 -0.8048  0.6492 -0.2136
 5712SOL     OW28768   0.752   4.327   1.412 -0.2035  0.5190  0.0161
 5712SOL    HW128769   0.668   4.301   1.450 -0.1692  0.5610  0.1210
 5712SOL    HW228770   0.761   4.250   1.356 -2.4329 -1.6884  2.6585
 5713SOL     OW28771   2.214   2.348  14.995  0.4035 -0.2467  0.2152
 5713SOL    HW128772   2.186   2.423  15.048  0.2931  0.8081 -1.3535
 5713SOL    HW228773   2.130   2.311  14.966 -0.3090  0.0692  1.8529
 5714SOL     OW28774   0.997   3.815   4.827 -0.5247  0.3586  0.6976
 5714SOL    HW128775   1.091   3.810   4.844 -0.4351  2.0553  0.6941
 5714SOL    HW228776   0.988   3.895   4.776  2.2962 -0.3623 -0.9355
 5715SOL     OW28777   0.691   0.417  12.896 -0.5774  0.1344  0.1221
 5715SOL    HW128778   0.659   0.327  12.884  0.1971 -0.3761  1.8828
 5715SOL    HW228779   0.740   0.421  12.814 -0.3078 -0.8346  0.2359
 5716SOL     OW28780   4.637   4.423  16.374  0.2080 -0.1830  0.0918
 5716SOL    HW128781   4.667   4.512  16.395  0.1490  0.0237 -0.6857
 5716SOL    HW228782   4.542   4.431  16.366  0.2127 -0.6318 -0.4231
 5717SOL     OW28783   4.089   0.252   4.728 -0.0230 -0.1009 -0.4655
 5717SOL    HW128784   4.065   0.228   4.817 -0.2661  1.9387  0.0186
 5717SOL    HW228785   4.151   0.325   4.734 -0.1770  0.1170 -1.5859
 5718SOL     OW28786   0.437   1.152   6.533 -0.2447  0.3436  0.0002
 5718SOL    HW128787   0.443   1.204   6.453 -1.6480 -1.3574 -1.2121
 5718SOL    HW228788   0.373   1.198   6.587  1.3325  1.8425  0.6120
 5719SOL     OW28789   4.574   3.364   9.586 -0.2878 -0.2565 -0.4224
 5719SOL    HW128790   4.495   3.380   9.533 -0.7079 -0.0301  0.2711
 5719SOL    HW228791   4.536   3.285   9.624 -3.2472  0.6372 -1.4701
 5720SOL     OW28792   0.983   2.430   3.988 -0.0503  0.7261 -0.2025
 5720SOL    HW128793   0.988   2.365   3.918 -1.0080  0.6414 -0.1942
 5720SOL    HW228794   0.911   2.390   4.036  1.0753 -1.0512  0.0197
 5721SOL     OW28795   4.538   3.727   9.656  0.0747 -0.0076  0.0481
 5721SOL    HW128796   4.536   3.644   9.702 -1.3349  0.8081  1.4364
 5721SOL    HW228797   4.539   3.774   9.740 -2.2512  0.5873 -0.2638
 5722SOL     OW28798   1.643   3.186  14.177 -0.1652 -0.0282  0.3605
 5722SOL    HW128799   1.621   3.108  14.126  2.4063 -0.8051  0.4552
 5722SOL    HW228800   1.556   3.219  14.202  1.0949  2.2053  1.7207
 5723SOL     OW28801   3.153   2.881   6.880 -0.2756  0.3259 -0.1538
 5723SOL    HW128802   3.192   2.797   6.854 -2.7634 -0.7820 -0.3003
 5723SOL    HW228803   3.062   2.867   6.855 -0.4147 -1.3356  1.2978
 5724SOL     OW28804   1.060   1.219   5.296  0.3022 -0.7039  0.8120
 5724SOL    HW128805   1.125   1.251   5.357 -0.1367  0.7468  0.5238
 5724SOL    HW228806   1.060   1.292   5.235  0.2405 -1.6067 -0.2799
 5725SOL     OW28807   0.470   0.750   2.623 -0.0068  0.2525  1.1598
 5725SOL    HW128808   0.506   0.661   2.627  0.4483  0.4068  0.4801
 5725SOL    HW228809   0.427   0.741   2.537 -0.4258 -1.2627  1.5199
 5726SOL     OW28810   2.636   3.605   3.956 -0.0438 -0.2160 -0.0742
 5726SOL    HW128811   2.562   3.608   4.016  0.9079  1.0319  1.0260
 5726SOL    HW228812   2.602   3.546   3.888  0.0816 -1.8097  1.2590
 5727SOL     OW28813   1.977   1.242   3.576 -0.2013 -0.2076  0.5601
 5727SOL    HW128814   2.027   1.324   3.575  0.5551 -0.6638  0.4859
 5727SOL    HW228815   1.916   1.245   3.503  1.8999 -1.7034 -1.2587
 5728SOL     OW28816   1.828   1.099   7.020  0.4562  0.2854  0.2607
 5728SOL    HW128817   1.843   1.173   6.961 -1.9237 -0.9799 -1.9313
 5728SOL    HW228818   1.735   1.110   7.040  0.2980  1.3260 -1.0725
 5729SOL     OW28819   2.983   4.169   4.988 -0.0059  0.0919  0.3068
 5729SOL    HW128820   2.949   4.219   4.914  0.4748 -0.4735 -0.2857
 5729SOL    HW228821   3.046   4.111   4.945  1.1530  1.0510  0.7042
 5730SOL     OW28822   2.110   2.470  11.362 -0.2131  0.2688  0.1322
 5730SOL    HW128823   2.161   2.519  11.297 -1.0084 -0.4997 -1.0895
 5730SOL    HW228824   2.130   2.510  11.446  0.2402 -0.5189  0.3986
 5731SOL     OW28825   2.726   1.514   0.535 -0.4403 -0.0951  0.4009
 5731SOL    HW128826   2.676   1.593   0.515 -3.0473 -1.2984  2.1900
 5731SOL    HW228827   2.741   1.478   0.447 -3.2945  1.8127 -0.8830
 5732SOL     OW28828   2.020   4.186   5.277  0.0150 -0.3651  0.3773
 5732SOL    HW128829   1.942   4.178   5.222  0.1517  0.5369  0.0590
 5732SOL    HW228830   1.991   4.246   5.345  1.3512  0.4578  0.2167
 5733SOL     OW28831   2.196   3.508   1.693  0.4967 -0.1496 -0.0573
 5733SOL    HW128832   2.185   3.496   1.787 -0.0016  0.6387 -0.0154
 5733SOL    HW228833   2.186   3.603   1.685 -2.0997 -0.5538 -1.7447
 5734SOL     OW28834   2.639   2.212   5.846  0.9273  0.7666  0.0618
 5734SOL    HW128835   2.660   2.268   5.921  2.5658 -0.3660  0.4581
 5734SOL    HW228836   2.582   2.147   5.887 -0.2545  1.2243 -0.8772
 5735SOL     OW28837   0.863   3.794   6.856 -0.0365  0.2929  0.2504
 5735SOL    HW128838   0.776   3.753   6.855 -0.5082  1.3525 -1.2791
 5735SOL    HW228839   0.874   3.816   6.949  0.7314 -0.6238  0.3796
 5736SOL     OW28840   1.973   4.267   7.631 -0.3635 -0.0905  0.4694
 5736SOL    HW128841   1.917   4.308   7.564 -0.4943  0.0740  0.6794
 5736SOL    HW228842   2.042   4.332   7.639  0.3103 -0.9065  1.1795
 5737SOL     OW28843   4.381   1.896   3.941 -0.4251 -0.4025 -0.4318
 5737SOL    HW128844   4.414   1.950   4.012  0.1109 -0.2500 -0.7975
 5737SOL    HW228845   4.423   1.812   3.958  1.9148  1.0130  0.7880
 5738SOL     OW28846   4.239   2.412  16.205 -0.9355  0.1501 -0.2419
 5738SOL    HW128847   4.324   2.398  16.163 -1.2611 -2.7307  0.0429
 5738SOL    HW228848   4.259   2.495  16.246 -1.4128 -0.1382  0.5695
 5739SOL     OW28849   1.144   1.781   2.791  0.0421 -0.2400  0.4879
 5739SOL    HW128850   1.211   1.713   2.793  0.8397  0.5278 -0.1432
 5739SOL    HW228851   1.206   1.852   2.804  0.0259 -0.1985  0.3333
 5740SOL     OW28852   1.446   4.002   6.127  0.1231  0.5084  0.1687
 5740SOL    HW128853   1.446   3.962   6.213 -2.2434  1.5585  0.6616
 5740SOL    HW228854   1.386   3.940   6.086  1.7574  0.8221 -2.7808
 5741SOL     OW28855   0.387   3.480   4.452  0.3049 -0.0064  0.4786
 5741SOL    HW128856   0.363   3.393   4.481  0.5421 -0.8213 -1.7825
 5741SOL    HW228857   0.462   3.466   4.394  0.3326  1.7973  0.0586
 5742SOL     OW28858   4.141   0.904  14.384  0.0743  0.0442 -0.1301
 5742SOL    HW128859   4.173   0.827  14.337  3.0084  0.6857  0.8246
 5742SOL    HW228860   4.049   0.895  14.356  0.2109  2.2118 -1.3227
 5743SOL     OW28861   3.535   2.590   1.937 -0.7301  0.0434 -0.1016
 5743SOL    HW128862   3.549   2.528   2.009 -1.9966 -0.6671 -0.4649
 5743SOL    HW228863   3.442   2.575   1.916 -0.1896 -0.2812 -2.2631
 5744SOL     OW28864   3.456   3.702   7.613  0.1020 -0.2020  0.1041
 5744SOL    HW128865   3.492   3.613   7.622  0.5051 -0.0919 -0.4749
 5744SOL    HW228866   3.366   3.678   7.589  0.8415 -2.8679 -0.0373
 5745SOL     OW28867   1.389   2.295   8.664  0.4847 -0.0409  0.3098
 5745SOL    HW128868   1.397   2.371   8.606  0.1547  0.9612  1.5694
 5745SOL    HW228869   1.311   2.255   8.625  0.6829  0.2410 -0.3692
 5746SOL     OW28870   3.999   0.993   5.752  0.1596  0.0819  0.0499
 5746SOL    HW128871   4.086   1.007   5.715  0.0446 -0.5451 -0.4559
 5746SOL    HW228872   3.967   0.912   5.712 -0.2988  1.0469 -1.5105
 5747SOL     OW28873   4.191   2.081  14.925 -0.5162  0.5278  0.0594
 5747SOL    HW128874   4.196   2.161  14.977  0.7272  0.9810 -0.7603
 5747SOL    HW228875   4.137   2.020  14.975  0.8196 -1.7061 -1.2074
 5748SOL     OW28876   3.385   1.969  17.306  0.1574  0.5180  0.1232
 5748SOL    HW128877   3.312   1.971  17.244  0.5906  0.8986 -0.3882
 5748SOL    HW228878   3.387   2.062  17.330  1.0744  0.7800 -0.9476
 5749SOL     OW28879   2.364   2.437   5.228 -0.1967 -0.2445 -0.1334
 5749SOL    HW128880   2.412   2.421   5.147 -0.1020 -0.3554 -0.0565
 5749SOL    HW228881   2.405   2.376   5.290 -0.6147  0.2339  0.6202
 5750SOL     OW28882   2.722   3.346   1.517  0.0274  0.0911 -0.2756
 5750SOL    HW128883   2.670   3.276   1.477 -0.4629 -0.3895  1.2106
 5750SOL    HW228884   2.738   3.313   1.605 -1.6351 -0.8067 -0.3047
 5751SOL     OW28885   3.470   2.981   7.291  0.3773  0.4691  0.0014
 5751SOL    HW128886   3.456   3.071   7.261  0.3629  0.7758  0.9271
 5751SOL    HW228887   3.518   2.993   7.373 -3.1443 -1.0598  2.2857
 5752SOL     OW28888   0.208   1.409   9.633  0.3537  0.7022  0.0098
 5752SOL    HW128889   0.279   1.353   9.666  2.8288  4.0334  0.3531
 5752SOL    HW228890   0.226   1.485   9.688 -1.8796  0.5924  0.8718
 5753SOL     OW28891   2.056   3.661  11.627 -0.0071 -0.5253  0.4460
 5753SOL    HW128892   2.027   3.571  11.611  1.6427 -1.0359  0.2863
 5753SOL    HW228893   2.139   3.661  11.580 -0.9031 -2.0315 -1.1356
 5754SOL     OW28894   0.265   1.516   5.251 -0.0169  0.5327  0.4462
 5754SOL    HW128895   0.302   1.596   5.290  1.7289 -0.6759  1.2709
 5754SOL    HW228896   0.178   1.511   5.290 -1.2421  0.4503 -2.3240
 5755SOL     OW28897   0.526   3.133   4.158 -0.0249 -0.1661 -0.0275
 5755SOL    HW128898   0.493   3.050   4.193  0.7301  0.3057  1.7991
 5755SOL    HW228899   0.618   3.118   4.140  0.5178 -0.2373  2.8161
 5756SOL     OW28900   3.694   4.319   6.581  0.3423  0.4162  0.4271
 5756SOL    HW128901   3.722   4.239   6.624  2.5204  1.0417  0.1944
 5756SOL    HW228902   3.610   4.329   6.625  0.2297  1.0236  0.0823
 5757SOL     OW28903   3.026   4.165  11.138  0.3938  0.2675  0.2108
 5757SOL    HW128904   2.962   4.166  11.209  0.3296 -0.8467  0.1670
 5757SOL    HW228905   3.039   4.256  11.113  0.0401  0.9373  2.4613
 5758SOL     OW28906   0.528   2.245  13.980 -0.2600  0.0233 -0.0501
 5758SOL    HW128907   0.522   2.256  13.885 -1.4009 -0.1246  0.0125
 5758SOL    HW228908   0.611   2.196  13.984 -0.6226 -0.6185 -0.4277
 5759SOL     OW28909   4.056   1.905   9.911 -0.2504 -0.3253  0.2718
 5759SOL    HW128910   4.013   1.986   9.939 -0.3046  0.1557 -1.1796
 5759SOL    HW228911   3.978   1.853   9.894  0.6576 -1.8367  0.7642
 5760SOL     OW28912   2.840   2.356   5.728 -0.4140 -0.2157 -0.1703
 5760SOL    HW128913   2.759   2.337   5.777  0.1240 -0.1237  0.7506
 5760SOL    HW228914   2.842   2.299   5.651  1.3437  1.6918 -1.5486
 5761SOL     OW28915   0.955   3.917   6.645  0.6795 -0.3153  0.0180
 5761SOL    HW128916   0.985   3.836   6.603  0.2200  0.6820 -2.1954
 5761SOL    HW228917   0.927   3.870   6.724  1.8218 -1.6318 -0.3660
 5762SOL     OW28918   0.102   1.929   9.365  0.3075  0.1738 -0.4491
 5762SOL    HW128919   0.110   2.022   9.344  1.7707  0.3259  0.7666
 5762SOL    HW228920   0.018   1.899   9.330  1.1305 -1.4718 -1.0324
 5763SOL     OW28921   3.885   1.476  11.568  0.2300 -0.0694 -0.1365
 5763SOL    HW128922   3.908   1.549  11.625  0.1424 -0.7219  0.7242
 5763SOL    HW228923   3.974   1.469  11.534  0.4301  1.9028 -0.0042
 5764SOL     OW28924   0.568   2.104   5.396  0.1087 -0.3087  0.4298
 5764SOL    HW128925   0.574   2.143   5.309 -2.8728 -0.5348  0.1036
 5764SOL    HW228926   0.496   2.155   5.433  0.5818  0.9772 -0.4646
 5765SOL     OW28927   3.885   0.970  15.415  0.3279  0.2401  0.2431
 5765SOL    HW128928   3.920   0.884  15.438  2.7146  0.9671 -0.6450
 5765SOL    HW228929   3.792   0.947  15.420  0.2038  0.7341  0.2192
 5766SOL     OW28930   0.813   0.057   2.345 -0.3922  1.1715  0.2789
 5766SOL    HW128931   0.804   0.067   2.250  0.7427 -0.3489 -0.0008
 5766SOL    HW228932   0.804   4.698   2.359  0.6471  1.1712  0.9686
 5767SOL     OW28933   0.748   0.585  15.552  0.3185  0.7270 -0.2448
 5767SOL    HW128934   0.807   0.563  15.624  0.1486  2.4968  0.4484
 5767SOL    HW228935   0.775   0.526  15.482 -1.3022  1.1414 -1.2203
 5768SOL     OW28936   1.418   2.388   3.812  0.0010  0.7484 -0.1402
 5768SOL    HW128937   1.336   2.341   3.800 -0.4192  2.0510 -2.4378
 5768SOL    HW228938   1.394   2.456   3.875  1.9595 -0.7084  2.1735
 5769SOL     OW28939   2.007   0.090   8.126 -0.5449 -0.5240  0.1932
 5769SOL    HW128940   2.101   0.078   8.138 -0.4865 -0.2891 -0.0293
 5769SOL    HW228941   2.009   0.182   8.100 -2.0632 -0.4526  0.3380
 5770SOL     OW28942   0.124   4.699  13.308  0.0930 -0.0515  0.4256
 5770SOL    HW128943   0.107   0.057  13.321  0.3593  0.0701 -0.1047
 5770SOL    HW228944   0.204   4.682  13.357 -0.5494  1.0966  1.8794
 5771SOL     OW28945   4.506   0.865   2.836  0.2356 -0.1990  0.3715
 5771SOL    HW128946   4.518   0.846   2.929  2.9125 -0.9490 -0.1358
 5771SOL    HW228947   4.599   0.859   2.815  0.2736 -0.2397  0.5509
 5772SOL     OW28948   2.680   2.378   4.508 -0.5987  0.7041 -0.5841
 5772SOL    HW128949   2.592   2.401   4.536 -0.3715  1.2294 -0.3068
 5772SOL    HW228950   2.699   2.448   4.446  1.1191 -0.6906 -1.6506
 5773SOL     OW28951   1.519   4.145   1.917  0.3659 -0.2919 -0.4218
 5773SOL    HW128952   1.548   4.227   1.957 -3.4414  0.8515 -0.0771
 5773SOL    HW228953   1.428   4.144   1.945  0.4415  0.6227 -0.1418
 5774SOL     OW28954   2.436   4.278   6.725 -0.2528  0.2557  0.3851
 5774SOL    HW128955   2.454   4.354   6.782 -0.4642 -0.6936  1.7116
 5774SOL    HW228956   2.518   4.229   6.732  0.6882  1.5648 -1.4409
 5775SOL     OW28957   1.935   3.692   1.539 -0.0809 -0.1057  0.0001
 5775SOL    HW128958   1.959   3.756   1.472 -0.1898  0.8520  0.8751
 5775SOL    HW228959   1.951   3.609   1.495 -0.9989  0.9993 -2.4200
 5776SOL     OW28960   1.477   3.737   3.243  0.1423  0.6537 -0.4398
 5776SOL    HW128961   1.394   3.744   3.196 -1.1676  0.6879  1.8960
 5776SOL    HW228962   1.466   3.644   3.261 -0.7272  1.0213  1.0233
 5777SOL     OW28963   0.921   0.556   8.077 -0.0342  0.3356 -0.2279
 5777SOL    HW128964   0.960   0.487   8.131 -1.1821  0.1656  0.3743
 5777SOL    HW228965   0.969   0.545   7.995  0.8691 -3.6403  0.8170
 5778SOL     OW28966   2.877   2.782   5.608  0.1379 -0.2504 -0.0529
 5778SOL    HW128967   2.903   2.861   5.655  0.8989 -0.3079 -0.3798
 5778SOL    HW228968   2.785   2.803   5.588  0.2947 -0.3185 -0.8211
 5779SOL     OW28969   4.555   4.607   2.419 -0.0703  0.0410 -0.6287
 5779SOL    HW128970   4.539   4.696   2.387 -0.8799 -0.2903 -1.1384
 5779SOL    HW228971   4.549   4.549   2.343 -0.1926 -0.2569 -0.3918
 5780SOL     OW28972   3.677   4.267   3.885  0.5795 -0.0914 -0.5040
 5780SOL    HW128973   3.710   4.220   3.962 -0.5968  0.5298  0.3695
 5780SOL    HW228974   3.592   4.302   3.910  0.4298  1.2508 -2.8485
 5781SOL     OW28975   1.695   0.143   4.154 -0.1236  0.5104  0.4165
 5781SOL    HW128976   1.737   0.058   4.139  1.8822  1.2275  1.9566
 5781SOL    HW228977   1.618   0.138   4.097  0.9338  0.2296 -0.9948
 5782SOL     OW28978   3.706   0.500   4.109  0.2571  0.4198 -0.0735
 5782SOL    HW128979   3.715   0.450   4.190 -1.8269 -0.3347 -0.3211
 5782SOL    HW228980   3.620   0.539   4.125  0.7627  0.8803  1.4863
 5783SOL     OW28981   3.442   3.006  16.939 -0.2965  0.4403  0.4353
 5783SOL    HW128982   3.440   3.060  16.861  0.2882 -0.1532  0.0051
 5783SOL    HW228983   3.469   3.065  17.010  0.5750 -0.1025  0.5625
 5784SOL     OW28984   0.260   0.134   8.311  0.2461 -0.4864  0.4329
 5784SOL    HW128985   0.189   0.074   8.334 -2.2659  1.6514 -1.7095
 5784SOL    HW228986   0.298   0.146   8.399 -0.6579 -0.1641  0.7750
 5785SOL     OW28987   4.724   1.126   9.269  0.1829 -0.5941 -0.0411
 5785SOL    HW128988   0.040   1.205   9.274 -0.8165  0.0247  0.6350
 5785SOL    HW228989   0.017   1.075   9.344  0.9952  0.9782  0.7068
 5786SOL     OW28990   0.491   2.209   4.636 -0.4939 -0.3632  0.3251
 5786SOL    HW128991   0.454   2.297   4.648  2.2126  0.8086  0.2990
 5786SOL    HW228992   0.420   2.148   4.619  1.3701 -1.8264 -2.1219
 5787SOL     OW28993   4.326   2.999   2.242 -0.3944  0.3578  0.0296
 5787SOL    HW128994   4.361   3.088   2.235  0.8920 -0.2337 -1.0674
 5787SOL    HW228995   4.347   2.963   2.156  0.6179 -1.5325  1.0656
 5788SOL     OW28996   0.483   2.571   6.556  0.2414  0.3091  0.0414
 5788SOL    HW128997   0.436   2.641   6.512 -0.2773  0.6104  1.0639
 5788SOL    HW228998   0.514   2.525   6.478  1.0951 -0.7286  0.9914
 5789SOL     OW28999   3.986   0.712   4.645 -0.4754  0.0467 -0.0755
 5789SOL    HW129000   4.057   0.775   4.657 -0.2842 -0.6235  2.2937
 5789SOL    HW229001   3.947   0.758   4.571 -0.0599 -1.0215 -0.9520
 5790SOL     OW29002   0.434   1.718  10.630 -0.0737 -0.0023  0.5480
 5790SOL    HW129003   0.457   1.644  10.686 -2.5584 -2.5536 -1.7834
 5790SOL    HW229004   0.386   1.778  10.688  0.1121 -0.2366  0.9385
 5791SOL     OW29005   2.026   4.498   8.837  0.4732  0.5131  0.3909
 5791SOL    HW129006   1.991   4.409   8.841 -2.3693  1.7128  1.9864
 5791SOL    HW229007   1.946   4.538   8.804 -0.4352 -1.1299  0.5979
 5792SOL     OW29008   4.612   0.199   4.084 -0.0697  0.5921  0.0854
 5792SOL    HW129009   4.574   0.286   4.075  0.9819  1.1775  1.3039
 5792SOL    HW229010   4.561   0.158   4.014 -0.2942  1.1514 -0.0747
 5793SOL     OW29011   2.106   1.381   5.327  0.3533 -0.2947  0.2627
 5793SOL    HW129012   2.181   1.322   5.340 -0.6518 -1.6863 -0.1981
 5793SOL    HW229013   2.123   1.416   5.240  0.5122 -0.5113  0.2037
 5794SOL     OW29014   3.796   4.258   0.664  0.7538 -0.1314 -0.5819
 5794SOL    HW129015   3.734   4.265   0.591 -2.1718  1.6734  2.0929
 5794SOL    HW229016   3.855   4.203   0.611 -1.1147 -0.9534 -1.8140
 5795SOL     OW29017   3.081   1.122  14.887 -0.4325 -0.0556  0.0640
 5795SOL    HW129018   3.155   1.064  14.871  0.7986  2.3655 -3.0899
 5795SOL    HW229019   3.078   1.122  14.982 -2.0782  1.5130  0.0255
 5796SOL     OW29020   1.226   0.231   7.406  0.5296  0.3654  0.0867
 5796SOL    HW129021   1.279   0.152   7.413 -0.5080 -0.2310  1.1720
 5796SOL    HW229022   1.279   0.272   7.338 -0.4935 -0.2306 -1.0714
 5797SOL     OW29023   2.686   0.480  16.890  0.0759  0.0769  0.1214
 5797SOL    HW129024   2.727   0.439  16.966 -0.1647 -0.6119 -0.1227
 5797SOL    HW229025   2.644   0.553  16.936 -1.0606 -0.6984  0.3031
 5798SOL     OW29026   0.971   3.503  14.153  1.2257 -1.0181  0.1330
 5798SOL    HW129027   1.001   3.582  14.109  1.0017  0.0128  1.8170
 5798SOL    HW229028   0.878   3.519  14.164  1.6271  2.0992 -0.8687
 5799SOL     OW29029   4.174   1.990   7.454  0.0451 -0.1003 -0.4761
 5799SOL    HW129030   4.139   1.933   7.386  1.0068 -2.3064  0.8497
 5799SOL    HW229031   4.113   2.063   7.451  0.2837  0.0695 -1.1402
 5800SOL     OW29032   4.074   0.446   0.876  0.2878 -0.1541  0.1017
 5800SOL    HW129033   4.078   0.435   0.971  1.1201 -0.6911  0.0051
 5800SOL    HW229034   4.040   0.535   0.871  0.3066 -0.2225 -1.1900
 5801SOL     OW29035   0.443   1.035   2.918  0.0853 -1.0292 -0.0947
 5801SOL    HW129036   0.453   1.099   2.988 -2.5103 -1.1244  0.3779
 5801SOL    HW229037   0.397   1.093   2.857 -0.5950 -2.0708 -0.5720
 5802SOL     OW29038   1.844   2.372   5.975 -0.1089  0.5802  0.1303
 5802SOL    HW129039   1.796   2.454   5.968 -1.3724 -0.2336 -0.5809
 5802SOL    HW229040   1.782   2.317   5.927 -1.9358  0.7257  2.3308
 5803SOL     OW29041   0.689   4.705   1.673  0.0241 -0.4091  0.5511
 5803SOL    HW129042   0.747   4.677   1.601  1.5904 -1.2548  2.1350
 5803SOL    HW229043   0.716   4.641   1.739 -0.7069 -1.8505 -0.5246
 5804SOL     OW29044   0.633   1.837   4.568 -0.0902 -0.1776 -0.0235
 5804SOL    HW129045   0.616   1.921   4.526 -0.8935 -0.2934  0.0590
 5804SOL    HW229046   0.704   1.865   4.625  0.1042 -0.9270  0.1067
 5805SOL     OW29047   3.819   3.221   4.283  0.0153 -0.2493  0.0069
 5805SOL    HW129048   3.860   3.275   4.352 -1.7376  0.6897  0.3168
 5805SOL    HW229049   3.760   3.292   4.258  0.3242  0.5390  1.5084
 5806SOL     OW29050   1.809   2.167   9.525 -0.0357  0.1485  0.9397
 5806SOL    HW129051   1.900   2.157   9.495 -0.3436 -1.6022  0.6045
 5806SOL    HW229052   1.776   2.099   9.466 -1.9120 -0.3241  2.5470
 5807SOL     OW29053   2.041   2.835   2.740  0.1571  0.3163  0.2197
 5807SOL    HW129054   2.003   2.886   2.668 -1.9898 -0.6931  0.6246
 5807SOL    HW229055   2.135   2.847   2.732  0.2199  1.1226  1.9825
 5808SOL     OW29056   0.157   4.101   8.919  0.0378 -0.0760 -0.0426
 5808SOL    HW129057   0.241   4.056   8.911  0.1849  0.5317 -1.9480
 5808SOL    HW229058   0.167   4.181   8.868 -1.7012  0.8917  1.1066
 5809SOL     OW29059   0.066   4.642   6.165  0.2403 -0.4397 -0.1816
 5809SOL    HW129060   0.003   4.656   6.095  1.2645 -0.0698 -1.0327
 5809SOL    HW229061   0.141   4.604   6.118 -0.3917 -3.5061  1.2668
 5810SOL     OW29062   0.255   3.836   4.777  0.5432  0.0516 -0.0778
 5810SOL    HW129063   0.337   3.809   4.736  0.4452 -1.1888  0.5413
 5810SOL    HW229064   0.194   3.768   4.748 -0.5554  1.4025 -0.9220
 5811SOL     OW29065   1.069   2.855   8.609 -0.6574  0.0863  0.2523
 5811SOL    HW129066   1.147   2.908   8.599 -1.5419  1.2667 -0.4319
 5811SOL    HW229067   1.095   2.780   8.662 -3.5750  0.3604  2.0633
 5812SOL     OW29068   2.273   0.285   4.680 -0.0425  0.2258 -0.1707
 5812SOL    HW129069   2.186   0.274   4.719 -0.0212  1.9397  0.3206
 5812SOL    HW229070   2.265   0.291   4.585  1.0440  3.5548 -0.0234
 5813SOL     OW29071   1.924   0.889  15.778  0.7023  0.2677 -0.0124
 5813SOL    HW129072   2.001   0.833  15.775  0.5719  0.0528  0.7168
 5813SOL    HW229073   1.935   0.942  15.699  1.1930  1.0699  0.5942
 5814SOL     OW29074   1.702   2.024   9.306  0.9184 -0.3709  0.2464
 5814SOL    HW129075   1.665   1.943   9.339 -0.0216  0.4531  1.2271
 5814SOL    HW229076   1.700   2.014   9.211 -0.4352 -1.7674  0.4329
 5815SOL     OW29077   0.997   3.376   0.479  0.6454 -0.5816 -0.1151
 5815SOL    HW129078   0.987   3.301   0.539  1.9227 -0.2467  0.5295
 5815SOL    HW229079   1.076   3.412   0.521 -0.2816 -0.2803  1.3583
 5816SOL     OW29080   2.865   0.384   2.597 -0.9116 -0.1409 -0.6838
 5816SOL    HW129081   2.819   0.426   2.670 -0.4429 -1.0832  0.1606
 5816SOL    HW229082   2.785   0.368   2.548 -1.0460  1.4624 -0.9908
 5817SOL     OW29083   0.672   3.747   6.000 -0.0039 -0.4555  0.0640
 5817SOL    HW129084   0.639   3.708   6.081 -1.0397  0.9619  0.3332
 5817SOL    HW229085   0.632   3.695   5.931 -0.8254 -0.5756  0.6286
 5818SOL     OW29086   2.358   2.851   6.828 -0.1846 -0.4161 -0.1723
 5818SOL    HW129087   2.363   2.765   6.869  0.4692  1.4171  3.6740
 5818SOL    HW229088   2.345   2.836   6.735 -0.2309 -2.2930  0.1328
 5819SOL     OW29089   1.035   1.017  13.647  0.3898  0.0590 -0.1861
 5819SOL    HW129090   1.047   1.057  13.733 -2.9607  0.0785  0.2643
 5819SOL    HW229091   1.044   0.923  13.663  1.5541  0.1862 -0.0703
 5820SOL     OW29092   0.158   0.838   5.137 -0.8023  0.4289 -0.0322
 5820SOL    HW129093   0.085   0.831   5.199 -0.8073  0.5151 -0.0286
 5820SOL    HW229094   0.104   0.820   5.060 -0.0367 -5.4851  0.8033
 5821SOL     OW29095   0.845   1.959  15.173 -0.1144  0.6658  0.7598
 5821SOL    HW129096   0.929   1.913  15.167 -0.1387  0.6578  0.4929
 5821SOL    HW229097   0.827   1.960  15.267  1.5199  1.5009  1.0485
 5822SOL     OW29098   1.026   3.381  17.248 -0.2187  0.1623  0.1126
 5822SOL    HW129099   1.019   3.475  17.261 -0.9577  0.3806 -1.7441
 5822SOL    HW229100   0.959   3.378  17.179 -1.2941  0.1395  1.1566
 5823SOL     OW29101   2.064   1.825   4.491 -0.1902 -0.2319 -0.1599
 5823SOL    HW129102   2.093   1.914   4.472  1.0054 -0.1626  2.0144
 5823SOL    HW229103   1.969   1.829   4.499  0.0456  2.3606  1.3040
 5824SOL     OW29104   3.869   4.090   8.408  0.0774  0.0952  0.1973
 5824SOL    HW129105   3.893   3.997   8.407  2.2421  0.6466  0.9743
 5824SOL    HW229106   3.866   4.101   8.503  0.1613  0.5485  0.1490
 5825SOL     OW29107   2.153   4.338  14.097  0.2230  0.2133  0.1543
 5825SOL    HW129108   2.214   4.408  14.119  1.0360 -0.2449 -0.6535
 5825SOL    HW229109   2.072   4.386  14.081 -0.1565 -1.0596 -1.7731
 5826SOL     OW29110   0.616   2.598   3.236 -0.0339  0.0943 -0.1820
 5826SOL    HW129111   0.636   2.644   3.155 -0.5531  0.4399 -0.1166
 5826SOL    HW229112   0.651   2.654   3.306  1.6277 -1.9449  0.6129
 5827SOL     OW29113   0.157   0.386  11.473  0.1718  0.2228 -0.0021
 5827SOL    HW129114   0.139   0.340  11.555 -0.1452 -1.1023 -0.8183
 5827SOL    HW229115   0.089   0.454  11.479 -0.2106 -0.3587  2.0387
 5828SOL     OW29116   3.055   2.779  15.587  0.0061 -0.4898  0.1691
 5828SOL    HW129117   3.128   2.792  15.648 -1.7957  1.7633  1.8566
 5828SOL    HW229118   3.077   2.691  15.557  0.8385  0.1805 -1.1935
 5829SOL     OW29119   3.873   2.773   6.448 -0.3677 -0.6499  0.2272
 5829SOL    HW129120   3.845   2.728   6.527 -3.5530 -2.2336 -1.8267
 5829SOL    HW229121   3.864   2.700   6.386 -0.0335 -0.3692 -0.1547
 5830SOL     OW29122   0.678   2.671   4.015 -0.3216  0.2667 -0.0765
 5830SOL    HW129123   0.597   2.655   4.064  0.1833 -1.7698  0.1098
 5830SOL    HW229124   0.722   2.586   4.020 -1.9944 -0.5679  0.4728
 5831SOL     OW29125   4.479   4.449  16.683  0.1978  0.1211 -0.4641
 5831SOL    HW129126   4.468   4.540  16.656  0.7142 -0.8925 -4.0113
 5831SOL    HW229127   4.527   4.455  16.766  0.9474  1.1849 -0.9691
 5832SOL     OW29128   2.212   3.735  14.782  0.3462 -0.4912  0.5736
 5832SOL    HW129129   2.117   3.735  14.766 -0.1052 -0.1646  3.2371
 5832SOL    HW229130   2.202   3.690  14.866  0.5372  1.1561  1.4797
 5833SOL     OW29131   2.770   0.868   6.052  0.2216 -0.2270  0.2796
 5833SOL    HW129132   2.735   0.935   5.994  2.1932 -1.6043 -2.5295
 5833SOL    HW229133   2.783   0.793   5.993 -2.3989 -1.0151  0.7310
 5834SOL     OW29134   2.680   2.807  17.690  0.6521 -0.1065 -0.4340
 5834SOL    HW129135   2.727   2.724  17.673  0.2180 -0.3573 -0.4046
 5834SOL    HW229136   2.746   2.872  17.714  0.9335 -0.4139 -0.3662
 5835SOL     OW29137   4.286   3.688   2.299 -0.4839  0.1744  0.1591
 5835SOL    HW129138   4.336   3.736   2.233 -1.3046  1.1600  0.2649
 5835SOL    HW229139   4.270   3.606   2.253 -0.1526  0.6832 -0.8608
 5836SOL     OW29140   4.603   2.072   6.123  0.7050  0.6109  0.2399
 5836SOL    HW129141   4.635   1.981   6.124  1.2475  0.7997 -0.2525
 5836SOL    HW229142   4.674   2.113   6.075  0.2226  2.0572  0.7606
 5837SOL     OW29143   1.671   1.563  10.107  0.2543  0.1238 -0.0962
 5837SOL    HW129144   1.619   1.488  10.135 -0.1500  0.8441  1.0715
 5837SOL    HW229145   1.617   1.615  10.048  0.6658  0.8160  0.1252
 5838SOL     OW29146   2.896   2.997   5.302 -0.4233  0.0355  0.2172
 5838SOL    HW129147   2.969   3.059   5.303 -0.4737  0.0639  2.2501
 5838SOL    HW229148   2.924   2.933   5.368  0.5270  0.5579  0.3278
 5839SOL     OW29149   0.994   3.416   0.204 -0.1948  0.2831 -0.0828
 5839SOL    HW129150   0.954   3.390   0.287 -0.8218 -0.2584 -0.5499
 5839SOL    HW229151   1.072   3.466   0.228  0.8164 -1.1917 -0.2676
 5840SOL     OW29152   2.361   4.478   8.206 -0.1932 -0.7463  0.1694
 5840SOL    HW129153   2.316   4.462   8.123  0.0597 -1.5713  0.1912
 5840SOL    HW229154   2.294   4.525   8.255 -0.6283  1.6788 -2.7152
 5841SOL     OW29155   2.214   4.494   5.432  0.3584  0.0824 -0.0477
 5841SOL    HW129156   2.137   4.441   5.452 -0.3982  0.8693 -0.8737
 5841SOL    HW229157   2.283   4.470   5.494 -0.0054 -1.2848 -0.1655
 5842SOL     OW29158   4.149   1.763  11.006 -0.0001 -0.2279  0.5288
 5842SOL    HW129159   4.089   1.761  11.080 -0.7964 -2.4915 -0.1732
 5842SOL    HW229160   4.161   1.671  10.984  1.5456  0.3459 -1.0509
 5843SOL     OW29161   1.512   2.243   0.375 -0.0900 -0.3231  0.3034
 5843SOL    HW129162   1.587   2.211   0.325  1.6258  1.3925  1.7885
 5843SOL    HW229163   1.444   2.183   0.345  0.8082  0.2636 -2.9605
 5844SOL     OW29164   1.984   2.966   4.549  0.6446  0.0830 -0.0393
 5844SOL    HW129165   2.040   3.031   4.591  4.0142 -1.2646 -2.3906
 5844SOL    HW229166   2.053   2.908   4.516  0.6161  0.5264 -0.8845
 5845SOL     OW29167   0.943   3.748   3.494 -0.1910 -0.0804 -0.8094
 5845SOL    HW129168   0.903   3.692   3.428 -0.0079  0.6649 -1.5578
 5845SOL    HW229169   0.928   3.696   3.573 -0.0172 -2.4729 -2.3503
 5846SOL     OW29170   0.140   0.320  10.969  0.3717 -0.3580  0.2408
 5846SOL    HW129171   0.199   0.297  11.041 -1.6642  2.7539  2.8959
 5846SOL    HW229172   0.072   0.369  11.014 -1.1430 -0.5102 -1.9295
 5847SOL     OW29173   4.589   4.372  15.772 -0.1467  0.3940 -0.5396
 5847SOL    HW129174   4.557   4.409  15.855 -0.5047 -0.7447 -0.1656
 5847SOL    HW229175   4.641   4.448  15.745 -0.0347  0.0481 -1.2917
 5848SOL     OW29176   2.214   1.436  10.216  0.2827  0.2321 -0.5939
 5848SOL    HW129177   2.119   1.427  10.204 -0.1601  0.9763  2.2077
 5848SOL    HW229178   2.254   1.379  10.151  0.0142 -1.2592  0.5337
 5849SOL     OW29179   0.622   1.327   2.801  0.2853  0.6303  0.1093
 5849SOL    HW129180   0.583   1.360   2.882 -2.0134  0.2691 -0.8582
 5849SOL    HW229181   0.716   1.317   2.821  0.2052  0.4773  0.4155
 5850SOL     OW29182   3.854   0.100   6.033  0.4881 -0.1285  0.1796
 5850SOL    HW129183   3.803   0.022   6.015 -0.3347  0.2268  0.9500
 5850SOL    HW229184   3.795   0.159   6.080  0.5091  1.0397 -1.2593
 5851SOL     OW29185   3.424   0.489   4.317 -0.0010 -0.2602  0.0374
 5851SOL    HW129186   3.511   0.452   4.333  0.2742  0.0582 -0.7588
 5851SOL    HW229187   3.370   0.409   4.323 -0.4404  0.1817  2.1236
 5852SOL     OW29188   0.574   2.765   2.198 -0.0271  0.0110 -0.0014
 5852SOL    HW129189   0.663   2.768   2.233 -0.7299  1.4454  1.6824
 5852SOL    HW229190   0.553   2.859   2.202  0.9295  0.2290 -0.1495
 5853SOL     OW29191   0.300   3.120   8.112 -0.0812 -0.3483  0.1040
 5853SOL    HW129192   0.215   3.127   8.070 -0.7518  2.2220  1.9028
 5853SOL    HW229193   0.288   3.043   8.169  0.0377  0.2621  0.9620
 5854SOL     OW29194   1.389   4.686   2.437  0.9184  0.4797 -0.3151
 5854SOL    HW129195   1.468   4.668   2.386  0.5872 -0.7113 -0.4188
 5854SOL    HW229196   1.364   0.031   2.392  3.5287  1.7194  0.4921
 5855SOL     OW29197   1.239   3.413   2.481  0.0277  0.1819  0.2155
 5855SOL    HW129198   1.242   3.486   2.419  1.3834  0.4675  0.6107
 5855SOL    HW229199   1.196   3.454   2.555 -2.9071  2.6933 -2.9096
 5856SOL     OW29200   0.453   4.063   4.108 -0.0042 -0.0934  0.3200
 5856SOL    HW129201   0.425   4.132   4.168 -0.8525  1.4571 -1.8431
 5856SOL    HW229202   0.426   3.979   4.146  0.3226 -0.1629  0.3980
 5857SOL     OW29203   4.005   2.946   3.078  0.4681  0.3620 -0.0408
 5857SOL    HW129204   3.963   3.030   3.062 -0.4187  0.3634  2.3457
 5857SOL    HW229205   4.096   2.977   3.081  0.6051  0.0169 -0.5690
 5858SOL     OW29206   3.314   0.008  17.009  0.0165 -0.1583 -0.1986
 5858SOL    HW129207   3.277   0.096  17.015  0.1796  0.1130 -2.9247
 5858SOL    HW229208   3.252   4.707  17.072 -0.3706  0.0245 -0.4734
 5859SOL     OW29209   0.966   2.860  17.395 -0.3251 -0.3960 -0.2818
 5859SOL    HW129210   0.871   2.856  17.384 -0.3484 -0.7793  0.0497
 5859SOL    HW229211   0.997   2.830  17.310 -2.3760 -0.9761 -0.8150
 5860SOL     OW29212   1.630   2.116  14.746 -0.0116 -0.3480 -0.3685
 5860SOL    HW129213   1.589   2.100  14.831 -1.7594  3.1537 -0.5337
 5860SOL    HW229214   1.561   2.137  14.682  0.2193 -0.4484 -0.6509
 5861SOL     OW29215   1.025   4.642   7.532 -0.5114 -0.1903 -0.2452
 5861SOL    HW129216   1.029   0.002   7.526 -1.1192  0.0164  2.5843
 5861SOL    HW229217   0.942   4.642   7.579 -0.7175  0.7692 -0.6135
 5862SOL     OW29218   1.696   3.111   3.797  0.9371 -0.9400 -0.1908
 5862SOL    HW129219   1.666   3.156   3.876 -0.0503 -1.4451 -0.2677
 5862SOL    HW229220   1.734   3.183   3.747 -1.7929  0.8247  0.2454
 5863SOL     OW29221   3.822   2.293   3.633 -0.2586 -0.9172 -0.2512
 5863SOL    HW129222   3.801   2.217   3.688 -1.9591 -0.0694  0.2620
 5863SOL    HW229223   3.852   2.363   3.691 -0.4436  0.3348 -1.6748
 5864SOL     OW29224   2.302   2.741   6.203 -0.4385 -0.8337  0.2315
 5864SOL    HW129225   2.302   2.671   6.268  0.8077 -0.6842  0.3913
 5864SOL    HW229226   2.210   2.739   6.178 -0.1349  1.9057 -1.1699
 5865SOL     OW29227   2.407   1.171  13.598  0.3145 -0.3706 -0.2457
 5865SOL    HW129228   2.324   1.147  13.557  0.1592  0.2456 -0.3011
 5865SOL    HW229229   2.470   1.111  13.559  1.4158  1.3766 -1.1824
 5866SOL     OW29230   4.528   0.666   2.542 -0.1560 -0.3478 -0.0350
 5866SOL    HW129231   4.592   0.627   2.484 -1.0826 -0.1247 -1.2134
 5866SOL    HW229232   4.521   0.757   2.511 -1.2258 -0.2886  0.3562
 5867SOL     OW29233   1.226   0.690   9.364 -0.3540  0.3223 -0.3909
 5867SOL    HW129234   1.321   0.688   9.356 -0.2304  1.1205  0.7991
 5867SOL    HW229235   1.191   0.602   9.350  0.6198  0.0428 -1.0772
 5868SOL     OW29236   1.551   1.913   0.386  0.1675  0.1004 -0.0348
 5868SOL    HW129237   1.638   1.878   0.402  0.9411  1.1793 -1.8728
 5868SOL    HW229238   1.505   1.895   0.468  0.9289 -0.3777  0.2837
 5869SOL     OW29239   3.339   2.351   2.448 -0.0645 -0.2154 -0.2338
 5869SOL    HW129240   3.343   2.268   2.495 -0.2468 -1.1888 -1.9529
 5869SOL    HW229241   3.244   2.361   2.453 -0.1863 -1.3082 -0.3179
 5870SOL     OW29242   2.903   2.086   7.706  0.3376 -0.4099 -0.0895
 5870SOL    HW129243   2.894   2.101   7.801  0.4794  1.3218 -0.3485
 5870SOL    HW229244   2.813   2.063   7.680  0.9682 -0.5280 -2.1230
 5871SOL     OW29245   0.317   2.698  15.561  0.3345 -0.1560  0.4738
 5871SOL    HW129246   0.320   2.772  15.500 -0.2362  0.7124  1.5059
 5871SOL    HW229247   0.402   2.698  15.605  0.1308 -0.4693  0.8618
 5872SOL     OW29248   2.048   3.960   9.004 -0.4808 -0.4399 -0.2360
 5872SOL    HW129249   2.014   3.875   9.033  2.3464 -1.8954 -1.1162
 5872SOL    HW229250   2.048   3.946   8.909  1.4062  0.4848 -0.3752
 5873SOL     OW29251   3.911   0.753   5.651 -0.2979  0.5121 -0.4985
 5873SOL    HW129252   3.897   0.752   5.557 -0.1445 -3.2347 -0.4964
 5873SOL    HW229253   3.918   0.661   5.676  0.6432  0.0700 -2.4478
 5874SOL     OW29254   1.430   0.331   6.907 -0.0980 -0.0773  0.2876
 5874SOL    HW129255   1.493   0.392   6.946  1.6843 -1.5817 -0.2205
 5874SOL    HW229256   1.482   0.266   6.860 -0.9798  0.7121 -1.7855
 5875SOL     OW29257   1.608   0.334  17.553  0.6980  0.2192  0.6626
 5875SOL    HW129258   1.595   0.292  17.469  0.4291  1.8414 -0.1057
 5875SOL    HW229259   1.537   0.300  17.609  1.0225  0.0690  0.9835
 5876SOL     OW29260   1.841   1.198  16.306  0.3234  0.9779  0.1613
 5876SOL    HW129261   1.924   1.246  16.315  0.1182  1.6659 -1.5660
 5876SOL    HW229262   1.785   1.272  16.281 -0.6172  0.6070  1.2057
 5877SOL     OW29263   0.734   4.605   4.950 -0.6359  0.0364  0.4804
 5877SOL    HW129264   0.751   4.607   4.856 -0.2755 -0.3901  0.5384
 5877SOL    HW229265   0.747   4.695   4.979  2.3051 -0.1174 -0.4050
 5878SOL     OW29266   1.046   2.662   2.158  0.6385 -0.0034 -0.4328
 5878SOL    HW129267   1.000   2.642   2.239 -0.7631  0.6618 -1.0723
 5878SOL    HW229268   1.100   2.734   2.192  1.3379  0.4974 -2.5853
 5879SOL     OW29269   0.508   3.866   1.112 -0.3024 -0.4335 -0.1938
 5879SOL    HW129270   0.493   3.806   1.038  0.8260 -1.2663  0.2398
 5879SOL    HW229271   0.572   3.816   1.163  0.9869 -0.8826 -2.2186
 5880SOL     OW29272   2.932   4.079   7.829 -0.8069 -0.1194 -0.5180
 5880SOL    HW129273   2.968   4.040   7.749 -1.4767 -0.4894 -0.6417
 5880SOL    HW229274   2.890   4.155   7.789  0.0314  1.9737  2.6271
 5881SOL     OW29275   2.828   4.733  17.483 -0.4808 -0.3997 -0.0831
 5881SOL    HW129276   2.847   0.067  17.546 -0.3202 -0.4059 -0.1225
 5881SOL    HW229277   2.769   0.033  17.417  0.6576 -1.9473 -1.9502
 5882SOL     OW29278   1.711   4.259   4.920 -0.5770  0.0613 -0.1678
 5882SOL    HW129279   1.801   4.231   4.939 -0.1794 -1.2823 -4.0963
 5882SOL    HW229280   1.665   4.215   4.992  0.7352 -1.6231 -0.3732
 5883SOL     OW29281   4.547   0.331  16.631  0.0822  0.2705  0.8570
 5883SOL    HW129282   4.546   0.268  16.704  0.1922 -0.7404 -0.0073
 5883SOL    HW229283   4.561   0.417  16.670 -0.7918  0.3937  0.9106
 5884SOL     OW29284   0.839   1.952   2.422 -0.0920 -0.0970  0.2481
 5884SOL    HW129285   0.872   2.035   2.387  1.0262 -0.7141 -0.1720
 5884SOL    HW229286   0.908   1.926   2.484 -0.3895  0.2272  0.7133
 5885SOL     OW29287   3.751   2.396   7.234  0.1101 -0.2414 -0.2031
 5885SOL    HW129288   3.767   2.304   7.217 -0.7259  0.2181 -3.5160
 5885SOL    HW229289   3.678   2.395   7.297  1.2163 -2.1666  1.0534
 5886SOL     OW29290   3.788   2.373   2.023 -0.6947  0.5702 -0.1525
 5886SOL    HW129291   3.820   2.447   2.074  2.3460  0.8332 -2.4245
 5886SOL    HW229292   3.742   2.325   2.092  0.4395 -0.1843  0.0683
 5887SOL     OW29293   0.092   1.218   7.497 -0.2586  0.1685 -0.2002
 5887SOL    HW129294   0.013   1.262   7.530  0.0236 -0.0441  0.7675
 5887SOL    HW229295   0.141   1.204   7.579  2.0766 -0.1365 -1.6509
 5888SOL     OW29296   4.599   2.699   9.197  0.0834  0.3146  0.5555
 5888SOL    HW129297   4.568   2.789   9.194 -0.6463  0.0547  0.3120
 5888SOL    HW229298   4.691   2.712   9.222  0.2031  0.1798  0.1881
 5889SOL     OW29299   0.416   0.252   7.403 -0.0318 -0.0058  0.0478
 5889SOL    HW129300   0.476   0.192   7.449 -0.0880 -1.4981 -1.8377
 5889SOL    HW229301   0.462   0.266   7.321  1.0020 -0.6563  0.5154
 5890SOL     OW29302   0.848   1.066   7.386 -0.1287  0.6407 -0.1879
 5890SOL    HW129303   0.754   1.063   7.368  0.0067  0.5004 -0.8687
 5890SOL    HW229304   0.865   1.160   7.387 -0.8753  0.7965 -2.5743
 5891SOL     OW29305   2.137   3.024  16.721  0.4084 -0.5605 -0.4515
 5891SOL    HW129306   2.081   3.099  16.699 -1.5005 -1.8411  0.0504
 5891SOL    HW229307   2.088   2.996  16.798  0.4097  1.3604  0.2487
 5892SOL     OW29308   4.624   2.010   2.050 -0.6020  0.1838 -0.3411
 5892SOL    HW129309   4.576   1.927   2.049  0.1483 -0.2756  1.5334
 5892SOL    HW229310   4.595   2.049   2.132  1.0163  0.6967 -0.0103
 5893SOL     OW29311   2.520   3.051   7.451 -0.1358  0.1928 -0.3162
 5893SOL    HW129312   2.492   3.120   7.511 -0.0835  0.6750 -0.8507
 5893SOL    HW229313   2.596   3.008   7.491  0.6043  1.5353 -0.3100
 5894SOL     OW29314   1.593   0.780   1.411 -0.1794 -0.2438  0.8474
 5894SOL    HW129315   1.626   0.752   1.325 -0.8012 -0.4503  0.6732
 5894SOL    HW229316   1.555   0.697   1.441 -2.9481  0.2303 -1.3499
 5895SOL     OW29317   0.029   1.749   8.626 -0.3840 -0.0402  0.1824
 5895SOL    HW129318   0.062   1.831   8.590  0.6238  0.0497  1.3509
 5895SOL    HW229319   0.054   1.684   8.560  0.3534 -0.3657  0.7888
 5896SOL     OW29320   0.637   0.001   4.576  0.2406  0.4945 -0.4654
 5896SOL    HW129321   0.701   0.067   4.549  0.2885  0.6857  0.1217
 5896SOL    HW229322   0.552   0.045   4.576 -0.8692 -1.6280 -1.8387
 5897SOL     OW29323   2.282   3.141  11.435 -0.2862 -0.1360 -0.0214
 5897SOL    HW129324   2.297   3.101  11.520  0.7280 -0.3876 -0.3155
 5897SOL    HW229325   2.358   3.103  11.389 -0.2718 -0.0048 -0.1048
 5898SOL     OW29326   3.649   2.433   1.448 -0.1683 -0.5186 -0.4434
 5898SOL    HW129327   3.670   2.499   1.381 -0.1594  1.7246  1.7867
 5898SOL    HW229328   3.644   2.493   1.522  1.0347  1.5384 -2.0358
 5899SOL     OW29329   0.495   0.004   4.178  0.0242  0.0441  0.0250
 5899SOL    HW129330   0.496   0.091   4.216 -2.8318  0.5255 -1.0516
 5899SOL    HW229331   0.401   4.728   4.171  0.0050  0.6227 -0.6309
 5900SOL     OW29332   3.828   4.061  11.308 -0.2033  0.2163  0.1853
 5900SOL    HW129333   3.919   4.074  11.282 -0.6298 -0.7869 -1.8595
 5900SOL    HW229334   3.844   4.045  11.401  3.9226 -1.9715 -0.9423
 5901SOL     OW29335   2.044   3.104   2.318  0.4627 -0.2272 -0.6240
 5901SOL    HW129336   2.038   3.027   2.261  1.0689 -0.1180 -0.8373
 5901SOL    HW229337   1.972   3.088   2.379  0.0510  0.1639 -1.0041
 5902SOL     OW29338   4.259   1.656   6.308  0.5226  0.5927  0.7801
 5902SOL    HW129339   4.306   1.677   6.227  0.1493 -1.0179  0.1355
 5902SOL    HW229340   4.299   1.706   6.379  0.1071  1.3083  0.5090
 5903SOL     OW29341   0.297   4.585   2.875 -0.3246  0.2528  0.1596
 5903SOL    HW129342   0.246   4.647   2.928 -1.1513 -0.6319  0.3877
 5903SOL    HW229343   0.309   4.514   2.938 -1.0714 -0.3109 -0.3347
 5904SOL     OW29344   2.433   3.488   0.651  0.0360  0.0323  0.8208
 5904SOL    HW129345   2.372   3.419   0.680  1.3604 -2.1085 -1.4706
 5904SOL    HW229346   2.366   3.541   0.609  0.1611 -0.1795  0.3582
 5905SOL     OW29347   1.272   0.401   1.345  0.1361 -0.8854  0.4769
 5905SOL    HW129348   1.217   0.338   1.297  0.8230 -0.7986 -0.4264
 5905SOL    HW229349   1.204   0.444   1.396 -0.7546 -0.0293 -1.4290
 5906SOL     OW29350   2.743   0.149  13.664  0.2655 -0.0045 -0.4387
 5906SOL    HW129351   2.787   0.080  13.613  0.2994  0.0641 -0.5029
 5906SOL    HW229352   2.707   0.198  13.590 -1.2554 -0.1401  0.2331
 5907SOL     OW29353   1.399   1.879   0.612  0.1189 -0.6917  0.0701
 5907SOL    HW129354   1.308   1.876   0.643  1.0006  1.7510  2.8677
 5907SOL    HW229355   1.440   1.859   0.697  0.1709 -2.5927 -0.4055
 5908SOL     OW29356   3.934   0.442   8.755  0.0130 -0.8706 -0.4857
 5908SOL    HW129357   3.999   0.502   8.791 -1.9871  0.4115  1.0026
 5908SOL    HW229358   3.901   0.397   8.833 -0.0449  0.4742  0.2572
 5909SOL     OW29359   3.873   0.133   4.309  0.0956 -0.0105 -0.5086
 5909SOL    HW129360   3.882   0.184   4.390 -1.2403  0.4909 -0.6722
 5909SOL    HW229361   3.965   0.125   4.284 -0.2356  1.1593 -2.1399
 5910SOL     OW29362   4.606   4.378   4.290  0.4403 -0.0448  0.0845
 5910SOL    HW129363   4.689   4.410   4.256  0.8845 -0.4228  0.8206
 5910SOL    HW229364   4.616   4.378   4.385  1.1124  0.6882  0.0182
 5911SOL     OW29365   4.651   4.684   2.877  0.6627 -0.1597 -0.0660
 5911SOL    HW129366   4.686   4.645   2.797  0.1070  1.2448 -0.9920
 5911SOL    HW229367   4.728   4.726   2.914 -0.4452  1.2326  0.7017
 5912SOL     OW29368   4.546   3.792  11.210 -0.2802  0.1386  0.2806
 5912SOL    HW129369   4.619   3.730  11.210  0.4850  1.0215  0.5527
 5912SOL    HW229370   4.517   3.789  11.301  0.9284  2.6558  0.7744
 5913SOL     OW29371   1.971   3.338   1.100 -0.1687  0.5475 -0.1996
 5913SOL    HW129372   1.956   3.422   1.055 -2.1671 -0.6372 -1.7567
 5913SOL    HW229373   2.015   3.369   1.180 -1.1870 -1.9926  1.3348
 5914SOL     OW29374   1.103   1.806   0.328 -0.0207  0.3949 -0.4135
 5914SOL    HW129375   1.111   1.787   0.421 -0.4423 -1.1688 -0.6956
 5914SOL    HW229376   1.010   1.829   0.322  0.6234  2.5797 -2.4867
 5915SOL     OW29377   4.386   1.386   2.139  0.5029 -0.5347 -0.5592
 5915SOL    HW129378   4.336   1.395   2.058 -0.2402  0.7325  0.0473
 5915SOL    HW229379   4.477   1.377   2.111  1.1655  0.0663  1.4068
 5916SOL     OW29380   1.882   2.334   9.072 -0.1725 -0.3737  0.0735
 5916SOL    HW129381   1.815   2.383   9.120  1.9071  1.8270  0.7155
 5916SOL    HW229382   1.902   2.267   9.137  0.1836 -0.9906 -0.6778
 5917SOL     OW29383   0.490   3.779   6.980  0.3437  0.0736 -0.0257
 5917SOL    HW129384   0.538   3.773   6.897 -0.1455 -3.1113 -0.0786
 5917SOL    HW229385   0.540   3.715   7.032  0.8322  2.4964  2.5105
 5918SOL     OW29386   1.886   1.449  17.465  0.4987 -0.6986 -0.9718
 5918SOL    HW129387   1.965   1.413  17.424 -0.9660 -2.6868 -2.0634
 5918SOL    HW229388   1.901   1.536  17.428 -0.3996 -1.5229 -3.2852
 5919SOL     OW29389   0.770   2.560   6.186  0.7620 -0.2631  0.2671
 5919SOL    HW129390   0.864   2.554   6.198  1.2327  0.9099 -2.8275
 5919SOL    HW229391   0.745   2.500   6.256 -3.0399  0.1666 -0.6986
 5920SOL     OW29392   0.306   0.505   9.829  0.6721 -0.3628 -0.0029
 5920SOL    HW129393   0.341   0.527   9.743  0.9381 -0.6985  0.0209
 5920SOL    HW229394   0.297   0.595   9.862 -0.2535 -0.3296 -0.3325
 5921SOL     OW29395   1.374   1.145   1.229 -0.2562  0.3740  0.4266
 5921SOL    HW129396   1.454   1.114   1.187 -1.5268 -0.8362 -1.0962
 5921SOL    HW229397   1.361   1.080   1.298 -0.3743  0.2591  0.2959
 5922SOL     OW29398   1.202   3.833   6.410 -0.3004  0.5188 -0.5878
 5922SOL    HW129399   1.176   3.924   6.398  0.8474  1.1005  1.2795
 5922SOL    HW229400   1.149   3.790   6.344  0.5575 -1.9644  0.3364
 5923SOL     OW29401   2.516   3.511  14.154  0.5737  0.0354  0.3036
 5923SOL    HW129402   2.437   3.565  14.161  0.2473 -0.5985  1.5149
 5923SOL    HW229403   2.483   3.452  14.222 -1.0591 -0.7243 -1.1432
 5924SOL     OW29404   4.240   4.120   8.417 -0.2919 -0.1493 -0.5163
 5924SOL    HW129405   4.210   4.029   8.413 -0.7470 -0.0161 -0.1865
 5924SOL    HW229406   4.186   4.152   8.489 -0.7377 -1.9500 -0.0699
 5925SOL     OW29407   2.358   0.523   8.674 -0.0945  0.1697  0.6952
 5925SOL    HW129408   2.300   0.597   8.654 -2.8700 -1.5638  2.4086
 5925SOL    HW229409   2.442   0.563   8.649  0.1104  0.0457  1.1918
 5926SOL     OW29410   3.212   3.212  17.288  0.9013  0.5043  0.6882
 5926SOL    HW129411   3.243   3.223  17.378 -0.9356  0.6847  1.2948
 5926SOL    HW229412   3.178   3.122  17.293 -0.3011  0.8568 -1.1922
 5927SOL     OW29413   4.652   0.711  12.694  0.4606  0.5181 -0.8169
 5927SOL    HW129414   4.674   0.681  12.606 -0.5987 -1.4810 -0.4009
 5927SOL    HW229415   4.715   0.667  12.751  0.0670 -0.1485 -0.9014
 5928SOL     OW29416   2.146   2.720   3.891 -0.2414 -0.1771 -0.0131
 5928SOL    HW129417   2.224   2.765   3.860 -0.0619 -0.4951 -0.0194
 5928SOL    HW229418   2.094   2.732   3.812  0.5669  0.8759 -0.3793
 5929SOL     OW29419   2.477   2.405   0.722  0.0278  0.4719 -0.1599
 5929SOL    HW129420   2.537   2.350   0.673 -0.0240 -0.1423  0.4590
 5929SOL    HW229421   2.415   2.422   0.651  0.3391  0.9992 -0.3064
 5930SOL     OW29422   0.231   0.258  13.302  0.0080  0.4422  0.1221
 5930SOL    HW129423   0.241   0.198  13.376  0.2797 -0.0427 -0.3091
 5930SOL    HW229424   0.197   0.336  13.346 -1.5243 -0.2474  0.1847
 5931SOL     OW29425   3.461   1.084   7.189  0.1963 -0.1933  1.1989
 5931SOL    HW129426   3.386   1.053   7.240  0.5652 -2.6074  0.2920
 5931SOL    HW229427   3.414   1.142   7.130  2.1141  1.5953  1.4464
 5932SOL     OW29428   3.381   4.051  13.536  0.1790  0.3520 -0.0145
 5932SOL    HW129429   3.372   4.147  13.539 -1.5021  0.1354  2.2084
 5932SOL    HW229430   3.331   4.032  13.457  1.6448 -1.9089 -0.3899
 5933SOL     OW29431   3.249   2.191   6.333  0.1698 -0.5637 -0.2630
 5933SOL    HW129432   3.263   2.139   6.412 -1.7658  0.6853  0.8921
 5933SOL    HW229433   3.153   2.185   6.337 -0.2765  3.5518 -4.1018
 5934SOL     OW29434   1.253   2.295   5.618 -0.1345  0.4558 -0.0312
 5934SOL    HW129435   1.230   2.219   5.672  4.3787 -0.4450  0.5767
 5934SOL    HW229436   1.179   2.355   5.633 -0.2752  0.6136 -1.3191
 5935SOL     OW29437   2.958   4.411  11.067 -0.0288 -0.7004  0.1409
 5935SOL    HW129438   2.908   4.492  11.055  0.0861 -0.6002  0.3538
 5935SOL    HW229439   3.035   4.419  11.011 -0.0849  0.9538  0.3071
 5936SOL     OW29440   0.943   0.834   7.306 -0.1560 -0.3845  0.3750
 5936SOL    HW129441   0.923   0.926   7.321 -2.3091 -0.9248  0.7054
 5936SOL    HW229442   0.993   0.832   7.224  0.5258  3.0535  0.7369
 5937SOL     OW29443   2.741   0.685   0.942 -0.3788 -0.2149  0.4840
 5937SOL    HW129444   2.679   0.758   0.938  0.5990  0.6820  1.5995
 5937SOL    HW229445   2.811   0.719   0.998  0.2089  1.8584 -1.5039
 5938SOL     OW29446   4.277   4.207   7.459  0.1673 -0.0546 -0.0767
 5938SOL    HW129447   4.341   4.139   7.439  0.1983 -0.4828  1.4381
 5938SOL    HW229448   4.224   4.143   7.507 -0.4172  0.3013 -0.2514
 5939SOL     OW29449   0.315   0.182   6.781  0.6329 -0.3662 -0.2066
 5939SOL    HW129450   0.250   0.241   6.743 -0.7646 -0.8266  1.5021
 5939SOL    HW229451   0.386   0.243   6.805 -0.1370  0.0044  1.1170
 5940SOL     OW29452   3.024   2.105   6.708 -0.0403 -0.0365 -0.3760
 5940SOL    HW129453   2.940   2.132   6.745  0.4330  0.6749  0.1723
 5940SOL    HW229454   3.091   2.147   6.761  0.0692  0.5087 -0.9377
 5941SOL     OW29455   0.399   2.750   3.571 -0.0428  0.2208 -0.1750
 5941SOL    HW129456   0.327   2.689   3.591 -0.8215  0.1410 -3.2763
 5941SOL    HW229457   0.394   2.818   3.639 -1.3016  1.7896 -1.8570
 5942SOL     OW29458   2.838   4.600   4.865  0.1062 -0.2846 -0.3789
 5942SOL    HW129459   2.743   4.594   4.864  0.0300  0.5641  0.7470
 5942SOL    HW229460   2.851   4.591   4.960  0.2038 -0.5317 -0.4158
 5943SOL     OW29461   0.047   0.253   8.643 -0.2201 -0.1708 -0.0109
 5943SOL    HW129462   0.121   0.285   8.695  0.7573  0.8631 -2.0453
 5943SOL    HW229463   0.024   0.173   8.691 -1.9821 -0.2872 -1.0284
 5944SOL     OW29464   4.312   0.759   9.555  0.1237  0.0592  0.3435
 5944SOL    HW129465   4.294   0.806   9.637 -1.0564  0.0344  0.0950
 5944SOL    HW229466   4.290   0.821   9.485  0.6306  0.3098  0.4081
 5945SOL     OW29467   0.959   0.845   0.464 -0.3752 -0.1585  0.4345
 5945SOL    HW129468   0.981   0.920   0.409 -1.9476  0.3044  0.4360
 5945SOL    HW229469   0.932   0.891   0.543 -1.3556  1.1016 -0.6475
 5946SOL     OW29470   0.985   1.578   8.347 -0.2499 -0.0592 -0.2940
 5946SOL    HW129471   0.993   1.508   8.411 -1.0044  1.9734  2.0383
 5946SOL    HW229472   0.989   1.655   8.405 -1.6382  0.3312 -0.7066
 5947SOL     OW29473   3.527   2.068   8.215  0.0642  0.1766  0.4762
 5947SOL    HW129474   3.550   2.066   8.123  0.7512  0.4406  0.6424
 5947SOL    HW229475   3.493   2.157   8.215  0.6306  0.3915  0.4371
 5948SOL     OW29476   3.893   0.088  10.055  0.5784  0.1378  0.9408
 5948SOL    HW129477   3.926   0.017  10.000  0.2340  1.4560 -0.9462
 5948SOL    HW229478   3.826   0.113   9.992  1.6138  0.6512  0.0475
 5949SOL     OW29479   0.128   4.641  16.139 -0.2676  0.0382  0.0229
 5949SOL    HW129480   0.115   4.577  16.068 -0.2072  0.3887 -0.3049
 5949SOL    HW229481   0.222   4.654  16.129 -0.4037 -0.5119 -2.0534
 5950SOL     OW29482   1.783   0.539   3.583  0.2734  0.6525  0.2610
 5950SOL    HW129483   1.710   0.482   3.560  1.8612 -0.2373 -2.5181
 5950SOL    HW229484   1.856   0.485   3.611  0.4771  0.3502 -0.8552
 5951SOL     OW29485   2.841   3.699  16.794  0.0568  0.0292  0.1698
 5951SOL    HW129486   2.794   3.648  16.860 -1.7677 -1.0649 -1.9791
 5951SOL    HW229487   2.922   3.649  16.784  0.3680  0.2133  1.8072
 5952SOL     OW29488   3.876   0.815   3.843 -0.1605 -0.2087  0.1311
 5952SOL    HW129489   3.889   0.802   3.749 -1.5396  3.6633 -0.5861
 5952SOL    HW229490   3.781   0.801   3.838  0.1819 -3.0637  1.4256
 5953SOL     OW29491   2.897   0.817   8.195 -0.0078 -0.1301 -0.5274
 5953SOL    HW129492   2.821   0.867   8.164  2.5232  2.5700 -2.3757
 5953SOL    HW229493   2.892   0.739   8.141  0.1911 -1.2942  1.1269
 5954SOL     OW29494   1.093   0.255   5.120  0.2507 -0.5497  0.0935
 5954SOL    HW129495   1.015   0.288   5.165 -1.3057  0.9344 -3.6598
 5954SOL    HW229496   1.059   0.238   5.032  0.7264 -0.7501 -0.0508
 5955SOL     OW29497   2.614   0.971   4.936  0.1028 -0.0857 -0.6256
 5955SOL    HW129498   2.665   0.985   4.856 -0.3884  2.1925 -0.5482
 5955SOL    HW229499   2.555   0.900   4.911  1.0107 -1.4722  1.2120
 5956SOL     OW29500   2.814   1.377   3.336 -0.3437 -0.3848 -0.1341
 5956SOL    HW129501   2.744   1.422   3.288 -0.3319  1.6879  1.8105
 5956SOL    HW229502   2.804   1.411   3.425 -1.7986 -0.7150 -0.1628
 5957SOL     OW29503   3.295   3.688   4.108  0.1276 -0.3694 -0.6441
 5957SOL    HW129504   3.332   3.664   4.023  0.8151 -0.3484 -0.3463
 5957SOL    HW229505   3.242   3.614   4.139 -0.4735  1.4701  2.6664
 5958SOL     OW29506   0.274   1.152   5.243 -0.3685 -0.3067 -0.2263
 5958SOL    HW129507   0.214   1.077   5.240 -0.8096  0.0860 -1.3407
 5958SOL    HW229508   0.229   1.203   5.311  1.3150 -0.8677  1.2876
 5959SOL     OW29509   1.992   1.800   5.988  0.3779 -0.0300 -0.1109
 5959SOL    HW129510   2.016   1.892   5.999 -1.3729  0.7211 -2.6397
 5959SOL    HW229511   2.037   1.778   5.906 -0.6272 -1.4180 -0.2814
 5960SOL     OW29512   4.122   0.264  15.156  0.6194 -0.5385 -0.2034
 5960SOL    HW129513   4.103   0.176  15.188 -0.9937  0.5722  1.9404
 5960SOL    HW229514   4.067   0.271  15.078  0.6739  0.2177 -0.1698
 5961SOL     OW29515   4.430   4.724  17.327  0.0245  0.1065 -0.4675
 5961SOL    HW129516   4.337   4.718  17.305  0.0747  2.4870 -1.3049
 5961SOL    HW229517   4.427   4.722  17.422  1.6997 -0.2881 -0.4313
 5962SOL     OW29518   4.101   2.653  12.106 -0.6519 -0.5438 -0.1163
 5962SOL    HW129519   4.175   2.604  12.142 -2.2745 -2.6429  0.3550
 5962SOL    HW229520   4.126   2.646  12.014 -0.8143  1.9760 -0.3508
 5963SOL     OW29521   0.480   4.258   9.598  0.3610 -0.4489  0.3428
 5963SOL    HW129522   0.392   4.228   9.572 -0.4358  2.2073 -0.0265
 5963SOL    HW229523   0.473   4.252   9.693 -3.2126 -2.0256 -0.0199
 5964SOL     OW29524   4.550   4.446  13.514  0.2242 -0.0578 -0.7891
 5964SOL    HW129525   4.642   4.470  13.529  0.2577  0.5129 -1.9516
 5964SOL    HW229526   4.540   4.362  13.559 -0.9898  1.8607  2.5631
 5965SOL     OW29527   1.921   3.759   5.811  0.1342  0.2964  0.4351
 5965SOL    HW129528   1.938   3.718   5.726 -1.3453 -1.0650  0.7968
 5965SOL    HW229529   1.958   3.688   5.863  0.4488  1.1911  1.4418
 5966SOL     OW29530   3.174   4.541   3.551  0.0456 -0.2060 -0.0655
 5966SOL    HW129531   3.266   4.553   3.576  0.2520 -1.2374 -0.3296
 5966SOL    HW229532   3.146   4.520   3.640  2.5492  0.0427  0.7958
 5967SOL     OW29533   2.936   0.146  10.904  0.2309  0.0848  0.3338
 5967SOL    HW129534   2.857   0.199  10.908 -0.6193 -1.2772  1.4380
 5967SOL    HW229535   2.998   0.215  10.931  0.9135 -0.5526  0.4092
 5968SOL     OW29536   0.463   2.036  15.293 -0.4341 -0.2549  0.2437
 5968SOL    HW129537   0.512   2.117  15.276 -2.5969  0.6196 -1.9086
 5968SOL    HW229538   0.412   2.060  15.370 -1.0735 -2.5650  0.5403
 5969SOL     OW29539   2.824   2.931   7.044  0.2965 -0.2462 -0.1490
 5969SOL    HW129540   2.835   2.979   7.126  1.2353 -0.5955 -0.0754
 5969SOL    HW229541   2.868   2.849   7.067  0.3973  0.4946  2.2731
 5970SOL     OW29542   1.499   1.436   6.397  0.0952 -0.0720 -0.3042
 5970SOL    HW129543   1.594   1.437   6.382 -0.1396  3.3293 -1.5894
 5970SOL    HW229544   1.460   1.523   6.388 -1.3147 -0.5478  1.2811
 5971SOL     OW29545   1.197   4.446   7.589  0.3947 -0.0445 -0.6408
 5971SOL    HW129546   1.124   4.388   7.609  1.9194 -2.0485 -0.9470
 5971SOL    HW229547   1.143   4.522   7.567  1.1302  0.7394  0.2606
 5972SOL     OW29548   2.603   3.021   1.508 -0.6860  0.0450 -1.0626
 5972SOL    HW129549   2.531   2.966   1.478 -0.4261  0.5049 -2.5706
 5972SOL    HW229550   2.572   3.030   1.598 -0.7910  2.1349 -1.3074
 5973SOL     OW29551   2.345   4.392   7.348 -0.0790  0.1825 -0.3390
 5973SOL    HW129552   2.402   4.317   7.368 -2.3082 -0.8657  2.0033
 5973SOL    HW229553   2.417   4.456   7.343  0.1436 -0.0065  0.4740
 5974SOL     OW29554   3.286   4.621  13.142 -0.0340 -0.5469  0.5342
 5974SOL    HW129555   3.239   4.621  13.225 -0.7773  0.5250  0.1121
 5974SOL    HW229556   3.369   4.651  13.178 -1.3023  0.0910  2.8901
 5975SOL     OW29557   0.986   0.408   2.558 -0.6116 -0.1469 -0.0233
 5975SOL    HW129558   0.941   0.485   2.525  0.8468  0.9663  0.5525
 5975SOL    HW229559   0.909   0.367   2.597  0.2578 -0.9531  0.8913
 5976SOL     OW29560   1.680   0.126   9.153 -0.3173  0.0784  0.3261
 5976SOL    HW129561   1.757   0.079   9.185  0.8695  0.9504 -1.2722
 5976SOL    HW229562   1.613   0.068   9.189  1.0598  0.3203  3.3455
 5977SOL     OW29563   2.443   3.246   1.874  0.3962 -0.5558  0.0500
 5977SOL    HW129564   2.479   3.327   1.836  1.8173 -0.3347  1.8912
 5977SOL    HW229565   2.376   3.229   1.807  0.3858  0.6398 -0.2471
 5978SOL     OW29566   2.940   0.061  10.610 -0.1228 -0.0255  0.1928
 5978SOL    HW129567   2.925   0.023  10.696 -2.0189  1.3613  0.4782
 5978SOL    HW229568   2.885   0.008  10.552 -0.2297  2.6802 -2.1962
 5979SOL     OW29569   1.377   4.712   8.553  0.1725 -0.1653  0.0062
 5979SOL    HW129570   1.387   4.681   8.644 -1.6342  1.2850  0.6912
 5979SOL    HW229571   1.396   0.067   8.577 -0.9495  0.2204 -0.5592
 5980SOL     OW29572   2.065   1.257   4.083  0.2063 -0.1277 -0.1686
 5980SOL    HW129573   2.126   1.277   4.154 -1.0449 -0.2220  0.9202
 5980SOL    HW229574   2.015   1.182   4.114 -1.1880  0.9622  0.2250
 5981SOL     OW29575   0.679   1.554  12.168 -0.1828  0.7265  0.2778
 5981SOL    HW129576   0.758   1.504  12.152 -1.6452 -1.6393  0.4012
 5981SOL    HW229577   0.685   1.633  12.115  0.9717 -0.6942 -1.6967
 5982SOL     OW29578   3.116   1.510  17.549  0.2915 -0.0995 -0.8943
 5982SOL    HW129579   3.132   1.604  17.562 -1.8514  0.2207 -0.6759
 5982SOL    HW229580   3.037   1.503  17.496 -1.1216 -1.3561  1.4063
 5983SOL     OW29581   0.111   0.055  10.009 -0.0578 -0.2108 -0.0819
 5983SOL    HW129582   0.098   0.068  10.103  0.9192 -0.0614  0.0312
 5983SOL    HW229583   0.102   0.149   9.991 -1.3487 -0.5073 -0.9975
 5984SOL     OW29584   1.062   4.073   4.448 -0.0484  0.1673 -0.1108
 5984SOL    HW129585   1.069   4.051   4.355 -0.2527 -0.0762 -0.0696
 5984SOL    HW229586   1.102   4.160   4.454  2.4022 -0.8125 -2.0907
 5985SOL     OW29587   1.260   1.508  10.739  0.0110 -0.3211  0.2084
 5985SOL    HW129588   1.284   1.577  10.800 -1.1512  0.7212 -0.5027
 5985SOL    HW229589   1.299   1.549  10.662 -1.9629  0.2646 -0.5032
 5986SOL     OW29590   1.896   1.143   4.489 -0.1994 -0.0365  0.3567
 5986SOL    HW129591   1.891   1.178   4.578 -0.5071 -1.1250  0.7601
 5986SOL    HW229592   1.876   1.218   4.432  0.0976  0.0207  0.3223
 5987SOL     OW29593   1.970   2.205   5.686 -0.3281 -0.8398 -0.0084
 5987SOL    HW129594   1.995   2.220   5.595 -1.5252  2.8026  0.2974
 5987SOL    HW229595   1.958   2.110   5.693 -0.9459 -0.8093 -0.6929
 5988SOL     OW29596   1.864   0.842  12.963 -0.1848 -0.1317  0.1565
 5988SOL    HW129597   1.840   0.917  12.907 -0.1587  1.3725  2.1735
 5988SOL    HW229598   1.777   0.810  12.987 -0.8636  0.9629 -0.8061
 5989SOL     OW29599   1.993   2.168   3.972 -0.3510 -0.8836  0.2455
 5989SOL    HW129600   2.079   2.156   4.013 -0.2772 -1.9034 -0.2136
 5989SOL    HW229601   1.935   2.177   4.047 -1.4916 -0.0109 -0.7441
 5990SOL     OW29602   2.291   2.175   6.603  0.2188  0.1720 -0.2781
 5990SOL    HW129603   2.203   2.184   6.565 -1.1563  0.0242  2.8307
 5990SOL    HW229604   2.301   2.080   6.610  1.4742  0.3461  0.2916
 5991SOL     OW29605   1.959   1.270  14.671 -0.8966  0.1356 -0.3298
 5991SOL    HW129606   1.882   1.248  14.619 -0.8864  1.4943 -0.9144
 5991SOL    HW229607   1.978   1.351  14.624 -2.1354  0.5104 -0.1639
 5992SOL     OW29608   0.671   3.084   6.565 -0.2677  0.2927 -0.2144
 5992SOL    HW129609   0.582   3.057   6.588 -0.0124 -1.3938 -1.2629
 5992SOL    HW229610   0.664   3.101   6.471 -0.9346  3.1150  0.3451
 5993SOL     OW29611   1.057   0.740   3.027  0.3121  0.1534  0.3080
 5993SOL    HW129612   1.025   0.707   2.943  1.6243 -0.0025 -0.1333
 5993SOL    HW229613   0.980   0.725   3.081 -0.0137  1.2375  0.1428
 5994SOL     OW29614   0.460   3.878   2.589 -0.6609 -0.1844 -0.3209
 5994SOL    HW129615   0.493   3.964   2.564  0.3237 -0.5557 -0.3110
 5994SOL    HW229616   0.368   3.897   2.605 -0.4353  0.2612  0.4768
 5995SOL     OW29617   0.063   1.403   3.370 -0.0461 -0.9603  0.0336
 5995SOL    HW129618   0.007   1.325   3.373 -1.3234 -0.0208  0.5549
 5995SOL    HW229619   0.146   1.357   3.381  1.0605  0.9102 -0.5384
 5996SOL     OW29620   3.250   0.538   1.127 -0.1583 -0.0876  0.2917
 5996SOL    HW129621   3.257   0.464   1.067 -2.5410  2.5626 -3.2726
 5996SOL    HW229622   3.185   0.591   1.081  0.0157 -0.7625 -0.7304
 5997SOL     OW29623   0.268   4.523   8.983 -0.1867 -0.5012 -0.5184
 5997SOL    HW129624   0.353   4.567   8.983 -0.4888  0.0864  2.4103
 5997SOL    HW229625   0.291   4.435   9.011 -0.8804 -1.2391 -2.2713
 5998SOL     OW29626   1.697   0.606   4.693 -0.1759  1.2395  0.6834
 5998SOL    HW129627   1.608   0.620   4.661  0.5835  0.0142 -1.9425
 5998SOL    HW229628   1.689   0.516   4.724  0.4305  1.7266  2.2560
 5999SOL     OW29629   1.166   3.237  11.557  0.0083  0.2656 -0.1001
 5999SOL    HW129630   1.201   3.323  11.581 -1.6982  0.8699  0.2183
 5999SOL    HW229631   1.073   3.252  11.539  0.1773  1.6227  0.1280
 6000SOL     OW29632   0.677   2.723   8.275  1.0399 -0.2967  0.5778
 6000SOL    HW129633   0.747   2.738   8.339  1.3875 -0.4368  0.2353
 6000SOL    HW229634   0.653   2.815   8.273 -0.6561 -0.7411  0.4903
 6001SOL     OW29635   4.591   1.039   7.447  0.0660  0.3819 -0.1524
 6001SOL    HW129636   4.656   1.108   7.451 -0.3726  0.7568  0.4741
 6001SOL    HW229637   4.567   1.040   7.354 -2.3668 -1.8343  0.4290
 6002SOL     OW29638   2.583   4.277   2.881 -0.8894 -0.4100 -0.5235
 6002SOL    HW129639   2.599   4.224   2.803 -2.1538 -0.7242 -0.5620
 6002SOL    HW229640   2.671   4.312   2.895 -1.1777 -1.3780  3.8414
 6003SOL     OW29641   4.260   3.666  11.220  0.6319  0.2674 -0.4532
 6003SOL    HW129642   4.337   3.723  11.230  1.6735 -1.5660  1.9724
 6003SOL    HW229643   4.280   3.594  11.280 -0.8776  0.9930  0.9483
 6004SOL     OW29644   4.342   1.939   1.334 -0.0043  0.3137  0.0118
 6004SOL    HW129645   4.389   2.019   1.357 -0.1785  0.6547 -0.8062
 6004SOL    HW229646   4.391   1.879   1.391  0.5747 -1.0528 -1.9240
 6005SOL     OW29647   3.040   1.213   3.562 -0.5334  0.4772 -0.7784
 6005SOL    HW129648   3.087   1.284   3.520  1.0507 -0.6916 -1.0033
 6005SOL    HW229649   3.098   1.137   3.550 -1.0558 -0.0690  0.1194
 6006SOL     OW29650   1.650   3.627   1.604 -0.2632 -0.1120  0.0892
 6006SOL    HW129651   1.622   3.717   1.587  1.7930  0.3815 -0.5947
 6006SOL    HW229652   1.744   3.636   1.590 -0.8565  1.6795 -2.8608
 6007SOL     OW29653   0.879   1.139   5.479  0.1623 -0.0967 -0.0488
 6007SOL    HW129654   0.932   1.141   5.399 -0.1482 -4.0735 -0.3219
 6007SOL    HW229655   0.944   1.163   5.546  0.3851  0.8576 -0.6086
 6008SOL     OW29656   4.022   0.423   2.706 -0.3281  0.0280 -0.0222
 6008SOL    HW129657   3.957   0.368   2.748 -0.4626 -0.3660 -0.7430
 6008SOL    HW229658   4.005   0.504   2.754 -1.3707 -0.3650  0.2493
 6009SOL     OW29659   3.013   4.332  12.152  0.1190  0.1194  0.3803
 6009SOL    HW129660   2.968   4.251  12.177  2.6727 -1.0323  1.3231
 6009SOL    HW229661   3.079   4.352  12.218  1.5773  2.1410 -1.6641
 6010SOL     OW29662   4.293   3.365   7.723 -0.2174  0.2705  0.6726
 6010SOL    HW129663   4.226   3.320   7.775 -1.6845 -1.1879 -2.4780
 6010SOL    HW229664   4.287   3.331   7.634  2.5428  0.6609  0.3370
 6011SOL     OW29665   3.124   3.689  17.216  0.1521  0.0852 -0.0481
 6011SOL    HW129666   3.187   3.722  17.281  1.9216 -0.1039 -1.6559
 6011SOL    HW229667   3.167   3.606  17.193 -1.0284 -1.1031  2.1241
 6012SOL     OW29668   3.122   4.520   6.965  0.1628 -0.0572  0.0560
 6012SOL    HW129669   3.135   4.446   6.906 -3.4954 -0.0193 -0.8136
 6012SOL    HW229670   3.061   4.481   7.028 -0.2943 -2.4943 -1.9054
 6013SOL     OW29671   4.517   2.972   9.174 -0.0493  0.5863  0.0349
 6013SOL    HW129672   4.532   3.023   9.094  0.4395 -0.4281 -0.5096
 6013SOL    HW229673   4.444   3.024   9.209  1.0797  1.9675  0.3621
 6014SOL     OW29674   2.945   4.025  15.824  0.1118 -0.3146  0.2146
 6014SOL    HW129675   2.997   4.102  15.850  3.0926 -1.9348 -0.8731
 6014SOL    HW229676   2.983   3.995  15.741  0.1927  0.1430  0.0863
 6015SOL     OW29677   0.334   0.332   4.978  1.0122 -0.1065 -0.0418
 6015SOL    HW129678   0.394   0.345   4.904  1.8962 -0.0996  0.6740
 6015SOL    HW229679   0.281   0.411   4.969 -0.8727 -1.2351  1.2400
 6016SOL     OW29680   2.808   4.581   2.071 -0.5837 -0.4402 -0.0336
 6016SOL    HW129681   2.830   4.641   2.142  0.1733 -0.2039 -0.4640
 6016SOL    HW229682   2.760   4.641   2.014 -1.5759  1.3295  2.6830
 6017SOL     OW29683   1.971   0.492  13.027  0.2250  0.1259 -0.1368
 6017SOL    HW129684   1.990   0.552  12.955  2.0090 -1.2514 -0.8293
 6017SOL    HW229685   2.053   0.446  13.043 -1.1771 -2.4139 -0.2587
 6018SOL     OW29686   2.527   1.098   9.673  0.1711  0.1623 -0.0925
 6018SOL    HW129687   2.535   1.005   9.692 -0.3061 -0.0114 -0.7403
 6018SOL    HW229688   2.540   1.097   9.578  0.5452  1.5142 -0.0693
 6019SOL     OW29689   3.447   1.896  15.846  0.0574 -0.6011  0.5499
 6019SOL    HW129690   3.375   1.848  15.805  1.6804  0.5427 -3.6117
 6019SOL    HW229691   3.493   1.908  15.763 -1.2448 -1.5800 -0.3251
 6020SOL     OW29692   0.870   3.235   2.781 -0.2994 -0.5247  0.8086
 6020SOL    HW129693   0.869   3.314   2.726 -1.0188 -0.8350  0.3632
 6020SOL    HW229694   0.939   3.261   2.842 -0.3428  0.2560  0.5273
 6021SOL     OW29695   0.199   1.631   8.840  0.0333 -0.8231 -0.1399
 6021SOL    HW129696   0.291   1.643   8.816  0.8073 -1.9307  2.2690
 6021SOL    HW229697   0.154   1.634   8.755 -0.7492  2.1309  0.3527
 6022SOL     OW29698   3.525   3.582   5.352  0.3586  0.4114  0.0369
 6022SOL    HW129699   3.461   3.511   5.341 -0.1661  0.7458  0.9649
 6022SOL    HW229700   3.598   3.544   5.303  0.2414 -2.3429  2.0118
 6023SOL     OW29701   1.470   3.603  14.150  0.0629 -0.5027  0.3982
 6023SOL    HW129702   1.562   3.585  14.166 -0.2831 -2.9399 -0.2683
 6023SOL    HW229703   1.467   3.553  14.068  3.2973  0.1473 -0.0860
 6024SOL     OW29704   0.398   3.482  17.575  0.3829  0.2156 -0.0437
 6024SOL    HW129705   0.374   3.502  17.666 -0.8062 -2.3167  0.1959
 6024SOL    HW229706   0.433   3.394  17.586  2.3646  0.9676 -0.2966
 6025SOL     OW29707   0.340   2.947   8.722  0.6492  0.1018  0.2828
 6025SOL    HW129708   0.250   2.936   8.755  0.1339  0.6120 -0.9386
 6025SOL    HW229709   0.350   3.040   8.705  0.8502 -0.6577 -3.7360
 6026SOL     OW29710   0.248   4.392  14.952  0.3067  0.2364 -0.0420
 6026SOL    HW129711   0.209   4.307  14.974  1.2549 -0.4492 -0.9762
 6026SOL    HW229712   0.323   4.355  14.906 -0.7387 -0.9795 -0.7875
 6027SOL     OW29713   1.906   3.921   3.642  0.3694 -1.0309  0.2648
 6027SOL    HW129714   1.994   3.956   3.628 -0.5932  1.4004  0.3372
 6027SOL    HW229715   1.855   3.998   3.620 -0.7097 -1.0467  2.6639
 6028SOL     OW29716   0.414   0.235   9.547 -0.8358 -0.4163 -0.6736
 6028SOL    HW129717   0.508   0.227   9.531 -0.7656  0.5791 -0.7875
 6028SOL    HW229718   0.403   0.168   9.615 -0.2155 -1.2247 -1.3728
 6029SOL     OW29719   1.715   0.906  11.391 -0.0328 -0.4245 -0.0902
 6029SOL    HW129720   1.717   0.814  11.366 -0.7851 -1.0200  1.9674
 6029SOL    HW229721   1.801   0.937  11.363 -0.5476  0.3212 -0.8364
 6030SOL     OW29722   0.187   4.118   6.440  0.4940 -0.3239  0.3833
 6030SOL    HW129723   0.215   4.049   6.500  0.4919  0.7337  1.6046
 6030SOL    HW229724   0.191   4.186   6.507 -0.2146  0.9428 -0.8603
 6031SOL     OW29725   3.969   0.239   4.978 -0.9735  0.1059 -0.4455
 6031SOL    HW129726   4.011   0.313   5.021  0.6118 -0.5565 -0.8381
 6031SOL    HW229727   3.878   0.252   5.006 -1.4581 -0.5232 -1.7227
 6032SOL     OW29728   3.741   4.673   9.382 -0.6919 -0.3221  0.1688
 6032SOL    HW129729   3.823   4.721   9.398 -0.2272 -1.5216  1.3915
 6032SOL    HW229730   3.732   4.625   9.464 -0.7412 -1.4292 -0.4884
 6033SOL     OW29731   3.299   1.162   4.344  0.0710  0.3197 -0.7039
 6033SOL    HW129732   3.343   1.133   4.425 -0.1213 -1.1070 -1.1084
 6033SOL    HW229733   3.343   1.246   4.338 -0.2903  0.5018 -0.7708
 6034SOL     OW29734   0.672   3.144  15.663  0.6270 -0.7451  0.0272
 6034SOL    HW129735   0.607   3.078  15.638  1.7486 -1.4585 -0.9711
 6034SOL    HW229736   0.690   3.116  15.753  0.6931  2.7615  1.0840
 6035SOL     OW29737   4.046   1.003   5.036 -0.0539 -0.1298 -0.0310
 6035SOL    HW129738   4.111   1.015   4.966  0.8667 -0.4841  0.7517
 6035SOL    HW229739   3.968   1.041   4.997  0.5423  1.4563  0.2970
 6036SOL     OW29740   1.613   0.348   4.465 -0.0155 -0.4793  0.5991
 6036SOL    HW129741   1.546   0.279   4.459 -1.1456  0.5811  1.0300
 6036SOL    HW229742   1.626   0.385   4.378 -0.3663  0.0230  0.7586
 6037SOL     OW29743   0.073   1.058  16.076  0.2556  0.3009 -0.3182
 6037SOL    HW129744   0.010   1.112  16.124  0.8350  0.9060 -0.2346
 6037SOL    HW229745   0.150   1.068  16.133  1.0725 -2.1549 -0.9645
 6038SOL     OW29746   0.644   2.780   5.565 -0.2471  0.1348 -0.4721
 6038SOL    HW129747   0.609   2.823   5.644  1.7285  0.0063  0.4666
 6038SOL    HW229748   0.702   2.717   5.607 -1.2816 -1.2858 -1.1809
 6039SOL     OW29749   3.271   1.902   9.666 -0.4994  0.2521  0.2619
 6039SOL    HW129750   3.183   1.891   9.630  1.3901 -2.2240 -3.5649
 6039SOL    HW229751   3.244   1.912   9.757  0.4534 -0.3569  0.6119
 6040SOL     OW29752   1.240   4.493   9.361 -0.5170 -0.3987 -0.4860
 6040SOL    HW129753   1.154   4.455   9.345 -0.1457 -1.5682  0.2937
 6040SOL    HW229754   1.261   4.467   9.451 -1.9537  0.0025 -0.0249
 6041SOL     OW29755   1.504   4.689   7.009 -0.4535  0.4319 -0.2909
 6041SOL    HW129756   1.554   4.732   6.939 -1.8775  0.2051 -1.4431
 6041SOL    HW229757   1.413   4.706   6.986 -0.7930 -1.2004 -0.1373
 6042SOL     OW29758   4.045   1.115   3.210 -0.0039 -0.1196 -0.0797
 6042SOL    HW129759   3.981   1.186   3.225  0.6055  0.5670 -0.7109
 6042SOL    HW229760   4.115   1.168   3.171 -0.5631 -0.9818 -2.2412
 6043SOL     OW29761   4.588   2.116   8.090  0.1623  0.0385  0.1331
 6043SOL    HW129762   4.664   2.062   8.113  0.4501  0.0878 -0.6911
 6043SOL    HW229763   4.587   2.126   7.995  0.2366 -0.3991  0.0867
 6044SOL     OW29764   1.781   3.250   4.666  0.2444 -0.3544 -0.1674
 6044SOL    HW129765   1.755   3.271   4.576  0.3250 -1.5100 -0.4577
 6044SOL    HW229766   1.778   3.155   4.664  0.5432 -0.3481 -1.0483
 6045SOL     OW29767   4.527   3.914   3.723 -0.1250 -0.0910  0.0750
 6045SOL    HW129768   4.616   3.931   3.753 -0.0911  0.4059 -0.3149
 6045SOL    HW229769   4.538   3.828   3.682 -1.2543 -0.3489  0.3163
 6046SOL     OW29770   0.548   3.216   1.537  0.4905 -0.1083  0.1384
 6046SOL    HW129771   0.488   3.250   1.471 -0.6805 -0.3704  1.0591
 6046SOL    HW229772   0.527   3.278   1.607 -1.0301 -0.1738 -0.2722
 6047SOL     OW29773   4.225   1.783   8.699 -1.0463  1.0553 -0.0359
 6047SOL    HW129774   4.154   1.722   8.681 -0.5846  0.1144  1.3168
 6047SOL    HW229775   4.186   1.844   8.762 -0.5904 -0.0754  1.3505
 6048SOL     OW29776   1.696   0.424   6.132  0.6360  0.4689 -0.3435
 6048SOL    HW129777   1.768   0.485   6.120  2.4560 -1.6818 -0.5086
 6048SOL    HW229778   1.691   0.381   6.047 -0.1417  1.9720 -1.0523
 6049SOL     OW29779   0.708   3.797   4.592 -0.2197 -0.1167  0.0518
 6049SOL    HW129780   0.775   3.730   4.598 -2.2772 -2.1836 -0.2579
 6049SOL    HW229781   0.635   3.757   4.545  0.1492 -0.3332 -0.3326
 6050SOL     OW29782   4.570   4.299   3.658 -0.1038  0.1500 -0.2614
 6050SOL    HW129783   4.588   4.205   3.663 -1.3795 -0.0941 -0.2799
 6050SOL    HW229784   4.651   4.340   3.689  0.3121 -0.3971 -0.6311
 6051SOL     OW29785   0.848   4.593   6.390 -0.3756 -0.5281  1.0865
 6051SOL    HW129786   0.755   4.572   6.383 -0.6506  1.1586 -0.4039
 6051SOL    HW229787   0.882   4.518   6.342  1.1352  1.0755 -0.3515
 6052SOL     OW29788   1.114   3.672   6.816 -0.3145 -0.2893  0.2691
 6052SOL    HW129789   1.030   3.689   6.858 -1.1607  1.0539 -1.9546
 6052SOL    HW229790   1.091   3.683   6.724  1.3815 -1.8639 -0.3278
 6053SOL     OW29791   0.914   4.594  14.257 -0.1880  0.1498  0.6183
 6053SOL    HW129792   0.823   4.566  14.251  0.4645 -2.3847  3.1488
 6053SOL    HW229793   0.962   4.522  14.215  0.2115  0.3203  0.7852
 6054SOL     OW29794   1.330   2.421   2.711  0.0394  0.0465  0.5716
 6054SOL    HW129795   1.422   2.407   2.734 -0.0277 -1.8239 -0.2755
 6054SOL    HW229796   1.279   2.379   2.781 -0.2650 -1.7663 -0.7129
 6055SOL     OW29797   1.366   0.725   7.559  0.4076  0.1966  0.4046
 6055SOL    HW129798   1.355   0.631   7.552  3.2488 -0.1686  0.7717
 6055SOL    HW229799   1.313   0.754   7.633 -0.0315 -0.0087  0.1670
 6056SOL     OW29800   3.350   2.099   6.588  0.4925  0.0575  0.1171
 6056SOL    HW129801   3.357   2.021   6.642  1.4479  2.0155  2.8234
 6056SOL    HW229802   3.330   2.160   6.659  2.1060  0.6730  0.0470
 6057SOL     OW29803   1.119   4.469   5.515 -0.1246  0.0216  0.1091
 6057SOL    HW129804   1.051   4.402   5.517 -1.5328  1.4502 -0.3045
 6057SOL    HW229805   1.094   4.537   5.453 -1.2234 -1.7698 -1.3776
 6058SOL     OW29806   0.011   0.129  13.506  0.4919 -0.6062 -0.6388
 6058SOL    HW129807   4.662   0.091  13.528  0.3637 -0.5391 -1.0039
 6058SOL    HW229808   0.057   0.119  13.589  1.6754 -2.3904 -1.5217
 6059SOL     OW29809   3.228   1.089   9.624 -0.1174  0.2623  0.2414
 6059SOL    HW129810   3.239   1.097   9.529  1.0460 -1.3732  0.2559
 6059SOL    HW229811   3.167   1.015   9.629 -0.8574  0.8379 -0.2504
 6060SOL     OW29812   3.497   2.817   3.345 -0.0912 -0.0702  0.3165
 6060SOL    HW129813   3.413   2.847   3.380  1.3445  1.7846  2.1446
 6060SOL    HW229814   3.500   2.723   3.363  0.1517 -0.2598 -0.6876
 6061SOL     OW29815   0.471   2.931   8.425  0.3196  0.1088 -0.1651
 6061SOL    HW129816   0.399   2.929   8.363  0.7895  1.5522 -0.7561
 6061SOL    HW229817   0.438   2.910   8.512  0.2180  0.3038 -0.1557
 6062SOL     OW29818   2.063   1.966   8.078 -0.3913  0.2955  0.5855
 6062SOL    HW129819   2.113   2.044   8.103 -0.0274  0.4835 -0.7395
 6062SOL    HW229820   2.124   1.909   8.032  1.5493  0.5673  2.8320
 6063SOL     OW29821   0.645   3.659  17.567 -0.5483  0.1516  0.2216
 6063SOL    HW129822   0.702   3.586  17.545 -0.2097  1.2461 -2.6421
 6063SOL    HW229823   0.563   3.613  17.588 -1.5906  0.8615 -2.2326
 6064SOL     OW29824   2.650   1.186   7.735  0.0713  0.0445  0.1083
 6064SOL    HW129825   2.597   1.113   7.705  2.2367 -1.1710 -0.8024
 6064SOL    HW229826   2.741   1.159   7.752 -0.6001 -1.0853  1.9154
 6065SOL     OW29827   3.329   4.448  10.034 -0.4980 -0.4878 -0.4616
 6065SOL    HW129828   3.361   4.360  10.016 -0.6412 -0.1846 -2.1709
 6065SOL    HW229829   3.330   4.457  10.130  0.3041 -0.1461 -0.4951
 6066SOL     OW29830   1.362   0.794  13.796 -0.1137  0.7747 -0.1612
 6066SOL    HW129831   1.290   0.736  13.773 -0.3491  0.8799  0.3002
 6066SOL    HW229832   1.412   0.801  13.715 -1.1334  1.2340 -0.7478
 6067SOL     OW29833   4.171   1.677   7.490 -0.4689 -0.4928  0.0929
 6067SOL    HW129834   4.086   1.713   7.465 -0.3722  0.1266  0.6633
 6067SOL    HW229835   4.153   1.612   7.559 -3.4155 -2.3632 -2.4407
 6068SOL     OW29836   4.693   0.255   7.309 -0.4414  0.5031 -0.1620
 6068SOL    HW129837   4.735   0.183   7.262  0.6364  0.9179  0.1625
 6068SOL    HW229838   4.638   0.200   7.364 -1.3171  2.5044  0.9457
 6069SOL     OW29839   3.893   1.661   6.717 -0.7742  0.0115  0.1420
 6069SOL    HW129840   3.853   1.611   6.787 -2.0134 -1.2452 -1.4704
 6069SOL    HW229841   3.920   1.595   6.654 -1.7342 -0.8570  0.6571
 6070SOL     OW29842   3.362   3.172   0.107 -0.2234  0.7980  0.1186
 6070SOL    HW129843   3.349   3.129   0.192  1.6949  1.4786  0.7536
 6070SOL    HW229844   3.416   3.246   0.134  0.1064  1.3447 -2.0067
 6071SOL     OW29845   2.832   1.692   5.483  0.5424  0.1476  0.2901
 6071SOL    HW129846   2.815   1.620   5.422 -0.4075 -0.4397  1.2569
 6071SOL    HW229847   2.798   1.767   5.434 -2.5661 -1.5005 -0.0640
 6072SOL     OW29848   2.424   0.182   5.771  0.0629  0.8812 -0.3798
 6072SOL    HW129849   2.333   0.169   5.744  0.0321  0.2975  0.0004
 6072SOL    HW229850   2.454   0.165   5.682  1.5718 -1.6929  0.5949
 6073SOL     OW29851   1.085   4.333   9.128  0.0773  0.3662 -0.1999
 6073SOL    HW129852   1.107   4.319   9.221  0.3590 -1.6350 -0.5761
 6073SOL    HW229853   1.035   4.254   9.110 -0.9340  1.0122 -0.2162
 6074SOL     OW29854   0.647   3.102   1.236  0.0601 -0.4896  0.2582
 6074SOL    HW129855   0.627   3.074   1.326  0.7794  2.9380  1.4984
 6074SOL    HW229856   0.586   3.175   1.225  0.6967  0.1571  0.9702
 6075SOL     OW29857   0.443   4.277   7.563  0.3221  0.1246 -0.7657
 6075SOL    HW129858   0.369   4.273   7.624  1.3883 -0.6030  0.4821
 6075SOL    HW229859   0.420   4.361   7.524  1.1151  0.5852 -0.2480
 6076SOL     OW29860   3.372   2.258  17.398 -0.2447 -0.0002 -0.1460
 6076SOL    HW129861   3.401   2.316  17.469 -1.2810  0.1383  0.1652
 6076SOL    HW229862   3.332   2.325  17.342 -1.6450 -2.5501 -2.1980
 6077SOL     OW29863   2.025   3.900  11.486 -0.2577 -0.5809  0.1593
 6077SOL    HW129864   2.044   3.814  11.524 -0.3523 -0.4007  0.6193
 6077SOL    HW229865   2.095   3.909  11.421 -0.5086 -2.3994 -0.3817
 6078SOL     OW29866   1.810   1.581   9.395  0.5693 -0.2501  0.0696
 6078SOL    HW129867   1.853   1.497   9.406 -1.1127 -0.7104  3.0777
 6078SOL    HW229868   1.800   1.621   9.482 -1.6851 -1.9072  0.5688
 6079SOL     OW29869   1.893   2.269   8.336 -1.3933 -0.6726  0.0156
 6079SOL    HW129870   1.905   2.176   8.316  0.9430 -0.0214 -1.6462
 6079SOL    HW229871   1.924   2.277   8.427 -0.3385  0.1546 -0.4158
 6080SOL     OW29872   1.237   4.562   8.141  0.2143 -0.0068 -0.3924
 6080SOL    HW129873   1.318   4.525   8.106  0.7196  0.3362  0.4175
 6080SOL    HW229874   1.173   4.549   8.071  0.0292  1.6592 -0.5474
 6081SOL     OW29875   0.057   4.055   5.066  0.8921 -0.3430  0.1497
 6081SOL    HW129876   4.714   4.100   5.035  0.9852  1.3942  2.4463
 6081SOL    HW229877   0.091   4.130   5.115 -1.4658  0.4050  0.6333
 6082SOL     OW29878   4.350   3.499   6.731 -0.8398 -0.2953  0.3481
 6082SOL    HW129879   4.263   3.481   6.766 -1.7309 -0.0619 -1.7482
 6082SOL    HW229880   4.401   3.460   6.801 -0.9471  0.7646  1.0156
 6083SOL     OW29881   1.597   2.004   3.855  0.8285  0.1162 -0.3133
 6083SOL    HW129882   1.608   2.033   3.946 -0.8938 -0.0976 -0.0470
 6083SOL    HW229883   1.525   2.059   3.825  2.2429  1.5286 -1.1396
 6084SOL     OW29884   3.303   1.986   3.027 -0.1108 -0.0597  0.1151
 6084SOL    HW129885   3.268   2.052   2.968  0.2887 -1.5178 -1.7546
 6084SOL    HW229886   3.374   2.045   3.054  0.2490 -1.1287  1.5097
 6085SOL     OW29887   4.448   3.419  17.410 -0.0377 -0.3506  0.3380
 6085SOL    HW129888   4.507   3.408  17.335  1.3159  0.6102  1.2601
 6085SOL    HW229889   4.363   3.420  17.366  0.9246 -0.7681 -1.5419
 6086SOL     OW29890   1.012   3.256   5.099 -0.6315  0.1273 -0.0125
 6086SOL    HW129891   1.019   3.319   5.027  0.7164  0.8982  0.7916
 6086SOL    HW229892   1.075   3.282   5.166  1.4043 -2.2853 -1.0085
 6087SOL     OW29893   4.460   4.734   9.945 -0.1172  0.1791  0.1509
 6087SOL    HW129894   4.536   0.056   9.945 -0.3189  0.4335 -1.4865
 6087SOL    HW229895   4.397   0.054   9.900  0.0546 -0.3527 -0.7492
 6088SOL     OW29896   2.557   0.709   7.858 -0.1136 -0.0923 -0.2542
 6088SOL    HW129897   2.522   0.634   7.810  0.6440 -1.1664  0.8723
 6088SOL    HW229898   2.508   0.721   7.939  1.3114  0.9053  0.4652
 6089SOL     OW29899   3.609   0.787   4.928  0.1770  0.7918 -0.6504
 6089SOL    HW129900   3.570   0.869   4.897 -0.9620  0.9182  1.1251
 6089SOL    HW229901   3.598   0.785   5.023 -0.5237  0.1334 -0.7454
 6090SOL     OW29902   4.429   0.033   6.802 -0.1609 -0.1690  0.1462
 6090SOL    HW129903   4.492   0.063   6.867 -1.8197  0.9375  1.2306
 6090SOL    HW229904   4.483   0.015   6.725  0.8131  1.0795  0.5269
 6091SOL     OW29905   3.714   3.506   2.454  0.1115 -0.3243  0.5586
 6091SOL    HW129906   3.732   3.551   2.372 -1.1036 -0.2302  0.3410
 6091SOL    HW229907   3.628   3.469   2.431 -1.1692  2.7259  0.4010
 6092SOL     OW29908   3.298   3.202   6.061 -0.7507  0.1893 -0.0748
 6092SOL    HW129909   3.249   3.132   6.105  3.0169 -2.5361 -0.1876
 6092SOL    HW229910   3.375   3.156   6.026 -1.1601  1.7340 -3.0075
 6093SOL     OW29911   0.020   1.972   6.374  0.0122 -0.1503 -0.6850
 6093SOL    HW129912   0.034   1.959   6.280  2.5164 -0.6375 -0.2588
 6093SOL    HW229913   0.093   2.034   6.381  1.4930 -1.6555 -2.6653
 6094SOL     OW29914   1.733   0.874   1.624 -0.1815  0.1167  0.7558
 6094SOL    HW129915   1.691   0.854   1.541 -0.4817  1.8480  0.4947
 6094SOL    HW229916   1.824   0.893   1.603  0.5539 -2.0020  1.9622
 6095SOL     OW29917   1.685   0.489   4.255 -0.1876 -0.3914  1.0546
 6095SOL    HW129918   1.606   0.495   4.202  0.7692 -0.7730 -0.4222
 6095SOL    HW229919   1.718   0.579   4.252 -2.2713  0.4432  2.9707
 6096SOL     OW29920   0.365   1.769   3.497  0.2681  1.0592  0.0342
 6096SOL    HW129921   0.336   1.839   3.438  1.1132 -0.3180 -2.0473
 6096SOL    HW229922   0.273   1.745   3.513  1.0126 -2.0499 -0.2270
 6097SOL     OW29923   3.297   0.564   1.930  0.2618  0.1254 -0.3202
 6097SOL    HW129924   3.248   0.482   1.929 -0.5885  0.6294  0.3574
 6097SOL    HW229925   3.384   0.540   1.962  1.0297  0.4397 -2.1745
 6098SOL     OW29926   3.552   3.322  15.333 -0.6444  0.0893 -0.1236
 6098SOL    HW129927   3.485   3.282  15.277 -2.1931 -0.8279  2.4331
 6098SOL    HW229928   3.500   3.392  15.372 -1.2463 -0.0428 -0.6807
 6099SOL     OW29929   3.714   1.116   4.085  0.3910  0.3721  0.2400
 6099SOL    HW129930   3.651   1.096   4.154 -1.2038 -0.6331 -1.5334
 6099SOL    HW229931   3.659   1.170   4.028  1.1804  0.8808 -0.0595
 6100SOL     OW29932   4.393   0.796   1.663  0.1743  0.2928  0.5064
 6100SOL    HW129933   4.299   0.782   1.676  0.2489 -1.2369 -0.5587
 6100SOL    HW229934   4.423   0.710   1.693 -0.1189  0.2160  0.5797
 6101SOL     OW29935   1.331   4.159  15.694  0.2627 -0.3016 -0.5252
 6101SOL    HW129936   1.426   4.161  15.699  0.1935  2.6130 -0.1033
 6101SOL    HW229937   1.308   4.196  15.779 -1.6809 -0.0197 -1.1573
 6102SOL     OW29938   3.062   1.427   1.755 -0.7948  0.3005  0.6054
 6102SOL    HW129939   3.016   1.462   1.832 -0.4634 -0.8488  1.3280
 6102SOL    HW229940   3.153   1.450   1.771 -0.5884 -0.2147  0.1332
 6103SOL     OW29941   2.665   2.954   2.696 -0.2435 -0.1466  0.5484
 6103SOL    HW129942   2.637   2.904   2.619 -1.2798  3.7486 -1.6066
 6103SOL    HW229943   2.606   3.029   2.689 -1.0774 -0.9615 -1.2305
 6104SOL     OW29944   0.853   0.573   0.200  0.0097  0.5718  0.1213
 6104SOL    HW129945   0.796   0.567   0.276  0.5839 -0.7804  0.4340
 6104SOL    HW229946   0.791   0.565   0.128 -0.2938  1.2283  0.3107
 6105SOL     OW29947   3.445   3.861   8.933  0.0468 -0.7181 -0.3212
 6105SOL    HW129948   3.360   3.897   8.959  0.1720  0.3034 -1.3364
 6105SOL    HW229949   3.460   3.909   8.852 -0.3596 -1.2464 -0.7017
 6106SOL     OW29950   0.425   4.278  11.408  0.1271  0.2720  0.1101
 6106SOL    HW129951   0.429   4.342  11.337 -0.6723  0.6804  0.4390
 6106SOL    HW229952   0.422   4.333  11.486  0.7828 -1.2538  1.2066
 6107SOL     OW29953   3.827   1.676   6.206 -0.2129 -0.1922  0.4054
 6107SOL    HW129954   3.775   1.747   6.243 -0.4812 -0.1580 -0.0357
 6107SOL    HW229955   3.760   1.645   6.144 -1.2921 -2.5249  2.7196
 6108SOL     OW29956   1.206   2.899   5.154  0.1493  0.3525 -0.0293
 6108SOL    HW129957   1.152   2.951   5.095 -0.8635  0.4961  1.0260
 6108SOL    HW229958   1.163   2.920   5.237 -0.1051 -2.6945  0.6292
 6109SOL     OW29959   1.559   1.564  11.269  0.3293  0.1089  0.6875
 6109SOL    HW129960   1.598   1.500  11.211 -2.6585 -0.7552 -0.3770
 6109SOL    HW229961   1.563   1.638  11.208  0.9085  1.2514  2.1139
 6110SOL     OW29962   3.227   0.350   5.045 -0.2827 -0.3292  0.5055
 6110SOL    HW129963   3.285   0.426   5.037 -1.9044  0.8399 -0.1600
 6110SOL    HW229964   3.236   0.308   4.959  1.5845 -0.1576  0.6013
 6111SOL     OW29965   1.164   0.550   9.108  0.2064 -0.1059  0.1432
 6111SOL    HW129966   1.212   0.467   9.113  1.5334  0.5917 -0.7199
 6111SOL    HW229967   1.224   0.615   9.070 -1.7340  1.2026 -0.6711
 6112SOL     OW29968   1.754   0.391   9.056  0.4773  0.0141  0.2207
 6112SOL    HW129969   1.752   0.371   8.962  1.8364 -0.5388  0.3103
 6112SOL    HW229970   1.745   0.302   9.090  1.1360 -1.2744 -2.9425
 6113SOL     OW29971   1.351   2.283  14.140 -0.0054  0.8795  0.1910
 6113SOL    HW129972   1.281   2.233  14.182  1.2940 -0.0940  1.2251
 6113SOL    HW229973   1.401   2.206  14.114  1.3071  2.2826 -1.4160
 6114SOL     OW29974   2.808   2.436   3.284 -0.3349  0.3107  0.1771
 6114SOL    HW129975   2.814   2.511   3.224 -0.4287 -1.2413 -1.7843
 6114SOL    HW229976   2.895   2.439   3.322 -0.5941 -0.4428  0.8384
 6115SOL     OW29977   2.482   0.517   5.336  0.1065 -0.0015 -0.0726
 6115SOL    HW129978   2.404   0.471   5.369  0.7475  1.0673  2.9578
 6115SOL    HW229979   2.545   0.475   5.395  1.9968  0.6287 -1.6435
 6116SOL     OW29980   2.083   2.214   3.578 -0.3011  0.0531  0.0020
 6116SOL    HW129981   2.036   2.163   3.644  0.6670 -0.3764  0.3696
 6116SOL    HW229982   2.019   2.207   3.508  1.2284  0.4733 -1.4418
 6117SOL     OW29983   2.412   0.791   4.126 -0.0428 -0.1589  0.1103
 6117SOL    HW129984   2.506   0.786   4.138  0.1888  0.3377 -1.4380
 6117SOL    HW229985   2.403   0.727   4.055 -0.5159  1.9601 -1.7553
 6118SOL     OW29986   2.687   3.503  16.896 -0.2772  0.4770 -0.0376
 6118SOL    HW129987   2.631   3.467  16.828  0.1358  0.9362 -0.6287
 6118SOL    HW229988   2.640   3.454  16.963  2.1458  1.4932  2.3860
 6119SOL     OW29989   1.103   1.417  16.333 -0.2622  0.4505 -0.3994
 6119SOL    HW129990   1.170   1.415  16.265  1.1641  0.4579  1.0271
 6119SOL    HW229991   1.068   1.328  16.331 -2.2285  1.2061 -0.6818
 6120SOL     OW29992   2.737   3.439  15.431  0.4243 -0.0712 -0.1096
 6120SOL    HW129993   2.765   3.369  15.490 -0.3170  0.1274  0.4801
 6120SOL    HW229994   2.671   3.391  15.381 -1.5377 -0.4395  2.8458
 6121SOL     OW29995   1.847   1.828   4.704  0.5815  0.5409 -0.2678
 6121SOL    HW129996   1.789   1.816   4.629 -0.1536  0.7893  0.2608
 6121SOL    HW229997   1.780   1.840   4.771  0.3935  4.5541 -1.1882
 6122SOL     OW29998   0.471   3.054   9.092  0.5026 -0.0151  0.5752
 6122SOL    HW129999   0.421   3.130   9.061 -0.2297 -1.0761 -0.8433
 6122SOL    HW230000   0.481   3.082   9.183  2.3082  0.4658  0.2173
 6123SOL     OW30001   2.482   1.591  14.069 -0.2307  0.2507 -0.0731
 6123SOL    HW130002   2.535   1.583  13.990 -1.6709 -1.6199 -0.8490
 6123SOL    HW230003   2.541   1.656  14.108  0.8424 -1.2009  0.7286
 6124SOL     OW30004   0.907   1.179   8.137  0.2564 -0.1706  0.1296
 6124SOL    HW130005   0.845   1.245   8.169  1.6948  1.4890 -0.5267
 6124SOL    HW230006   0.923   1.130   8.218 -1.1853 -0.1178  0.4493
 6125SOL     OW30007   4.499   4.321   2.609 -0.6899  0.2282 -0.1672
 6125SOL    HW130008   4.493   4.324   2.514 -2.2472  1.9741 -0.0156
 6125SOL    HW230009   4.405   4.310   2.624 -0.5029  0.4734  1.2313
 6126SOL     OW30010   1.481   1.105   6.593  0.0243  0.3549 -0.0498
 6126SOL    HW130011   1.414   1.050   6.552  0.6229 -1.4893  1.4690
 6126SOL    HW230012   1.532   1.120   6.513  0.8308  0.7956  0.5421
 6127SOL     OW30013   1.022   3.432  16.868 -0.1146 -0.3810  0.6361
 6127SOL    HW130014   0.983   3.513  16.836  0.5114  0.5603  2.2558
 6127SOL    HW230015   1.082   3.461  16.937  0.1824 -0.3439  0.3656
 6128SOL     OW30016   1.367   1.898   7.935 -0.0984 -0.2381 -0.1542
 6128SOL    HW130017   1.387   1.845   7.858 -1.0093 -0.0023 -0.5508
 6128SOL    HW230018   1.275   1.919   7.920 -0.2617  0.5080  1.9564
 6129SOL     OW30019   1.624   3.409  16.924 -0.1795  0.7860  0.2440
 6129SOL    HW130020   1.586   3.496  16.914  1.1811  1.5190  1.5692
 6129SOL    HW230021   1.700   3.433  16.976  1.2069  0.9574 -1.8513
 6130SOL     OW30022   3.200   3.697  14.476 -0.7764 -0.1796 -0.1145
 6130SOL    HW130023   3.114   3.659  14.487 -1.4302  1.0820 -0.8732
 6130SOL    HW230024   3.245   3.613  14.466 -0.1560 -0.0092  1.1676
 6131SOL     OW30025   1.500   2.416  14.876  0.3093 -0.1149 -1.1746
 6131SOL    HW130026   1.537   2.485  14.930 -4.0155  1.5086 -0.2983
 6131SOL    HW230027   1.409   2.446  14.879  0.3155  0.2773 -4.4097
 6132SOL     OW30028   3.301   4.114   5.143  0.0199 -0.4882  0.2767
 6132SOL    HW130029   3.244   4.177   5.188  0.0553  1.5243 -2.4747
 6132SOL    HW230030   3.382   4.116   5.194 -1.2341 -0.1751  2.2685
 6133SOL     OW30031   3.952   0.125   3.022 -0.1925  0.5053 -0.5921
 6133SOL    HW130032   4.003   0.046   3.038 -0.8672  0.6779  2.3178
 6133SOL    HW230033   3.892   0.121   3.096 -1.3970  3.4390 -1.4027
 6134SOL     OW30034   4.410   0.715   0.493 -0.1704 -0.4939 -0.2925
 6134SOL    HW130035   4.483   0.745   0.545  1.0816  0.1374 -2.4180
 6134SOL    HW230036   4.346   0.772   0.536 -0.3361  0.0871 -1.3144
 6135SOL     OW30037   2.092   1.529   8.995  0.5683 -0.7683  1.1750
 6135SOL    HW130038   2.182   1.525   8.963  0.2920  2.0499  0.1109
 6135SOL    HW230039   2.071   1.619   8.972  0.6672 -0.9951  0.1912
 6136SOL     OW30040   2.956   1.868   9.635  0.4447  0.0754  0.2980
 6136SOL    HW130041   2.952   1.962   9.653 -0.6410 -0.0507  0.6816
 6136SOL    HW230042   2.988   1.842   9.721  0.2328 -0.8830  0.0802
 6137SOL     OW30043   2.364   3.855  10.044 -0.2356 -0.1762  0.6645
 6137SOL    HW130044   2.360   3.817  10.132 -1.5308  1.9786  1.5331
 6137SOL    HW230045   2.276   3.839  10.009  0.8225 -0.0897 -2.0208
 6138SOL     OW30046   4.234   4.686  16.771  0.2265  0.3829  0.1756
 6138SOL    HW130047   4.177   4.690  16.694  2.4727 -0.7937 -1.5088
 6138SOL    HW230048   4.181   4.717  16.845 -2.3118  0.1420 -1.5364
 6139SOL     OW30049   4.385   3.573   9.139 -0.0347  0.4269  0.0801
 6139SOL    HW130050   4.467   3.612   9.109  0.9441 -0.3377  1.7617
 6139SOL    HW230051   4.329   3.648   9.121  0.9831  1.0076 -0.6793
 6140SOL     OW30052   2.599   2.329   5.125 -0.5293  0.1060 -0.5404
 6140SOL    HW130053   2.676   2.318   5.180 -0.4960  0.8607 -0.4399
 6140SOL    HW230054   2.590   2.242   5.087  1.0373  0.9938 -2.9060
 6141SOL     OW30055   2.683   0.721   5.495 -0.1070  0.4858  0.3290
 6141SOL    HW130056   2.598   0.692   5.527 -0.4444 -1.9476 -2.7751
 6141SOL    HW230057   2.660   0.737   5.403  1.9825 -2.9459 -0.7787
 6142SOL     OW30058   1.204   3.635   2.333 -0.4554  0.3888  0.4375
 6142SOL    HW130059   1.163   3.696   2.272  0.2600  0.5151  0.0859
 6142SOL    HW230060   1.235   3.693   2.402 -0.6044  1.1007 -0.1002
 6143SOL     OW30061   1.405   2.861   3.745 -0.0487 -0.0294  0.0070
 6143SOL    HW130062   1.390   2.934   3.806 -1.9574 -0.0604 -0.4299
 6143SOL    HW230063   1.495   2.881   3.721 -0.3830 -0.5968 -1.7396
 6144SOL     OW30064   2.819   4.665   9.033  0.5131  0.5395  0.2728
 6144SOL    HW130065   2.840   4.603   9.103  0.1219 -0.2304 -0.2873
 6144SOL    HW230066   2.725   4.649   9.024  0.5191  0.2682  0.7102
 6145SOL     OW30067   1.783   0.519   4.990 -0.0234 -0.3808 -0.2750
 6145SOL    HW130068   1.873   0.515   4.958  1.1706 -2.3773  3.2414
 6145SOL    HW230069   1.755   0.600   4.947 -0.6765 -0.0113  0.8468
 6146SOL     OW30070   1.777   1.430   4.845 -0.4241  0.1460 -0.0177
 6146SOL    HW130071   1.741   1.347   4.876 -0.4439  0.5761  1.0811
 6146SOL    HW230072   1.782   1.481   4.926  0.9383 -0.2465  0.1399
 6147SOL     OW30073   3.583   0.632   8.489 -0.5612 -0.1734  0.3031
 6147SOL    HW130074   3.518   0.682   8.538  0.5179  0.3318  1.2054
 6147SOL    HW230075   3.600   0.688   8.414 -0.5116  0.0603  0.4892
 6148SOL     OW30076   1.601   1.284   7.969 -0.2692  0.4257  0.3614
 6148SOL    HW130077   1.621   1.200   8.009  1.8583  0.3506 -0.8606
 6148SOL    HW230078   1.515   1.269   7.930  0.0320  0.4093 -0.3099
 6149SOL     OW30079   2.384   2.840   4.673 -0.4558 -0.2856 -0.2806
 6149SOL    HW130080   2.468   2.825   4.716 -1.2548 -2.2564  0.5695
 6149SOL    HW230081   2.360   2.933   4.679  2.0405  0.4227 -1.2345
 6150SOL     OW30082   2.778   3.293   4.502  0.5516  1.0935 -0.4861
 6150SOL    HW130083   2.691   3.252   4.502  1.2337 -0.3350  3.3157
 6150SOL    HW230084   2.827   3.214   4.480 -2.2545 -0.5676 -0.8149
 6151SOL     OW30085   2.339   3.914  14.545 -0.6017 -0.0050  0.1169
 6151SOL    HW130086   2.342   3.821  14.523  0.4522  0.0137  0.2036
 6151SOL    HW230087   2.424   3.940  14.509  0.0184  0.3600  1.8398
 6152SOL     OW30088   3.275   4.691   2.863 -0.1468 -0.0688  0.3070
 6152SOL    HW130089   3.295   0.044   2.832  0.4966 -0.7080 -1.0773
 6152SOL    HW230090   3.269   4.700   2.958  1.5474  1.3959  0.2707
 6153SOL     OW30091   2.831   3.699   5.363 -0.1155  0.2344 -0.0274
 6153SOL    HW130092   2.913   3.741   5.387 -0.9852  2.4899 -1.0429
 6153SOL    HW230093   2.824   3.727   5.272  1.1808 -0.1171 -0.2345
 6154SOL     OW30094   0.769   3.827  16.134 -0.1476  0.1485  0.4974
 6154SOL    HW130095   0.678   3.826  16.103 -0.2117  0.0766  0.6934
 6154SOL    HW230096   0.793   3.916  16.106 -0.6777 -0.4725 -1.9773
 6155SOL     OW30097   3.701   2.694  15.253  0.1405 -0.6288  0.5326
 6155SOL    HW130098   3.608   2.718  15.253  0.2792 -0.0728  2.4076
 6155SOL    HW230099   3.728   2.739  15.333  0.6005 -0.8034  0.4728
 6156SOL     OW30100   1.916   0.599   6.837  0.3318 -0.3869 -0.1924
 6156SOL    HW130101   1.963   0.569   6.915 -0.1185  1.2916  0.7412
 6156SOL    HW230102   1.888   0.516   6.799 -0.9728 -1.1933  2.5238
 6157SOL     OW30103   3.903   4.432   3.739 -0.5055  0.6235  0.4850
 6157SOL    HW130104   3.830   4.381   3.774  0.5221 -1.2680 -0.1045
 6157SOL    HW230105   3.903   4.501   3.805 -0.9774 -0.5949  1.7285
 6158SOL     OW30106   3.502   4.238   1.280 -0.1523  0.6659 -0.1575
 6158SOL    HW130107   3.585   4.277   1.306  1.3250 -2.6863  0.1622
 6158SOL    HW230108   3.506   4.150   1.317  2.9075  0.1077 -1.8400
 6159SOL     OW30109   1.656   4.246  12.052 -0.3390 -0.5197  0.0145
 6159SOL    HW130110   1.642   4.178  12.118  0.0743  1.4111  2.1024
 6159SOL    HW230111   1.714   4.293  12.112 -0.6079  0.4172 -0.4707
 6160SOL     OW30112   1.320   4.318   2.414  0.5646 -0.0866 -0.6329
 6160SOL    HW130113   1.405   4.320   2.368 -0.0280 -0.9200 -1.7714
 6160SOL    HW230114   1.358   4.297   2.499  0.7712 -1.8473 -1.1389
 6161SOL     OW30115   3.662   2.351   3.927  0.3588 -0.3622 -0.7561
 6161SOL    HW130116   3.626   2.334   3.840  1.3150  2.3104 -1.6752
 6161SOL    HW230117   3.721   2.424   3.906 -0.5186  0.3951 -0.6293
 6162SOL     OW30118   0.768   3.273  13.669 -0.3350  0.1132  0.2419
 6162SOL    HW130119   0.685   3.317  13.655  0.8802  1.8718 -1.3660
 6162SOL    HW230120   0.814   3.296  13.588 -1.1065 -0.6767 -0.4098
 6163SOL     OW30121   4.083   2.452   7.863 -0.2925  0.2634 -0.4110
 6163SOL    HW130122   4.133   2.509   7.921 -0.4656  0.1521 -0.1489
 6163SOL    HW230123   4.148   2.384   7.850  0.6459  0.8451  1.2244
 6164SOL     OW30124   1.906   4.532  17.082 -0.1478  0.0308  0.1467
 6164SOL    HW130125   1.885   4.605  17.141 -0.5207  1.4219 -1.7054
 6164SOL    HW230126   1.996   4.553  17.059 -0.9502  2.0353 -1.1391
 6165SOL     OW30127   0.290   4.152   1.123  0.1968 -0.5803  0.3881
 6165SOL    HW130128   0.385   4.165   1.121 -0.1006  1.4192 -1.7578
 6165SOL    HW230129   0.285   4.088   1.194 -0.1124 -1.5731 -0.5268
 6166SOL     OW30130   1.490   4.133   4.278 -0.3198  0.2400  0.6786
 6166SOL    HW130131   1.556   4.095   4.337  1.9542  0.1591 -1.9540
 6166SOL    HW230132   1.441   4.186   4.341 -0.6984  0.0098  0.5816
 6167SOL     OW30133   3.222   0.042   4.916 -0.6854 -0.0207 -0.6625
 6167SOL    HW130134   3.233   4.682   4.921 -1.6469 -0.0981 -0.0027
 6167SOL    HW230135   3.186   0.062   5.003  0.4900  1.7033 -0.5846
 6168SOL     OW30136   4.285   3.511   6.468 -0.8852  0.3526  0.8977
 6168SOL    HW130137   4.193   3.488   6.484 -0.5074 -2.0573 -0.3634
 6168SOL    HW230138   4.314   3.506   6.559 -0.1321 -0.7046  0.6073
 6169SOL     OW30139   1.271   2.565  10.168  0.4993  0.5621  0.4750
 6169SOL    HW130140   1.291   2.518  10.087 -2.8151  5.1493 -3.0482
 6169SOL    HW230141   1.316   2.648  10.152  0.2199  0.9507  1.7183
 6170SOL     OW30142   2.505   4.370   4.614 -0.1602  0.5675 -0.4368
 6170SOL    HW130143   2.580   4.314   4.632 -0.2126  0.9333  0.9467
 6170SOL    HW230144   2.523   4.402   4.526 -0.4092  1.2172 -0.2476
 6171SOL     OW30145   3.461   4.491   5.344 -0.1982  0.5890  0.6730
 6171SOL    HW130146   3.407   4.461   5.270  0.3424 -0.1025  0.5601
 6171SOL    HW230147   3.481   4.417   5.401  0.6863 -0.4048 -0.9439
 6172SOL     OW30148   2.333   0.874   8.531 -0.1045  0.2536  0.0615
 6172SOL    HW130149   2.359   0.815   8.461  3.0414  1.5408  0.1559
 6172SOL    HW230150   2.303   0.810   8.596  0.2910  2.0764  2.0524
 6173SOL     OW30151   3.041   0.019   4.711  0.0941 -0.7085 -0.2003
 6173SOL    HW130152   2.990   4.681   4.744  0.4671 -1.2962 -0.9285
 6173SOL    HW230153   3.104   0.030   4.782 -0.5289  1.7924 -0.0405
 6174SOL     OW30154   0.254   4.510   9.386  0.2753 -0.3603  0.2266
 6174SOL    HW130155   0.256   4.441   9.319  1.5072  1.2481 -1.3728
 6174SOL    HW230156   0.329   4.562   9.356  0.5433 -0.7453  0.2258
 6175SOL     OW30157   3.584   1.798  16.812 -0.1446 -0.6115 -0.2932
 6175SOL    HW130158   3.644   1.797  16.887  3.0604 -1.8163 -2.8429
 6175SOL    HW230159   3.644   1.803  16.737  0.6687  0.8207  0.4523
 6176SOL     OW30160   1.309   3.839   3.606 -0.4287  0.0589 -0.2283
 6176SOL    HW130161   1.294   3.931   3.627  1.1639  0.0210  1.1042
 6176SOL    HW230162   1.338   3.804   3.690 -0.6609 -2.0394 -1.0372
 6177SOL     OW30163   2.230   0.019  13.170  0.7893 -0.7501 -0.2921
 6177SOL    HW130164   2.188   0.076  13.235 -1.5386 -1.1765 -1.4485
 6177SOL    HW230165   2.313   0.063  13.153  0.7779  0.6651  3.2978
 6178SOL     OW30166   2.445   3.130  16.492  0.0695 -0.2474  0.1868
 6178SOL    HW130167   2.493   3.133  16.409 -2.7946  1.0032 -1.4113
 6178SOL    HW230168   2.367   3.184  16.483  1.0485  1.0617 -0.5772
 6179SOL     OW30169   4.504   4.147   6.590 -0.1957 -0.1404  0.2908
 6179SOL    HW130170   4.536   4.205   6.659 -2.2392 -1.2795  2.1977
 6179SOL    HW230171   4.558   4.160   6.512  0.8986  2.7871  1.5359
 6180SOL     OW30172   0.390   1.600   1.157 -0.1560 -0.0617  0.6811
 6180SOL    HW130173   0.403   1.648   1.075 -0.7358 -1.6953 -0.3648
 6180SOL    HW230174   0.323   1.656   1.197 -0.3591  0.7772 -0.8495
 6181SOL     OW30175   0.225   3.028   1.884 -0.0111 -0.2119 -0.1856
 6181SOL    HW130176   0.199   2.951   1.935 -1.5169  1.2378  1.2306
 6181SOL    HW230177   0.320   3.024   1.893 -0.3788  1.3291  4.5709
 6182SOL     OW30178   3.240   1.427   6.594 -0.1663 -0.7800  0.0024
 6182SOL    HW130179   3.145   1.439   6.597 -0.5279 -3.2535 -1.6274
 6182SOL    HW230180   3.267   1.519   6.594 -2.7121 -0.0322 -2.3818
 6183SOL     OW30181   0.360   1.874   6.827 -0.2349 -0.0442  0.1256
 6183SOL    HW130182   0.272   1.861   6.791 -0.4282  0.9356  0.2285
 6183SOL    HW230183   0.371   1.969   6.814  2.0707 -0.5137 -1.1998
 6184SOL     OW30184   1.039   3.159   3.360 -0.0886 -0.4577 -0.3758
 6184SOL    HW130185   1.012   3.068   3.373 -0.9335 -0.0278  0.8389
 6184SOL    HW230186   0.956   3.180   3.316  0.6624 -0.8191 -1.9956
 6185SOL     OW30187   2.089   1.467   8.397 -0.2305  0.2373 -0.0355
 6185SOL    HW130188   2.106   1.558   8.421  2.8343 -0.5109  0.6251
 6185SOL    HW230189   2.177   1.430   8.387  0.3012  0.9170  2.0920
 6186SOL     OW30190   4.328   2.129   6.446  0.2510  0.1635  0.2039
 6186SOL    HW130191   4.237   2.117   6.471  0.1908 -0.1387 -0.1805
 6186SOL    HW230192   4.371   2.103   6.528 -1.8533  1.5547  1.7509
 6187SOL     OW30193   3.963   4.178   7.700  0.0789  0.1098 -0.5371
 6187SOL    HW130194   3.986   4.126   7.623  1.1468 -0.4712  0.1744
 6187SOL    HW230195   3.880   4.214   7.668 -0.6151 -0.4990  0.5906
 6188SOL     OW30196   0.014   0.107   5.713  0.3494 -0.6509  0.4417
 6188SOL    HW130197   4.682   0.116   5.646 -0.0865 -0.9454  0.8441
 6188SOL    HW230198   4.725   0.176   5.775  0.5054  0.0520 -0.2942
 6189SOL     OW30199   0.512   3.227   9.344  0.2109 -0.0891 -0.0491
 6189SOL    HW130200   0.576   3.210   9.412  0.5536 -0.7188 -0.5356
 6189SOL    HW230201   0.449   3.289   9.382  0.0428 -0.2981  0.0128
 6190SOL     OW30202   3.949   2.914  17.479  0.2867 -0.1181  0.5560
 6190SOL    HW130203   3.932   2.976  17.549  0.9573  0.3099  0.3462
 6190SOL    HW230204   3.868   2.911  17.428  0.8092 -0.2118 -0.2892
 6191SOL     OW30205   4.308   0.568   3.573  1.0269  0.1075 -0.0234
 6191SOL    HW130206   4.235   0.532   3.623  0.4622  1.8602  0.4025
 6191SOL    HW230207   4.297   0.662   3.591  1.2902 -0.1459  1.4218
 6192SOL     OW30208   2.406   1.153   3.483  0.1089 -0.2363 -0.1740
 6192SOL    HW130209   2.479   1.210   3.506  0.8207 -1.0838 -0.3284
 6192SOL    HW230210   2.389   1.130   3.575  1.2869 -0.1526  0.0630
 6193SOL     OW30211   3.107   2.460  16.655  0.4325  0.4235  0.6332
 6193SOL    HW130212   3.176   2.497  16.711  1.7215 -0.8938 -0.0967
 6193SOL    HW230213   3.138   2.371  16.638 -1.7620 -0.5031  1.5046
 6194SOL     OW30214   2.400   2.687   5.901  0.2561 -0.0999  0.1264
 6194SOL    HW130215   2.465   2.747   5.937  1.2318 -1.6436  0.9872
 6194SOL    HW230216   2.464   2.634   5.853 -0.5425 -1.4523  0.5597
 6195SOL     OW30217   1.343   4.122   3.040 -0.6409  0.0741  0.0500
 6195SOL    HW130218   1.293   4.099   3.118 -1.4589  0.3733 -0.3850
 6195SOL    HW230219   1.387   4.204   3.062  0.4400 -1.6643  4.3161
 6196SOL     OW30220   3.264   2.601   5.092 -0.3096  0.3373  0.0478
 6196SOL    HW130221   3.358   2.591   5.109 -0.9939 -2.6350  1.9715
 6196SOL    HW230222   3.234   2.688   5.120  0.5998  0.4070  0.8108
 6197SOL     OW30223   3.504   2.925   4.164  0.3968  0.3421 -0.0391
 6197SOL    HW130224   3.488   2.832   4.149 -2.4092  0.8940 -0.3497
 6197SOL    HW230225   3.429   2.940   4.220 -0.4656  0.2598 -1.1810
 6198SOL     OW30226   0.057   3.865  12.249  0.2718  0.4889 -0.4738
 6198SOL    HW130227   0.081   3.837  12.338 -2.5764  2.7887  1.0240
 6198SOL    HW230228   0.132   3.837  12.196  0.4515  1.4872 -0.7567
 6199SOL     OW30229   4.378   4.391   1.959 -0.0558  0.2904  0.2593
 6199SOL    HW130230   4.443   4.392   2.029 -0.1652  0.2503  0.3628
 6199SOL    HW230231   4.370   4.296   1.949  0.0570  0.4897 -1.6422
 6200SOL     OW30232   4.236   2.681  13.166  0.2040 -0.1402 -0.5176
 6200SOL    HW130233   4.194   2.612  13.115 -0.4883 -0.0797 -0.0360
 6200SOL    HW230234   4.290   2.624  13.220  1.4527  0.9954 -0.5589
 6201SOL     OW30235   0.639   2.649   8.844 -0.5827 -0.2572  0.4678
 6201SOL    HW130236   0.660   2.653   8.937  0.3428 -1.8560  0.3261
 6201SOL    HW230237   0.683   2.564   8.840  0.9411  0.5267  0.6929
 6202SOL     OW30238   3.508   1.865   9.845  0.2137 -0.4056  0.5609
 6202SOL    HW130239   3.468   1.858   9.759 -1.1622  1.6153  1.0137
 6202SOL    HW230240   3.481   1.956   9.862 -0.4915 -0.8211  1.7540
 6203SOL     OW30241   3.187   0.633   9.207  0.3374 -0.4686 -0.5446
 6203SOL    HW130242   3.244   0.636   9.130  3.4478  2.5676  1.8948
 6203SOL    HW230243   3.191   0.541   9.233  0.4849  0.1746  1.6535
 6204SOL     OW30244   3.420   1.262   0.588 -0.3691  0.8474  0.0001
 6204SOL    HW130245   3.458   1.181   0.624  1.6772  1.2076 -1.3460
 6204SOL    HW230246   3.421   1.320   0.664 -1.2680  0.7054  0.1219
 6205SOL     OW30247   2.597   0.924   1.323  0.0486  0.6075 -0.6116
 6205SOL    HW130248   2.681   0.962   1.297  0.8937 -0.1493  1.0106
 6205SOL    HW230249   2.533   0.958   1.260  0.3949  1.0753 -0.7191
 6206SOL     OW30250   1.830   0.358   8.369 -0.1179  0.1374  0.2674
 6206SOL    HW130251   1.924   0.367   8.359 -0.1829 -0.8091 -1.2105
 6206SOL    HW230252   1.805   0.370   8.277 -1.0677 -0.1212  0.4832
 6207SOL     OW30253   1.186   1.389   1.275 -0.2118  0.4090 -0.0549
 6207SOL    HW130254   1.183   1.478   1.241 -2.1473  0.9305  1.4716
 6207SOL    HW230255   1.192   1.335   1.196 -0.9451 -0.1105  0.2430
 6208SOL     OW30256   0.322   2.885   9.503  0.1758  0.3799  0.1746
 6208SOL    HW130257   0.245   2.929   9.468  0.7834 -0.7201 -2.5146
 6208SOL    HW230258   0.392   2.944   9.474  0.6627  1.2114  2.9883
 6209SOL     OW30259   3.215   0.007  13.399  0.3646 -0.4561  0.3602
 6209SOL    HW130260   3.234   0.028  13.490  0.1832 -1.9770  0.7307
 6209SOL    HW230261   3.249   0.087  13.357  2.0608 -0.6600  1.3660
 6210SOL     OW30262   3.143   0.913  17.278 -0.0760 -0.2007  0.5062
 6210SOL    HW130263   3.195   0.944  17.204 -0.3900 -1.5210 -0.2449
 6210SOL    HW230264   3.179   0.825  17.290  2.9367  0.8782 -0.4564
 6211SOL     OW30265   3.958   0.193   9.330 -0.1439  0.3635 -0.3578
 6211SOL    HW130266   4.009   0.258   9.282  0.1733  0.7578  0.5031
 6211SOL    HW230267   3.870   0.231   9.341 -1.0436 -2.2145  1.6250
 6212SOL     OW30268   0.645   0.513   5.191  0.4356 -0.1514  0.3886
 6212SOL    HW130269   0.565   0.493   5.240  0.2704  1.0786  0.6185
 6212SOL    HW230270   0.685   0.587   5.236 -2.3652  1.3730  0.3620
 6213SOL     OW30271   1.813   4.621   4.109 -0.3268 -0.4073 -0.3787
 6213SOL    HW130272   1.791   4.548   4.051 -0.6283 -1.1764  0.7075
 6213SOL    HW230273   1.905   4.631   4.082 -0.0204  0.9639  1.1472
 6214SOL     OW30274   1.824   2.617  15.383 -0.0682  0.1012 -0.3612
 6214SOL    HW130275   1.749   2.670  15.356 -0.8345 -0.9297 -0.2734
 6214SOL    HW230276   1.855   2.657  15.464 -1.1917  2.2179 -0.9578
 6215SOL     OW30277   0.271   0.652   6.588 -0.7240 -0.0451  0.5355
 6215SOL    HW130278   0.348   0.615   6.545  1.2320  1.3696  2.8390
 6215SOL    HW230279   0.286   0.744   6.567 -1.2963 -0.2625 -0.8390
 6216SOL     OW30280   3.371   3.723  17.654  0.5738  0.1955  0.0652
 6216SOL    HW130281   3.392   3.630  17.659 -2.5545 -0.5759 -1.2004
 6216SOL    HW230282   3.287   3.729  17.700  0.4023  0.7745 -0.3252
 6217SOL     OW30283   3.457   2.973   7.676  0.4423  0.2310 -0.2946
 6217SOL    HW130284   3.509   2.986   7.755  0.2452 -1.3332  0.0986
 6217SOL    HW230285   3.521   3.003   7.612  1.2622  0.6648  0.7324
 6218SOL     OW30286   3.723   3.367  13.529 -0.3503 -0.1268 -0.2133
 6218SOL    HW130287   3.659   3.326  13.471 -0.9772 -1.3773  1.3658
 6218SOL    HW230288   3.689   3.346  13.616 -1.3080 -2.9615 -1.2843
 6219SOL     OW30289   0.794   2.463   7.607  0.4390 -0.4325 -0.2961
 6219SOL    HW130290   0.724   2.500   7.661 -0.2752 -0.1401 -1.4072
 6219SOL    HW230291   0.877   2.491   7.645 -0.4513  1.6756  0.1181
 6220SOL     OW30292   0.892   3.109   6.385 -0.0761  0.6750  0.4382
 6220SOL    HW130293   0.863   3.020   6.367 -0.6206  0.9422 -0.0217
 6220SOL    HW230294   0.898   3.138   6.294 -0.0800  2.3084  0.9555
 6221SOL     OW30295   4.246   1.809  15.726  0.0595  0.0624 -0.3957
 6221SOL    HW130296   4.332   1.852  15.734  0.2383  0.2561 -3.3195
 6221SOL    HW230297   4.259   1.776  15.637  0.4090 -0.4577 -0.1556
 6222SOL     OW30298   2.019   1.903   9.342  0.4573 -0.3372  0.1733
 6222SOL    HW130299   2.065   1.826   9.309  0.7885  1.4118 -3.4829
 6222SOL    HW230300   1.932   1.869   9.364  0.5159 -1.5552 -1.4054
 6223SOL     OW30301   1.543   1.188  17.614  0.1161 -0.6297 -0.6665
 6223SOL    HW130302   1.547   1.245  17.691  0.4184 -1.4643 -0.0767
 6223SOL    HW230303   1.593   1.234  17.547 -0.3782  1.2701  0.2595
 6224SOL     OW30304   1.311   2.101  12.608 -0.0570 -0.1253 -0.2780
 6224SOL    HW130305   1.397   2.119  12.570 -0.7077 -0.8418 -2.0789
 6224SOL    HW230306   1.324   2.030  12.671  0.7408  0.8903  0.7084
 6225SOL     OW30307   3.569   3.897   4.378 -0.0424 -0.4484 -0.3915
 6225SOL    HW130308   3.621   3.977   4.377 -0.4009 -0.2240 -1.1331
 6225SOL    HW230309   3.636   3.843   4.335  0.7957  0.0849  0.2254
 6226SOL     OW30310   3.114   0.640   9.664 -0.1508 -0.4874  0.2346
 6226SOL    HW130311   3.087   0.643   9.756  0.3412  1.5494  0.3076
 6226SOL    HW230312   3.086   0.726   9.634 -0.1434 -0.1739  1.1419
 6227SOL     OW30313   0.948   0.477   6.934 -0.2513 -0.4482  0.6354
 6227SOL    HW130314   1.023   0.480   6.994 -0.0091  1.4669  0.2266
 6227SOL    HW230315   0.875   0.510   6.987 -0.3450  0.7676 -0.2570
 6228SOL     OW30316   0.392   3.715   2.836  0.2883  0.7069 -0.2006
 6228SOL    HW130317   0.391   3.783   2.903 -2.5174  0.1437  0.3445
 6228SOL    HW230318   0.421   3.758   2.755  1.3415  2.2005  0.9737
 6229SOL     OW30319   4.219   1.149  12.377 -0.1995 -0.3038  0.0557
 6229SOL    HW130320   4.196   1.184  12.291 -2.3614  0.7443  1.0674
 6229SOL    HW230321   4.311   1.168  12.361 -1.1984  3.8912 -0.6998
 6230SOL     OW30322   2.823   4.487  12.867  0.7200 -0.4590 -0.2352
 6230SOL    HW130323   2.889   4.442  12.919  2.0846  5.0669  2.7439
 6230SOL    HW230324   2.859   4.467  12.780  0.0538  0.3120 -0.6873
 6231SOL     OW30325   2.206   0.647   7.338  0.3082 -0.2087  0.6785
 6231SOL    HW130326   2.204   0.620   7.246  0.9299  0.0493  0.5898
 6231SOL    HW230327   2.190   0.740   7.330  0.7273 -0.2633 -0.6651
 6232SOL     OW30328   3.181   3.775   8.014  0.1669  0.0153 -0.3784
 6232SOL    HW130329   3.092   3.795   7.985  0.2241 -0.9717 -1.2342
 6232SOL    HW230330   3.223   3.815   7.938 -0.3147 -0.5006 -0.9166
 6233SOL     OW30331   3.519   2.958   2.217  0.2072  0.3558  0.7718
 6233SOL    HW130332   3.425   2.975   2.210  0.0006 -2.1138 -2.3915
 6233SOL    HW230333   3.533   2.934   2.125  0.6808 -0.5047  1.0760
 6234SOL     OW30334   4.069   1.395   6.629  0.3758  0.4338  0.0278
 6234SOL    HW130335   4.042   1.464   6.568 -0.0438  0.8932  0.7243
 6234SOL    HW230336   3.988   1.353   6.658 -0.1251  0.8457 -0.7610
 6235SOL     OW30337   0.726   1.026   6.626 -0.5026  0.0795  0.4059
 6235SOL    HW130338   0.652   1.084   6.605  0.8690  2.0262  0.8938
 6235SOL    HW230339   0.688   0.942   6.600  1.2895  0.3183 -3.0642
 6236SOL     OW30340   1.206   4.646   4.404 -0.7290  0.4203 -0.2362
 6236SOL    HW130341   1.148   4.682   4.336  0.5747  0.5440 -1.2746
 6236SOL    HW230342   1.228   4.562   4.363 -1.0065  0.3938 -0.3361
 6237SOL     OW30343   0.693   2.491   9.554 -0.4355  0.8315  0.8845
 6237SOL    HW130344   0.745   2.473   9.475 -0.4314 -2.7149  1.6759
 6237SOL    HW230345   0.674   2.582   9.532  0.3019  0.8120  0.1692
 6238SOL     OW30346   3.052   3.536  16.825 -0.2198 -0.0378  0.5314
 6238SOL    HW130347   3.059   3.500  16.736  1.2363  0.9877  0.2187
 6238SOL    HW230348   3.044   3.455  16.874 -1.7858 -0.3581 -0.2557
 6239SOL     OW30349   0.403   2.998   2.729  0.4906  0.2894  0.1933
 6239SOL    HW130350   0.380   2.925   2.671 -1.7434  0.4053  0.9481
 6239SOL    HW230351   0.452   3.055   2.670  0.3986 -0.5044 -0.6426
 6240SOL     OW30352   1.466   1.822   9.051 -0.0310 -0.3979 -0.0890
 6240SOL    HW130353   1.456   1.788   9.140  2.2076 -3.4819 -1.0215
 6240SOL    HW230354   1.378   1.807   9.017 -0.0419 -2.2938  0.7536
 6241SOL     OW30355   0.735   0.993  12.725 -0.0969 -0.2270 -0.1700
 6241SOL    HW130356   0.685   1.061  12.770 -1.0185 -1.0628  0.0764
 6241SOL    HW230357   0.666   0.927  12.730 -1.0374  0.6499 -1.6506
 6242SOL     OW30358   4.618   4.717  16.627 -0.7691  0.6016 -0.1522
 6242SOL    HW130359   4.554   0.038  16.670 -1.5215  0.4685 -1.0924
 6242SOL    HW230360   4.643   0.031  16.550  2.5375  0.0972  0.5904
 6243SOL     OW30361   4.708   4.570   4.929 -0.2629  0.0503  0.2857
 6243SOL    HW130362   4.654   4.494   4.951 -1.9810  0.9284 -0.8474
 6243SOL    HW230363   0.060   4.540   4.949  0.4570  2.4200  0.7083
 6244SOL     OW30364   2.613   1.907   6.720  0.3082 -0.5241  0.2969
 6244SOL    HW130365   2.524   1.923   6.688  0.0716  2.6828  2.6230
 6244SOL    HW230366   2.662   1.921   6.638 -0.7256 -0.0555 -0.2458
 6245SOL     OW30367   0.477   1.966   2.737 -0.4390  0.2443  0.7976
 6245SOL    HW130368   0.450   2.032   2.673 -0.5128 -0.9340 -0.3909
 6245SOL    HW230369   0.524   1.903   2.682 -2.2361 -2.0405  1.8624
 6246SOL     OW30370   3.543   4.316   8.751  0.3691  0.2679  0.2107
 6246SOL    HW130371   3.536   4.410   8.734 -2.6449  0.2650  1.5842
 6246SOL    HW230372   3.570   4.283   8.665 -1.1681 -0.8521  0.1664
 6247SOL     OW30373   1.960   3.584   1.174 -0.3350 -0.1713 -0.3448
 6247SOL    HW130374   1.989   3.665   1.216 -0.7126 -0.5262  0.5951
 6247SOL    HW230375   1.881   3.555   1.219  1.5662 -0.3039  2.9653
 6248SOL     OW30376   3.173   3.076   3.678  0.0574  0.6545 -0.2371
 6248SOL    HW130377   3.195   3.102   3.768 -1.8514 -0.7308  0.6449
 6248SOL    HW230378   3.185   2.982   3.693 -1.4689  0.6340  0.9562
 6249SOL     OW30379   2.614   0.897   3.617 -0.1281 -0.0704  0.2712
 6249SOL    HW130380   2.542   0.960   3.616  0.7321  0.9096 -0.4235
 6249SOL    HW230381   2.688   0.958   3.619  2.1163 -2.7270 -0.8419
 6250SOL     OW30382   2.920   1.132   7.749 -0.2202  0.3474  0.1860
 6250SOL    HW130383   2.958   1.106   7.665  0.3572  0.2584  0.4761
 6250SOL    HW230384   2.936   1.052   7.799 -0.0491 -0.2830 -0.8781
 6251SOL     OW30385   3.971   1.820   8.401  1.3796  0.3268 -0.1119
 6251SOL    HW130386   3.957   1.829   8.495  1.8810  1.0783 -0.1033
 6251SOL    HW230387   4.027   1.742   8.397 -0.6087 -1.0619 -0.6780
 6252SOL     OW30388   0.910   2.810   3.205 -0.5832  0.1561 -0.4155
 6252SOL    HW130389   0.973   2.739   3.202  0.0702  0.6918  0.5735
 6252SOL    HW230390   0.847   2.768   3.146 -1.8370 -0.1947  1.1607
 6253SOL     OW30391   2.665   2.480   4.243  0.3504  0.1100  0.6534
 6253SOL    HW130392   2.677   2.575   4.234 -1.5887  0.1942 -1.1718
 6253SOL    HW230393   2.759   2.463   4.236  0.5987  1.3598  0.9019
 6254SOL     OW30394   1.895   3.495   4.142  0.0171 -0.1036 -0.2941
 6254SOL    HW130395   1.818   3.508   4.086 -0.2704  0.1245  0.1465
 6254SOL    HW230396   1.951   3.453   4.077 -0.1631 -0.4684 -0.2093
 6255SOL     OW30397   3.042   1.851   6.572  0.6718 -0.7143  0.3005
 6255SOL    HW130398   3.019   1.933   6.615 -0.1415 -1.4546  1.2848
 6255SOL    HW230399   2.960   1.844   6.524  0.8244  0.1065 -0.0821
 6256SOL     OW30400   3.606   3.790   3.573  0.2366  0.8229 -0.3842
 6256SOL    HW130401   3.665   3.718   3.594  0.2805  1.9027  3.1465
 6256SOL    HW230402   3.563   3.762   3.492  0.7842  1.3880 -0.8715
 6257SOL     OW30403   0.155   0.787   6.978 -0.2549  0.1949  0.2162
 6257SOL    HW130404   0.250   0.785   6.971 -0.1486  2.5164  0.8457
 6257SOL    HW230405   0.139   0.881   6.969  1.7076  0.5827  0.8425
 6258SOL     OW30406   4.245   2.395   5.319  0.4322  0.3773 -0.5825
 6258SOL    HW130407   4.308   2.468   5.327 -0.8770  1.5450 -0.9585
 6258SOL    HW230408   4.254   2.351   5.404 -0.3519 -1.9575 -1.7102
 6259SOL     OW30409   2.458   4.232  12.285  0.5282 -0.3182 -0.2177
 6259SOL    HW130410   2.544   4.223  12.245 -0.4712 -2.0741 -1.9935
 6259SOL    HW230411   2.490   4.259  12.371 -4.3732 -0.3692  1.6407
 6260SOL     OW30412   1.124   2.145   5.328  0.1566 -0.2777  0.0797
 6260SOL    HW130413   1.097   2.221   5.276 -1.7784  1.1314  3.0859
 6260SOL    HW230414   1.202   2.176   5.375 -1.1778  3.2563 -0.0200
 6261SOL     OW30415   2.889   3.858  15.065 -0.3579  0.5500 -0.1011
 6261SOL    HW130416   2.794   3.854  15.054 -0.2689 -1.2845 -0.1535
 6261SOL    HW230417   2.901   3.939  15.114  0.4861  1.0991 -1.2343
 6262SOL     OW30418   3.893   3.526   4.509  0.2170  0.2699 -0.4560
 6262SOL    HW130419   3.939   3.610   4.507 -0.4044  0.6181 -0.3362
 6262SOL    HW230420   3.802   3.555   4.520  0.4946  1.3842 -1.2118
 6263SOL     OW30421   4.146   1.915   2.456  0.7776  0.2817 -0.0540
 6263SOL    HW130422   4.100   1.952   2.532  1.5529  1.2254 -0.0387
 6263SOL    HW230423   4.096   1.837   2.435  2.2766 -0.0093 -2.5216
 6264SOL     OW30424   4.227   2.952  17.590 -0.1441  0.2628 -0.0762
 6264SOL    HW130425   4.154   2.918  17.539  0.4702 -1.7879  0.3800
 6264SOL    HW230426   4.241   3.034  17.543  0.4012 -0.4068 -1.0669
 6265SOL     OW30427   0.954   4.405  17.186  0.0423 -0.2157  0.5318
 6265SOL    HW130428   0.946   4.455  17.267  0.3868 -0.1485  0.5225
 6265SOL    HW230429   0.881   4.439  17.133  0.3229  1.6074  1.3003
 6266SOL     OW30430   4.302   3.555   9.928 -0.0576 -0.3303 -0.2923
 6266SOL    HW130431   4.387   3.544   9.886  0.6598  2.3365  0.4183
 6266SOL    HW230432   4.247   3.571   9.851 -1.9412 -0.4220  1.0314
 6267SOL     OW30433   1.048   3.592   3.728 -0.1288 -0.0766 -0.2141
 6267SOL    HW130434   1.072   3.667   3.782 -1.2364 -0.3090  0.6025
 6267SOL    HW230435   1.119   3.531   3.749 -0.2747 -0.9138 -2.1711
 6268SOL     OW30436   2.363   0.637  13.254  0.4946  0.1765  0.0612
 6268SOL    HW130437   2.440   0.587  13.282  0.0716 -1.1178 -1.0823
 6268SOL    HW230438   2.303   0.570  13.222  2.0004 -0.0524 -2.3338
 6269SOL     OW30439   1.310   0.267  16.943  0.2970 -0.0581 -0.5346
 6269SOL    HW130440   1.369   0.336  16.971 -0.4517  1.0870 -1.7547
 6269SOL    HW230441   1.276   0.240  17.028  1.8149 -0.9288 -0.2018
 6270SOL     OW30442   0.969   2.892  15.965 -0.4321  0.1983  0.3999
 6270SOL    HW130443   0.877   2.917  15.952 -0.8022 -0.5865  1.5053
 6270SOL    HW230444   1.007   2.925  15.884 -0.9138 -1.0239 -0.3326
 6271SOL     OW30445   3.697   1.617   1.973 -0.1656  0.5907  0.4134
 6271SOL    HW130446   3.658   1.618   1.885 -2.1326 -2.5803  1.2569
 6271SOL    HW230447   3.660   1.699   2.005 -0.3543  1.0223 -0.8791
 6272SOL     OW30448   3.481   1.103   2.634 -0.4707  0.6200 -0.2910
 6272SOL    HW130449   3.451   1.193   2.639 -2.3394 -0.0371  0.3308
 6272SOL    HW230450   3.576   1.109   2.629 -0.3124 -3.5609 -2.4984
 6273SOL     OW30451   4.179   1.510   3.603  1.0931 -0.3602  0.0703
 6273SOL    HW130452   4.193   1.419   3.577  1.5464 -0.0061 -0.9329
 6273SOL    HW230453   4.100   1.510   3.656  0.9975  1.2049 -0.0710
 6274SOL     OW30454   2.110   3.276   6.055 -0.0636  0.3978  0.1824
 6274SOL    HW130455   2.061   3.261   6.136  1.0092  0.8040  0.9111
 6274SOL    HW230456   2.165   3.198   6.049 -0.8087 -0.2501  1.6506
 6275SOL     OW30457   2.801   1.094   3.624  0.3061  0.1237  0.5063
 6275SOL    HW130458   2.744   1.162   3.660  2.1775  0.6041  2.5526
 6275SOL    HW230459   2.873   1.148   3.590  0.9367 -1.4083 -0.5974
 6276SOL     OW30460   0.779   1.144  10.342  0.0125  0.4460 -0.1660
 6276SOL    HW130461   0.803   1.235  10.357  0.6537  0.3990 -0.8754
 6276SOL    HW230462   0.755   1.160  10.251 -3.6042  0.6092  0.8184
 6277SOL     OW30463   0.578   2.705   4.630  0.1797 -0.4612  0.3479
 6277SOL    HW130464   0.598   2.615   4.657  0.4577 -0.6489 -0.4977
 6277SOL    HW230465   0.483   2.713   4.644  0.3057  0.8670  0.4403
 6278SOL     OW30466   1.922   3.001   6.269  0.1068  0.6415 -0.2184
 6278SOL    HW130467   1.835   2.979   6.303  0.1036  1.3942  0.2549
 6278SOL    HW230468   1.894   3.048   6.191 -0.1876 -2.2883 -1.9003
 6279SOL     OW30469   1.438   0.800   3.203 -0.0717  0.0605  0.5550
 6279SOL    HW130470   1.418   0.880   3.252  1.5746  1.1288 -0.5246
 6279SOL    HW230471   1.505   0.836   3.146 -0.5123  0.4267  0.2663
 6280SOL     OW30472   0.449   3.597  16.689  0.5700  0.6471 -0.0001
 6280SOL    HW130473   0.527   3.647  16.667  0.9930 -0.1342 -0.2651
 6280SOL    HW230474   0.418   3.637  16.770  2.3811 -1.9299  1.9464
 6281SOL     OW30475   2.401   0.628   2.222 -0.3290  0.2028  0.1323
 6281SOL    HW130476   2.354   0.547   2.206  0.1925 -0.2323  0.8473
 6281SOL    HW230477   2.488   0.589   2.230 -0.7569 -0.7816 -0.0399
 6282SOL     OW30478   1.701   3.169  10.541 -0.0847 -0.5081 -0.3586
 6282SOL    HW130479   1.771   3.114  10.506  0.0716 -2.3899  2.8301
 6282SOL    HW230480   1.742   3.255  10.535  0.5813 -0.7647  0.4428
 6283SOL     OW30481   0.004   3.944   9.446 -0.3059  0.6180 -0.1006
 6283SOL    HW130482   0.072   3.964   9.382 -2.3855  0.5497 -2.3399
 6283SOL    HW230483   0.000   4.025   9.498 -2.3514  0.9421 -0.7557
 6284SOL     OW30484   4.437   0.067   3.930 -0.0721  0.4322 -0.6841
 6284SOL    HW130485   4.426   4.719   3.884 -2.4664  0.4015 -0.0621
 6284SOL    HW230486   4.349   0.103   3.919  0.6692  1.7447 -2.3355
 6285SOL     OW30487   4.604   0.401   8.967 -0.0587  0.1600 -0.2053
 6285SOL    HW130488   4.620   0.348   9.046 -1.5371 -0.4440 -0.3207
 6285SOL    HW230489   4.551   0.344   8.912  0.2883  0.7933 -1.1958
 6286SOL     OW30490   3.629   3.790  13.540 -0.4177 -0.3519  0.2833
 6286SOL    HW130491   3.688   3.742  13.483  1.0097  0.5695  0.9738
 6286SOL    HW230492   3.653   3.881  13.520  1.2274 -0.0012  3.9279
 6287SOL     OW30493   3.529   1.251   1.428  0.7608 -0.5188  0.3103
 6287SOL    HW130494   3.592   1.268   1.357  0.1477  1.0319  0.1337
 6287SOL    HW230495   3.583   1.224   1.502 -0.2235  1.5716  1.7881
 6288SOL     OW30496   1.406   2.400   5.935 -0.2399 -0.2210  0.6091
 6288SOL    HW130497   1.455   2.465   5.985  0.6158 -0.1841 -0.2691
 6288SOL    HW230498   1.393   2.456   5.858  2.0720  0.6649  0.8715
 6289SOL     OW30499   0.480   3.403   1.706 -0.2246 -0.3420 -0.4579
 6289SOL    HW130500   0.488   3.485   1.754 -1.6599  0.1210 -1.0156
 6289SOL    HW230501   0.400   3.368   1.746 -0.0786 -1.4239 -1.1102
 6290SOL     OW30502   0.058   1.454  17.486 -0.1099 -0.7651  0.2943
 6290SOL    HW130503   4.701   1.475  17.482  0.1344  0.1535 -0.6789
 6290SOL    HW230504   0.072   1.420  17.575  0.7024 -1.2103 -0.0047
 6291SOL     OW30505   4.298   2.284  16.476  0.3890 -0.5158 -0.5700
 6291SOL    HW130506   4.359   2.347  16.438  0.2803 -0.3300 -0.4376
 6291SOL    HW230507   4.342   2.229  16.541  2.2197 -1.8078 -2.9200
 6292SOL     OW30508   0.410   1.914   7.563 -0.1193 -0.4580  0.4224
 6292SOL    HW130509   0.322   1.907   7.598 -0.2131 -1.6230 -0.0601
 6292SOL    HW230510   0.397   1.978   7.493 -0.5248 -1.3730 -0.3316
 6293SOL     OW30511   0.241   1.581   9.853  0.2566 -0.0290  0.3479
 6293SOL    HW130512   0.160   1.630   9.869  0.7213  0.9093 -0.2138
 6293SOL    HW230513   0.249   1.536   9.937  0.0792 -0.6264  0.0491
 6294SOL     OW30514   0.690   1.466   5.543  0.0429 -0.2914  0.6519
 6294SOL    HW130515   0.752   1.538   5.536 -1.1622  0.9277  2.5488
 6294SOL    HW230516   0.610   1.514   5.564  0.2332 -0.3372  1.4565
 6295SOL     OW30517   4.616   3.806   5.656 -0.1718  0.1378  0.1901
 6295SOL    HW130518   4.533   3.787   5.699  0.5866 -1.2775  1.0533
 6295SOL    HW230519   4.600   3.900   5.647 -1.2911  0.1606  2.4216
 6296SOL     OW30520   1.598   0.300   5.893 -0.2491  0.0845 -0.2309
 6296SOL    HW130521   1.555   0.238   5.834 -2.1272 -0.0841  1.3081
 6296SOL    HW230522   1.624   0.371   5.835  2.9469 -2.1547 -1.5022
 6297SOL     OW30523   2.543   0.246  16.495  0.1204  0.4836  0.3292
 6297SOL    HW130524   2.450   0.242  16.476  0.3275 -2.5815 -0.1027
 6297SOL    HW230525   2.557   0.156  16.525  0.9113 -0.7674 -3.6810
 6298SOL     OW30526   0.426   1.766   4.422  0.1751 -0.6716  0.0264
 6298SOL    HW130527   0.455   1.742   4.334 -0.6004 -0.1697 -0.3700
 6298SOL    HW230528   0.506   1.769   4.475  0.5372  1.0162 -0.5831
 6299SOL     OW30529   3.425   3.073   6.690  0.3301 -0.0873  0.1939
 6299SOL    HW130530   3.421   3.109   6.778  0.8571 -2.1842  1.0712
 6299SOL    HW230531   3.520   3.075   6.679  0.1550  3.7582 -0.5370
 6300SOL     OW30532   0.440   0.791   1.994 -0.1848  0.0879 -0.0351
 6300SOL    HW130533   0.465   0.803   1.903 -1.7214 -0.1379 -0.4822
 6300SOL    HW230534   0.375   0.723   1.977  0.2043  0.0198 -1.2064
 6301SOL     OW30535   4.669   2.821   8.640  0.0688  0.1472 -0.1587
 6301SOL    HW130536   4.577   2.813   8.663 -0.5056 -1.3359 -2.9670
 6301SOL    HW230537   4.708   2.736   8.619  0.4900  0.0383  1.1057
 6302SOL     OW30538   0.180   2.933  14.810 -0.5935 -0.1649  0.1481
 6302SOL    HW130539   0.211   2.847  14.783 -1.4257  0.0545 -1.4971
 6302SOL    HW230540   0.211   2.984  14.736  0.4908  1.3093  1.6255
 6303SOL     OW30541   3.081   1.410  14.897 -0.4782  0.7918 -0.1858
 6303SOL    HW130542   2.996   1.398  14.940  0.0224 -1.6561  0.1622
 6303SOL    HW230543   3.104   1.317  14.901 -0.2921  0.8848  0.8303
 6304SOL     OW30544   1.928   3.259   2.745 -0.2519  0.1660  0.0364
 6304SOL    HW130545   1.866   3.208   2.797  0.1020 -1.2553 -0.9406
 6304SOL    HW230546   1.971   3.319   2.806  1.0636 -1.2820  0.5273
 6305SOL     OW30547   1.217   2.604   5.241 -0.0938 -0.3880  0.1940
 6305SOL    HW130548   1.300   2.576   5.202  0.6161  2.8238 -0.6635
 6305SOL    HW230549   1.205   2.697   5.220  0.8457  0.0072  1.3866
 6306SOL     OW30550   2.144   3.101   7.096 -1.0061 -0.2603  0.0369
 6306SOL    HW130551   2.224   3.074   7.140 -0.2470  1.5520 -0.2230
 6306SOL    HW230552   2.175   3.123   7.008 -1.2735 -1.1444 -0.2766
 6307SOL     OW30553   0.544   3.830   7.689 -0.7001 -0.4977  0.5709
 6307SOL    HW130554   0.472   3.806   7.748  0.1825  0.5283  2.0814
 6307SOL    HW230555   0.506   3.882   7.619  1.6890  0.7635  0.2000
 6308SOL     OW30556   3.541   3.574   5.851 -0.2563  0.5110  0.2480
 6308SOL    HW130557   3.525   3.482   5.829 -2.6027  0.8398  0.5854
 6308SOL    HW230558   3.506   3.587   5.939  0.8671  0.0201  0.7675
 6309SOL     OW30559   0.408   2.500   7.108 -0.0682 -0.0126  0.7304
 6309SOL    HW130560   0.399   2.557   7.031 -2.4247  0.9784  1.7408
 6309SOL    HW230561   0.496   2.471   7.084 -0.6918 -3.2424  2.3048
 6310SOL     OW30562   0.852   2.440   6.503 -0.2171  0.6483 -0.2518
 6310SOL    HW130563   0.910   2.516   6.502 -0.9959  1.2754  1.9265
 6310SOL    HW230564   0.869   2.406   6.415 -0.2023 -2.0192  0.7865
 6311SOL     OW30565   3.148   0.261  14.163  0.1858 -0.1360  0.2419
 6311SOL    HW130566   3.207   0.287  14.093 -0.1508  0.8493  0.3228
 6311SOL    HW230567   3.181   0.174  14.185  0.0565 -0.4283 -0.7122
 6312SOL     OW30568   0.358   0.793   9.138 -0.4343  0.3273 -0.1117
 6312SOL    HW130569   0.262   0.803   9.141 -0.6371 -2.7081  2.7077
 6312SOL    HW230570   0.348   0.702   9.110 -2.3650  0.3349  0.5115
 6313SOL     OW30571   1.725   3.802   4.572  0.2911  0.4686  0.1485
 6313SOL    HW130572   1.717   3.751   4.652 -0.0211 -0.0825 -0.2405
 6313SOL    HW230573   1.752   3.733   4.512  1.5866  0.5675  0.6190
 6314SOL     OW30574   3.260   1.520   8.830 -0.1933 -0.7657  0.3774
 6314SOL    HW130575   3.317   1.588   8.866  0.2270 -1.2326  0.5902
 6314SOL    HW230576   3.253   1.573   8.750 -0.2203 -3.0247 -1.1232
 6315SOL     OW30577   4.243   2.979   8.629  0.1736  0.5803  0.0999
 6315SOL    HW130578   4.197   2.906   8.587 -0.3391  1.5571 -1.0428
 6315SOL    HW230579   4.305   2.935   8.687  0.4307 -1.8494 -2.0064
 6316SOL     OW30580   3.462   2.424   2.867 -0.4903  0.5841  0.4053
 6316SOL    HW130581   3.504   2.340   2.847  2.4464  1.6518  2.0834
 6316SOL    HW230582   3.370   2.406   2.847 -0.3456  1.0708 -0.7091
 6317SOL     OW30583   0.877   0.580   9.056  0.3341  0.1421 -0.6490
 6317SOL    HW130584   0.897   0.674   9.063 -1.4840  0.6834 -2.8458
 6317SOL    HW230585   0.962   0.538   9.046  0.2500  0.0331 -0.9098
 6318SOL     OW30586   2.956   2.433   0.134 -0.2817  0.0051  0.1555
 6318SOL    HW130587   2.881   2.433   0.194  0.2112 -0.0080  0.7736
 6318SOL    HW230588   2.942   2.515   0.087  2.2466  0.2440 -0.1768
 6319SOL     OW30589   0.858   1.884  12.852 -0.8159 -0.2312  0.1103
 6319SOL    HW130590   0.874   1.978  12.855  1.5162 -0.5911 -1.4872
 6319SOL    HW230591   0.908   1.852  12.928  0.8039 -0.2529 -0.9745
 6320SOL     OW30592   2.950   1.311   5.440 -0.0096 -0.1137  0.2720
 6320SOL    HW130593   2.956   1.333   5.347  3.6212  1.0760  0.8072
 6320SOL    HW230594   3.008   1.235   5.442  0.6713  0.3802 -0.9828
 6321SOL     OW30595   0.619   0.680   2.303  0.2488 -0.4496 -0.5828
 6321SOL    HW130596   0.594   0.591   2.280 -0.3605 -0.2939 -0.5167
 6321SOL    HW230597   0.537   0.720   2.333 -0.0597 -0.6708 -1.1233
 6322SOL     OW30598   1.416   2.177   7.131 -0.3692 -0.3648  0.2613
 6322SOL    HW130599   1.417   2.200   7.224 -0.8381  0.9386 -0.0578
 6322SOL    HW230600   1.505   2.208   7.111  0.2918 -0.1019  3.5724
 6323SOL     OW30601   2.805   0.997   9.797  0.4670 -0.3042 -0.1566
 6323SOL    HW130602   2.868   1.069   9.804  0.3738 -0.2794  0.4031
 6323SOL    HW230603   2.759   1.011   9.880 -0.4558 -0.0433 -0.7218
 6324SOL     OW30604   4.261   4.052  16.287  0.6440  0.2466  0.3406
 6324SOL    HW130605   4.246   4.101  16.206  0.8511  0.5345  0.4743
 6324SOL    HW230606   4.291   4.118  16.350 -1.2309 -0.6591  2.1390
 6325SOL     OW30607   4.206   0.861   2.133 -0.0726  0.3546 -0.0688
 6325SOL    HW130608   4.248   0.946   2.124  1.0022  0.1240  2.8827
 6325SOL    HW230609   4.119   0.901   2.143 -0.4569 -1.0201  1.9541
 6326SOL     OW30610   4.292   1.410   0.140  0.2612  0.0882 -0.1310
 6326SOL    HW130611   4.269   1.355   0.065 -0.0365  1.0808 -0.7631
 6326SOL    HW230612   4.384   1.430   0.122  0.6633 -0.9354  0.7793
 6327SOL     OW30613   3.932   0.850   2.426  0.4223  0.3998  0.6544
 6327SOL    HW130614   3.921   0.882   2.337  1.7086 -1.5825 -0.2142
 6327SOL    HW230615   3.999   0.904   2.470  1.4374 -0.0681 -0.3143
 6328SOL     OW30616   3.446   2.287  17.646 -0.3444 -0.3016 -0.0352
 6328SOL    HW130617   3.382   2.217  17.638 -1.0415  0.3583 -0.1939
 6328SOL    HW230618   3.413   2.327  17.727 -3.0110 -1.4475 -0.5616
 6329SOL     OW30619   2.576   1.462   9.602 -0.6392 -1.1525  0.5200
 6329SOL    HW130620   2.649   1.524   9.602  0.3971 -2.3853 -2.7446
 6329SOL    HW230621   2.600   1.417   9.521 -1.4153 -0.8943  0.1496
 6330SOL     OW30622   0.948   4.456   0.647 -0.1429  0.0563 -0.0553
 6330SOL    HW130623   1.001   4.422   0.575 -0.6771 -0.6525 -0.1136
 6330SOL    HW230624   0.864   4.452   0.602 -0.2438  1.5738 -0.0128
 6331SOL     OW30625   3.370   1.995   8.959  0.5120 -0.2257 -0.7996
 6331SOL    HW130626   3.290   1.987   9.009  1.2708 -1.3181  0.2363
 6331SOL    HW230627   3.438   2.030   9.016 -1.0084  1.6800 -0.1706
 6332SOL     OW30628   1.801   0.741  13.635  0.4118 -0.2306  0.7044
 6332SOL    HW130629   1.834   0.794  13.562  0.6824 -0.1608  0.8783
 6332SOL    HW230630   1.706   0.749  13.627  0.6460  1.4366 -0.4223
 6333SOL     OW30631   1.422   0.976   4.044  0.2393  0.9395  0.5925
 6333SOL    HW130632   1.406   0.958   4.137 -2.0996  1.6083  0.3236
 6333SOL    HW230633   1.373   0.908   3.997  1.0690 -0.8372  2.2735
 6334SOL     OW30634   4.570   0.381  16.365  0.6687 -0.0565 -0.1151
 6334SOL    HW130635   4.553   0.375  16.459 -2.0662 -1.4534 -0.6917
 6334SOL    HW230636   4.501   0.444  16.342 -0.0076 -0.0992  1.8399
 6335SOL     OW30637   1.769   1.921   7.515  0.7029  0.4463  0.1343
 6335SOL    HW130638   1.748   1.828   7.511  0.5519  0.4424  0.9430
 6335SOL    HW230639   1.802   1.932   7.604  1.1331 -0.9472  0.1407
 6336SOL     OW30640   1.649   2.259   4.639  0.0814  0.3406  0.0384
 6336SOL    HW130641   1.714   2.282   4.705  0.2656  2.0570 -0.7553
 6336SOL    HW230642   1.669   2.168   4.614 -0.3109 -0.1694  1.5591
 6337SOL     OW30643   3.729   1.867   6.367  0.2534 -0.5234 -0.2571
 6337SOL    HW130644   3.677   1.945   6.388 -0.4614 -0.6039 -1.7305
 6337SOL    HW230645   3.687   1.801   6.423 -1.6607 -0.2778 -1.3906
 6338SOL     OW30646   0.581   0.312   7.180  0.2296  0.1414  0.4944
 6338SOL    HW130647   0.545   0.337   7.095 -0.7594 -0.0113  0.8694
 6338SOL    HW230648   0.656   0.266   7.143 -0.9038  0.1524 -1.8011
 6339SOL     OW30649   0.740   4.665  11.387 -0.4095 -0.8818  0.3828
 6339SOL    HW130650   0.674   4.715  11.435  1.8916  1.6951  0.8371
 6339SOL    HW230651   0.806   4.648  11.454 -1.5378 -0.3844  1.6326
 6340SOL     OW30652   2.485   0.648   9.461 -0.1253 -0.7113 -0.3429
 6340SOL    HW130653   2.558   0.599   9.424 -0.0116 -0.6611 -0.1879
 6340SOL    HW230654   2.538   0.713   9.508 -0.9985 -1.3497  1.5299
 6341SOL     OW30655   2.797   0.708  13.885  0.0106 -0.1725  0.2026
 6341SOL    HW130656   2.875   0.742  13.928  1.7165 -1.1485 -2.0738
 6341SOL    HW230657   2.757   0.653  13.952 -0.4242  1.0325  0.9176
 6342SOL     OW30658   0.623   2.284   8.668 -1.1470 -0.0568  0.6099
 6342SOL    HW130659   0.564   2.359   8.664 -0.3476  0.4343 -2.0040
 6342SOL    HW230660   0.600   2.239   8.749 -1.2358 -0.1675  0.5254
 6343SOL     OW30661   1.062   4.641  10.396  0.5886 -0.0081  0.9516
 6343SOL    HW130662   1.018   4.706  10.451 -0.2138  2.4050 -2.5961
 6343SOL    HW230663   1.127   4.608  10.459  0.3875 -1.2015  0.5308
 6344SOL     OW30664   3.882   1.432   9.204 -0.1455  0.5061 -0.0838
 6344SOL    HW130665   3.897   1.347   9.246  0.2929  0.6536  0.0592
 6344SOL    HW230666   3.827   1.413   9.128 -0.0539  1.1983 -0.3255
 6345SOL     OW30667   2.857   1.365   4.694 -0.5661  0.7951  0.9164
 6345SOL    HW130668   2.763   1.345   4.698 -0.3034 -0.4972  0.6630
 6345SOL    HW230669   2.869   1.356   4.599 -0.4204  0.4584  0.9652
 6346SOL     OW30670   2.614   2.336   3.996  0.0375 -0.0125  0.2109
 6346SOL    HW130671   2.520   2.322   3.991 -0.1279  0.7049  1.2474
 6346SOL    HW230672   2.628   2.397   4.069 -3.0921  3.5234 -2.1144
 6347SOL     OW30673   4.535   4.628   9.429 -0.3535 -0.5587  0.2758
 6347SOL    HW130674   4.590   4.555   9.457  1.4419  0.6852 -0.0269
 6347SOL    HW230675   4.610   4.678   9.397 -1.2981  0.4254 -0.4004
 6348SOL     OW30676   4.558   4.451   1.745  0.0999 -0.4655  0.0560
 6348SOL    HW130677   4.598   4.505   1.813 -1.7500 -0.0458  0.8227
 6348SOL    HW230678   4.492   4.409   1.799  0.2877 -1.0973 -0.2066
 6349SOL     OW30679   3.922   1.801   1.738  0.7261  0.2370 -0.5112
 6349SOL    HW130680   3.941   1.853   1.816  2.3437 -1.3328  0.1395
 6349SOL    HW230681   3.906   1.862   1.666  0.5619  0.2898 -0.4314
 6350SOL     OW30682   2.992   3.586   7.865 -0.2158 -0.1591 -0.4187
 6350SOL    HW130683   2.955   3.669   7.896  1.0595 -0.0278  0.7605
 6350SOL    HW230684   2.910   3.540   7.849 -0.7722  1.5179 -2.3413
 6351SOL     OW30685   4.478   1.204   3.686  0.5207 -0.4654  0.2273
 6351SOL    HW130686   4.477   1.217   3.781 -2.1415 -1.4911  0.3299
 6351SOL    HW230687   4.527   1.121   3.688  1.7796  0.1991 -3.1183
 6352SOL     OW30688   2.529   2.759  12.451  0.4705 -0.1817 -0.8775
 6352SOL    HW130689   2.538   2.771  12.545 -0.0541 -1.9866 -0.6019
 6352SOL    HW230690   2.473   2.682  12.446  0.3291 -0.1867  1.0193
 6353SOL     OW30691   2.235   0.399  13.143 -0.3070 -0.1509  0.1015
 6353SOL    HW130692   2.329   0.380  13.138 -0.0717  2.2660 -5.3039
 6353SOL    HW230693   2.197   0.318  13.178  0.1764 -0.2257  0.4522
 6354SOL     OW30694   4.118   0.453   7.668  0.4000  0.1405  0.0809
 6354SOL    HW130695   4.104   0.391   7.739  1.9988  0.5167  0.7253
 6354SOL    HW230696   4.214   0.454   7.667  0.4355 -1.5831  1.2350
 6355SOL     OW30697   0.249   0.485   2.961  0.9985  0.2478  0.0496
 6355SOL    HW130698   0.270   0.528   2.878  3.0139 -1.9186 -0.5379
 6355SOL    HW230699   0.234   0.563   3.015  2.4146  0.7835 -0.3358
 6356SOL     OW30700   1.319   0.662   5.224 -0.2374 -0.1463 -0.0263
 6356SOL    HW130701   1.295   0.570   5.208 -0.0579 -0.2501  0.2980
 6356SOL    HW230702   1.255   0.682   5.292 -1.1318 -0.7496 -0.6747
 6357SOL     OW30703   1.259   4.733   5.125  0.2241 -0.1498 -0.0406
 6357SOL    HW130704   1.292   0.086   5.106 -3.3325  0.9813 -0.8582
 6357SOL    HW230705   1.339   4.684   5.145 -0.8072 -1.4489  0.8659
 6358SOL     OW30706   2.060   3.736   9.372 -0.0393  0.3939 -0.0811
 6358SOL    HW130707   2.087   3.827   9.387  0.1698  0.4775 -0.9763
 6358SOL    HW230708   2.035   3.743   9.280  2.8236  2.2501 -0.7420
 6359SOL     OW30709   3.559   3.128   1.869 -0.0014 -0.0243  0.3680
 6359SOL    HW130710   3.602   3.042   1.861 -1.3610 -0.6711  0.0973
 6359SOL    HW230711   3.521   3.141   1.782  2.5578  1.2658 -0.5684
 6360SOL     OW30712   2.990   0.635  11.312 -0.3200  0.2685 -0.1168
 6360SOL    HW130713   2.949   0.604  11.393  1.8481  0.1247  0.9237
 6360SOL    HW230714   3.080   0.603  11.321 -0.1747  0.5138 -0.6788
 6361SOL     OW30715   2.904   1.425  17.325 -0.3335 -0.0112 -0.0495
 6361SOL    HW130716   2.940   1.390  17.243 -0.7810 -1.3491  0.3294
 6361SOL    HW230717   2.917   1.354  17.387  1.1891  1.6397  1.5112
 6362SOL     OW30718   4.642   1.583   1.490 -0.1665  0.3547 -0.3817
 6362SOL    HW130719   4.553   1.550   1.503  0.3639 -0.8382  0.2056
 6362SOL    HW230720   4.646   1.577   1.394 -0.7348 -2.1360 -0.2479
 6363SOL     OW30721   3.648   2.603   8.821  0.0749 -0.3495  0.3586
 6363SOL    HW130722   3.579   2.553   8.865 -0.5433 -0.4303 -0.7005
 6363SOL    HW230723   3.630   2.693   8.846  1.6897 -0.3613  1.5580
 6364SOL     OW30724   3.619   2.791   7.168  0.1436 -0.0163  0.0439
 6364SOL    HW130725   3.568   2.864   7.202  1.1291  0.7013 -0.0356
 6364SOL    HW230726   3.635   2.738   7.246 -1.5128 -1.0938 -0.3403
 6365SOL     OW30727   0.570   4.372  12.103  0.1478 -0.1220  0.3108
 6365SOL    HW130728   0.596   4.331  12.020 -3.0912  0.6612 -1.0941
 6365SOL    HW230729   0.513   4.305  12.141 -0.5226 -0.1055 -0.6640
 6366SOL     OW30730   4.556   0.066   1.598  0.0111  0.1295  0.2697
 6366SOL    HW130731   4.527   0.010   1.671 -0.0171  0.6550  0.6585
 6366SOL    HW230732   4.525   0.142   1.648 -0.8084  0.4103 -0.6734
 6367SOL     OW30733   1.904   3.821   4.981 -0.7028  0.5523 -0.0135
 6367SOL    HW130734   1.913   3.778   4.896  0.3675 -0.3831  0.5655
 6367SOL    HW230735   1.822   3.780   5.010 -0.2582 -0.8075 -0.6627
 6368SOL     OW30736   0.034   4.620   2.162 -0.4436 -0.1820 -0.6864
 6368SOL    HW130737   4.732   4.687   2.219  0.1091 -3.7985  3.8881
 6368SOL    HW230738   0.100   4.585   2.221  0.4231 -0.9009 -2.0689
 6369SOL     OW30739   2.790   0.517   9.595  0.2461 -0.1644  0.1144
 6369SOL    HW130740   2.804   0.609   9.571 -0.4400 -0.1924 -0.4254
 6369SOL    HW230741   2.868   0.481   9.553 -0.2742 -0.3981 -0.6426
 6370SOL     OW30742   2.878   0.026   5.658 -0.5166  0.3477 -0.5088
 6370SOL    HW130743   2.826   0.045   5.736 -0.4390 -0.8694 -0.1538
 6370SOL    HW230744   2.890   0.109   5.613  1.5099  0.7004  0.7262
 6371SOL     OW30745   3.746   1.553   4.260  0.6321  0.2373  0.1804
 6371SOL    HW130746   3.798   1.479   4.293  0.6452 -0.0972 -0.6067
 6371SOL    HW230747   3.810   1.623   4.276  1.6766 -0.5248 -0.7071
 6372SOL     OW30748   2.942   2.031   6.019  0.1522  0.3367 -0.2068
 6372SOL    HW130749   3.021   2.080   5.996 -0.6314  2.0554  0.8228
 6372SOL    HW230750   2.894   2.041   5.937 -0.9191 -0.0071  0.3840
 6373SOL     OW30751   3.395   1.056   8.565 -0.1849 -1.0064 -0.1048
 6373SOL    HW130752   3.480   1.048   8.520  0.5701  2.9775  0.6861
 6373SOL    HW230753   3.425   1.067   8.655  1.6658 -2.0436 -0.5822
 6374SOL     OW30754   2.858   4.330   5.383 -0.5733  0.5055  0.0864
 6374SOL    HW130755   2.774   4.313   5.425 -0.5593  1.9114  0.6955
 6374SOL    HW230756   2.863   4.422   5.409 -0.2799  0.2106  1.0694
 6375SOL     OW30757   2.273   1.816  16.250  0.3449 -0.1497  0.4397
 6375SOL    HW130758   2.231   1.766  16.181  0.1492 -0.1464  0.5546
 6375SOL    HW230759   2.235   1.903  16.237 -0.3232 -0.3371  1.1305
 6376SOL     OW30760   3.795   3.031  10.024 -0.1239  0.1595 -0.6239
 6376SOL    HW130761   3.760   2.969   9.960  2.8657  0.7181 -2.7910
 6376SOL    HW230762   3.715   3.029  10.077 -1.2716 -3.6500 -2.5530
 6377SOL     OW30763   0.803   2.517  15.064  0.0057 -0.2466  0.5282
 6377SOL    HW130764   0.735   2.451  15.077 -0.8844  0.1934 -1.9210
 6377SOL    HW230765   0.870   2.475  15.117 -1.2300 -2.3822  0.4027
 6378SOL     OW30766   1.195   0.786   3.980  0.0293  0.0291 -0.0160
 6378SOL    HW130767   1.144   0.859   4.013 -0.0966  0.3919 -1.0151
 6378SOL    HW230768   1.148   0.710   4.015 -0.4667 -1.2868 -3.5257
 6379SOL     OW30769   0.712   3.620   7.122  0.3864 -0.3478  0.3467
 6379SOL    HW130770   0.682   3.662   7.203 -1.7194 -1.4022  0.1225
 6379SOL    HW230771   0.681   3.530   7.134  0.2658  0.0337  2.9220
 6380SOL     OW30772   2.843   2.115  12.698  0.8340 -0.4561 -0.1593
 6380SOL    HW130773   2.801   2.112  12.612  0.3998 -1.0814  0.0780
 6380SOL    HW230774   2.777   2.166  12.745  0.3427 -0.8075 -0.4673
 6381SOL     OW30775   1.669   3.613   4.767 -0.7559 -0.3713 -0.0457
 6381SOL    HW130776   1.622   3.568   4.697  1.4354 -2.2744 -0.3020
 6381SOL    HW230777   1.606   3.597   4.838  2.2279 -2.0167  2.2551
 6382SOL     OW30778   4.605   1.687   5.390 -0.5108 -0.1460 -0.6482
 6382SOL    HW130779   4.584   1.767   5.439  1.1365 -0.4353  0.5441
 6382SOL    HW230780   4.520   1.648   5.409 -0.7234  1.2841  1.4112
 6383SOL     OW30781   3.612   1.331   1.924 -0.0157 -0.2235  0.5573
 6383SOL    HW130782   3.665   1.277   1.983 -0.0579  1.0075  1.7131
 6383SOL    HW230783   3.594   1.404   1.984 -1.5950 -0.3544  0.2220
 6384SOL     OW30784   4.365   3.885   4.809 -0.1987 -0.3380  0.1493
 6384SOL    HW130785   4.321   3.955   4.856 -0.4159  0.9902 -2.0502
 6384SOL    HW230786   4.393   3.937   4.733 -0.4606 -0.2615  0.1059
 6385SOL     OW30787   2.729   1.180   0.509 -0.3755  0.4896  0.2347
 6385SOL    HW130788   2.730   1.242   0.436 -0.1055 -0.5391 -0.6355
 6385SOL    HW230789   2.807   1.218   0.549 -0.0013  0.3086 -0.3161
 6386SOL     OW30790   3.339   3.389   1.669  0.5502  0.3873 -0.2236
 6386SOL    HW130791   3.306   3.299   1.660  0.0462  0.4968  0.6145
 6386SOL    HW230792   3.389   3.391   1.587  0.3398  1.6423 -0.3197
 6387SOL     OW30793   4.215   3.388  13.790 -0.1514 -0.5011  0.3565
 6387SOL    HW130794   4.236   3.295  13.796 -0.1414 -0.3608  2.5679
 6387SOL    HW230795   4.130   3.388  13.747  0.2760 -1.3502 -0.4652
 6388SOL     OW30796   2.851   0.563   3.800  1.6058 -0.6805 -0.6758
 6388SOL    HW130797   2.824   0.529   3.715  0.1627 -0.3706 -0.3460
 6388SOL    HW230798   2.845   0.658   3.784 -2.3040 -0.6568  0.7102
 6389SOL     OW30799   0.108   0.941   9.441  0.2073 -0.1462 -0.1730
 6389SOL    HW130800   0.131   0.850   9.424 -2.9777 -0.7527 -1.1727
 6389SOL    HW230801   0.093   0.933   9.535  1.5680 -1.3236 -0.0611
 6390SOL     OW30802   0.076   3.571   7.487  0.4916 -0.7426 -0.2021
 6390SOL    HW130803   4.733   3.592   7.436 -2.1407 -4.2167  2.5025
 6390SOL    HW230804   0.089   3.654   7.533  0.1906 -1.0244  0.3819
 6391SOL     OW30805   0.772   0.019   2.994  0.4592  0.3886 -0.1574
 6391SOL    HW130806   0.804   4.693   3.060 -0.9111  0.1060  0.2321
 6391SOL    HW230807   0.685   4.719   2.977  0.8268 -1.1347  1.2330
 6392SOL     OW30808   3.324   2.243   1.324 -0.7684 -0.1637 -0.3025
 6392SOL    HW130809   3.418   2.250   1.342 -1.0411 -0.2370  1.1343
 6392SOL    HW230810   3.312   2.150   1.342  1.8547  0.1850  3.3434
 6393SOL     OW30811   2.197   0.038  11.440 -0.1832 -0.0992  0.2915
 6393SOL    HW130812   2.162   4.721  11.368  0.8173  1.0555 -1.0554
 6393SOL    HW230813   2.271   4.717  11.465  1.0757  1.5790  0.4128
 6394SOL     OW30814   1.166   4.093   2.751 -0.1091  0.2399  0.2153
 6394SOL    HW130815   1.254   4.081   2.789  1.2039  1.8847 -2.2762
 6394SOL    HW230816   1.165   4.097   2.655  3.8931  3.1638  0.2789
 6395SOL     OW30817   2.922   3.176   2.158 -0.3003  0.0182 -0.3253
 6395SOL    HW130818   2.872   3.252   2.188  0.7552  1.4708 -2.2324
 6395SOL    HW230819   2.975   3.142   2.231  0.9459  2.4797 -0.0935
 6396SOL     OW30820   2.665   1.213   7.304 -0.6918 -0.3433  0.0702
 6396SOL    HW130821   2.591   1.273   7.311  0.0069  0.7011 -1.4330
 6396SOL    HW230822   2.624   1.126   7.307 -1.9387  0.2374 -0.3535
 6397SOL     OW30823   3.667   3.900   9.056  0.2746  0.0609 -0.1284
 6397SOL    HW130824   3.589   3.907   9.002  1.2756  1.5123 -1.4129
 6397SOL    HW230825   3.656   3.979   9.110  1.2077  0.1310 -0.0242
 6398SOL     OW30826   2.267   3.417   2.626 -0.2226 -0.4189 -0.3564
 6398SOL    HW130827   2.265   3.432   2.720  1.6153  0.3862 -0.4400
 6398SOL    HW230828   2.183   3.443   2.588 -1.1557 -0.7288  1.5105
 6399SOL     OW30829   1.841   3.684  15.319  0.6402 -0.1027 -0.3259
 6399SOL    HW130830   1.931   3.677  15.351  0.6036  2.0444  0.2497
 6399SOL    HW230831   1.803   3.756  15.370 -2.6194 -1.0599 -1.4223
 6400SOL     OW30832   1.150   4.436   3.994 -0.4590  0.0332 -0.0276
 6400SOL    HW130833   1.197   4.454   4.075 -0.5325 -1.1292  0.2603
 6400SOL    HW230834   1.154   4.341   3.989 -1.1428  0.0465 -0.8835
 6401SOL     OW30835   3.532   0.727   6.395  0.1527 -0.2569 -0.2103
 6401SOL    HW130836   3.603   0.745   6.456 -1.1989 -0.1359  1.3136
 6401SOL    HW230837   3.484   0.810   6.389  0.2270  0.0218  3.2882
 6402SOL     OW30838   3.917   2.681   8.822  0.0576  0.0057  0.2985
 6402SOL    HW130839   3.910   2.586   8.821  0.7056 -0.0212 -1.2951
 6402SOL    HW230840   3.827   2.711   8.810 -0.4387 -1.5849  0.0569
 6403SOL     OW30841   1.384   2.667   3.515  0.2667  0.3539  0.2076
 6403SOL    HW130842   1.448   2.597   3.527  0.0217 -0.2074 -1.8149
 6403SOL    HW230843   1.394   2.707   3.601 -2.2276  1.1800  0.0865
 6404SOL     OW30844   2.618   3.293   6.869 -0.3458 -0.4984 -0.4494
 6404SOL    HW130845   2.660   3.315   6.952 -1.4750  2.7406 -0.7142
 6404SOL    HW230846   2.632   3.200   6.855  0.2878 -0.3317 -0.9119
 6405SOL     OW30847   1.555   4.287   7.435 -0.4469  0.0746  0.1948
 6405SOL    HW130848   1.551   4.238   7.353  1.2389  0.6108 -0.2139
 6405SOL    HW230849   1.547   4.380   7.412  1.3666  0.4205  0.9703
 6406SOL     OW30850   1.522   4.199   7.182 -0.1161 -0.1791  0.2337
 6406SOL    HW130851   1.535   4.110   7.150 -1.7642 -1.0293  1.9043
 6406SOL    HW230852   1.436   4.218   7.143 -0.9319 -0.6076  1.7979
 6407SOL     OW30853   3.020   0.065   7.555  0.4690 -0.7147  0.0063
 6407SOL    HW130854   3.017   4.715   7.514 -0.6209 -0.5220 -0.3058
 6407SOL    HW230855   3.060   0.046   7.640 -1.5154 -2.0451  0.6234
 6408SOL     OW30856   2.372   1.811  15.519 -0.2822  0.2191 -0.1438
 6408SOL    HW130857   2.368   1.720  15.492 -2.2315  0.1148  0.4851
 6408SOL    HW230858   2.459   1.834  15.485  0.7197 -0.0342  2.2637
 6409SOL     OW30859   3.272   2.611   9.953  0.0332  0.0602 -0.2787
 6409SOL    HW130860   3.331   2.617   9.879 -0.0537  0.9733 -0.2692
 6409SOL    HW230861   3.224   2.533   9.925  0.0794 -0.1640  0.2601
 6410SOL     OW30862   0.999   1.914  14.017 -0.6322  0.2961  0.0344
 6410SOL    HW130863   1.030   1.826  14.038 -0.1902  0.3960 -0.1957
 6410SOL    HW230864   0.927   1.880  13.964 -0.1479  0.0191 -0.4510
 6411SOL     OW30865   1.178   1.013  12.288 -0.1459 -0.2769  0.4243
 6411SOL    HW130866   1.243   1.029  12.356 -0.8251  4.4228 -0.0181
 6411SOL    HW230867   1.116   1.083  12.306 -0.4945 -0.2238 -0.9572
 6412SOL     OW30868   3.648   3.821  16.968 -0.5031  0.6200 -0.3212
 6412SOL    HW130869   3.614   3.895  17.018  1.0514  1.0459  0.0852
 6412SOL    HW230870   3.586   3.822  16.895 -0.0698  1.2754 -0.6805
 6413SOL     OW30871   3.744   2.913  14.625 -0.7825  0.0545 -0.3775
 6413SOL    HW130872   3.829   2.942  14.658 -0.6360 -1.4622  0.5691
 6413SOL    HW230873   3.782   2.852  14.560  4.2963  0.9970  1.7285
 6414SOL     OW30874   2.177   1.678   6.166  0.6432  0.1463 -0.4688
 6414SOL    HW130875   2.128   1.597   6.182 -0.6456  1.0010 -0.1068
 6414SOL    HW230876   2.117   1.718   6.104  0.3102 -0.6626 -0.6670
 6415SOL     OW30877   1.745   0.815  13.891  0.4551  0.3747 -0.2492
 6415SOL    HW130878   1.664   0.766  13.907  0.4934  1.2621  2.6722
 6415SOL    HW230879   1.797   0.755  13.838 -0.7951 -0.3844 -0.6274
 6416SOL     OW30880   3.443   2.362  15.690  0.1232  0.4995 -0.1155
 6416SOL    HW130881   3.476   2.326  15.773 -2.6577  1.4727  1.3978
 6416SOL    HW230882   3.484   2.448  15.687  0.7931  0.1583 -0.8445
 6417SOL     OW30883   1.686   1.216   5.008  0.0033 -0.3719  0.0407
 6417SOL    HW130884   1.721   1.128   4.990  0.8905 -0.0310  0.1029
 6417SOL    HW230885   1.686   1.203   5.102  0.4928 -1.1153 -0.0531
 6418SOL     OW30886   2.614   2.758   3.226 -0.1053 -0.0142 -0.2508
 6418SOL    HW130887   2.607   2.808   3.146  2.1399  0.2315 -0.2850
 6418SOL    HW230888   2.577   2.676   3.195  0.5679  0.0836 -1.3069
 6419SOL     OW30889   2.918   2.571   2.680 -0.7820 -0.6100  0.0190
 6419SOL    HW130890   2.908   2.573   2.585 -1.0778 -0.0989  0.0575
 6419SOL    HW230891   2.892   2.480   2.691  0.8621 -1.0106  0.6689
 6420SOL     OW30892   3.333   4.219   1.675 -0.5397  0.0651 -0.0832
 6420SOL    HW130893   3.272   4.220   1.602 -0.3962  1.9514 -0.1651
 6420SOL    HW230894   3.395   4.280   1.636 -0.9638 -0.2481 -1.2277
 6421SOL     OW30895   0.834   4.351   2.450  0.3442  0.0878 -0.2097
 6421SOL    HW130896   0.816   4.412   2.379  0.3669  0.0794 -0.2228
 6421SOL    HW230897   0.850   4.408   2.524  2.1683 -0.5920 -0.0653
 6422SOL     OW30898   2.897   4.017   6.697  0.1479  0.0423 -0.2955
 6422SOL    HW130899   2.968   4.022   6.633 -0.1300 -1.6704 -0.7365
 6422SOL    HW230900   2.895   3.927   6.729 -1.4631  0.5428  1.0066
 6423SOL     OW30901   2.050   4.598   3.964 -0.4112  0.2013 -0.3059
 6423SOL    HW130902   2.117   4.530   3.974 -0.1646  0.5681  0.5330
 6423SOL    HW230903   2.030   4.597   3.870 -0.0962  0.0617 -0.3710
 6424SOL     OW30904   3.418   1.711   2.724  0.4535 -0.5825 -0.2250
 6424SOL    HW130905   3.368   1.631   2.705 -1.6561  0.9762 -1.2304
 6424SOL    HW230906   3.361   1.774   2.680 -1.7473 -3.0982 -0.9526
 6425SOL     OW30907   3.423   0.245  13.623 -0.3618  0.6108 -0.1511
 6425SOL    HW130908   3.389   0.248  13.713 -1.8043 -0.5328 -0.6621
 6425SOL    HW230909   3.483   0.172  13.640 -2.5615 -0.8815  1.3607
 6426SOL     OW30910   1.945   0.053   6.453  0.7056  0.1417 -0.1766
 6426SOL    HW130911   1.979   4.717   6.400  0.9658  1.1992 -1.4338
 6426SOL    HW230912   1.922   0.000   6.529  0.5913 -0.8845 -0.9259
 6427SOL     OW30913   4.123   3.283   4.840  0.3790 -0.0600  0.1727
 6427SOL    HW130914   4.185   3.224   4.797 -1.8955 -1.4019 -1.2480
 6427SOL    HW230915   4.054   3.289   4.774  1.6827  1.4333 -1.0389
 6428SOL     OW30916   2.872   3.583   7.052  0.4506 -0.1773 -0.6011
 6428SOL    HW130917   2.817   3.639   6.998 -0.1041  0.9593  1.1866
 6428SOL    HW230918   2.954   3.632   7.060  1.4078 -1.6726 -1.1743
 6429SOL     OW30919   3.759   3.508   9.289 -0.4692  0.4222 -0.0721
 6429SOL    HW130920   3.828   3.442   9.293  0.2603  1.3245  2.7779
 6429SOL    HW230921   3.681   3.452   9.281  0.1508 -0.4705  0.1024
 6430SOL     OW30922   4.320   0.262   5.069  0.2077  0.3394 -0.1448
 6430SOL    HW130923   4.248   0.282   5.130  0.4925 -1.0920  0.6390
 6430SOL    HW230924   4.393   0.305   5.113 -1.2567  0.7106  1.9416
 6431SOL     OW30925   3.515   3.909  12.017 -0.2237  0.2655  0.0365
 6431SOL    HW130926   3.434   3.875  11.978 -1.1272  1.1871  1.0908
 6431SOL    HW230927   3.528   3.841  12.083  1.5275  1.0998  0.5515
 6432SOL     OW30928   0.633   1.954   7.227 -0.0723 -0.4211  0.0796
 6432SOL    HW130929   0.707   1.898   7.205  0.8045  0.1636  1.4968
 6432SOL    HW230930   0.586   1.884   7.272  0.6693 -0.9777 -0.0188
 6433SOL     OW30931   3.155   4.207   5.698 -0.5871 -0.3462 -0.3588
 6433SOL    HW130932   3.122   4.288   5.660 -0.3116 -0.3326 -0.5680
 6433SOL    HW230933   3.097   4.195   5.773  0.2382 -0.1986  0.3099
 6434SOL     OW30934   0.733   0.678  12.962 -0.4119 -0.0665  0.2708
 6434SOL    HW130935   0.722   0.591  12.924 -0.0588  0.7538 -1.7015
 6434SOL    HW230936   0.664   0.714  12.906  0.6563 -0.3637 -1.2214
 6435SOL     OW30937   1.557   4.146   6.851  0.1896 -0.0664  0.0519
 6435SOL    HW130938   1.514   4.216   6.901 -0.7032 -0.2918 -0.3984
 6435SOL    HW230939   1.643   4.184   6.832 -0.1592  1.1047  0.8340
 6436SOL     OW30940   0.211   4.282  17.597  0.7692 -0.9655  0.3867
 6436SOL    HW130941   0.245   4.233  17.672  0.2306  1.1890  2.0315
 6436SOL    HW230942   0.166   4.350  17.647 -1.1580 -1.0072 -1.3221
 6437SOL     OW30943   3.789   3.327   6.603 -0.0165  0.0129 -0.3668
 6437SOL    HW130944   3.787   3.252   6.545 -1.1962  0.0963 -0.4434
 6437SOL    HW230945   3.809   3.287   6.688 -0.6049  0.4879  0.0068
 6438SOL     OW30946   2.131   0.226   6.534 -0.4780  0.2202 -0.4282
 6438SOL    HW130947   2.161   0.143   6.570  0.3920  1.7175  2.2824
 6438SOL    HW230948   2.047   0.187   6.511  0.3589 -2.8819  1.9068
 6439SOL     OW30949   2.351   2.433   4.890  0.3252 -0.0159 -0.3568
 6439SOL    HW130950   2.442   2.464   4.884  1.1500 -2.4651 -0.7658
 6439SOL    HW230951   2.295   2.507   4.913  1.0798  0.2090  0.7713
 6440SOL     OW30952   0.005   2.287   6.324 -0.3756  0.1649  0.2320
 6440SOL    HW130953   4.653   2.250   6.316 -0.9862  1.6098  0.2694
 6440SOL    HW230954   0.026   2.304   6.232 -1.7257 -1.6084 -0.4003
 6441SOL     OW30955   0.563   2.188   6.008  0.2086  0.9658  0.1501
 6441SOL    HW130956   0.521   2.259   6.056 -1.8247 -0.0977 -0.0882
 6441SOL    HW230957   0.653   2.220   5.994  0.2185  0.5556 -0.7301
 6442SOL     OW30958   1.422   1.020   6.053  0.0099  0.3791 -0.0206
 6442SOL    HW130959   1.469   0.945   6.091 -0.3030  0.9570  1.5119
 6442SOL    HW230960   1.417   1.081   6.127  2.1354 -0.8903  1.1866
 6443SOL     OW30961   1.797   4.117  11.853  0.1991  0.0447 -0.3856
 6443SOL    HW130962   1.761   4.177  11.919 -0.1956 -0.0065 -0.5574
 6443SOL    HW230963   1.737   4.117  11.779 -3.3512  1.1297  2.4964
 6444SOL     OW30964   2.978   4.538   6.428  0.3441 -0.2432  0.0629
 6444SOL    HW130965   2.974   4.624   6.386 -0.2782  1.1414  3.0125
 6444SOL    HW230966   2.904   4.489   6.392 -0.3647  0.3320  0.7253
 6445SOL     OW30967   1.154   2.210   1.207 -0.9231 -0.6480  0.1488
 6445SOL    HW130968   1.133   2.290   1.159  0.8695 -1.4056 -1.8871
 6445SOL    HW230969   1.162   2.248   1.295  2.4524  0.0123 -0.4476
 6446SOL     OW30970   4.230   2.204   3.701 -0.5175  0.1219 -0.0906
 6446SOL    HW130971   4.272   2.125   3.734  0.7539  0.9723  0.3487
 6446SOL    HW230972   4.198   2.158   3.623  0.0526  0.1654 -0.3554
 6447SOL     OW30973   1.220   0.855  14.576 -0.2823 -0.3843  0.1008
 6447SOL    HW130974   1.271   0.935  14.591 -1.1368  0.7597 -3.2286
 6447SOL    HW230975   1.137   0.868  14.623 -0.3763  0.4694 -0.3066
 6448SOL     OW30976   3.306   3.148   8.484  0.6073 -0.5114  0.1735
 6448SOL    HW130977   3.294   3.224   8.540  0.2322 -1.5759  1.5281
 6448SOL    HW230978   3.287   3.171   8.392  1.3993 -0.5591  0.0022
 6449SOL     OW30979   1.939   1.032   1.933  0.0273  0.1423 -0.4134
 6449SOL    HW130980   1.899   1.119   1.942 -1.6910 -0.7562  0.6226
 6449SOL    HW230981   1.914   1.001   2.021  0.2956 -0.5824 -0.5900
 6450SOL     OW30982   3.630   0.787   8.264  0.1534  0.3724  0.0168
 6450SOL    HW130983   3.561   0.781   8.198  2.5003 -0.0300 -2.4215
 6450SOL    HW230984   3.701   0.757   8.206 -0.0644  0.9686 -0.5569
 6451SOL     OW30985   1.035   2.577   7.714  0.3296  0.5447 -0.5160
 6451SOL    HW130986   1.078   2.605   7.795  2.1494 -3.4597 -0.1310
 6451SOL    HW230987   1.032   2.665   7.676 -0.0570  0.6468 -0.2517
 6452SOL     OW30988   1.073   3.163   4.455  0.0793  0.3192  0.0922
 6452SOL    HW130989   1.031   3.127   4.533  1.0552 -2.1923 -0.5450
 6452SOL    HW230990   1.025   3.246   4.451  0.7308  0.6063 -1.6067
 6453SOL     OW30991   3.088   1.435  10.302 -0.1166 -0.5929  0.3130
 6453SOL    HW130992   3.107   1.380  10.378  0.1485 -1.6843 -0.5358
 6453SOL    HW230993   3.109   1.385  10.223  1.4327 -0.3585  0.5801
 6454SOL     OW30994   0.571   1.148   4.387  0.4623 -0.5521  0.1372
 6454SOL    HW130995   0.601   1.235   4.413  0.8960 -0.1941 -1.5900
 6454SOL    HW230996   0.482   1.169   4.359  1.0037 -1.5680 -2.3232
 6455SOL     OW30997   4.664   3.018   9.745  0.1420  0.1837 -0.0316
 6455SOL    HW130998   4.569   3.027   9.738  0.2352  0.9314 -0.3619
 6455SOL    HW230999   4.690   3.062   9.826 -2.1116  2.2856 -0.4468
 6456SOL     OW31000   4.297   4.730   7.733 -0.4333 -0.3841  0.1773
 6456SOL    HW131001   4.341   0.034   7.658 -2.1743 -1.1373 -1.2418
 6456SOL    HW231002   4.207   0.022   7.715 -0.1880 -0.9359 -1.8129
 6457SOL     OW31003   2.755   3.636   2.723  0.2286 -0.3249  0.5605
 6457SOL    HW131004   2.775   3.670   2.810  0.7083 -0.5589  0.5425
 6457SOL    HW231005   2.669   3.679   2.721  0.5992  0.4368  1.1916
 6458SOL     OW31006   0.353   4.472   6.288 -0.4919  0.4730  0.1302
 6458SOL    HW131007   0.305   4.519   6.219  0.4166  0.2201 -0.6663
 6458SOL    HW231008   0.329   4.524   6.365 -0.2263 -0.7380  1.0183
 6459SOL     OW31009   0.209   3.350  16.807  0.8356  0.1123 -0.6630
 6459SOL    HW131010   0.226   3.399  16.726 -1.5804  1.1875 -0.5210
 6459SOL    HW231011   0.216   3.417  16.876  0.8487 -2.0114  1.3818
 6460SOL     OW31012   4.203   2.894   1.013 -0.2334  0.0473  0.1204
 6460SOL    HW131013   4.274   2.829   1.015 -0.5040 -0.1750  2.2339
 6460SOL    HW231014   4.155   2.899   1.096 -0.2412  0.8506  0.0649
 6461SOL     OW31015   3.941   3.380   9.695  0.1126 -0.3272 -0.2369
 6461SOL    HW131016   3.960   3.357   9.786 -0.1899 -0.8574 -0.3100
 6461SOL    HW231017   3.852   3.346   9.693 -0.7577  1.8415  0.9756
 6462SOL     OW31018   0.216   0.499  10.788 -0.0457 -1.0099  0.3206
 6462SOL    HW131019   0.160   0.451  10.848  1.7644 -2.1733  1.0766
 6462SOL    HW231020   0.282   0.432  10.771 -1.3822 -1.9598 -1.1209
 6463SOL     OW31021   1.688   4.266   5.846  0.4716  0.5811 -0.1265
 6463SOL    HW131022   1.733   4.318   5.913  2.4666 -0.3277 -0.7523
 6463SOL    HW231023   1.752   4.270   5.774  1.3319 -0.3411  0.5921
 6464SOL     OW31024   1.430   0.017   4.823  0.1242  0.0534  0.6425
 6464SOL    HW131025   1.350   0.041   4.776  1.2108  1.6762 -0.3278
 6464SOL    HW231026   1.478   4.726   4.745  1.0105  0.2207  1.1408
 6465SOL     OW31027   1.392   0.544   6.714 -0.1526 -0.8222  0.3879
 6465SOL    HW131028   1.387   0.470   6.774  0.3887 -0.9202  0.3100
 6465SOL    HW231029   1.431   0.504   6.636 -0.2675  0.5398 -0.3688
 6466SOL     OW31030   0.690   4.464   2.763  0.2873  0.0493  0.2249
 6466SOL    HW131031   0.669   4.554   2.790  1.0646 -0.4469  2.4255
 6466SOL    HW231032   0.785   4.463   2.751 -0.1915 -1.8748 -3.4122
 6467SOL     OW31033   2.585   3.729   9.975 -0.5405  0.1752  0.0471
 6467SOL    HW131034   2.653   3.789  10.005 -0.7684  0.1488  0.6069
 6467SOL    HW231035   2.513   3.791   9.980 -1.1584 -0.4412 -1.3354
 6468SOL     OW31036   3.555   2.598   9.170  0.0228  0.3133  0.3733
 6468SOL    HW131037   3.649   2.588   9.184 -0.3418 -2.5042  0.8985
 6468SOL    HW231038   3.535   2.532   9.104 -1.7914  0.1007  1.1263
 6469SOL     OW31039   4.028   3.551   2.442  0.0389 -0.1807 -0.1844
 6469SOL    HW131040   3.990   3.466   2.419  2.1337 -0.7321 -1.7161
 6469SOL    HW231041   3.971   3.604   2.386  0.4425  0.6247  0.1706
 6470SOL     OW31042   0.453   3.710  13.184  0.0252  0.0498 -0.0649
 6470SOL    HW131043   0.548   3.703  13.180  0.0656 -0.1464  1.2389
 6470SOL    HW231044   0.438   3.780  13.121  1.4071 -0.8961 -1.4378
 6471SOL     OW31045   3.150   2.970  17.280  0.4173  0.4492  0.6860
 6471SOL    HW131046   3.133   2.967  17.186  2.4500 -1.7847  0.3695
 6471SOL    HW231047   3.078   2.927  17.327 -0.0372  2.2539  1.6450
 6472SOL     OW31048   2.883   0.504   3.290 -0.6109  0.8769  0.3655
 6472SOL    HW131049   2.910   0.560   3.218  2.9959 -1.4007 -0.0552
 6472SOL    HW231050   2.965   0.491   3.337  0.0442  1.4349 -0.6277
 6473SOL     OW31051   1.300   2.456   4.122 -0.2181 -0.1221  0.3457
 6473SOL    HW131052   1.228   2.419   4.072  0.5368 -0.9736 -0.1223
 6473SOL    HW231053   1.263   2.543   4.131  0.4694  0.0232  1.6820
 6474SOL     OW31054   4.603   2.914   9.428  0.1103  0.2170  0.3941
 6474SOL    HW131055   4.570   2.938   9.341 -0.8244  0.9434  0.9514
 6474SOL    HW231056   4.524   2.873   9.464 -1.1430  1.7070 -0.6584
 6475SOL     OW31057   0.826   2.433  16.800 -0.0233  0.6606 -0.2127
 6475SOL    HW131058   0.876   2.436  16.882  0.5022  1.9412 -0.5896
 6475SOL    HW231059   0.856   2.512  16.756 -0.0882  1.4606  1.1757
 6476SOL     OW31060   3.789   3.574   3.590  0.0605  0.2011  0.9713
 6476SOL    HW131061   3.830   3.593   3.675  0.8315  0.4482  0.5421
 6476SOL    HW231062   3.768   3.481   3.592 -0.3045  0.2524 -1.0019
 6477SOL     OW31063   1.489   1.251   5.501  0.4226  0.1187 -0.5890
 6477SOL    HW131064   1.396   1.269   5.499  0.3106 -0.7765 -4.1224
 6477SOL    HW231065   1.502   1.229   5.593  2.7267 -0.8643 -1.1334
 6478SOL     OW31066   3.034   2.060   3.833  0.1838  0.2538 -0.4156
 6478SOL    HW131067   3.007   2.057   3.741  1.1516  1.3419 -0.7398
 6478SOL    HW231068   3.127   2.057   3.809 -0.4227 -0.0181 -2.8013
 6479SOL     OW31069   4.423   4.460   7.263 -0.2426 -0.0302  0.4929
 6479SOL    HW131070   4.376   4.382   7.292  0.3866 -0.2267  0.9799
 6479SOL    HW231071   4.377   4.469   7.179  1.5461  0.8884 -0.4058
 6480SOL     OW31072   4.033   1.025   3.512  0.1152  0.5117  0.2713
 6480SOL    HW131073   4.068   1.042   3.425  0.3582 -0.9929  0.0809
 6480SOL    HW231074   3.959   1.083   3.494 -0.0034  1.2659  3.1287
 6481SOL     OW31075   0.262   2.750  14.278  0.1341 -0.0147  0.1969
 6481SOL    HW131076   0.327   2.748  14.348  1.0281 -1.1704 -0.6776
 6481SOL    HW231077   0.193   2.685  14.296  0.4917 -0.0203  1.5603
 6482SOL     OW31078   3.529   1.194   9.834 -0.4551  0.3541 -0.3697
 6482SOL    HW131079   3.527   1.161   9.744 -0.3567 -0.0070 -0.2423
 6482SOL    HW231080   3.617   1.169   9.861 -0.5886 -1.2049 -1.3268
 6483SOL     OW31081   1.492   0.454   3.616 -0.2350 -0.6996  0.5746
 6483SOL    HW131082   1.507   0.488   3.527  0.5001 -0.8090  0.6566
 6483SOL    HW231083   1.401   0.466   3.641 -0.0217 -1.0783  1.5142
 6484SOL     OW31084   0.645   1.758   2.977  0.1727 -0.2216  0.4503
 6484SOL    HW131085   0.612   1.686   3.031  0.8910 -1.2656 -0.5018
 6484SOL    HW231086   0.713   1.707   2.933 -0.2168  2.1136 -2.8801
 6485SOL     OW31087   0.475   3.501   8.748 -0.0686 -0.4987 -0.0006
 6485SOL    HW131088   0.439   3.497   8.836 -0.5196  0.1214 -0.1568
 6485SOL    HW231089   0.412   3.565   8.716  1.1064  1.4696  1.6488
 6486SOL     OW31090   3.971   4.314  12.107  0.0382  0.1095  0.4285
 6486SOL    HW131091   3.875   4.313  12.103 -0.0856  1.0168  3.2415
 6486SOL    HW231092   3.995   4.387  12.165 -1.1394 -0.9972  2.3262
 6487SOL     OW31093   3.940   1.133   7.343  0.7376  0.6029  0.1447
 6487SOL    HW131094   3.922   1.046   7.307  0.7953  0.9315 -0.6753
 6487SOL    HW231095   3.981   1.172   7.267  2.5789 -0.2989  0.6796
 6488SOL     OW31096   4.134   1.960   8.226 -0.5693 -0.3048 -0.7706
 6488SOL    HW131097   4.075   1.907   8.279  2.4412 -1.7294  1.1844
 6488SOL    HW231098   4.154   2.023   8.295  3.4108 -2.4914  0.0670
 6489SOL     OW31099   0.412   0.843   6.901 -0.3941 -0.4128 -0.2971
 6489SOL    HW131100   0.477   0.914   6.901 -0.0916 -0.6897 -1.0631
 6489SOL    HW231101   0.382   0.866   6.813 -0.5536 -0.6775 -0.3100
 6490SOL     OW31102   0.162   1.064   7.704  0.3797  0.2683  0.1995
 6490SOL    HW131103   0.088   1.067   7.764  0.1902  1.8839 -0.1004
 6490SOL    HW231104   0.172   0.970   7.689 -0.6038  0.2430 -0.3129
 6491SOL     OW31105   3.156   4.197  10.805 -0.1233  0.6850  0.0339
 6491SOL    HW131106   3.180   4.149  10.884 -2.0129  0.8971  0.7265
 6491SOL    HW231107   3.065   4.170  10.791  0.1281 -1.9853  3.7015
 6492SOL     OW31108   1.387   1.888   4.528 -0.3498  0.7290  0.2529
 6492SOL    HW131109   1.403   1.973   4.488  0.8413  1.0123  1.3209
 6492SOL    HW231110   1.373   1.913   4.620 -1.0727  0.5673  0.1883
 6493SOL     OW31111   1.412   0.856   8.249  0.6627  0.0091  0.2574
 6493SOL    HW131112   1.413   0.937   8.301 -0.3802  0.1982 -0.0031
 6493SOL    HW231113   1.325   0.815   8.254  1.0819 -0.5162  2.9795
 6494SOL     OW31114   3.686   4.698   3.745 -0.0378  0.0406 -0.5834
 6494SOL    HW131115   3.709   4.653   3.826 -0.6397 -0.1631 -0.5262
 6494SOL    HW231116   3.599   4.662   3.728 -0.1335 -0.6741  1.3867
 6495SOL     OW31117   3.791   1.830  16.495  0.4069  0.0227 -0.1455
 6495SOL    HW131118   3.789   1.801  16.404  2.0253 -0.8449  0.1041
 6495SOL    HW231119   3.759   1.920  16.488  3.3132  1.1787  1.5525
 6496SOL     OW31120   2.954   0.247   8.626 -0.0127  0.0503  0.3617
 6496SOL    HW131121   2.977   0.289   8.543 -0.5466 -2.4572 -1.0569
 6496SOL    HW231122   2.886   0.187   8.596 -0.4092  0.1772  1.0121
 6497SOL     OW31123   3.779   0.679   7.364 -0.2920  0.1983 -0.2599
 6497SOL    HW131124   3.824   0.610   7.316  1.1117  0.5396  0.5932
 6497SOL    HW231125   3.796   0.649   7.453 -1.4125  1.6231  0.4445
 6498SOL     OW31126   4.138   3.718   3.562  0.4005 -0.1663 -0.5316
 6498SOL    HW131127   4.225   3.689   3.587 -0.7423 -3.9619 -0.9306
 6498SOL    HW231128   4.134   3.811   3.581 -0.2043 -0.1129 -0.8777
 6499SOL     OW31129   2.032   0.447   7.052 -0.1475  0.4570 -0.0803
 6499SOL    HW131130   2.125   0.464   7.061 -0.2418  1.9266 -1.9721
 6499SOL    HW231131   1.992   0.472   7.136 -0.3048  0.3581 -0.1260
 6500SOL     OW31132   0.258   1.717   6.521 -0.0351 -0.4955  1.1097
 6500SOL    HW131133   0.332   1.773   6.498 -1.3889  1.3500  1.2917
 6500SOL    HW231134   0.305   1.635   6.503  3.3147  2.2759 -2.6192
 6501SOL     OW31135   4.017   2.212   9.832 -0.1105  0.6844 -0.2658
 6501SOL    HW131136   3.924   2.219   9.810 -0.1350 -0.1520 -0.3961
 6501SOL    HW231137   4.034   2.286   9.891  0.5845  0.4687 -0.1974
 6502SOL     OW31138   2.752   0.080   2.656  0.3802  0.0295  0.0196
 6502SOL    HW131139   2.686   0.149   2.665  2.1123  1.5340  1.4085
 6502SOL    HW231140   2.703   0.002   2.631 -0.8312  0.3590  1.3487
 6503SOL     OW31141   1.397   1.360   4.189 -0.0649 -0.3184  0.8180
 6503SOL    HW131142   1.457   1.288   4.210 -0.6465 -1.4760 -1.4402
 6503SOL    HW231143   1.440   1.395   4.110 -0.5622 -2.5162 -0.4400
 6504SOL     OW31144   3.992   2.396   6.615 -0.4924 -0.8779 -0.4710
 6504SOL    HW131145   3.954   2.328   6.560 -1.1070 -0.6451 -0.3340
 6504SOL    HW231146   4.077   2.356   6.633 -0.9618  0.0135  3.5711
 6505SOL     OW31147   1.941   3.763   3.426 -0.2594 -0.0681 -0.2488
 6505SOL    HW131148   1.921   3.820   3.500  1.1497 -0.7419  0.6366
 6505SOL    HW231149   1.856   3.719   3.417  0.0408 -0.6441 -0.2430
 6506SOL     OW31150   1.697   1.018   6.010 -0.5167  0.0821  0.0919
 6506SOL    HW131151   1.607   1.050   6.019 -0.2355  0.9549 -0.2470
 6506SOL    HW231152   1.686   0.935   5.962 -0.3795  0.4232 -0.5292
 6507SOL     OW31153   2.947   2.677   0.031 -0.0685 -0.0551  0.3541
 6507SOL    HW131154   2.943   2.765   0.068 -0.1827  0.1000 -0.0315
 6507SOL    HW231155   3.011   2.688  17.702 -1.3264  1.1938 -0.5942
 6508SOL     OW31156   1.841   1.340   3.908  0.0875  0.7290  0.0820
 6508SOL    HW131157   1.907   1.368   3.844  0.3125  1.2202  0.5322
 6508SOL    HW231158   1.897   1.302   3.976 -0.1723 -0.8743 -0.5861
 6509SOL     OW31159   3.047   3.509  11.691 -0.8215 -0.6220 -0.2698
 6509SOL    HW131160   3.008   3.519  11.778  1.7309  0.1594  0.7674
 6509SOL    HW231161   3.047   3.414  11.689 -1.0195 -0.6407  0.6484
 6510SOL     OW31162   0.310   4.578   7.896 -0.1344 -0.3067 -0.0590
 6510SOL    HW131163   0.283   4.497   7.939 -0.2093  0.1750  0.7995
 6510SOL    HW231164   0.390   4.600   7.944 -0.1100  1.9796 -1.1181
 6511SOL     OW31165   3.739   1.305   8.813  0.2007  0.2886 -0.2080
 6511SOL    HW131166   3.767   1.394   8.791  0.8198  0.2910  0.6098
 6511SOL    HW231167   3.820   1.270   8.849 -1.6090 -1.1910  2.4515
 6512SOL     OW31168   0.318   4.401  13.957  0.0689  0.1986  0.2046
 6512SOL    HW131169   0.300   4.370  13.868  2.3997 -1.5099  0.3264
 6512SOL    HW231170   0.354   4.488  13.938 -0.0730  0.4347  1.0115
 6513SOL     OW31171   3.848   4.520   3.035 -0.1396 -0.7044 -0.4431
 6513SOL    HW131172   3.943   4.518   3.046  0.1474 -0.4267 -2.7884
 6513SOL    HW231173   3.823   4.463   2.963 -2.2759  1.8500 -1.7191
 6514SOL     OW31174   1.919   2.505   6.895 -1.0378 -0.2297  0.3802
 6514SOL    HW131175   1.885   2.467   6.814  3.0998 -1.6593 -0.6767
 6514SOL    HW231176   1.987   2.564   6.863  0.8792 -1.8994  1.4103
 6515SOL     OW31177   0.002   1.605   3.012  0.3127  0.3164 -0.2913
 6515SOL    HW131178   0.007   1.638   3.101  2.6690 -1.3982  0.2103
 6515SOL    HW231179   4.674   1.667   2.975 -1.8789 -2.0579 -0.4078
 6516SOL     OW31180   1.844   2.493   4.431 -0.2442  0.4690  0.2535
 6516SOL    HW131181   1.796   2.529   4.505  1.8578  0.2753  1.7156
 6516SOL    HW231182   1.916   2.555   4.439 -0.8363  1.5725 -3.1466
 6517SOL     OW31183   1.073   0.511   4.015  0.3675  0.1466 -0.2429
 6517SOL    HW131184   1.093   0.428   4.058  1.1776  0.8754  0.7945
 6517SOL    HW231185   1.136   0.501   3.943 -0.4648 -0.1441 -0.9226
 6518SOL     OW31186   1.545   2.747   3.963 -0.1551 -0.3443 -0.0211
 6518SOL    HW131187   1.596   2.714   3.889 -0.7558  1.4763 -1.2383
 6518SOL    HW231188   1.456   2.712   3.955  0.0599 -1.3126  1.8984
 6519SOL     OW31189   2.524   3.859   7.333  0.0331 -0.0801  0.1096
 6519SOL    HW131190   2.521   3.766   7.311  3.3518 -0.5188  1.5092
 6519SOL    HW231191   2.607   3.884   7.294 -0.7083  0.0107 -1.4051
 6520SOL     OW31192   4.247   2.840   2.779 -0.1274  0.2356  0.0795
 6520SOL    HW131193   4.165   2.877   2.747 -0.2373 -0.8068 -0.8280
 6520SOL    HW231194   4.304   2.895   2.725  0.9960 -0.8796  0.1233
 6521SOL     OW31195   3.224   1.978  16.219  0.8887  0.5227  0.3775
 6521SOL    HW131196   3.253   2.066  16.243  2.8300  0.5004 -1.7608
 6521SOL    HW231197   3.224   1.981  16.123  1.6218 -0.4441  0.3327
 6522SOL     OW31198   2.954   0.586   1.313  1.0900 -0.4311 -0.2559
 6522SOL    HW131199   2.974   0.563   1.404  0.3578 -0.3453 -0.0659
 6522SOL    HW231200   2.930   0.502   1.275 -1.0345  0.2321 -0.4132
 6523SOL     OW31201   2.463   3.431   2.100 -0.8198 -0.4020 -0.3209
 6523SOL    HW131202   2.490   3.358   2.045  1.8062 -0.7961  1.4803
 6523SOL    HW231203   2.375   3.412   2.132  0.2742 -3.0188  1.1199
 6524SOL     OW31204   3.544   3.999   1.398 -0.3411  0.5694 -0.5453
 6524SOL    HW131205   3.589   3.981   1.481 -0.5080  0.0669 -0.5668
 6524SOL    HW231206   3.456   3.971   1.420  0.3905 -1.5467 -0.3662
 6525SOL     OW31207   4.589   2.927   2.782 -0.0335  0.1367  0.3325
 6525SOL    HW131208   4.593   2.992   2.853 -1.8478  1.1978 -0.5293
 6525SOL    HW231209   4.628   2.852   2.826  1.4498  1.0497  0.5902
 6526SOL     OW31210   4.429   1.208   5.892  0.0949 -0.5178 -0.5037
 6526SOL    HW131211   4.425   1.185   5.984 -0.0986 -0.0514 -0.3940
 6526SOL    HW231212   4.489   1.146   5.851 -0.2409 -1.5043  0.5251
 6527SOL     OW31213   2.957   3.302   5.747 -0.3701  0.4794 -0.0666
 6527SOL    HW131214   2.868   3.334   5.734 -0.8940 -0.9249  0.0881
 6527SOL    HW231215   3.001   3.385   5.733  1.0922  0.0844  2.1236
 6528SOL     OW31216   4.337   1.847   2.270  0.6355 -0.5835 -0.5490
 6528SOL    HW131217   4.284   1.855   2.191 -1.2345  0.5815  0.8113
 6528SOL    HW231218   4.283   1.899   2.330  1.2917 -1.6172  0.9274
 6529SOL     OW31219   4.312   2.782   6.921 -0.6517  0.8700 -0.3905
 6529SOL    HW131220   4.258   2.803   6.998 -1.2427  1.1565 -0.8826
 6529SOL    HW231221   4.345   2.697   6.951 -0.2659  1.0978 -0.1808
 6530SOL     OW31222   3.188   0.298  11.501  0.1004 -0.2807  0.5773
 6530SOL    HW131223   3.212   0.251  11.581  2.3128  0.1967  0.1916
 6530SOL    HW231224   3.147   0.232  11.446 -0.0034 -1.2495  1.8123
 6531SOL     OW31225   3.200   2.640  10.208  0.0597 -0.3920  0.1005
 6531SOL    HW131226   3.271   2.635  10.143  0.0875  2.0895 -0.0846
 6531SOL    HW231227   3.124   2.661  10.154  1.6817 -0.5931 -2.2341
 6532SOL     OW31228   4.188   1.402   7.604  0.5025  0.3279 -0.1933
 6532SOL    HW131229   4.283   1.389   7.598  0.5792  1.8613 -1.9243
 6532SOL    HW231230   4.158   1.319   7.566  1.1743 -0.4109  0.8766
 6533SOL     OW31231   2.381   1.400   2.294  0.4454  0.5214 -0.5835
 6533SOL    HW131232   2.319   1.358   2.234  1.4291 -1.3196 -0.3168
 6533SOL    HW231233   2.459   1.353   2.264 -0.1876 -0.9788  0.0842
 6534SOL     OW31234   0.860   3.194  16.447 -0.2450 -0.3962 -0.2011
 6534SOL    HW131235   0.851   3.221  16.538 -1.2893  1.0013 -0.7385
 6534SOL    HW231236   0.829   3.274  16.405  1.5862  0.9291  0.9523
 6535SOL     OW31237   4.564   4.123  15.985 -0.2559 -0.1594 -0.4919
 6535SOL    HW131238   4.643   4.144  16.036 -1.2683  3.1289 -0.3130
 6535SOL    HW231239   4.508   4.131  16.062 -0.1050 -1.8277 -0.2013
 6536SOL     OW31240   1.906   1.644   7.673  0.1712  0.3888 -0.0801
 6536SOL    HW131241   1.878   1.729   7.707  0.8426  0.2312  0.8662
 6536SOL    HW231242   1.833   1.636   7.612  1.0971 -3.1396 -0.7209
 6537SOL     OW31243   2.886   0.320  13.820  0.0057  0.4909  0.2551
 6537SOL    HW131244   2.962   0.274  13.785  0.5253  1.5617  0.0105
 6537SOL    HW231245   2.826   0.254  13.785 -0.2500  0.3737  0.9080
 6538SOL     OW31246   1.266   3.891  15.816 -0.2680 -0.4883 -0.2260
 6538SOL    HW131247   1.322   3.957  15.774  0.7353 -0.6538  0.8292
 6538SOL    HW231248   1.286   3.827  15.749 -0.4905  1.7022 -2.3728
 6539SOL     OW31249   2.454   3.337  14.327 -0.0328 -0.2180 -0.2545
 6539SOL    HW131250   2.455   3.326  14.422  0.5512 -0.2418 -0.2658
 6539SOL    HW231251   2.458   3.248  14.293 -0.1016 -0.0278 -0.7747
 6540SOL     OW31252   3.681   1.790   8.852 -0.0070  0.1623  0.5058
 6540SOL    HW131253   3.725   1.772   8.935 -0.6408  0.1498  0.8374
 6540SOL    HW231254   3.720   1.721   8.799  0.0649  1.1718 -0.7537
 6541SOL     OW31255   2.373   3.325   8.436 -0.2649 -0.4519  0.3213
 6541SOL    HW131256   2.355   3.260   8.368  0.6614 -1.2621  0.8497
 6541SOL    HW231257   2.297   3.383   8.427 -0.0351  0.1691  2.2972
 6542SOL     OW31258   3.583   0.488   9.100  0.2870 -0.2522 -0.1794
 6542SOL    HW131259   3.616   0.562   9.152 -2.1761  0.2872  0.6415
 6542SOL    HW231260   3.495   0.478   9.137 -0.3653 -0.8505 -1.8954
 6543SOL     OW31261   1.128   2.637   7.960 -0.2564 -0.1417 -0.1296
 6543SOL    HW131262   1.197   2.699   7.983  1.4286 -1.7895 -0.7369
 6543SOL    HW231263   1.145   2.575   8.032 -2.4346 -0.2757  0.2705
 6544SOL     OW31264   2.165   1.256   2.600  0.2008 -1.1469  0.3916
 6544SOL    HW131265   2.242   1.273   2.654 -0.1109 -1.9568  1.0907
 6544SOL    HW231266   2.191   1.173   2.558 -1.3715 -1.2564 -0.3661
 6545SOL     OW31267   1.134   4.470  14.539 -0.3368  0.1529  0.0056
 6545SOL    HW131268   1.228   4.484  14.529 -0.0643 -2.0546 -0.5408
 6545SOL    HW231269   1.141   4.386  14.584 -2.4243 -0.5918 -1.0495
 6546SOL     OW31270   0.178   3.474  15.391 -0.0010 -0.4410 -0.2184
 6546SOL    HW131271   0.271   3.489  15.411 -0.4272  1.4787  0.2550
 6546SOL    HW231272   0.166   3.546  15.329 -1.7211 -1.4925 -1.0891
 6547SOL     OW31273   3.282   1.680   7.682  0.0134  0.2957  0.4614
 6547SOL    HW131274   3.193   1.694   7.712 -0.4039  0.2337 -0.7553
 6547SOL    HW231275   3.268   1.597   7.635 -0.2327  0.1632  0.7747
 6548SOL     OW31276   1.400   2.790  10.062  0.2139 -0.1739  1.0116
 6548SOL    HW131277   1.389   2.884  10.076  0.7101  0.2448 -1.3367
 6548SOL    HW231278   1.449   2.778   9.980 -1.4216 -0.7911  0.1205
 6549SOL     OW31279   2.229   2.807   5.428 -0.0202  0.0289  0.8995
 6549SOL    HW131280   2.279   2.778   5.504 -0.2761  1.8527  1.7550
 6549SOL    HW231281   2.180   2.731   5.398  0.0977 -0.5915  2.2942
 6550SOL     OW31282   1.107   1.507   1.020 -0.5586 -0.0645 -0.0379
 6550SOL    HW131283   1.135   1.421   0.990  3.2024  1.2853 -0.4205
 6550SOL    HW231284   1.180   1.567   1.004 -0.3554  0.0767  1.4119
 6551SOL     OW31285   1.726   2.477   8.123 -0.4116 -0.0760 -0.0602
 6551SOL    HW131286   1.649   2.441   8.166 -2.0625  1.7636 -1.5191
 6551SOL    HW231287   1.795   2.467   8.188  0.2402  1.5443 -0.5136
 6552SOL     OW31288   0.120   3.406   8.343 -0.2034  0.6848  0.6331
 6552SOL    HW131289   0.043   3.351   8.324  2.0222 -1.8311 -1.0967
 6552SOL    HW231290   0.164   3.350   8.407  0.3637 -1.9496 -2.0863
 6553SOL     OW31291   1.325   1.163  11.475 -0.0044  0.0445  0.2279
 6553SOL    HW131292   1.255   1.108  11.511 -0.8644 -0.5941 -2.4237
 6553SOL    HW231293   1.370   1.103  11.416 -1.7133 -1.5051  0.5005
 6554SOL     OW31294   1.054   0.837   7.049  0.5078 -0.0864  0.1267
 6554SOL    HW131295   1.132   0.894   7.049  0.6618 -0.2914  1.1462
 6554SOL    HW231296   1.070   0.802   6.962  1.6278  1.1547 -0.1722
 6555SOL     OW31297   4.535   3.567  13.065 -0.0131 -0.5364  0.1794
 6555SOL    HW131298   4.465   3.543  13.125  0.6676  0.1259  1.2665
 6555SOL    HW231299   4.481   3.604  12.996 -1.2819 -0.4064  1.2558
 6556SOL     OW31300   1.192   3.025  13.720 -0.1046  0.6089 -0.0879
 6556SOL    HW131301   1.283   3.055  13.727 -0.1784  0.3756  1.7433
 6556SOL    HW231302   1.180   3.005  13.813  0.4600 -0.3500 -0.2241
 6557SOL     OW31303   1.683   3.070   8.021  0.6063 -0.5315  0.4270
 6557SOL    HW131304   1.673   3.121   7.940 -0.5609  2.1923  2.3119
 6557SOL    HW231305   1.682   3.133   8.093  1.4514 -0.0177 -0.0001
 6558SOL     OW31306   4.690   3.109   7.313 -0.1777  0.3677 -0.0765
 6558SOL    HW131307   4.630   3.128   7.242  0.1676  1.2320 -0.1456
 6558SOL    HW231308   4.675   3.015   7.320 -0.2705  0.3809 -0.1098
 6559SOL     OW31309   1.791   3.560  12.697  0.2281 -0.3156 -0.1714
 6559SOL    HW131310   1.713   3.516  12.664  0.0043  1.0522 -1.4684
 6559SOL    HW231311   1.852   3.548  12.624 -1.1770  1.4359 -1.6424
 6560SOL     OW31312   0.054   0.773  11.179  0.4366  0.2654  0.2159
 6560SOL    HW131313   0.026   0.682  11.183 -1.9146  0.8708 -2.3726
 6560SOL    HW231314   0.005   0.801  11.102 -0.3008  0.5610  0.7919
 6561SOL     OW31315   3.074   1.843   3.633 -0.0361 -0.7457 -0.2569
 6561SOL    HW131316   3.078   1.836   3.729 -0.0637  0.8109 -0.1406
 6561SOL    HW231317   3.022   1.763   3.624  2.3433 -2.2256 -1.0921
 6562SOL     OW31318   3.176   3.485   2.335  0.3813  0.2456 -0.5591
 6562SOL    HW131319   3.134   3.567   2.360 -0.7142 -0.8566  1.1672
 6562SOL    HW231320   3.101   3.428   2.317 -0.2101  0.7505  0.3091
 6563SOL     OW31321   2.541   1.996   2.032  0.4734  0.3031 -0.2040
 6563SOL    HW131322   2.493   2.079   2.041 -1.1780 -0.5400 -1.1344
 6563SOL    HW231323   2.623   2.031   1.999 -0.3855  2.3594 -0.1779
 6564SOL     OW31324   0.880   1.739   4.936  0.2862  0.0606  0.0383
 6564SOL    HW131325   0.868   1.774   4.847 -0.7221 -1.1785 -0.3085
 6564SOL    HW231326   0.858   1.813   4.993  1.2456  0.1465  0.2968
 6565SOL     OW31327   0.605   2.922  12.080 -0.0090  0.1202  0.4827
 6565SOL    HW131328   0.630   2.943  11.990  2.1954  1.7366  1.4739
 6565SOL    HW231329   0.639   3.000  12.125 -1.7444  0.4075  1.3387
 6566SOL     OW31330   1.682   2.074   8.593 -0.2958 -0.0961 -0.5910
 6566SOL    HW131331   1.737   2.000   8.621  1.5840  1.4777 -0.1801
 6566SOL    HW231332   1.753   2.134   8.572  1.7009 -1.6190  1.8224
 6567SOL     OW31333   0.297   0.578   7.318 -0.4137 -0.0201  0.0965
 6567SOL    HW131334   0.270   0.661   7.357 -1.0542  0.3153 -1.0420
 6567SOL    HW231335   0.388   0.573   7.347  0.0366 -1.5269 -1.5068
 6568SOL     OW31336   1.166   1.137   5.729  0.5678  0.0804 -0.3722
 6568SOL    HW131337   1.177   1.053   5.772 -2.6057 -0.4356 -0.5542
 6568SOL    HW231338   1.075   1.154   5.756 -0.1268 -4.7467  0.1803
 6569SOL     OW31339   1.211   4.133   8.292 -0.0422  0.0631 -0.4740
 6569SOL    HW131340   1.209   4.042   8.321  0.0434  0.7569  1.6925
 6569SOL    HW231341   1.119   4.159   8.286  0.2686  0.7361 -2.4236
 6570SOL     OW31342   4.145   0.422  13.992  0.0806  0.1922  0.1416
 6570SOL    HW131343   4.152   0.329  14.012 -1.3644  0.3597  1.4067
 6570SOL    HW231344   4.124   0.458  14.078  1.4718 -0.4542  0.7581
 6571SOL     OW31345   2.554   2.033   6.165  0.0669  0.1293 -0.4377
 6571SOL    HW131346   2.485   2.018   6.230  0.4187 -0.1332 -0.1245
 6571SOL    HW231347   2.513   1.984   6.093 -2.5718  0.1202  1.0854
 6572SOL     OW31348   4.165   4.706  17.258  0.3768 -0.3204 -0.0524
 6572SOL    HW131349   4.125   4.729  17.174  0.7042  1.4231  0.2641
 6572SOL    HW231350   4.095   4.727  17.320  0.5781 -1.0219  0.4146
 6573SOL     OW31351   0.830   3.874   4.321 -0.2885  0.1781  0.9675
 6573SOL    HW131352   0.793   3.874   4.232  0.8483  0.1674  0.4929
 6573SOL    HW231353   0.802   3.960   4.353 -0.8047  0.8282 -1.2188
 6574SOL     OW31354   0.415   0.342   1.477 -0.7249  0.0556  0.0235
 6574SOL    HW131355   0.401   0.375   1.388 -0.9694  0.1123  0.0840
 6574SOL    HW231356   0.472   0.267   1.456  0.9594  1.4158 -0.2704
 6575SOL     OW31357   3.384   1.672   8.498  0.2413 -0.1311  0.2394
 6575SOL    HW131358   3.454   1.722   8.456  1.1184  0.0230  1.9192
 6575SOL    HW231359   3.380   1.594   8.442  0.5329 -0.2071  0.3236
 6576SOL     OW31360   0.320   3.873   6.545 -0.3826 -0.5211 -0.3503
 6576SOL    HW131361   0.404   3.882   6.499 -0.3802  0.1989 -0.1983
 6576SOL    HW231362   0.277   3.826   6.473  1.1755 -1.5085 -0.6441
 6577SOL     OW31363   3.514   0.213   9.528  0.2527  0.0221  0.5673
 6577SOL    HW131364   3.519   0.133   9.580  0.8221 -0.9314 -0.9529
 6577SOL    HW231365   3.466   0.276   9.581  0.9803  2.2912 -1.4395
 6578SOL     OW31366   0.590   1.595  15.916 -0.2314  0.0703 -0.8311
 6578SOL    HW131367   0.601   1.686  15.945 -0.4091  0.5207 -2.1892
 6578SOL    HW231368   0.682   1.589  15.889  0.3868 -3.5027  1.9968
 6579SOL     OW31369   3.757   3.143   1.599  0.2574 -0.1626  0.3985
 6579SOL    HW131370   3.801   3.063   1.628  0.7166  0.3397  1.1005
 6579SOL    HW231371   3.683   3.105   1.552  0.2528  1.5435 -0.9784
 6580SOL     OW31372   0.058   3.603   4.661 -0.1627 -0.1970  0.0281
 6580SOL    HW131373   0.092   3.552   4.588  0.8747 -0.4855  0.7087
 6580SOL    HW231374   4.721   3.650   4.620 -0.8551 -1.0182  0.3256
 6581SOL     OW31375   4.128   0.036   5.995 -0.6359  0.0352 -0.2876
 6581SOL    HW131376   4.044   0.071   6.025 -0.4797  0.9155 -0.8724
 6581SOL    HW231377   4.147   4.694   6.048 -0.5094 -0.5536 -1.1915
 6582SOL     OW31378   1.025   4.619  16.884 -0.0900 -0.4728 -0.8613
 6582SOL    HW131379   1.013   4.524  16.885 -3.3050 -0.0783 -1.5125
 6582SOL    HW231380   0.989   4.637  16.797 -2.1525 -1.8452 -0.3112
 6583SOL     OW31381   3.996   1.234   1.823 -0.1402 -0.0445  0.0188
 6583SOL    HW131382   3.957   1.282   1.749  1.3673  1.5870  0.2966
 6583SOL    HW231383   3.915   1.196   1.858  0.4764  0.3604  1.8412
 6584SOL     OW31384   1.353   0.629   4.868  0.7784  0.0834 -0.2064
 6584SOL    HW131385   1.372   0.652   4.777  0.7736 -0.7390 -0.4134
 6584SOL    HW231386   1.327   0.715   4.901 -0.2440 -0.3717  0.1487
 6585SOL     OW31387   0.111   1.649   3.275  0.1719  0.2798 -0.0450
 6585SOL    HW131388   0.050   1.709   3.318 -0.4990  0.4307 -1.2166
 6585SOL    HW231389   0.075   1.569   3.312 -0.3621  0.5674  0.0493
 6586SOL     OW31390   2.519   1.334   9.844  0.2021 -0.1214 -0.5538
 6586SOL    HW131391   2.509   1.247   9.807  0.9768 -0.5334  0.1814
 6586SOL    HW231392   2.522   1.387   9.765 -2.9547 -2.1030 -1.9660
 6587SOL     OW31393   1.513   2.420   9.830  0.6458  0.4736 -0.3625
 6587SOL    HW131394   1.428   2.392   9.863  0.6256  0.3736 -0.4983
 6587SOL    HW231395   1.491   2.482   9.760  3.4586  0.0482 -1.6494
 6588SOL     OW31396   2.428   0.834   6.348 -0.1746  0.1317 -0.1226
 6588SOL    HW131397   2.387   0.915   6.318  1.1551  0.8516 -0.0070
 6588SOL    HW231398   2.353   0.809   6.402 -0.1335  3.2235  1.3986
 6589SOL     OW31399   1.553   1.945   5.943 -0.2388 -0.2818  0.5206
 6589SOL    HW131400   1.542   1.882   5.872  1.4171  0.7043 -0.6087
 6589SOL    HW231401   1.609   1.893   6.002 -0.4528 -1.2501 -0.1366
 6590SOL     OW31402   2.207   0.811   2.333  0.8050 -0.3382 -0.0315
 6590SOL    HW131403   2.265   0.748   2.290  1.9872  1.3937 -0.9527
 6590SOL    HW231404   2.148   0.747   2.374  1.2920 -1.3130 -0.8568
 6591SOL     OW31405   3.104   2.694   6.568  0.0167  0.2330  0.9491
 6591SOL    HW131406   3.053   2.688   6.648 -1.1923 -0.9982  0.0952
 6591SOL    HW231407   3.194   2.676   6.597  0.0697 -0.1794  0.5309
 6592SOL     OW31408   1.612   4.323  16.362  0.7505 -0.5396 -0.8669
 6592SOL    HW131409   1.586   4.397  16.416  0.2554  1.1172 -3.3949
 6592SOL    HW231410   1.702   4.313  16.395  0.5187 -0.2790 -0.1586
 6593SOL     OW31411   1.006   0.507   2.018  0.4948  0.1463 -0.3098
 6593SOL    HW131412   0.922   0.552   2.023 -0.6654 -1.9696 -0.3785
 6593SOL    HW231413   0.983   0.426   2.063 -1.7145  0.0517 -1.6281
 6594SOL     OW31414   1.850   0.975   4.982 -0.4110 -0.2828  0.1656
 6594SOL    HW131415   1.791   0.946   4.911 -0.0932  0.0752 -0.2415
 6594SOL    HW231416   1.826   0.908   5.046 -0.5750 -0.6846 -0.3084
 6595SOL     OW31417   4.290   4.177  16.542 -0.0741  0.2227 -0.3918
 6595SOL    HW131418   4.375   4.176  16.585 -0.1067 -1.3655 -0.3583
 6595SOL    HW231419   4.243   4.247  16.586  0.4376  0.1502  0.2636
 6596SOL     OW31420   0.433   3.281   1.069  0.2962  0.1701 -0.3920
 6596SOL    HW131421   0.354   3.335   1.070  0.4963  0.4618 -1.6932
 6596SOL    HW231422   0.406   3.205   1.017  0.0954  0.5235 -0.7998
 6597SOL     OW31423   0.994   2.053   3.316 -0.4102 -0.6696  0.2180
 6597SOL    HW131424   0.978   1.988   3.384 -1.2680 -1.9671 -1.2188
 6597SOL    HW231425   0.946   2.014   3.243 -0.3491 -1.8975  0.8322
 6598SOL     OW31426   2.473   4.093   3.879  0.1441 -0.1430 -0.2603
 6598SOL    HW131427   2.539   4.024   3.875 -0.5090 -0.7453 -0.5770
 6598SOL    HW231428   2.393   4.042   3.896 -0.9453  1.2569 -1.1263
 6599SOL     OW31429   1.154   3.592   2.675 -1.0721 -0.2773  0.4144
 6599SOL    HW131430   1.220   3.662   2.678  0.2422 -1.5311  0.5530
 6599SOL    HW231431   1.146   3.580   2.769 -2.2242  1.2895  0.5127
 6600SOL     OW31432   4.625   3.686   5.288 -0.4339 -0.3278 -0.5787
 6600SOL    HW131433   4.569   3.618   5.325  0.3538 -1.2725 -1.1140
 6600SOL    HW231434   4.642   3.636   5.208 -1.3907 -1.1578 -0.2572
 6601SOL     OW31435   0.545   3.361   7.410 -0.0154 -0.3709 -0.4998
 6601SOL    HW131436   0.473   3.416   7.439 -0.5307 -1.7759  0.8943
 6601SOL    HW231437   0.557   3.311   7.491  1.4593  0.6408 -0.1046
 6602SOL     OW31438   2.591   4.724  16.638  0.2904  0.2779  0.1822
 6602SOL    HW131439   2.661   4.658  16.643 -1.0641 -1.2013 -0.4717
 6602SOL    HW231440   2.616   0.028  16.722  0.6107 -1.5851  0.9668
 6603SOL     OW31441   3.475   3.500   7.000  0.1558 -0.3266 -0.0811
 6603SOL    HW131442   3.440   3.588   6.984 -0.7212 -0.3609  1.6921
 6603SOL    HW231443   3.559   3.498   6.954 -0.1905 -1.1970 -0.6679
 6604SOL     OW31444   0.981   3.127   0.603 -0.0086 -0.0365 -0.4628
 6604SOL    HW131445   0.924   3.066   0.556 -1.4735  0.9427  0.0230
 6604SOL    HW231446   1.063   3.083   0.581  0.8131  0.6539  1.2130
 6605SOL     OW31447   3.946   4.299   9.766  0.2405 -0.2618 -0.7509
 6605SOL    HW131448   3.983   4.351   9.837 -0.6626  0.3949 -0.7760
 6605SOL    HW231449   3.906   4.242   9.832  0.9135  0.9981  0.7537
 6606SOL     OW31450   2.853   2.366   1.231  0.1069  0.3043 -0.5922
 6606SOL    HW131451   2.934   2.382   1.280  1.8775 -0.1130 -3.3707
 6606SOL    HW231452   2.786   2.351   1.298  1.1762 -1.8197  0.0178
 6607SOL     OW31453   1.463   3.089  10.636  0.1660 -0.1508 -0.1657
 6607SOL    HW131454   1.541   3.130  10.599  0.1800 -1.6352 -1.7340
 6607SOL    HW231455   1.473   3.002  10.600  1.2009 -0.8782  1.8727
 6608SOL     OW31456   0.085   2.082   7.258 -0.6215  0.1459  0.9171
 6608SOL    HW131457   0.121   2.088   7.170 -0.5591 -0.6593  0.8872
 6608SOL    HW231458   0.004   2.036   7.239  0.0711  0.0228 -1.7698
 6609SOL     OW31459   2.242   2.078  11.531 -0.2128 -0.3071  0.1667
 6609SOL    HW131460   2.265   2.007  11.472 -0.5688  0.7218 -1.2119
 6609SOL    HW231461   2.160   2.038  11.561  0.8129 -2.3911  0.1560
 6610SOL     OW31462   0.773   2.430   8.840  0.9709  0.7960 -0.3583
 6610SOL    HW131463   0.737   2.375   8.770 -1.7060  1.7001  0.2918
 6610SOL    HW231464   0.868   2.417   8.841  0.4464 -3.0390 -0.3356
 6611SOL     OW31465   3.997   4.309   5.155 -0.7225  0.0238  0.3472
 6611SOL    HW131466   4.092   4.320   5.168 -0.4893 -1.2928 -0.2393
 6611SOL    HW231467   3.983   4.324   5.062 -0.7144  0.6551  0.4455
 6612SOL     OW31468   0.312   4.349   2.712 -0.3589 -0.5550 -0.3074
 6612SOL    HW131469   0.367   4.295   2.770 -0.0072  0.2779  0.1275
 6612SOL    HW231470   0.332   4.434   2.752  0.2631  0.2123 -2.2603
 6613SOL     OW31471   1.586   2.421  14.199 -0.0162 -0.0735 -0.0720
 6613SOL    HW131472   1.565   2.452  14.111 -4.0200 -1.7185  0.3022
 6613SOL    HW231473   1.510   2.363  14.199 -0.8171  0.9883 -2.9542
 6614SOL     OW31474   3.760   3.081   5.412 -0.3342  0.3318  0.3497
 6614SOL    HW131475   3.819   3.021   5.458  0.8358 -0.1196 -1.7069
 6614SOL    HW231476   3.817   3.111   5.341  2.2007 -1.5399  1.5914
 6615SOL     OW31477   1.177   1.846   0.828  0.0778 -0.2939 -0.1534
 6615SOL    HW131478   1.090   1.809   0.812 -0.2637  0.4181  0.0585
 6615SOL    HW231479   1.138   1.931   0.847  0.1766 -0.1519 -0.6049
 6616SOL     OW31480   0.599   2.280   3.886 -0.0682  0.3844  0.1952
 6616SOL    HW131481   0.650   2.341   3.832  0.1954 -0.3366 -0.3845
 6616SOL    HW231482   0.576   2.213   3.821 -1.9419  0.4889  0.7544
 6617SOL     OW31483   3.942   1.113   6.417  0.1899 -0.2896  0.3145
 6617SOL    HW131484   4.035   1.091   6.416  0.6138  1.4802  1.7062
 6617SOL    HW231485   3.909   1.034   6.461  2.7339 -2.0056 -0.9145
 6618SOL     OW31486   3.630   1.728  15.277 -0.3752 -0.1118 -0.2775
 6618SOL    HW131487   3.643   1.823  15.289 -0.2759 -0.1379 -0.1759
 6618SOL    HW231488   3.601   1.744  15.187  1.0964 -1.1697 -0.9341
 6619SOL     OW31489   1.238   1.336   6.554 -0.2096 -0.3447  0.1636
 6619SOL    HW131490   1.187   1.344   6.473  0.0581  3.3109  0.3921
 6619SOL    HW231491   1.329   1.356   6.530 -1.1719  3.5452 -0.2818
 6620SOL     OW31492   3.641   4.406   6.318 -0.3044  0.0207 -0.0415
 6620SOL    HW131493   3.666   4.375   6.405  0.3423  0.1655 -0.1816
 6620SOL    HW231494   3.577   4.336   6.299 -1.8392  0.4168  3.5472
 6621SOL     OW31495   1.444   3.664   3.786  0.3517 -0.3328  0.2401
 6621SOL    HW131496   1.450   3.582   3.737 -1.3118  0.9975 -2.1532
 6621SOL    HW231497   1.400   3.645   3.869  0.1906  1.3596  0.5473
 6622SOL     OW31498   4.188   1.047   1.844  0.0997 -0.8138  0.0167
 6622SOL    HW131499   4.124   1.118   1.840  0.4633 -0.4068  1.5363
 6622SOL    HW231500   4.235   1.053   1.761 -1.2380  1.3526 -0.5794
 6623SOL     OW31501   3.653   2.062   3.452  0.3024  0.5142  0.1175
 6623SOL    HW131502   3.734   2.030   3.412 -0.0618 -2.2611  1.5660
 6623SOL    HW231503   3.633   1.996   3.519 -0.7417  0.8970  0.1819
 6624SOL     OW31504   0.943   3.080   8.541  0.0796  0.2987 -0.3342
 6624SOL    HW131505   0.855   3.054   8.513  0.5862 -1.1739 -0.5120
 6624SOL    HW231506   0.981   3.001   8.580  0.4405  0.7310  0.1955
 6625SOL     OW31507   0.416   0.910   7.448 -0.2702 -0.4919  0.4471
 6625SOL    HW131508   0.322   0.891   7.443 -0.1332 -1.1666  0.3363
 6625SOL    HW231509   0.455   0.841   7.503 -0.0568  0.6569  1.7215
 6626SOL     OW31510   4.193   4.397  16.648 -0.4148  0.3620  0.3269
 6626SOL    HW131511   4.117   4.414  16.704 -0.3828 -0.2219  0.5565
 6626SOL    HW231512   4.259   4.435  16.706 -0.2310 -1.1775  1.1402
 6627SOL     OW31513   4.280   2.975  11.456 -0.2563 -0.2329 -0.1551
 6627SOL    HW131514   4.353   3.026  11.421 -0.0835 -1.8038 -2.0924
 6627SOL    HW231515   4.208   3.028  11.423 -1.1114 -0.8329  0.7350
 6628SOL     OW31516   1.988   0.926   8.534  0.4383  1.0628 -0.7723
 6628SOL    HW131517   2.027   1.013   8.532  0.8111  0.9997  3.2955
 6628SOL    HW231518   1.946   0.923   8.448 -0.6195 -1.1819 -0.1890
 6629SOL     OW31519   4.171   2.728   8.257 -0.7582 -0.2545  0.3747
 6629SOL    HW131520   4.201   2.770   8.176 -3.8892 -1.2940 -1.3221
 6629SOL    HW231521   4.107   2.663   8.229  1.5145 -1.7506 -1.3886
 6630SOL     OW31522   1.457   1.359   6.840 -0.0973  0.3015 -0.0864
 6630SOL    HW131523   1.436   1.266   6.847 -0.4380  0.2635 -1.6197
 6630SOL    HW231524   1.395   1.393   6.904 -1.1268 -1.6697 -0.0546
 6631SOL     OW31525   0.294   4.308   9.187 -0.9576 -0.3418  0.1481
 6631SOL    HW131526   0.238   4.232   9.206 -2.7663  0.7373 -0.8929
 6631SOL    HW231527   0.380   4.268   9.176  0.3279  2.2711  0.6271
 6632SOL     OW31528   4.300   1.044  14.750  0.4284  0.2578  0.6047
 6632SOL    HW131529   4.386   1.083  14.764 -0.4049  2.9368 -1.8742
 6632SOL    HW231530   4.264   1.045  14.838  0.2935 -1.2621  0.5695
 6633SOL     OW31531   3.185   3.132  16.601  0.8567  0.2248  0.3620
 6633SOL    HW131532   3.135   3.213  16.608  0.1856 -0.1227 -0.5394
 6633SOL    HW231533   3.268   3.158  16.560  0.6546  0.1952 -0.0643
 6634SOL     OW31534   1.914   2.868  13.353 -0.0934 -0.0099  0.1672
 6634SOL    HW131535   1.988   2.842  13.299  0.5496 -0.0067  1.0430
 6634SOL    HW231536   1.927   2.963  13.357 -0.6817  0.1164 -1.1972
 6635SOL     OW31537   4.702   2.682  11.180  0.0215  0.3920 -0.1818
 6635SOL    HW131538   4.674   2.631  11.103  0.3464 -0.3639  0.2037
 6635SOL    HW231539   0.060   2.699  11.168  0.4383 -0.7974  1.3925
 6636SOL     OW31540   4.344   3.626   5.363  0.6942  0.3767 -0.0750
 6636SOL    HW131541   4.313   3.710   5.395 -0.3185  0.8975 -2.4390
 6636SOL    HW231542   4.386   3.606   5.447  1.4579 -1.0669 -0.7924
 6637SOL     OW31543   0.895   4.556  15.624 -0.5533 -0.1672  0.1716
 6637SOL    HW131544   0.982   4.517  15.619 -1.0296 -1.0870 -0.9901
 6637SOL    HW231545   0.880   4.557  15.529  2.1486 -1.4195 -0.2568
 6638SOL     OW31546   4.272   0.587   4.936 -0.1881 -0.3472  0.1586
 6638SOL    HW131547   4.182   0.564   4.960 -0.2805  0.3189  0.4576
 6638SOL    HW231548   4.286   0.517   4.872  3.4379  0.4186  0.1108
 6639SOL     OW31549   4.322   4.162   6.279  0.2680 -0.5822  1.1044
 6639SOL    HW131550   4.246   4.154   6.337 -0.2360 -2.3764  0.1999
 6639SOL    HW231551   4.369   4.085   6.309 -1.2194 -0.9953  2.3499
 6640SOL     OW31552   3.768   3.023   4.118  0.5340  0.3893  0.4792
 6640SOL    HW131553   3.677   3.000   4.135 -0.4161  4.9963  1.7180
 6640SOL    HW231554   3.775   3.092   4.185  2.5757 -1.8981  2.6080
 6641SOL     OW31555   3.921   1.837  12.059 -0.4442 -0.2778  0.0466
 6641SOL    HW131556   3.893   1.910  12.113  2.0522 -1.0821  2.4204
 6641SOL    HW231557   3.846   1.839  11.999 -0.0811  1.4734 -0.3476
 6642SOL     OW31558   0.192   1.056   6.776 -0.4160  0.5145 -0.3169
 6642SOL    HW131559   0.170   1.070   6.868 -0.7775  2.0773 -0.6439
 6642SOL    HW231560   0.127   1.116   6.737 -0.8147  1.2040  1.4257
 6643SOL     OW31561   2.298   2.399   4.402  0.1253  0.0682 -0.0341
 6643SOL    HW131562   2.349   2.478   4.419 -2.3746  1.7873 -0.5075
 6643SOL    HW231563   2.363   2.334   4.376 -0.7337 -1.1681  0.9408
 6644SOL     OW31564   3.171   1.239   6.350  0.2334  0.1209 -0.7250
 6644SOL    HW131565   3.176   1.250   6.445 -0.4741 -1.9372 -0.4473
 6644SOL    HW231566   3.258   1.267   6.321  0.0550  1.2098 -0.1677
 6645SOL     OW31567   0.044   2.141   5.219  0.2018  0.1293  0.2505
 6645SOL    HW131568   0.092   2.069   5.179  0.2585 -0.2591  1.0241
 6645SOL    HW231569   4.708   2.151   5.157  0.6869  0.6470 -0.2392
 6646SOL     OW31570   3.567   3.036   6.241 -0.5374 -0.3617 -0.3142
 6646SOL    HW131571   3.486   2.988   6.260  0.2359 -1.8444 -0.7959
 6646SOL    HW231572   3.588   2.989   6.160  2.4173  2.3035 -1.0746
 6647SOL     OW31573   0.139   3.789   4.027 -0.6082 -0.4653  0.4979
 6647SOL    HW131574   0.221   3.752   4.061  0.0206  0.3471 -0.1310
 6647SOL    HW231575   0.069   3.728   4.051  0.2345 -0.6112  2.5250
 6648SOL     OW31576   2.199   4.638   6.420  0.3052 -0.0038 -0.2171
 6648SOL    HW131577   2.258   4.669   6.489  0.0186 -0.6767  0.3313
 6648SOL    HW231578   2.240   4.558   6.388 -1.2560 -1.0933  0.5193
 6649SOL     OW31579   1.948   1.684   2.670  0.5022 -0.0507 -0.2181
 6649SOL    HW131580   2.001   1.761   2.651  1.8565 -1.0085 -0.2760
 6649SOL    HW231581   1.959   1.641   2.585 -2.0666 -0.8709 -0.1398
 6650SOL     OW31582   2.421   0.328  10.562 -0.1956 -0.6073  0.3258
 6650SOL    HW131583   2.451   0.298  10.648  0.2274 -0.6231  0.1764
 6650SOL    HW231584   2.335   0.360  10.587 -0.3995  0.3946 -1.7053
 6651SOL     OW31585   4.672   2.162   7.651 -0.3337  0.4840  0.0915
 6651SOL    HW131586   4.652   2.251   7.623 -0.4223  0.5806  0.4638
 6651SOL    HW231587   4.591   2.114   7.635  1.0143 -1.9555  0.5954
 6652SOL     OW31588   2.421   0.037   7.412  0.2285  0.5021  0.1481
 6652SOL    HW131589   2.471   0.069   7.337 -0.5775  0.0250 -0.5813
 6652SOL    HW231590   2.332   0.008   7.390  0.4896 -0.1997  0.0460
 6653SOL     OW31591   3.675   1.972  15.314  0.1175  0.2100  0.6009
 6653SOL    HW131592   3.763   2.010  15.309 -0.0810  0.6307  0.2134
 6653SOL    HW231593   3.641   2.049  15.359 -2.2429  0.0728 -0.9304
 6654SOL     OW31594   4.315   0.447   2.156  0.2135  0.9238 -0.1810
 6654SOL    HW131595   4.234   0.468   2.108  0.8245 -0.0279 -1.6067
 6654SOL    HW231596   4.317   0.536   2.192 -1.0491  0.0970  1.9200
 6655SOL     OW31597   3.392   3.787  12.582 -0.8672  0.0841  0.5534
 6655SOL    HW131598   3.383   3.729  12.506  0.0098 -1.0360  1.3192
 6655SOL    HW231599   3.299   3.790  12.607 -0.7755  0.8930  0.8002
 6656SOL     OW31600   0.826   2.619   1.997  0.0720  0.0708  0.2551
 6656SOL    HW131601   0.899   2.656   2.047  0.0831  3.4929 -2.2612
 6656SOL    HW231602   0.846   2.526   2.010  0.4297  0.1871  0.5289
 6657SOL     OW31603   0.393   1.755   7.070 -0.0194 -0.1957 -0.6526
 6657SOL    HW131604   0.333   1.776   7.141 -3.1028  3.2906 -4.2922
 6657SOL    HW231605   0.346   1.781   6.991 -1.5427  0.7865  0.5740
 6658SOL     OW31606   3.474   1.250  13.958 -0.2841 -0.1039 -0.3854
 6658SOL    HW131607   3.554   1.206  13.988 -0.4092  0.5102  0.8467
 6658SOL    HW231608   3.467   1.305  14.036  0.4496  0.1713 -0.5088
 6659SOL     OW31609   4.208   1.731   1.608 -0.0393  0.2426 -0.2937
 6659SOL    HW131610   4.296   1.726   1.570  0.4899 -2.8109  1.3305
 6659SOL    HW231611   4.218   1.800   1.673 -0.0220  1.0215 -1.1205
 6660SOL     OW31612   0.615   0.750   7.280  0.3995  0.7814  0.0885
 6660SOL    HW131613   0.563   0.829   7.298  0.8847  0.6236  2.2082
 6660SOL    HW231614   0.656   0.767   7.196 -0.8435 -0.9394 -0.8587
 6661SOL     OW31615   0.125   1.697   2.660  0.0714 -0.5624 -0.1582
 6661SOL    HW131616   0.154   1.766   2.719  1.6807 -1.9955  0.7275
 6661SOL    HW231617   0.030   1.701   2.668  0.2214 -3.1595  3.0058
 6662SOL     OW31618   2.663   3.033   6.853  0.2084  0.1707  0.1954
 6662SOL    HW131619   2.681   2.966   6.787  0.3355 -0.3635  0.7705
 6662SOL    HW231620   2.730   3.004   6.915  1.5411  0.4701 -1.1237
 6663SOL     OW31621   1.972   1.870  11.949  0.5763 -0.4842  0.6441
 6663SOL    HW131622   1.976   1.780  11.982 -0.2170 -0.9828 -0.5964
 6663SOL    HW231623   1.910   1.854  11.878  1.4294 -1.0674  0.0407
 6664SOL     OW31624   3.316   2.936   3.882 -0.5727  0.4147  0.0037
 6664SOL    HW131625   3.376   2.869   3.914 -0.9531 -0.1847 -0.5341
 6664SOL    HW231626   3.270   2.875   3.825  1.6004 -2.5337  1.4069
 6665SOL     OW31627   0.053   1.961  10.584 -0.2970  0.0878 -0.2675
 6665SOL    HW131628   0.053   1.991  10.493  0.3843 -0.2167 -0.3677
 6665SOL    HW231629   0.035   1.870  10.558  1.1456 -1.7115  4.9042
 6666SOL     OW31630   1.723   0.812   6.625 -0.1635 -0.3088 -0.0210
 6666SOL    HW131631   1.638   0.830   6.585 -0.5478 -0.7798  0.5762
 6666SOL    HW231632   1.681   0.775   6.703 -0.7258  1.5689  0.5696
 6667SOL     OW31633   2.913   1.155  10.773 -0.0237 -0.7563  0.0147
 6667SOL    HW131634   2.990   1.098  10.764  1.1495  0.6629  1.0756
 6667SOL    HW231635   2.865   1.103  10.837 -1.2101 -0.9403 -1.0326
 6668SOL     OW31636   4.646   0.479   3.557 -1.0100 -0.4523 -0.0319
 6668SOL    HW131637   4.719   0.422   3.532 -0.3676  0.0561  0.6848
 6668SOL    HW231638   4.601   0.423   3.619 -2.3797 -1.9258 -2.3548
 6669SOL     OW31639   2.167   3.755   6.737  0.3803 -0.8894 -0.1297
 6669SOL    HW131640   2.091   3.751   6.678  0.7070  1.1420 -0.7032
 6669SOL    HW231641   2.141   3.691   6.802 -0.5882  2.6980  3.0151
 6670SOL     OW31642   1.372   4.134   1.464  0.7811 -0.2008  0.4019
 6670SOL    HW131643   1.336   4.099   1.546  0.1356 -0.2160  0.1174
 6670SOL    HW231644   1.373   4.061   1.403  2.2926  0.3939 -0.2867
 6671SOL     OW31645   3.400   3.326   5.294 -0.1776  0.2361 -0.3704
 6671SOL    HW131646   3.365   3.304   5.208  1.0583 -0.0844 -0.7808
 6671SOL    HW231647   3.452   3.254   5.328 -0.2190  1.1979  1.7516
 6672SOL     OW31648   4.025   3.786   8.077 -0.1106 -0.1591 -1.1839
 6672SOL    HW131649   4.004   3.712   8.134  1.5065  0.1527 -0.1726
 6672SOL    HW231650   3.938   3.825   8.068  0.1404  1.5011  3.5484
 6673SOL     OW31651   3.828   1.233   4.629  0.4282 -0.1960  0.0547
 6673SOL    HW131652   3.826   1.321   4.665 -2.7868  0.3476 -1.5019
 6673SOL    HW231653   3.839   1.189   4.714  1.6224 -0.6977 -0.3593
 6674SOL     OW31654   1.019   1.159  16.274 -0.4982  0.0832  0.2552
 6674SOL    HW131655   1.020   1.165  16.178  1.7171  0.2857  0.2967
 6674SOL    HW231656   1.092   1.098  16.283 -0.0235  0.4965 -0.7897
 6675SOL     OW31657   1.209   0.419   7.030  0.5513  0.8003  0.2170
 6675SOL    HW131658   1.224   0.430   7.125 -0.2200 -0.7823  0.5069
 6675SOL    HW231659   1.293   0.379   7.006 -1.1636 -2.1747 -0.6839
 6676SOL     OW31660   1.621   0.924   3.734  0.0806 -0.0839 -0.1255
 6676SOL    HW131661   1.689   0.864   3.763  1.3331  0.4386 -1.9504
 6676SOL    HW231662   1.566   0.930   3.812 -0.1659  0.0061 -0.3056
 6677SOL     OW31663   3.951   4.113   4.754  0.3757 -0.3001 -0.0683
 6677SOL    HW131664   3.856   4.122   4.748  0.2903 -0.9231  0.3492
 6677SOL    HW231665   3.983   4.191   4.799 -1.1336 -0.1857  0.7978
 6678SOL     OW31666   3.856   0.656  13.245 -0.0985 -0.0655  0.2077
 6678SOL    HW131667   3.916   0.731  13.240 -1.1899  0.7797 -0.0675
 6678SOL    HW231668   3.855   0.623  13.155  0.0448  1.1335 -0.2319
 6679SOL     OW31669   2.713   1.646   3.243 -0.4052 -0.0286  0.0354
 6679SOL    HW131670   2.655   1.640   3.166 -0.9045 -0.8592  0.4698
 6679SOL    HW231671   2.653   1.652   3.317 -0.3092  2.2084 -0.0657
 6680SOL     OW31672   3.089   4.165  14.402  0.5099  0.4065  0.6607
 6680SOL    HW131673   3.169   4.198  14.442  0.2983  1.4743  0.2066
 6680SOL    HW231674   3.114   4.073  14.387 -1.7312 -0.0659 -0.2018
 6681SOL     OW31675   1.855   4.397   6.006 -0.4388 -0.4466 -0.2408
 6681SOL    HW131676   1.868   4.470   6.066 -1.4003 -0.3663 -0.1281
 6681SOL    HW231677   1.934   4.346   6.022 -1.3633 -2.2638 -1.4358
 6682SOL     OW31678   1.227   2.139   6.702  0.3127 -0.3149 -0.1427
 6682SOL    HW131679   1.236   2.076   6.774  3.2042  2.8988  2.2707
 6682SOL    HW231680   1.240   2.224   6.744  0.5901 -0.2596 -0.3364
 6683SOL     OW31681   2.798   1.824   3.002 -0.1749  1.1586 -0.4732
 6683SOL    HW131682   2.827   1.850   3.089  0.9581  1.4180 -0.9314
 6683SOL    HW231683   2.727   1.764   3.026  1.3188 -0.5907 -0.3860
 6684SOL     OW31684   3.784   1.337   0.098 -0.7953 -0.2395 -0.6238
 6684SOL    HW131685   3.869   1.382   0.093 -0.1655 -1.6084 -2.2235
 6684SOL    HW231686   3.755   1.317   0.009  4.2712  1.2496 -2.5955
 6685SOL     OW31687   2.705   1.640   3.814  0.5250 -0.5829  0.0684
 6685SOL    HW131688   2.623   1.647   3.862  0.3835  2.4489 -0.5791
 6685SOL    HW231689   2.716   1.731   3.786  1.7334 -0.8355 -0.2616
 6686SOL     OW31690   3.248   2.292   8.053 -0.3538 -0.2985 -0.4844
 6686SOL    HW131691   3.285   2.254   7.973 -1.5315 -2.3186 -0.0794
 6686SOL    HW231692   3.172   2.333   8.011 -2.2799 -2.5660  0.7959
 6687SOL     OW31693   3.689   1.094   1.616 -0.2022  0.0384  0.1092
 6687SOL    HW131694   3.688   1.042   1.696 -2.3715 -0.7893 -0.4493
 6687SOL    HW231695   3.731   1.177   1.638  0.2948 -0.0827 -0.4030
 6688SOL     OW31696   1.400   2.658   1.500 -0.2992 -0.1183  0.3163
 6688SOL    HW131697   1.450   2.735   1.474 -0.2334  0.7238  2.9674
 6688SOL    HW231698   1.330   2.689   1.557 -0.4510 -0.2183  0.1867
 6689SOL     OW31699   3.271   1.287   2.925  0.4028  0.7285  0.2120
 6689SOL    HW131700   3.361   1.317   2.939 -0.1068  1.3471  2.2058
 6689SOL    HW231701   3.227   1.334   2.997  1.2770  0.5466  0.8686
 6690SOL     OW31702   3.746   3.159   9.104  0.3362 -0.5966  0.6739
 6690SOL    HW131703   3.778   3.189   9.019  2.8861 -1.3444  1.3795
 6690SOL    HW231704   3.716   3.071   9.083  2.9781 -1.1857 -0.5864
 6691SOL     OW31705   3.128   4.278   5.341  0.6168  0.5655  0.0748
 6691SOL    HW131706   3.116   4.352   5.399 -2.9054 -0.4328  0.6202
 6691SOL    HW231707   3.036   4.273   5.314  0.9800 -2.3233 -0.7114
 6692SOL     OW31708   1.608   2.976   8.494  0.5351 -0.5232 -0.5538
 6692SOL    HW131709   1.626   2.913   8.564  2.1660  0.0093 -0.5069
 6692SOL    HW231710   1.598   2.924   8.414  2.9483  0.8825 -1.7702
 6693SOL     OW31711   3.344   3.241   7.796 -0.4568  0.3761 -0.0143
 6693SOL    HW131712   3.294   3.321   7.813 -1.2062 -0.3088  1.0247
 6693SOL    HW231713   3.366   3.258   7.704  2.9065 -0.4925  0.6530
 6694SOL     OW31714   2.458   3.924  17.607 -0.2620  0.1117 -0.5427
 6694SOL    HW131715   2.471   3.986  17.535 -0.5971  2.8494  1.7156
 6694SOL    HW231716   2.404   3.972  17.670  0.8546  1.3635 -0.5424
 6695SOL     OW31717   2.641   3.551  12.175 -0.3620  0.2248  0.0745
 6695SOL    HW131718   2.711   3.568  12.112 -1.1885 -0.7272 -1.1081
 6695SOL    HW231719   2.582   3.505  12.114  0.2783  0.6369 -0.8565
 6696SOL     OW31720   0.067   4.507  12.624  0.3918 -0.3362 -0.3386
 6696SOL    HW131721   4.711   4.535  12.631  0.2543 -0.4214 -1.6984
 6696SOL    HW231722   0.117   4.582  12.654 -0.0430  0.4158 -1.4651
 6697SOL     OW31723   0.588   4.733   7.937  0.2977 -0.2555  0.1461
 6697SOL    HW131724   0.658   4.724   8.002  1.2282  0.9120 -0.6833
 6697SOL    HW231725   0.537   0.063   7.985 -0.4384  1.1596 -2.5566
 6698SOL     OW31726   2.262   1.015   5.657 -0.0920  0.7656 -0.0885
 6698SOL    HW131727   2.297   1.102   5.639  2.0873  0.1210  1.0537
 6698SOL    HW231728   2.328   0.962   5.701 -1.0742 -0.8195 -0.5177
 6699SOL     OW31729   1.538   2.144   8.816  0.2358 -0.4289  0.7900
 6699SOL    HW131730   1.471   2.195   8.770  1.4290  0.3330 -0.1232
 6699SOL    HW231731   1.587   2.131   8.734 -1.9078 -0.7997 -0.4268
 6700SOL     OW31732   1.032   4.119  17.144  0.6785  0.6605  0.1846
 6700SOL    HW131733   1.028   4.214  17.152  1.0689  0.7648 -0.8502
 6700SOL    HW231734   1.126   4.110  17.162  1.0351 -2.1230 -3.0156
 6701SOL     OW31735   0.773   0.610   0.490 -0.2960  0.5156  0.6123
 6701SOL    HW131736   0.843   0.674   0.481 -1.2801  1.2283 -2.0362
 6701SOL    HW231737   0.766   0.614   0.585  0.0646 -1.1491  0.7123
 6702SOL     OW31738   0.904   2.764  11.756  0.6596 -0.2991 -0.0035
 6702SOL    HW131739   0.970   2.824  11.724  0.2884  0.9330  1.5514
 6702SOL    HW231740   0.851   2.825  11.807 -0.0951 -1.5293  0.6996
 6703SOL     OW31741   3.353   1.669   1.561  0.1577  0.4891 -0.0755
 6703SOL    HW131742   3.302   1.601   1.517 -0.0748  0.1851  0.6606
 6703SOL    HW231743   3.296   1.696   1.634 -1.0149  0.7064 -1.0830
 6704SOL     OW31744   3.424   1.649   4.964  0.3277 -0.0394  0.3181
 6704SOL    HW131745   3.340   1.633   5.008 -1.1287  0.6550 -2.2421
 6704SOL    HW231746   3.450   1.740   4.978  3.8444 -0.7996 -1.2079
 6705SOL     OW31747   1.127   0.252   1.195 -0.3145 -0.2271 -0.0062
 6705SOL    HW131748   1.126   0.164   1.159  2.7305 -0.2231 -0.1472
 6705SOL    HW231749   1.066   0.295   1.135  0.1848 -2.1067 -1.8624
 6706SOL     OW31750   1.194   2.005  14.984  0.0947 -0.4150  0.0437
 6706SOL    HW131751   1.289   1.994  14.984  0.1836  0.4265 -0.5271
 6706SOL    HW231752   1.164   1.935  15.042  1.9777 -1.8886 -0.7441
 6707SOL     OW31753   4.658   2.073  10.809 -0.3165  0.2357  0.0159
 6707SOL    HW131754   4.698   2.037  10.730  1.4735 -2.5615  2.1971
 6707SOL    HW231755   4.713   2.036  10.878 -1.9026 -1.7192  0.2365
 6708SOL     OW31756   1.937   0.571   9.164 -0.0892  0.3771  0.3192
 6708SOL    HW131757   1.959   0.536   9.250  0.2355  0.1960  0.1636
 6708SOL    HW231758   1.884   0.501   9.127  1.1439 -0.1953 -0.3428
 6709SOL     OW31759   3.046   4.292   2.651  0.4853 -0.0625 -0.2051
 6709SOL    HW131760   3.002   4.377   2.650  1.5629  0.5129  1.1695
 6709SOL    HW231761   3.134   4.324   2.671  0.0781 -0.1371  1.6667
 6710SOL     OW31762   3.580   4.112   3.672  0.2532 -0.2770 -0.4747
 6710SOL    HW131763   3.634   4.163   3.733 -3.4009  1.1887  1.5354
 6710SOL    HW231764   3.606   4.020   3.684  2.3069 -0.0350 -3.0640
 6711SOL     OW31765   1.576   4.451   2.749 -0.4119  0.2026  0.4405
 6711SOL    HW131766   1.490   4.418   2.724 -1.2940  1.7097  1.4811
 6711SOL    HW231767   1.545   4.517   2.810 -1.2575 -0.9738  1.2775
 6712SOL     OW31768   1.074   2.318   7.795  0.1936 -0.1841  0.1991
 6712SOL    HW131769   1.061   2.413   7.788 -1.5773 -0.2825  2.0601
 6712SOL    HW231770   1.041   2.287   7.711  0.8766 -1.3390  0.3711
 6713SOL     OW31771   1.740   1.959  16.779  0.0887  0.1408 -0.8498
 6713SOL    HW131772   1.772   1.886  16.724  1.0464 -0.6812  0.7904
 6713SOL    HW231773   1.722   2.022  16.710  0.5254  0.3751 -0.7530
 6714SOL     OW31774   1.712   1.445  16.371 -0.2845 -0.0335 -0.4355
 6714SOL    HW131775   1.620   1.419  16.377 -0.5388  1.0617  0.3930
 6714SOL    HW231776   1.701   1.538  16.390  1.2653  0.1630 -0.5198
 6715SOL     OW31777   3.586   4.200  15.856 -0.1444 -0.3402 -0.1477
 6715SOL    HW131778   3.566   4.283  15.900  0.7291 -0.7810  1.0909
 6715SOL    HW231779   3.497   4.166  15.851  0.5682 -2.2318 -0.1325
 6716SOL     OW31780   1.695   1.914  15.101 -0.1715 -0.1385 -0.6506
 6716SOL    HW131781   1.697   1.832  15.051  0.7989 -0.1710 -0.5617
 6716SOL    HW231782   1.735   1.900  15.187 -2.2854  0.8747  0.4943
 6717SOL     OW31783   1.184   2.240  14.860  0.1684  0.1235 -0.4299
 6717SOL    HW131784   1.201   2.172  14.925 -1.6386  0.1478  0.0809
 6717SOL    HW231785   1.089   2.243  14.875 -0.1176  2.4731 -2.8292
 6718SOL     OW31786   2.938   3.098   5.977 -0.3525  0.6938 -0.3026
 6718SOL    HW131787   2.887   3.024   5.943 -2.1151  0.1689  3.4305
 6718SOL    HW231788   2.970   3.129   5.893 -1.3915  0.4282 -0.7935
 6719SOL     OW31789   1.009   3.598   1.981 -0.0532  0.0365  0.0848
 6719SOL    HW131790   1.066   3.545   1.925 -0.7492  2.0590 -2.5756
 6719SOL    HW231791   0.977   3.529   2.039  0.6549  0.8727  1.4659
 6720SOL     OW31792   2.058   1.680  17.369 -0.2581 -0.0873 -0.0719
 6720SOL    HW131793   1.993   1.686  17.299 -3.0301  4.8523  2.9571
 6720SOL    HW231794   2.134   1.666  17.312  0.1891 -0.0864  0.5271
 6721SOL     OW31795   2.926   3.366  12.752  0.5502 -0.2335 -0.1958
 6721SOL    HW131796   3.008   3.327  12.723 -0.2548 -0.8834 -1.5915
 6721SOL    HW231797   2.913   3.315  12.832  1.1771 -1.4363 -0.8808
 6722SOL     OW31798   3.967   4.579   5.423  0.2476  0.6551 -0.0973
 6722SOL    HW131799   3.873   4.595   5.419  0.1701  0.2492  0.0146
 6722SOL    HW231800   3.988   4.597   5.515 -0.2957 -1.1148  0.3867
 6723SOL     OW31801   3.451   0.699   2.917 -0.8225  0.2410  0.3408
 6723SOL    HW131802   3.396   0.763   2.871 -2.7832 -1.6265  0.0869
 6723SOL    HW231803   3.525   0.698   2.857 -1.5171 -1.3048 -0.4939
 6724SOL     OW31804   2.342   0.039   9.285  0.0491  0.4118 -0.4975
 6724SOL    HW131805   2.367   4.708   9.349  1.2418  0.0909 -1.2874
 6724SOL    HW231806   2.399   0.109   9.319 -1.2168  1.1358  0.1298
 6725SOL     OW31807   3.013   4.192   8.385  0.2008  0.1662  0.3064
 6725SOL    HW131808   2.969   4.107   8.384 -0.9724  0.7665  1.1178
 6725SOL    HW231809   2.992   4.221   8.473  0.5313 -0.3517  0.5547
 6726SOL     OW31810   0.548   3.448   8.156 -0.0989  0.5064  0.2199
 6726SOL    HW131811   0.455   3.469   8.153 -0.0515  0.1915 -2.6952
 6726SOL    HW231812   0.544   3.361   8.196  0.6949  0.2749 -0.2024
 6727SOL     OW31813   2.454   1.947   0.424 -0.5812 -0.2762 -0.3070
 6727SOL    HW131814   2.479   2.005   0.351 -0.7273  1.3249  0.9130
 6727SOL    HW231815   2.409   2.018   0.470  0.5391  1.2404 -1.5541
 6728SOL     OW31816   0.201   3.439   1.129  0.1152  0.1128  0.1233
 6728SOL    HW131817   0.114   3.434   1.168 -0.9975  3.0555 -1.9844
 6728SOL    HW231818   0.237   3.523   1.157 -0.8498  0.4249  0.3904
 6729SOL     OW31819   4.665   2.734   1.907  0.5084 -0.1878 -0.0855
 6729SOL    HW131820   4.610   2.658   1.890 -0.3902  0.6594 -0.8955
 6729SOL    HW231821   0.011   2.711   1.862 -0.1007 -0.2796 -1.1246
 6730SOL     OW31822   4.293   3.849   5.512 -0.3452 -1.0621 -0.8173
 6730SOL    HW131823   4.278   3.857   5.606  1.1754  1.1101 -0.7589
 6730SOL    HW231824   4.375   3.896   5.499 -0.5101 -0.1596  1.5538
 6731SOL     OW31825   2.018   0.968   0.864  1.0341  0.1917  0.5109
 6731SOL    HW131826   1.947   0.908   0.839  0.7065  0.5119  0.6712
 6731SOL    HW231827   2.050   0.932   0.947 -0.2331 -1.3262  0.3572
 6732SOL     OW31828   0.230   3.280   6.384 -0.3314  0.8088  0.3255
 6732SOL    HW131829   0.201   3.202   6.338 -0.6454  1.4700 -0.5869
 6732SOL    HW231830   0.183   3.269   6.467 -0.2571  0.9660  0.3901
 6733SOL     OW31831   2.994   0.651   3.098 -0.0671 -0.7173  0.3722
 6733SOL    HW131832   3.019   0.743   3.110  0.4522 -0.6598 -1.2575
 6733SOL    HW231833   3.074   0.629   3.050 -0.3999  0.4998 -0.7287
 6734SOL     OW31834   4.529   0.008   7.869  0.4509 -0.0057  0.4422
 6734SOL    HW131835   4.447   4.729   7.822 -0.3396  1.3170  1.4053
 6734SOL    HW231836   4.591   0.037   7.803  0.9778 -0.6643  0.6479
 6735SOL     OW31837   2.746   1.599   8.107  0.0984  0.0759  0.0572
 6735SOL    HW131838   2.698   1.518   8.126  0.3005  0.1367  0.8219
 6735SOL    HW231839   2.821   1.574   8.161  0.9867  0.4182 -1.0243
 6736SOL     OW31840   4.604   1.476   4.427  0.4374 -0.2863  0.1394
 6736SOL    HW131841   4.524   1.429   4.450 -1.3199  2.3625 -0.5232
 6736SOL    HW231842   4.592   1.560   4.472  1.4257  0.0469 -0.2097
 6737SOL     OW31843   3.012   4.523  16.225  0.1921 -0.1454 -0.0920
 6737SOL    HW131844   3.031   4.616  16.241  2.7810 -0.6591 -0.0789
 6737SOL    HW231845   2.924   4.526  16.188  0.4683  1.4664 -0.6319
 6738SOL     OW31846   1.907   0.444   3.171 -0.2457 -0.4935 -0.2677
 6738SOL    HW131847   1.946   0.512   3.115  0.7087  0.2189  1.2777
 6738SOL    HW231848   1.817   0.455   3.139 -0.9056 -0.5453  1.5799
 6739SOL     OW31849   2.442   4.283   9.857  0.3152  0.3058  0.3061
 6739SOL    HW131850   2.497   4.297   9.780  0.2057 -1.9986 -0.1949
 6739SOL    HW231851   2.457   4.363   9.907 -1.3397  0.5212  0.4619
 6740SOL     OW31852   2.797   0.561  12.942  0.3125  0.4729 -0.5250
 6740SOL    HW131853   2.785   0.650  12.976  0.6232  0.1319  0.4828
 6740SOL    HW231854   2.845   0.583  12.863  0.8627  2.0679  0.2519
 6741SOL     OW31855   4.341   2.079   6.156 -0.2406  0.0655 -0.0791
 6741SOL    HW131856   4.343   2.112   6.246 -2.9966 -0.2443  0.1089
 6741SOL    HW231857   4.435   2.071   6.143  0.2628  2.8679  1.7887
 6742SOL     OW31858   0.925   3.764   5.902 -0.8619  0.3996  1.2007
 6742SOL    HW131859   0.833   3.787   5.917 -0.2796  3.5368  0.0497
 6742SOL    HW231860   0.927   3.681   5.950  1.9507 -0.4683 -0.4194
 6743SOL     OW31861   1.840   4.723   7.617 -0.2122 -0.0651 -0.4750
 6743SOL    HW131862   1.921   0.037   7.619  0.4906 -1.1907 -0.8128
 6743SOL    HW231863   1.801   0.015   7.700  2.2494 -0.4378  0.7920
 6744SOL     OW31864   0.618   3.780   8.817 -0.2953 -0.4401 -0.0660
 6744SOL    HW131865   0.675   3.707   8.843 -0.3777  0.4435  2.6111
 6744SOL    HW231866   0.639   3.834   8.893  0.8747  0.7394 -1.2390
 6745SOL     OW31867   1.266   3.522  16.950 -0.1303  0.1940  0.0789
 6745SOL    HW131868   1.315   3.507  16.870 -1.3083 -0.6624 -0.4750
 6745SOL    HW231869   1.220   3.606  16.941  1.6876  1.0082 -1.5008
 6746SOL     OW31870   2.927   2.725   6.797  0.0820 -0.3425 -0.5556
 6746SOL    HW131871   2.865   2.666   6.838 -0.8485  0.2099 -1.1578
 6746SOL    HW231872   2.867   2.778   6.744 -1.1631 -3.0586 -1.8629
 6747SOL     OW31873   3.691   2.716   3.825  0.3359 -0.3102 -0.3736
 6747SOL    HW131874   3.704   2.805   3.792  4.1077 -0.6389  0.2798
 6747SOL    HW231875   3.613   2.685   3.779  0.4958  1.1658 -1.6619
 6748SOL     OW31876   0.456   1.767   5.808 -0.1888 -0.0935  0.5813
 6748SOL    HW131877   0.415   1.853   5.819  0.2722  0.6519 -3.4612
 6748SOL    HW231878   0.514   1.775   5.884  2.6511  0.2491 -1.6177
 6749SOL     OW31879   0.955   2.433  17.030  1.0369  0.1910  0.1034
 6749SOL    HW131880   1.040   2.395  17.008  0.1152 -0.9531 -1.5148
 6749SOL    HW231881   0.969   2.467  17.118 -0.7199 -0.2902  0.5688
 6750SOL     OW31882   4.503   0.913  10.683  0.4160  0.2921  0.1805
 6750SOL    HW131883   4.560   0.928  10.609  0.1118  0.7365  0.0409
 6750SOL    HW231884   4.468   1.001  10.698  2.4537  1.1076  0.0535
 6751SOL     OW31885   2.593   0.101  16.167 -0.0629 -0.3320  0.5889
 6751SOL    HW131886   2.598   0.030  16.232 -3.1277 -1.2220 -0.1459
 6751SOL    HW231887   2.620   0.180  16.213  0.2202  0.4887 -0.9962
 6752SOL     OW31888   3.593   2.200  15.416 -0.0289 -0.4930  0.1837
 6752SOL    HW131889   3.603   2.282  15.368  2.4846 -2.3666 -2.3863
 6752SOL    HW231890   3.607   2.226  15.508 -0.6273 -2.9985  0.9797
 6753SOL     OW31891   1.473   2.832   5.806  0.0953 -0.3446  0.6064
 6753SOL    HW131892   1.557   2.867   5.836  0.0213 -1.9381  2.6465
 6753SOL    HW231893   1.418   2.865   5.877 -0.2975  0.0878  0.1080
 6754SOL     OW31894   3.295   4.197   2.461 -0.7082  0.0458 -0.1873
 6754SOL    HW131895   3.212   4.245   2.456 -0.7296 -0.1149 -1.4288
 6754SOL    HW231896   3.299   4.164   2.371  0.7822 -1.1147  0.3088
 6755SOL     OW31897   3.469   2.628   3.678 -0.0486 -0.6507  0.4601
 6755SOL    HW131898   3.413   2.657   3.606  0.0534  1.6028  1.2741
 6755SOL    HW231899   3.506   2.549   3.639  0.0295 -0.9574  1.1630
 6756SOL     OW31900   2.145   3.566   4.894  0.0136  0.5110  0.9059
 6756SOL    HW131901   2.197   3.621   4.835 -0.8289  1.8774  1.4306
 6756SOL    HW231902   2.209   3.552   4.965 -0.3367 -1.9016  0.7420
 6757SOL     OW31903   2.216   1.299   2.130 -0.8278  0.2494  0.6148
 6757SOL    HW131904   2.242   1.211   2.103 -0.8625 -0.2677  2.2566
 6757SOL    HW231905   2.133   1.291   2.178 -0.4751 -1.4443  0.9591
 6758SOL     OW31906   3.974   3.162   5.233 -0.2124 -0.1657  0.1490
 6758SOL    HW131907   4.043   3.214   5.190  1.1587 -0.1458  2.3949
 6758SOL    HW231908   3.944   3.118   5.153 -3.3668  0.4883  0.9992
 6759SOL     OW31909   3.172   4.543   5.947  0.4073 -0.4347  0.4641
 6759SOL    HW131910   3.189   4.596   6.025  3.4852 -0.4377 -0.2060
 6759SOL    HW231911   3.111   4.478   5.982  0.3591 -0.9140 -0.4942
 6760SOL     OW31912   0.650   2.102  14.831 -0.4054  0.2678  0.3826
 6760SOL    HW131913   0.669   2.009  14.815 -0.2992 -0.3303  3.9537
 6760SOL    HW231914   0.715   2.155  14.785 -1.8600  0.0436 -1.9405
 6761SOL     OW31915   3.314   0.882   2.686 -0.0248 -0.2571  0.4964
 6761SOL    HW131916   3.255   0.925   2.747 -0.3692 -0.3876  0.2564
 6761SOL    HW231917   3.372   0.957   2.676 -1.5542  0.7296 -0.9228
 6762SOL     OW31918   3.407   1.491   9.713  0.7229  0.0526 -0.2532
 6762SOL    HW131919   3.329   1.438   9.695 -0.3191  0.7421  2.1883
 6762SOL    HW231920   3.459   1.481   9.633  0.8969  2.4195 -0.4232
 6763SOL     OW31921   1.207   3.828   6.053  0.1899  0.2771  0.5207
 6763SOL    HW131922   1.115   3.838   6.029  0.5747  1.3327 -0.4876
 6763SOL    HW231923   1.234   3.797   5.967 -0.6390  0.6186  0.1473
 6764SOL     OW31924   3.915   0.805  14.296  0.0350 -0.4662  0.6328
 6764SOL    HW131925   3.852   0.757  14.350 -0.1925 -2.7628 -1.6721
 6764SOL    HW231926   3.907   0.759  14.212 -3.2559 -0.2819  0.8215
 6765SOL     OW31927   1.553   3.369   6.716  0.0991  0.1040  0.6958
 6765SOL    HW131928   1.566   3.433   6.645 -0.0884 -1.3058 -0.5987
 6765SOL    HW231929   1.494   3.308   6.672 -1.6038  2.2516 -0.0233
 6766SOL     OW31930   3.899   3.652   7.773  0.2833 -0.0040 -0.2208
 6766SOL    HW131931   3.858   3.736   7.752  2.1749  0.9424 -0.0687
 6766SOL    HW231932   3.989   3.675   7.796  0.3819 -0.5131 -0.0908
 6767SOL     OW31933   4.321   1.265   2.593 -0.1467 -0.3081 -0.1613
 6767SOL    HW131934   4.351   1.217   2.670 -1.4944  0.6355  0.9628
 6767SOL    HW231935   4.260   1.200   2.557 -1.4812  0.4089  0.8380
 6768SOL     OW31936   0.344   1.341   1.085  0.2834 -0.4609  1.1543
 6768SOL    HW131937   0.335   1.436   1.091 -1.5561 -0.5670 -0.2076
 6768SOL    HW231938   0.429   1.323   1.127  1.5527 -0.9953 -1.6808
 6769SOL     OW31939   4.121   3.149   9.064 -0.0448 -0.6004  0.6789
 6769SOL    HW131940   4.067   3.077   9.032  0.7810 -1.0620  0.3141
 6769SOL    HW231941   4.151   3.194   8.985  2.7119 -1.5993  1.1261
 6770SOL     OW31942   1.594   4.584   2.287 -0.1145 -0.0164  0.3083
 6770SOL    HW131943   1.678   4.580   2.242 -0.5624 -1.6091 -0.3585
 6770SOL    HW231944   1.615   4.529   2.362 -1.9253 -0.0291  0.8180
 6771SOL     OW31945   0.108   3.083   3.497  0.2236  0.7804  0.0007
 6771SOL    HW131946   0.051   3.128   3.435  0.9571  2.1122  0.2804
 6771SOL    HW231947   0.189   3.066   3.449  1.2578  2.7521  1.0244
 6772SOL     OW31948   1.467   2.513   2.217 -0.3126 -0.3207  0.0299
 6772SOL    HW131949   1.463   2.591   2.161  2.0953  1.0798  1.8307
 6772SOL    HW231950   1.383   2.468   2.211 -0.4852 -0.1220  0.9375
 6773SOL     OW31951   1.917   0.241   3.340 -0.9397 -0.2952 -0.3960
 6773SOL    HW131952   1.930   0.321   3.289  1.2679 -0.2615  0.2400
 6773SOL    HW231953   1.926   0.176   3.270 -1.1506  0.3037 -0.9750
 6774SOL     OW31954   4.384   2.948   6.322 -0.4107 -0.5603 -0.7755
 6774SOL    HW131955   4.389   2.867   6.272  0.7286 -2.1028  1.8376
 6774SOL    HW231956   4.311   2.927   6.380 -0.3526  1.3116 -0.0054
 6775SOL     OW31957   4.614   1.656   7.101 -0.1522  0.1424 -0.8953
 6775SOL    HW131958   4.645   1.747   7.097  0.4443 -0.0053  0.5163
 6775SOL    HW231959   4.679   1.620   7.161 -0.5200 -1.5036 -1.4997
 6776SOL     OW31960   1.788   4.489  13.492 -0.1291  0.3236  0.1599
 6776SOL    HW131961   1.852   4.447  13.550  1.9947 -1.8076 -3.6962
 6776SOL    HW231962   1.709   4.491  13.546 -0.2338 -0.8603  0.0694
 6777SOL     OW31963   3.718   2.795   7.683 -0.0675  0.0103  1.0091
 6777SOL    HW131964   3.805   2.773   7.719  0.7323 -0.8085 -1.4526
 6777SOL    HW231965   3.706   2.731   7.613 -0.7341 -0.3636  1.4633
 6778SOL     OW31966   2.727   4.595   9.869  0.3030 -0.3050  0.5638
 6778SOL    HW131967   2.722   4.690   9.869  3.0750 -0.1540 -2.4746
 6778SOL    HW231968   2.695   4.571   9.782  1.2673  0.5936 -0.0443
 6779SOL     OW31969   4.452   3.876   2.956 -0.2246  0.0661  0.2111
 6779SOL    HW131970   4.512   3.816   3.001 -0.4686  1.6505  2.6881
 6779SOL    HW231971   4.378   3.887   3.016 -0.0156 -0.9973  0.6673
 6780SOL     OW31972   1.155   4.164  15.478 -0.4538  0.3058  0.2348
 6780SOL    HW131973   1.146   4.258  15.458 -0.0975 -0.1274 -2.0128
 6780SOL    HW231974   1.217   4.154  15.550 -0.0580  0.2125 -0.1220
 6781SOL     OW31975   2.447   0.209   4.377  0.0415  0.1389  0.4803
 6781SOL    HW131976   2.514   0.195   4.310 -1.0124 -3.4755  0.1744
 6781SOL    HW231977   2.437   0.118   4.405 -0.1967  0.4352  1.3552
 6782SOL     OW31978   1.652   0.232   2.334 -0.6902 -0.4643 -0.0529
 6782SOL    HW131979   1.620   0.146   2.360 -0.5234  0.1517  2.2672
 6782SOL    HW231980   1.589   0.300   2.359  0.2350  1.7288 -3.6973
 6783SOL     OW31981   1.984   3.184   4.215  0.1496 -0.2824  0.5975
 6783SOL    HW131982   1.974   3.226   4.129 -0.6072 -0.3574  0.6489
 6783SOL    HW231983   2.079   3.179   4.211  0.2034  0.0851  1.4566
 6784SOL     OW31984   1.190   4.093   5.121 -0.2126  0.1747  0.1426
 6784SOL    HW131985   1.144   4.106   5.204 -0.8083  0.1736 -0.1826
 6784SOL    HW231986   1.148   4.158   5.064  0.2734 -0.2855 -0.7443
 6785SOL     OW31987   1.222   1.342  11.640  0.1056 -0.1469  0.5859
 6785SOL    HW131988   1.230   1.266  11.582  0.9830  0.4445 -0.0645
 6785SOL    HW231989   1.312   1.374  11.631 -0.2755 -0.1079 -3.0914
 6786SOL     OW31990   3.069   3.545   8.754 -0.3687  0.8472  0.1450
 6786SOL    HW131991   3.107   3.574   8.837 -4.0414  0.7449  1.9071
 6786SOL    HW231992   2.992   3.497   8.787  0.9465 -0.7144  0.9492
 6787SOL     OW31993   3.533   3.236   3.547 -0.2213 -0.4668  0.6385
 6787SOL    HW131994   3.609   3.276   3.589  0.3268 -1.3103  0.4563
 6787SOL    HW231995   3.575   3.201   3.468 -0.6785 -1.7977  0.9990
 6788SOL     OW31996   0.935   1.819   3.467  0.3526  0.0612  0.0249
 6788SOL    HW131997   0.940   1.724   3.459 -3.1865  0.1910 -3.5336
 6788SOL    HW231998   0.882   1.817   3.547  1.6948  3.0220  0.9868
 6789SOL     OW31999   0.038   0.409   5.418 -0.0518 -0.0164  0.2245
 6789SOL    HW132000   0.054   0.472   5.488 -0.1376 -0.9030  1.0376
 6789SOL    HW232001   0.102   0.339   5.431  1.5192  1.2908 -0.5007
 6790SOL     OW32002   0.781   3.505   1.771  0.2664 -0.0528 -0.2221
 6790SOL    HW132003   0.820   3.588   1.799  0.7763 -0.6629  0.8594
 6790SOL    HW232004   0.726   3.534   1.698  1.1715  0.4879 -0.6938
 6791SOL     OW32005   2.168   0.533   2.120  0.4729 -0.2263  0.1105
 6791SOL    HW132006   2.180   0.546   2.026  1.3169  0.8590  0.3777
 6791SOL    HW232007   2.099   0.467   2.129  1.4834 -1.0735  1.8288
 6792SOL     OW32008   2.785   2.136   4.362 -0.2801  0.5076  0.8256
 6792SOL    HW132009   2.873   2.175   4.361 -0.7593  1.5974  1.4435
 6792SOL    HW232010   2.739   2.187   4.428 -1.3753  0.8299 -0.1915
 6793SOL     OW32011   2.238   4.382   9.034  0.2026  0.3721 -0.1934
 6793SOL    HW132012   2.216   4.326   9.108  2.9950  0.6624  0.8488
 6793SOL    HW232013   2.158   4.434   9.032 -0.2250 -0.3143 -0.9926
 6794SOL     OW32014   2.639   2.205   8.903 -0.0298  0.0055  0.2893
 6794SOL    HW132015   2.591   2.274   8.948  1.2719  2.2031 -1.6814
 6794SOL    HW232016   2.728   2.240   8.910  0.7511 -1.1651 -3.7884
 6795SOL     OW32017   4.292   0.539  11.426  0.9155  0.3082 -0.2128
 6795SOL    HW132018   4.293   0.480  11.501 -0.5605  0.2851 -0.2144
 6795SOL    HW232019   4.199   0.540  11.403  1.1059  1.7399 -0.9457
 6796SOL     OW32020   3.623   4.133   2.605 -0.2192 -0.6077  0.1310
 6796SOL    HW132021   3.585   4.054   2.567  0.6375 -0.8832 -0.1630
 6796SOL    HW232022   3.561   4.205   2.593 -0.7930 -1.1592 -0.2258
 6797SOL     OW32023   0.186   1.279   8.485  0.2092 -0.3895  0.2793
 6797SOL    HW132024   0.259   1.263   8.544  1.9813  1.5665 -1.4094
 6797SOL    HW232025   0.113   1.296   8.545  0.2993  1.6339 -0.1858
 6798SOL     OW32026   2.872   0.744  12.269 -0.3268 -0.1013  0.0267
 6798SOL    HW132027   2.884   0.763  12.362  0.5467  1.2441 -0.3673
 6798SOL    HW232028   2.886   0.652  12.292  2.1702 -0.3229 -2.3642
 6799SOL     OW32029   0.890   0.473  13.998  0.2320  0.4398 -0.1420
 6799SOL    HW132030   0.845   0.402  13.953 -1.3376  1.2069  0.1942
 6799SOL    HW232031   0.919   0.418  14.071 -1.9994 -0.7535 -0.1626
 6800SOL     OW32032   1.177   2.118   5.862 -0.4583 -0.0047  0.1918
 6800SOL    HW132033   1.245   2.078   5.916  0.5421  0.8450 -0.4280
 6800SOL    HW232034   1.111   2.050   5.868 -1.0686  0.7533  1.9927
 6801SOL     OW32035   4.317   2.179   8.058 -0.4476  0.0406  0.4224
 6801SOL    HW132036   4.400   2.183   8.106 -0.3703 -1.5789  0.4510
 6801SOL    HW232037   4.249   2.224   8.108 -1.6321  0.2979 -1.4338
 6802SOL     OW32038   1.616   2.422   8.877 -0.5016  0.1450  0.7781
 6802SOL    HW132039   1.677   2.368   8.927 -0.5116  0.7124  1.4072
 6802SOL    HW232040   1.551   2.367   8.835  1.9879 -0.5230 -2.2107
 6803SOL     OW32041   2.519   1.708   1.170  0.1614  0.5806  0.0674
 6803SOL    HW132042   2.425   1.719   1.159  0.2175  1.8966  0.9233
 6803SOL    HW232043   2.544   1.687   1.080 -1.8884 -2.6632  0.2714
 6804SOL     OW32044   1.255   0.648   2.486  0.3868 -0.1058  0.2473
 6804SOL    HW132045   1.323   0.641   2.419  0.7089  1.3707  0.4178
 6804SOL    HW232046   1.170   0.636   2.444  1.5759 -1.6405 -1.7074
 6805SOL     OW32047   2.412   1.438   5.164  0.1700  0.3630  0.0044
 6805SOL    HW132048   2.396   1.388   5.244 -0.1457 -0.7145 -0.7301
 6805SOL    HW232049   2.483   1.395   5.117 -0.3383 -1.2697  0.7299
 6806SOL     OW32050   1.416   0.484  10.695  0.0988  0.0469  0.2282
 6806SOL    HW132051   1.373   0.554  10.647  1.7693 -1.7749 -3.8955
 6806SOL    HW232052   1.430   0.521  10.782  0.1915  1.0122 -0.2025
 6807SOL     OW32053   4.103   4.140   6.892 -0.2900  0.4490 -0.4557
 6807SOL    HW132054   4.149   4.180   6.819 -1.4982  1.1038 -0.8520
 6807SOL    HW232055   4.120   4.203   6.962 -2.4781 -1.8463  2.1621
 6808SOL     OW32056   2.244   4.164  14.287 -0.2258 -0.0735  0.5657
 6808SOL    HW132057   2.215   4.234  14.229 -1.0944  0.3765  1.5435
 6808SOL    HW232058   2.169   4.173  14.346 -0.1423 -0.3630  0.7208
 6809SOL     OW32059   0.197   0.705   4.132  0.0878  0.2214 -0.0580
 6809SOL    HW132060   0.289   0.688   4.150  0.4889 -0.1766 -2.5278
 6809SOL    HW232061   0.163   0.627   4.089 -1.4576 -0.1863  1.8572
 6810SOL     OW32062   2.833   2.086   7.988 -0.0048 -0.0840  0.2202
 6810SOL    HW132063   2.911   2.077   8.042  0.1644 -0.2556 -0.0518
 6810SOL    HW232064   2.785   2.004   7.998 -0.8382  0.2560 -0.9339
 6811SOL     OW32065   3.569   4.126   8.457 -0.0762  0.6252 -0.3688
 6811SOL    HW132066   3.486   4.174   8.452 -0.9457 -0.7493  0.6799
 6811SOL    HW232067   3.618   4.185   8.400  0.2865  2.9433  2.3280
 6812SOL     OW32068   3.943   2.021   1.587  0.1143 -0.0517  0.6250
 6812SOL    HW132069   3.903   2.096   1.544  0.3984 -1.2808 -1.7658
 6812SOL    HW232070   4.019   2.058   1.633 -0.0801  1.1533 -0.0213
 6813SOL     OW32071   0.277   2.213  16.260 -0.4651 -0.4890 -0.6328
 6813SOL    HW132072   0.269   2.307  16.274  0.8965 -0.4277 -0.3002
 6813SOL    HW232073   0.186   2.189  16.238 -0.2817  0.5656 -2.5704
 6814SOL     OW32074   0.037   1.570   7.325  0.5770 -0.2042 -0.2526
 6814SOL    HW132075   0.072   1.488   7.360  0.0861  0.4431  1.7581
 6814SOL    HW232076   4.680   1.574   7.348  0.6472  3.0485 -0.5235
 6815SOL     OW32077   2.371   1.087   8.004 -0.0248 -0.2653  0.1259
 6815SOL    HW132078   2.322   1.005   7.995  1.1586 -1.0430  0.7328
 6815SOL    HW232079   2.422   1.083   8.085 -1.3337  0.9852  0.9981
 6816SOL     OW32080   0.930   3.450   9.943 -0.1439  0.1282 -0.6434
 6816SOL    HW132081   0.988   3.491  10.008  0.0779  0.0439 -0.7901
 6816SOL    HW232082   0.872   3.387   9.986  0.0242  0.3211 -0.1229
 6817SOL     OW32083   0.752   0.253  13.916  0.3595 -0.0637  0.5274
 6817SOL    HW132084   0.679   0.193  13.906  0.8035 -0.0924 -2.5700
 6817SOL    HW232085   0.808   0.202  13.975 -0.2473 -0.4385  0.7797
 6818SOL     OW32086   2.308   3.708   5.672 -0.2931 -0.7516 -0.4403
 6818SOL    HW132087   2.265   3.756   5.602 -0.2382 -0.9280 -0.5944
 6818SOL    HW232088   2.390   3.686   5.628 -0.1675  1.1196 -1.1529
 6819SOL     OW32089   3.721   0.861   7.816 -0.8079  0.0773  0.6916
 6819SOL    HW132090   3.770   0.881   7.736  0.5023  0.0356  1.5051
 6819SOL    HW232091   3.656   0.931   7.813  1.8106  2.4087 -1.7951
 6820SOL     OW32092   1.025   0.089  15.081  0.3931 -0.5183 -0.1923
 6820SOL    HW132093   1.052   4.734  15.092  1.8362 -0.1342 -0.5885
 6820SOL    HW232094   1.025   0.112  14.988 -0.5248  0.1081 -0.0344
 6821SOL     OW32095   1.136   4.521   2.254  0.4549 -0.0790 -0.7035
 6821SOL    HW132096   1.128   4.536   2.348  0.4092  0.0511 -0.7281
 6821SOL    HW232097   1.226   4.553   2.243  0.0918  1.0529 -0.3865
 6822SOL     OW32098   0.667   1.663  14.035  0.0617  0.2104 -0.7131
 6822SOL    HW132099   0.754   1.630  14.059 -0.6253 -1.0237  0.0457
 6822SOL    HW232100   0.690   1.720  13.962 -0.6213 -0.4302 -1.4182
 6823SOL     OW32101   4.321   1.043   1.072 -0.3444 -0.5962  0.8858
 6823SOL    HW132102   4.313   0.983   0.997 -0.1285 -0.1313  0.4965
 6823SOL    HW232103   4.274   0.986   1.133 -0.4997  0.3345  1.6295
 6824SOL     OW32104   2.813   2.742   8.453  0.3733 -0.2181 -0.6511
 6824SOL    HW132105   2.747   2.735   8.383 -0.3824 -0.7333  0.1066
 6824SOL    HW232106   2.763   2.788   8.521  0.0721 -1.5780  0.0449
 6825SOL     OW32107   4.440   3.824   1.808 -0.4839  0.4035 -0.0119
 6825SOL    HW132108   4.453   3.744   1.859  0.2797 -0.5246 -1.6322
 6825SOL    HW232109   4.357   3.807   1.764 -0.0273  0.6733 -1.0025
 6826SOL     OW32110   1.354   2.981   4.038  0.2564 -0.2981 -0.4988
 6826SOL    HW132111   1.418   2.947   4.100 -1.9361  0.4049  2.1475
 6826SOL    HW232112   1.271   2.958   4.079  1.3349 -3.1389  0.1027
 6827SOL     OW32113   0.892   4.366   6.278  0.3274  0.0602  0.2512
 6827SOL    HW132114   0.873   4.339   6.367 -1.1936 -0.3362 -0.2016
 6827SOL    HW232115   0.960   4.303   6.253  2.3323  2.0285  0.7876
 6828SOL     OW32116   3.316   1.409   6.197  0.0481 -0.2212  0.0907
 6828SOL    HW132117   3.385   1.385   6.134  1.6188 -0.8033  2.0263
 6828SOL    HW232118   3.234   1.383   6.155  0.4351 -1.1510 -0.1172
 6829SOL     OW32119   2.679   2.599   6.924  0.4704  0.3861  0.5823
 6829SOL    HW132120   2.683   2.505   6.908  1.1070  0.0309  2.8900
 6829SOL    HW232121   2.584   2.609   6.934  0.3321 -0.2999 -0.0908
 6830SOL     OW32122   3.396   3.592  16.651 -0.0549 -0.5141 -0.3418
 6830SOL    HW132123   3.420   3.553  16.567 -2.0688 -0.5118 -0.9103
 6830SOL    HW232124   3.302   3.611  16.646 -0.2334 -1.5809 -0.9019
 6831SOL     OW32125   4.310   3.871   8.810 -0.4279 -0.3205  0.2584
 6831SOL    HW132126   4.330   3.846   8.900 -3.6655 -0.3447  0.9657
 6831SOL    HW232127   4.218   3.845   8.806 -0.1224 -1.0811 -1.8476
 6832SOL     OW32128   2.833   2.540   4.965  0.0514 -0.3206  0.6836
 6832SOL    HW132129   2.910   2.504   4.920 -0.7454 -1.3388  0.1339
 6832SOL    HW232130   2.869   2.544   5.054  0.1022 -1.0552  0.6982
 6833SOL     OW32131   0.293   1.348   0.116  0.4502  0.0436  0.1417
 6833SOL    HW132132   0.317   1.435   0.083 -2.2745  0.1210 -1.6701
 6833SOL    HW232133   0.262   1.380   0.201  0.3726 -0.6533  0.3794
 6834SOL     OW32134   0.798   4.322  13.269  0.7838 -0.1324 -0.9001
 6834SOL    HW132135   0.843   4.403  13.293  3.8006 -1.5522 -1.7786
 6834SOL    HW232136   0.824   4.259  13.336 -2.4436 -1.3540 -0.7827
 6835SOL     OW32137   2.897   0.697  17.467 -0.3326  0.1716  0.1318
 6835SOL    HW132138   2.813   0.662  17.496 -0.0010  0.1214  1.0495
 6835SOL    HW232139   2.943   0.694  17.552 -0.9661 -4.2350  0.3134
 6836SOL     OW32140   2.976   3.557  15.407  0.1396  0.3725  0.2835
 6836SOL    HW132141   3.029   3.478  15.402  0.6745  0.8056 -1.1079
 6836SOL    HW232142   2.891   3.515  15.415  0.3660  0.2811  2.1406
 6837SOL     OW32143   1.962   2.788   5.194  0.5288  0.4443 -0.5411
 6837SOL    HW132144   2.048   2.749   5.178 -0.7190 -2.0605 -1.1095
 6837SOL    HW232145   1.915   2.713   5.230  1.5582 -0.4543 -1.0741
 6838SOL     OW32146   4.023   0.547  11.319 -0.2383  0.3780 -0.5454
 6838SOL    HW132147   3.996   0.455  11.308 -1.6538  0.7490 -0.1355
 6838SOL    HW232148   3.934   0.581  11.317 -0.1908  0.4652 -1.2593
 6839SOL     OW32149   0.653   0.898   2.943  0.1599 -0.2520  0.2522
 6839SOL    HW132150   0.576   0.955   2.937  1.2528  1.0857 -1.2299
 6839SOL    HW232151   0.647   0.882   2.849  0.7880  0.7862  0.0303
 6840SOL     OW32152   4.452   2.390  17.286  0.0126 -0.8784  0.2901
 6840SOL    HW132153   4.414   2.360  17.368 -0.6184  0.4047  0.4802
 6840SOL    HW232154   4.513   2.456  17.319 -1.6528 -0.4972  2.6187
 6841SOL     OW32155   1.611   4.006  14.297 -0.1893 -0.2558 -0.3555
 6841SOL    HW132156   1.545   3.937  14.289 -2.6273  2.1829 -1.2815
 6841SOL    HW232157   1.611   4.040  14.207  2.8809  0.8250  0.0594
 6842SOL     OW32158   4.120   3.070   4.019 -0.0142 -0.2963  0.6317
 6842SOL    HW132159   4.130   2.981   3.986  1.5254  1.0610 -2.6115
 6842SOL    HW232160   4.195   3.085   4.076 -0.7016 -0.2092  1.5137
 6843SOL     OW32161   4.593   0.964  17.562 -0.5102 -0.4029 -0.0010
 6843SOL    HW132162   4.630   0.879  17.540  2.3239  0.6506  0.7182
 6843SOL    HW232163   4.622   1.015  17.487 -0.1418 -0.7899 -0.1213
 6844SOL     OW32164   3.542   3.551  16.892  0.2952  0.4977  0.3430
 6844SOL    HW132165   3.499   3.584  16.813 -1.5159  1.0227  1.5327
 6844SOL    HW232166   3.489   3.473  16.908 -2.6341  2.8382  1.9810
 6845SOL     OW32167   1.248   3.729   3.144  0.2898 -0.2170  0.2343
 6845SOL    HW132168   1.201   3.778   3.212  1.2796  2.5207 -1.0409
 6845SOL    HW232169   1.173   3.714   3.087 -0.4806 -0.1957  1.2276
 6846SOL     OW32170   3.950   2.163   5.796  0.4758 -0.1523  0.3335
 6846SOL    HW132171   3.864   2.123   5.786 -0.4515  1.1349  3.2205
 6846SOL    HW232172   3.975   2.130   5.883 -2.4326 -2.8287  0.1655
 6847SOL     OW32173   3.340   0.717   7.082  0.4026  0.1053 -0.1511
 6847SOL    HW132174   3.354   0.730   6.988 -1.9559  0.0840 -0.5069
 6847SOL    HW232175   3.270   0.652   7.079  0.8710 -0.3634 -1.1185
 6848SOL     OW32176   4.485   1.187   8.962 -0.0914  0.1940  0.0816
 6848SOL    HW132177   4.482   1.163   8.870  2.9632  0.7161 -0.1635
 6848SOL    HW232178   4.528   1.273   8.957  0.6607 -0.2439 -1.0332
 6849SOL     OW32179   2.414   3.502   6.539 -0.3459  0.2597  0.5868
 6849SOL    HW132180   2.334   3.457   6.568  0.8743 -1.0195  2.0089
 6849SOL    HW232181   2.411   3.585   6.588  0.2586 -0.0599  1.1658
 6850SOL     OW32182   3.836   1.255  16.923 -0.1939 -0.0155  0.4627
 6850SOL    HW132183   3.879   1.173  16.950 -1.7877 -1.2000 -0.5476
 6850SOL    HW232184   3.875   1.321  16.980 -0.2640 -0.5888  1.1882
 6851SOL     OW32185   0.628   3.770   3.118 -0.0454 -0.0861 -0.2881
 6851SOL    HW132186   0.588   3.689   3.148  0.6731 -1.0895 -2.0262
 6851SOL    HW232187   0.580   3.795   3.039 -1.1548 -1.7094 -0.1283
 6852SOL     OW32188   2.269   2.778  11.247 -0.4455  0.2427  0.3120
 6852SOL    HW132189   2.339   2.843  11.235 -1.3020  1.4149  1.7232
 6852SOL    HW232190   2.261   2.759  11.340  0.9289 -0.6387  0.2542
 6853SOL     OW32191   1.121   3.504   7.909  0.0108 -0.0520 -0.3248
 6853SOL    HW132192   1.109   3.594   7.880  0.9215 -0.2989 -1.4818
 6853SOL    HW232193   1.040   3.495   7.959  0.7870 -0.4118  0.8925
 6854SOL     OW32194   4.493   2.018   6.980  0.0669 -1.1500  0.3145
 6854SOL    HW132195   4.573   1.969   6.960 -0.2636 -1.4908 -0.1654
 6854SOL    HW232196   4.515   2.056   7.065 -1.1084  0.3200 -0.0386
 6855SOL     OW32197   0.307   3.520  11.883 -0.0131 -0.5381  0.8873
 6855SOL    HW132198   0.288   3.529  11.789 -0.4003  0.6950  1.0855
 6855SOL    HW232199   0.320   3.425  11.890 -1.3871 -0.6854  1.4831
 6856SOL     OW32200   3.831   3.353  11.775  0.1759 -0.4143  0.1822
 6856SOL    HW132201   3.794   3.377  11.690 -0.7325  0.7518  0.9159
 6856SOL    HW232202   3.904   3.415  11.773 -1.0379  0.9775 -0.8640
 6857SOL     OW32203   3.229   2.452   7.718 -0.3947  0.3919  0.5093
 6857SOL    HW132204   3.308   2.505   7.730  1.1324 -2.0298  1.0688
 6857SOL    HW232205   3.245   2.405   7.637  0.7458  2.4195 -0.4496
 6858SOL     OW32206   3.593   2.435   2.469 -0.1847  0.8511 -0.3698
 6858SOL    HW132207   3.651   2.368   2.432 -0.9122  0.0866 -0.1402
 6858SOL    HW232208   3.504   2.405   2.446  0.3421 -0.8277 -0.2117
 6859SOL     OW32209   1.496   0.047   6.098  0.2745  0.0467 -0.2949
 6859SOL    HW132210   1.529   0.130   6.063 -2.2997  0.4333 -1.8234
 6859SOL    HW232211   1.490   4.720   6.026 -0.3813 -1.4960  1.1019
 6860SOL     OW32212   4.367   1.941   2.679  0.1042 -0.3229 -0.2912
 6860SOL    HW132213   4.390   2.009   2.616 -1.2459  0.9726  0.5943
 6860SOL    HW232214   4.362   2.002   2.753  0.5534 -0.0300 -0.5068
 6861SOL     OW32215   3.241   4.270   9.767  0.3446 -0.3003 -0.1851
 6861SOL    HW132216   3.169   4.276   9.831 -0.1324  1.4505 -0.8864
 6861SOL    HW232217   3.317   4.268   9.825  0.8375 -0.5056 -0.8405
 6862SOL     OW32218   2.959   0.957   7.485 -0.4024  0.2118  0.1583
 6862SOL    HW132219   2.870   0.953   7.520 -1.0537  0.5273 -1.4968
 6862SOL    HW232220   2.963   0.874   7.437  0.9315  0.0698  0.5140
 6863SOL     OW32221   2.962   2.042   8.918  0.3181 -0.5156  0.2353
 6863SOL    HW132222   2.941   2.096   8.994 -1.4345  1.3177 -1.5510
 6863SOL    HW232223   2.947   2.102   8.845 -2.4474  2.1363  2.9753
 6864SOL     OW32224   0.973   2.066  14.682  0.5461  0.0609 -0.7529
 6864SOL    HW132225   0.912   2.137  14.661  0.7973  1.0246  1.7062
 6864SOL    HW232226   0.958   2.062  14.776  0.4486  0.4793 -0.7499
 6865SOL     OW32227   1.177   3.828   3.373  0.0107 -0.3872  0.2664
 6865SOL    HW132228   1.225   3.789   3.446 -0.6599 -2.5997 -0.4930
 6865SOL    HW232229   1.086   3.823   3.403  0.1294 -0.8783  0.5578
 6866SOL     OW32230   4.461   2.753   6.105 -0.3848 -0.6477 -0.0888
 6866SOL    HW132231   4.486   2.704   6.183 -2.4164 -0.8041  0.4594
 6866SOL    HW232232   4.407   2.692   6.055 -1.0201 -1.4758  1.6338
 6867SOL     OW32233   2.123   3.902  12.523 -0.1326 -0.6114 -0.2380
 6867SOL    HW132234   2.176   3.923  12.446 -1.3435  0.5605 -0.7625
 6867SOL    HW232235   2.173   3.826  12.553 -1.4245 -0.3006  2.7597
 6868SOL     OW32236   3.771   3.288  13.833  0.0171 -0.1888  0.4690
 6868SOL    HW132237   3.822   3.222  13.880 -0.3453 -0.4710  0.4638
 6868SOL    HW232238   3.683   3.256  13.852 -0.2324  0.6530  0.7290
 6869SOL     OW32239   1.459   1.069  12.457  0.3864 -0.3437  0.2703
 6869SOL    HW132240   1.415   1.154  12.456 -1.0111 -1.0645  0.2723
 6869SOL    HW232241   1.428   1.034  12.540 -1.1025 -0.8600 -0.5086
 6870SOL     OW32242   1.906   4.242   4.041  0.3235  0.4967 -0.3904
 6870SOL    HW132243   1.843   4.274   4.106 -0.0072 -1.2064  0.1209
 6870SOL    HW232244   1.904   4.147   4.053  0.4016  0.4717 -0.5663
 6871SOL     OW32245   0.159   0.782   7.449  0.2691  0.5051  0.2834
 6871SOL    HW132246   0.070   0.753   7.428 -0.0051  0.7626  1.0788
 6871SOL    HW232247   0.154   0.791   7.544 -1.4187  0.3756  0.2100
 6872SOL     OW32248   1.623   0.917   3.039 -0.0935  0.2521  0.1515
 6872SOL    HW132249   1.643   0.869   2.958 -0.5720  0.6952 -0.2330
 6872SOL    HW232250   1.658   1.006   3.028  1.4156 -0.1579  1.6917
 6873SOL     OW32251   1.814   4.551  14.780  0.3535  0.8808  0.3795
 6873SOL    HW132252   1.789   4.494  14.852 -0.0161  1.3893  0.6420
 6873SOL    HW232253   1.760   4.502  14.718 -1.0640  0.1397  2.2285
 6874SOL     OW32254   0.585   2.078  10.773  0.0942 -0.4597  0.4835
 6874SOL    HW132255   0.668   2.058  10.729  0.2798  1.6754 -0.1869
 6874SOL    HW232256   0.586   2.164  10.730  1.5545  0.7958  3.0028
 6875SOL     OW32257   0.027   4.442   8.600 -0.9103 -0.5556 -0.5504
 6875SOL    HW132258   0.097   4.401   8.550  0.1186 -0.5527  0.8723
 6875SOL    HW232259   4.695   4.422   8.537 -0.6010  1.4442 -1.5147
 6876SOL     OW32260   1.356   3.460   8.052 -0.1945  0.3236 -0.2276
 6876SOL    HW132261   1.276   3.451   7.999  0.6323 -2.2992 -1.0417
 6876SOL    HW232262   1.382   3.369   8.039 -0.5162  0.1826  0.0865
 6877SOL     OW32263   0.535   1.863   3.243  0.1850 -0.4941 -0.0436
 6877SOL    HW132264   0.443   1.850   3.223  0.2806  1.2382 -1.6122
 6877SOL    HW232265   0.570   1.849   3.156  1.6888 -4.0032  1.1234
 6878SOL     OW32266   3.393   3.243  12.467  0.2336 -0.1225  0.3130
 6878SOL    HW132267   3.475   3.282  12.497  0.3030  0.6925 -0.9338
 6878SOL    HW232268   3.365   3.202  12.549 -1.6019  1.1588  0.3407
 6879SOL     OW32269   2.593   0.254   6.212 -0.2449 -0.1113 -0.0619
 6879SOL    HW132270   2.541   0.236   6.290  0.0070 -0.2931  0.0636
 6879SOL    HW232271   2.557   0.186   6.155 -1.2147  0.8648 -0.6250
 6880SOL     OW32272   2.535   0.174   1.793  0.0711 -0.0846 -0.2837
 6880SOL    HW132273   2.575   0.097   1.834 -2.4854 -1.2832 -0.0408
 6880SOL    HW232274   2.611   0.221   1.758  0.1736 -0.7083 -0.9114
 6881SOL     OW32275   2.397   1.485   6.942  0.7451  0.0098 -1.0901
 6881SOL    HW132276   2.318   1.457   6.988  2.4523  0.8980  2.3175
 6881SOL    HW232277   2.432   1.398   6.920 -3.2179 -1.9847  0.5712
 6882SOL     OW32278   2.346   1.340  14.637 -0.3763  0.0359  0.6346
 6882SOL    HW132279   2.293   1.419  14.643 -0.9675 -0.3273  0.2557
 6882SOL    HW232280   2.317   1.292  14.714  0.1851 -1.0182  0.1893
 6883SOL     OW32281   3.248   0.191   3.462  0.6632 -0.5845 -0.1952
 6883SOL    HW132282   3.258   0.138   3.541  0.2832 -0.9802 -0.4170
 6883SOL    HW232283   3.203   0.128   3.407 -1.1070  1.0592 -0.6341
 6884SOL     OW32284   0.348   3.880   8.379 -0.3133 -0.1489  0.1591
 6884SOL    HW132285   0.280   3.812   8.380 -1.0286  0.5636  0.7272
 6884SOL    HW232286   0.419   3.822   8.353 -0.4116 -0.5338  0.7547
 6885SOL     OW32287   3.654   0.023   4.633  0.3673  0.1318 -0.2467
 6885SOL    HW132288   3.588   4.720   4.576  1.9773 -1.7818 -0.8365
 6885SOL    HW232289   3.609   0.086   4.689  0.9856  0.2197  0.1528
 6886SOL     OW32290   4.151   0.014   9.387 -0.2970 -0.0392  0.3347
 6886SOL    HW132291   4.123   4.670   9.341 -0.3854  0.3957 -0.3712
 6886SOL    HW232292   4.085   0.074   9.353 -0.4571 -0.0216  0.6839
 6887SOL     OW32293   1.216   0.036   4.654  0.4272  0.0886 -0.3002
 6887SOL    HW132294   1.199   0.129   4.668 -0.8225  0.3089 -3.2912
 6887SOL    HW232295   1.194   0.027   4.561  0.0990  0.5344 -0.2674
 6888SOL     OW32296   4.041   4.732  15.319  0.0989 -0.0782 -0.4011
 6888SOL    HW132297   4.116   4.673  15.324  0.3411  0.1980 -0.7369
 6888SOL    HW232298   3.963   4.683  15.292  1.2302 -1.0205 -1.9400
 6889SOL     OW32299   0.870   3.588   5.147 -0.2493  0.4758 -0.2458
 6889SOL    HW132300   0.963   3.607   5.131 -0.0595 -0.4091 -0.1511
 6889SOL    HW232301   0.835   3.677   5.138 -1.1635  0.3698  2.3290
 6890SOL     OW32302   3.615   4.659   0.919 -0.0781 -0.0596 -0.2727
 6890SOL    HW132303   3.591   4.599   0.990 -1.9632  2.2043  0.9876
 6890SOL    HW232304   3.697   4.627   0.882 -1.2058  0.5959 -3.3358
 6891SOL     OW32305   2.115   0.593  11.916 -0.2702 -0.0278 -0.1316
 6891SOL    HW132306   2.113   0.501  11.944 -1.1473 -0.1529 -0.5904
 6891SOL    HW232307   2.179   0.593  11.845  1.0602  0.8130  1.0755
 6892SOL     OW32308   2.674   3.735  14.059 -0.1393 -0.7825 -0.1181
 6892SOL    HW132309   2.603   3.678  14.028 -1.9780  1.2423  0.4244
 6892SOL    HW232310   2.653   3.752  14.151  2.3599 -1.3463  0.5799
 6893SOL     OW32311   1.531   2.819   7.787  0.2585 -0.7271 -0.0129
 6893SOL    HW132312   1.467   2.786   7.725  0.7135  0.7608 -1.2876
 6893SOL    HW232313   1.554   2.899   7.740 -0.9273 -0.2586  0.1985
 6894SOL     OW32314   4.089   1.846   6.757  0.1319  0.8227 -0.5120
 6894SOL    HW132315   4.169   1.804   6.788 -0.2039  1.4668  1.2897
 6894SOL    HW232316   4.024   1.779   6.736  0.1428  1.0635 -1.2964
 6895SOL     OW32317   1.457   0.466   1.728 -0.1012  0.0793 -0.9287
 6895SOL    HW132318   1.497   0.491   1.644 -1.0342  0.8050 -1.1471
 6895SOL    HW232319   1.376   0.516   1.733 -0.0079  0.1033  0.3325
 6896SOL     OW32320   1.251   2.041   6.953 -0.4348  0.2132  0.2840
 6896SOL    HW132321   1.313   2.095   7.002  1.6964 -0.0216 -2.1632
 6896SOL    HW232322   1.206   2.003   7.028  0.1136 -1.2337 -0.1280
 6897SOL     OW32323   3.232   2.680   0.250  0.2192 -0.2725  0.4419
 6897SOL    HW132324   3.179   2.626   0.309 -2.3149  0.1527 -1.4460
 6897SOL    HW232325   3.214   2.636   0.166  1.9352 -2.4931  1.2193
 6898SOL     OW32326   0.479   1.647   6.761 -0.3909 -0.2587  0.1051
 6898SOL    HW132327   0.444   1.735   6.774 -2.0082 -0.8357 -0.3942
 6898SOL    HW232328   0.535   1.642   6.838 -2.2340  0.5416  1.4811
 6899SOL     OW32329   4.723   2.736   1.542 -0.2127  0.0547  0.5525
 6899SOL    HW132330   0.044   2.717   1.617  0.3454 -0.5707 -0.0256
 6899SOL    HW232331   4.725   2.831   1.553 -1.1110 -0.0643  1.7539
 6900SOL     OW32332   4.302   4.050  10.863  0.2596  0.1460 -0.0159
 6900SOL    HW132333   4.389   4.075  10.830 -0.2262  0.7059 -0.8626
 6900SOL    HW232334   4.266   4.021  10.779  2.0658 -0.7847 -0.4875
 6901SOL     OW32335   4.168   0.623   8.675  0.6442  0.4213  0.1814
 6901SOL    HW132336   4.192   0.711   8.647  1.5300  0.4724  1.1147
 6901SOL    HW232337   4.245   0.579   8.639  0.3683 -0.7094  0.9704
 6902SOL     OW32338   3.545   0.306   2.416  0.2004  0.0637  0.3198
 6902SOL    HW132339   3.563   0.284   2.324  1.8707 -0.5901  0.7961
 6902SOL    HW232340   3.636   0.323   2.441 -0.0430 -1.0046  1.9036
 6903SOL     OW32341   0.308   2.615   5.764  0.2630  0.2966 -0.0589
 6903SOL    HW132342   0.345   2.527   5.758 -0.4569 -0.0683  0.8328
 6903SOL    HW232343   0.233   2.599   5.822  0.7884 -1.4047  0.1426
 6904SOL     OW32344   1.979   4.224   8.712  0.3249 -0.0783 -0.1131
 6904SOL    HW132345   1.966   4.249   8.621  1.2202 -0.3529 -0.3111
 6904SOL    HW232346   2.073   4.205   8.716  0.5710  1.1074 -0.3552
 6905SOL     OW32347   2.910   3.904  16.180  0.6727 -0.4908  0.0116
 6905SOL    HW132348   2.816   3.886  16.177 -0.1056  3.4804 -0.1828
 6905SOL    HW232349   2.909   3.994  16.146 -1.1718  0.0748  1.5971
 6906SOL     OW32350   4.568   4.636  13.324 -0.2952 -0.3408  0.6443
 6906SOL    HW132351   4.662   4.656  13.324 -0.8979  2.5890  0.7455
 6906SOL    HW232352   4.561   4.569  13.392  1.0816 -1.8898 -0.7359
 6907SOL     OW32353   2.430   0.739   8.110  0.2742 -0.0622 -0.3482
 6907SOL    HW132354   2.373   0.816   8.120  0.6124 -0.1572  2.3279
 6907SOL    HW232355   2.428   0.712   8.202  0.1362 -2.0021 -0.9111
 6908SOL     OW32356   1.618   2.130   6.260  0.1571  0.0851  0.6800
 6908SOL    HW132357   1.554   2.174   6.317 -0.0563  0.3666  0.2230
 6908SOL    HW232358   1.587   2.040   6.262  1.3058 -0.2580  2.7275
 6909SOL     OW32359   0.000   3.361  15.591  0.2502 -0.4796  0.6921
 6909SOL    HW132360   0.019   3.385  15.500 -1.3638  0.3380  0.5773
 6909SOL    HW232361   0.008   3.446  15.636  3.2941 -0.7214  0.6035
 6910SOL     OW32362   0.032   0.158   1.001  0.1523  0.1359 -0.4219
 6910SOL    HW132363   0.030   0.246   1.038  0.1397 -0.1237  0.2105
 6910SOL    HW232364   0.125   0.133   1.003  0.0592 -0.2140 -0.3906
 6911SOL     OW32365   1.299   0.907   2.121  0.5995 -0.0102  0.0362
 6911SOL    HW132366   1.269   0.848   2.052 -1.8280  1.3749 -0.1012
 6911SOL    HW232367   1.286   0.849   2.196 -0.1923  0.5098  0.3022
 6912SOL     OW32368   1.112   3.499   1.072  0.5715  0.1053 -0.6316
 6912SOL    HW132369   1.093   3.432   1.137 -0.3977 -0.6848 -1.7367
 6912SOL    HW232370   1.192   3.470   1.028 -0.2514  0.4033 -2.3532
 6913SOL     OW32371   4.568   4.237  17.422 -0.1069 -0.0045  0.0160
 6913SOL    HW132372   4.588   4.330  17.435 -0.8859  0.0213  0.9922
 6913SOL    HW232373   4.544   4.208  17.510  0.6486 -1.7239 -0.3582
 6914SOL     OW32374   4.198   1.087   8.580 -0.4251  0.3125  0.2871
 6914SOL    HW132375   4.264   1.137   8.627  1.6889 -1.0940 -1.1593
 6914SOL    HW232376   4.161   1.161   8.533 -1.2922  0.4234  1.1556
 6915SOL     OW32377   1.270   1.086   7.593 -0.0233 -0.3748  0.2204
 6915SOL    HW132378   1.258   1.040   7.510  1.8443  0.0018 -0.2649
 6915SOL    HW232379   1.192   1.142   7.593  0.4831  0.3473  1.4603
 6916SOL     OW32380   0.212   1.969  15.593 -0.5018 -0.2495 -0.6837
 6916SOL    HW132381   0.225   2.041  15.532 -0.8239  0.2572 -0.1510
 6916SOL    HW232382   0.186   1.902  15.529 -1.2875  0.3264 -0.9722
 6917SOL     OW32383   2.604   3.330   0.462  0.2512  0.1393 -0.0574
 6917SOL    HW132384   2.541   3.259   0.461  0.3465  0.0309  2.2579
 6917SOL    HW232385   2.551   3.394   0.510 -0.6451 -0.2846 -0.4874
 6918SOL     OW32386   1.446   3.336   2.700 -0.3984  0.0869  0.0408
 6918SOL    HW132387   1.372   3.335   2.761 -0.9567 -2.0818 -0.6839
 6918SOL    HW232388   1.406   3.344   2.614  1.7621 -1.1445 -1.0636
 6919SOL     OW32389   3.613   3.401   8.426  0.1517 -0.4829 -0.5315
 6919SOL    HW132390   3.705   3.380   8.409  0.0631  0.5706 -2.2465
 6919SOL    HW232391   3.574   3.411   8.339 -1.3113 -0.3210  0.1476
 6920SOL     OW32392   1.709   2.229   6.617 -0.2719 -0.0714 -0.3259
 6920SOL    HW132393   1.633   2.182   6.582  0.5415  1.3209 -3.9435
 6920SOL    HW232394   1.670   2.313   6.641 -0.2938  0.0601 -0.8147
 6921SOL     OW32395   4.661   4.465   3.028 -0.7773 -0.4674 -0.7101
 6921SOL    HW132396   4.568   4.444   3.023 -0.6034 -0.9157 -2.0149
 6921SOL    HW232397   4.674   4.528   2.957  0.6249  1.6787  1.4405
 6922SOL     OW32398   1.464   0.633  17.583  0.3983  0.2799 -0.0098
 6922SOL    HW132399   1.452   0.583  17.664  0.1421  3.0577  1.6575
 6922SOL    HW232400   1.472   0.723  17.613 -0.0397  0.8249 -1.5534
 6923SOL     OW32401   1.618   4.643   6.534  0.4362  0.2840 -0.1318
 6923SOL    HW132402   1.701   4.638   6.581 -0.1289  1.7226  1.0140
 6923SOL    HW232403   1.644   4.651   6.442  1.2330  0.5405  0.1210
 6924SOL     OW32404   4.597   3.147   8.975  0.5358 -0.3955 -0.4154
 6924SOL    HW132405   4.556   3.228   9.007  0.5303 -0.3559 -0.5221
 6924SOL    HW232406   4.576   3.145   8.882  0.3967 -0.0586 -0.3929
 6925SOL     OW32407   1.627   3.338  17.255  0.0342 -0.0091  0.6149
 6925SOL    HW132408   1.638   3.422  17.301 -2.0823  0.8745 -0.4804
 6925SOL    HW232409   1.694   3.348  17.188 -0.5015  1.2758  0.2540
 6926SOL     OW32410   1.333   0.236   5.591  0.3832  0.2909  0.7532
 6926SOL    HW132411   1.415   0.238   5.542 -1.8974  0.7546 -3.0549
 6926SOL    HW232412   1.287   0.165   5.545  1.2447  0.3705 -0.2297
 6927SOL     OW32413   3.296   2.719   4.411  0.8073  0.0188 -0.0151
 6927SOL    HW132414   3.227   2.675   4.461  0.2120 -1.4757 -2.1194
 6927SOL    HW232415   3.246   2.795   4.378 -1.4553 -1.0308  0.9856
 6928SOL     OW32416   3.171   0.826   5.816  0.1132 -0.5822  0.1139
 6928SOL    HW132417   3.112   0.752   5.808  2.8262 -2.5099 -1.7726
 6928SOL    HW232418   3.253   0.777   5.809  0.5800  0.0923  0.8015
 6929SOL     OW32419   1.575   0.901   3.461 -0.1303  0.0464  0.2652
 6929SOL    HW132420   1.583   0.911   3.556  0.1043 -1.7622  0.4410
 6929SOL    HW232421   1.514   0.973   3.445 -0.6983 -0.1605  1.5290
 6930SOL     OW32422   0.744   1.386   7.784 -0.3154 -0.2989  0.0660
 6930SOL    HW132423   0.832   1.408   7.814 -0.4597 -0.8159  0.8586
 6930SOL    HW232424   0.733   1.448   7.712 -1.0988 -0.2859  0.1990
 6931SOL     OW32425   0.642   1.061   7.101 -0.1670 -0.2467 -0.3351
 6931SOL    HW132426   0.573   1.090   7.041 -0.1969  0.4838  0.0518
 6931SOL    HW232427   0.588   1.058   7.179 -2.4826  0.7442 -1.8967
 6932SOL     OW32428   1.770   4.097   3.498 -0.3078 -0.1783 -0.2489
 6932SOL    HW132429   1.704   4.030   3.510 -1.6088  0.9295 -1.1745
 6932SOL    HW232430   1.756   4.121   3.406 -2.0381 -1.0121 -0.1973
 6933SOL     OW32431   4.461   0.052   6.175  0.0711  0.4442 -0.5820
 6933SOL    HW132432   4.411   0.126   6.207  2.1144  1.8260 -0.6205
 6933SOL    HW232433   4.445   4.725   6.245  2.3561  2.3786  1.6597
 6934SOL     OW32434   0.949   0.157   7.452 -0.7510 -0.1942 -0.1190
 6934SOL    HW132435   1.041   0.180   7.447 -0.5251 -0.9176  0.7850
 6934SOL    HW232436   0.908   0.243   7.463 -0.2894  0.0908 -0.6286
 6935SOL     OW32437   4.394   1.299   1.652 -0.1172 -0.5710 -0.3135
 6935SOL    HW132438   4.398   1.324   1.560  0.3441 -2.5410 -0.8387
 6935SOL    HW232439   4.343   1.218   1.653  1.2813 -1.4323  0.8860
 6936SOL     OW32440   3.143   1.857  12.712  0.3321  0.6107 -0.3442
 6936SOL    HW132441   3.154   1.775  12.759  1.8291  1.0597  0.0717
 6936SOL    HW232442   3.204   1.915  12.757 -1.0954  0.5760  1.6238
 6937SOL     OW32443   4.491   4.341   6.214  0.0711  0.3461 -0.9784
 6937SOL    HW132444   4.540   4.293   6.281  0.2525 -0.0006 -1.3558
 6937SOL    HW232445   4.412   4.287   6.217 -0.6375  1.3507 -1.6042
 6938SOL     OW32446   0.125   3.822   4.490 -0.4460 -0.0617 -0.4195
 6938SOL    HW132447   0.093   3.840   4.401 -0.5541  2.6759  0.1643
 6938SOL    HW232448   0.070   3.860   4.558 -0.1687 -0.1708 -0.1342
 6939SOL     OW32449   0.782   4.655   8.377  0.2248  0.0709  0.3122
 6939SOL    HW132450   0.690   4.657   8.403  0.1249 -0.1457 -0.0298
 6939SOL    HW232451   0.795   4.562   8.360  0.8474  0.3809 -0.8940
 6940SOL     OW32452   4.010   2.588  17.106  0.3724 -0.2646  0.1909
 6940SOL    HW132453   3.982   2.499  17.085 -0.6684 -0.1986  1.3028
 6940SOL    HW232454   3.943   2.642  17.064  0.8258 -0.6681 -1.0374
 6941SOL     OW32455   1.374   4.274   6.087  0.0041 -0.1885 -0.7131
 6941SOL    HW132456   1.389   4.188   6.048  0.8597 -0.4405  0.1758
 6941SOL    HW232457   1.464   4.289   6.114 -1.1936  2.1694  1.9514
 6942SOL     OW32458   1.033   2.353   6.814  0.2836 -0.2900 -0.0838
 6942SOL    HW132459   1.120   2.365   6.852 -0.4837 -0.4196  1.7237
 6942SOL    HW232460   1.013   2.442   6.785 -3.1139 -1.1590 -0.3664
 6943SOL     OW32461   0.528   1.745  15.312 -0.0415 -0.3205 -0.1905
 6943SOL    HW132462   0.451   1.781  15.268  0.3987  3.1951  1.8782
 6943SOL    HW232463   0.515   1.766  15.405 -3.3663 -1.7436 -0.3087
 6944SOL     OW32464   1.319   2.775   4.503 -0.4539 -0.5189  0.1834
 6944SOL    HW132465   1.229   2.750   4.484 -0.2430 -0.9128 -0.3074
 6944SOL    HW232466   1.364   2.697   4.471 -0.9592 -0.4619 -0.6824
 6945SOL     OW32467   1.124   3.143   8.774 -0.3095 -1.2755  0.5459
 6945SOL    HW132468   1.213   3.142   8.738 -0.5676  0.6434 -0.1221
 6945SOL    HW232469   1.066   3.128   8.699  1.6388  0.2881 -1.2696
 6946SOL     OW32470   3.314   1.114  11.489  0.4081 -0.3899  0.0921
 6946SOL    HW132471   3.333   1.087  11.579  0.5813 -4.9314 -1.2694
 6946SOL    HW232472   3.293   1.206  11.503  0.8679 -0.1190 -0.9804
 6947SOL     OW32473   3.649   3.203   4.513  0.1470 -0.4248  0.0860
 6947SOL    HW132474   3.626   3.279   4.459  0.7543 -0.9893 -0.9506
 6947SOL    HW232475   3.583   3.210   4.583 -1.5711  1.3024 -1.6919
 6948SOL     OW32476   2.880   4.093   2.605 -0.3481 -0.3177  0.0740
 6948SOL    HW132477   2.947   4.162   2.612 -0.4546 -0.0641 -1.5445
 6948SOL    HW232478   2.935   4.016   2.588 -0.4135 -0.2038 -0.6381
 6949SOL     OW32479   0.782   1.375   0.460  0.0345  0.0094  1.0236
 6949SOL    HW132480   0.696   1.418   0.458 -0.4025 -1.0554 -3.0644
 6949SOL    HW232481   0.802   1.388   0.367 -3.4839 -1.7758  0.0154
 6950SOL     OW32482   0.150   3.192   7.547  0.3502 -0.3241  0.2542
 6950SOL    HW132483   0.219   3.135   7.579 -1.2043 -0.4855  3.2697
 6950SOL    HW232484   0.095   3.129   7.500  0.1604  1.1234 -1.4985
 6951SOL     OW32485   3.681   4.401   4.470  0.0336  0.1129  0.4361
 6951SOL    HW132486   3.773   4.428   4.478  0.0036  0.8371 -1.6407
 6951SOL    HW232487   3.654   4.439   4.554  0.4210 -0.8325  0.9905
 6952SOL     OW32488   0.911   0.560   7.202  0.2774 -0.3240 -0.1075
 6952SOL    HW132489   0.955   0.495   7.257  1.0329  1.1622  1.0119
 6952SOL    HW232490   0.933   0.646   7.237  1.3352 -0.9319  0.7007
 6953SOL     OW32491   2.442   3.736  15.277 -0.1421  1.0250  0.2425
 6953SOL    HW132492   2.403   3.661  15.320  1.4996  0.4526  0.7406
 6953SOL    HW232493   2.527   3.740  15.321  0.5276  0.9759 -1.0210
 6954SOL     OW32494   3.969   1.332   8.940  0.1975  0.5682 -0.0464
 6954SOL    HW132495   3.981   1.239   8.919  2.6489  1.3256 -2.0695
 6954SOL    HW232496   4.023   1.342   9.018  0.6941 -1.2609 -0.1462
 6955SOL     OW32497   0.807   2.199   6.850 -0.3867 -0.4338 -0.3921
 6955SOL    HW132498   0.882   2.256   6.864  0.1006 -0.7402 -1.7140
 6955SOL    HW232499   0.786   2.211   6.757  1.8807  0.5990 -0.7553
 6956SOL     OW32500   4.006   3.550  11.848 -0.2817 -0.4512  0.1458
 6956SOL    HW132501   4.018   3.643  11.866 -0.7473  0.1051 -2.3967
 6956SOL    HW232502   4.089   3.514  11.881 -0.6953 -1.4710  0.0548
 6957SOL     OW32503   4.345   4.704   3.021  0.1956 -0.2094  0.1571
 6957SOL    HW132504   4.369   4.652   2.944  3.4537 -1.9760  2.3144
 6957SOL    HW232505   4.352   0.058   2.988  1.5804 -0.4036 -0.0863
 6958SOL     OW32506   1.040   2.977  15.102  0.2477 -0.5678  0.0588
 6958SOL    HW132507   1.111   2.994  15.040  0.6733  0.4869  0.8324
 6958SOL    HW232508   0.995   2.913  15.047  1.2075 -1.7791  0.6863
 6959SOL     OW32509   3.847   3.647   7.358  0.3093  0.0213  0.4643
 6959SOL    HW132510   3.790   3.680   7.428 -1.8121  1.8382 -2.0960
 6959SOL    HW232511   3.873   3.730   7.317 -2.0915  0.7174  0.3034
 6960SOL     OW32512   3.112   0.327  17.271  0.2758  0.1344  0.4569
 6960SOL    HW132513   3.025   0.287  17.263 -0.2074  1.0509  1.0918
 6960SOL    HW232514   3.166   0.264  17.318 -2.1022 -0.5604  2.2961
 6961SOL     OW32515   0.876   1.419  10.964 -0.4841  0.2013 -0.4607
 6961SOL    HW132516   0.900   1.499  11.010 -1.3914 -0.6531  1.4669
 6961SOL    HW232517   0.959   1.398  10.920 -0.5658 -1.2352  0.0655
 6962SOL     OW32518   3.582   0.664   4.537  0.0145 -0.1698 -0.4056
 6962SOL    HW132519   3.644   0.737   4.539 -1.6777  1.3799 -3.1734
 6962SOL    HW232520   3.511   0.698   4.482 -0.3411  0.1014  0.2186
 6963SOL     OW32521   1.260   2.297   6.151 -0.6172  0.2909  0.0252
 6963SOL    HW132522   1.242   2.203   6.145  2.1281 -0.2777  0.8806
 6963SOL    HW232523   1.301   2.307   6.065  0.7184  0.2287  0.6541
 6964SOL     OW32524   1.676   3.739  13.100  0.0145 -0.2538 -0.0843
 6964SOL    HW132525   1.629   3.806  13.149  0.6986 -1.9495  2.9105
 6964SOL    HW232526   1.765   3.747  13.135  0.8545 -0.8480 -2.0727
 6965SOL     OW32527   1.019   1.825  14.501 -0.4966 -0.0267 -0.5077
 6965SOL    HW132528   1.086   1.824  14.568 -2.4049 -0.5940  1.3961
 6965SOL    HW232529   0.973   1.903  14.532  1.9139  1.6761 -1.2513
 6966SOL     OW32530   3.488   0.062  13.195 -0.7829  0.1812 -0.4129
 6966SOL    HW132531   3.501   0.106  13.110  0.5380  1.5604  0.4887
 6966SOL    HW232532   3.420   0.113  13.239  0.7778  0.7325  1.3756
 6967SOL     OW32533   1.637   0.009   3.232 -0.1807 -0.1639  0.1173
 6967SOL    HW132534   1.663   4.692   3.308  1.8747  2.3302  1.1259
 6967SOL    HW232535   1.648   0.091   3.280  1.5592 -0.8735  0.9356
 6968SOL     OW32536   2.349   3.142   4.790 -0.5544 -0.2433 -0.1477
 6968SOL    HW132537   2.270   3.190   4.765 -0.4217 -0.5536 -1.1615
 6968SOL    HW232538   2.376   3.199   4.862 -0.2870  0.8472 -1.1261
 6969SOL     OW32539   0.472   2.390   5.737  0.4994  0.3808 -0.5826
 6969SOL    HW132540   0.548   2.332   5.729 -1.6183 -2.6694  1.1407
 6969SOL    HW232541   0.425   2.358   5.814 -0.3154 -0.1380 -1.2873
 6970SOL     OW32542   3.963   3.175  10.316 -0.0210  0.0733  0.1198
 6970SOL    HW132543   3.997   3.218  10.395  0.4001 -0.2654  0.1250
 6970SOL    HW232544   3.874   3.210  10.315  0.4924  1.4447  1.8618
 6971SOL     OW32545   0.553   3.128  10.976 -0.2515 -0.4025 -0.7444
 6971SOL    HW132546   0.459   3.145  10.975 -0.6270 -2.4527 -0.9095
 6971SOL    HW232547   0.571   3.156  10.886  3.1692 -1.4310 -0.3967
 6972SOL     OW32548   4.736   4.443   6.671 -0.1271  0.2260  0.1987
 6972SOL    HW132549   4.709   4.450   6.579  3.0257  0.0298 -0.7453
 6972SOL    HW232550   0.019   4.533   6.695  2.3852 -0.4377  0.7217
 6973SOL     OW32551   0.514   0.991   2.349 -0.2375  0.5062 -0.0703
 6973SOL    HW132552   0.425   1.001   2.314 -0.6729  0.3188  0.9987
 6973SOL    HW232553   0.499   1.033   2.433  0.8545 -1.6550  1.1944
 6974SOL     OW32554   2.505   2.184   3.059  0.0540  0.1599 -0.2223
 6974SOL    HW132555   2.479   2.121   3.126  0.3572 -0.2180 -0.4585
 6974SOL    HW232556   2.463   2.140   2.986 -1.3418  2.9463 -1.1022
 6975SOL     OW32557   4.117   3.212   2.589 -0.4658 -0.4901  0.1237
 6975SOL    HW132558   4.154   3.300   2.585 -3.0278  0.5866 -0.2276
 6975SOL    HW232559   4.046   3.222   2.526  1.6467  0.8244 -2.0382
 6976SOL     OW32560   2.227   1.507   3.136 -0.7351 -0.2239  0.0091
 6976SOL    HW132561   2.253   1.444   3.203 -0.1464 -0.0922 -0.0986
 6976SOL    HW232562   2.221   1.460   3.053 -1.6046 -0.3860  0.1560
 6977SOL     OW32563   3.934   0.076   2.324 -0.1341  0.5629 -0.0072
 6977SOL    HW132564   3.900   4.728   2.356  1.0414  0.0143 -0.2003
 6977SOL    HW232565   3.973   0.044   2.242 -2.9838  0.2756 -1.2523
 6978SOL     OW32566   3.640   1.789   2.855 -0.1737  0.1242  0.6586
 6978SOL    HW132567   3.687   1.713   2.820 -1.1193 -0.1655  0.0240
 6978SOL    HW232568   3.556   1.778   2.810  0.5216  0.5211 -0.7412
 6979SOL     OW32569   1.482   1.169   7.413  0.6086 -0.1422  0.2617
 6979SOL    HW132570   1.427   1.151   7.489 -1.4514  0.8626 -0.9915
 6979SOL    HW232571   1.430   1.224   7.354 -0.1105  1.0550  2.0119
 6980SOL     OW32572   3.765   3.367  10.264  0.1388  0.4112 -0.0016
 6980SOL    HW132573   3.685   3.325  10.297  1.1953 -0.1757  1.7991
 6980SOL    HW232574   3.746   3.398  10.175  1.0790 -1.1197 -0.7147
 6981SOL     OW32575   2.803   1.545   3.565 -0.1609  0.3115 -0.4722
 6981SOL    HW132576   2.801   1.635   3.531  0.5682  1.3945  2.2536
 6981SOL    HW232577   2.756   1.559   3.647  1.2068  6.1197 -0.6277
 6982SOL     OW32578   2.511   1.156   9.410 -0.2924 -0.1346 -0.1455
 6982SOL    HW132579   2.448   1.163   9.338 -0.3576 -0.2607 -0.1021
 6982SOL    HW232580   2.528   1.248   9.429  1.3036 -0.1382 -1.6043
 6983SOL     OW32581   1.131   4.656   2.496 -0.4619  0.0430  0.0277
 6983SOL    HW132582   1.139   0.014   2.517  1.6840  0.0167 -0.7065
 6983SOL    HW232583   1.222   4.652   2.467 -1.0740  0.3350 -1.9216
 6984SOL     OW32584   2.815   0.742  11.734  0.0110 -0.4130  0.0879
 6984SOL    HW132585   2.825   0.837  11.730 -1.8503 -0.1506  2.0727
 6984SOL    HW232586   2.848   0.723  11.822 -3.1209 -3.0051  0.6890
 6985SOL     OW32587   0.245   1.959   5.187 -0.4017 -0.1433 -0.2342
 6985SOL    HW132588   0.231   1.930   5.277 -1.6822 -2.6378 -1.2236
 6985SOL    HW232589   0.220   1.875   5.148  1.2731 -0.9350  0.3510
 6986SOL     OW32590   1.529   2.712  10.698 -0.6155  0.5934  0.0910
 6986SOL    HW132591   1.561   2.756  10.619  1.5042 -0.7255  0.2199
 6986SOL    HW232592   1.606   2.703  10.754 -0.4749 -0.6853 -0.3034
 6987SOL     OW32593   3.607   2.653  17.473 -0.3836  0.5173  0.1591
 6987SOL    HW132594   3.696   2.626  17.452 -0.7264 -0.6747  0.2656
 6987SOL    HW232595   3.606   2.748  17.482 -1.7454  0.2839  2.6866
 6988SOL     OW32596   4.398   3.233   4.970 -0.5509 -0.0559  0.2312
 6988SOL    HW132597   4.416   3.258   5.061  0.8690  1.6167 -0.4914
 6988SOL    HW232598   4.473   3.283   4.937  0.0920  0.2816  2.1528
 6989SOL     OW32599   0.644   1.499  16.866 -0.9603  0.1338  0.1034
 6989SOL    HW132600   0.619   1.406  16.873  2.7492 -0.9374 -0.8647
 6989SOL    HW232601   0.737   1.496  16.846 -0.5448  1.8018  1.8243
 6990SOL     OW32602   1.815   1.284  10.165 -0.1770 -0.3627  0.1666
 6990SOL    HW132603   1.823   1.245  10.252 -0.1433  1.4289  0.9635
 6990SOL    HW232604   1.720   1.296  10.166 -0.1773 -0.4524  0.7683
 6991SOL     OW32605   3.460   1.594  16.172  0.3485  0.0100  0.1200
 6991SOL    HW132606   3.549   1.609  16.139  0.2127 -0.9595 -0.6789
 6991SOL    HW232607   3.407   1.652  16.117 -1.2055 -4.5507 -3.1391
 6992SOL     OW32608   1.892   3.259   9.457  0.0453  0.6439 -0.2351
 6992SOL    HW132609   1.890   3.355   9.461  0.0615  0.6984 -1.6594
 6992SOL    HW232610   1.960   3.266   9.390  1.9378 -2.8671  1.3032
 6993SOL     OW32611   3.578   4.557   8.628  0.1577  0.2697 -0.4497
 6993SOL    HW132612   3.502   4.614   8.639 -1.0056 -0.7048 -3.3189
 6993SOL    HW232613   3.642   4.624   8.606  0.4820 -0.3069 -1.2746
 6994SOL     OW32614   2.844   1.378  12.588  0.3906 -0.3468 -0.5909
 6994SOL    HW132615   2.843   1.447  12.656  0.6090 -1.4280  0.5109
 6994SOL    HW232616   2.920   1.416  12.545 -0.3036 -0.6984 -2.1001
 6995SOL     OW32617   3.499   1.103   6.770  0.6273  0.3484 -0.1345
 6995SOL    HW132618   3.525   1.094   6.678 -0.3622  1.5136 -0.5287
 6995SOL    HW232619   3.472   1.011   6.778  1.4536  0.1088 -0.0782
 6996SOL     OW32620   4.282   3.998  16.788 -0.2478  0.0932  0.4379
 6996SOL    HW132621   4.345   4.048  16.736 -0.9154  1.5898  1.0740
 6996SOL    HW232622   4.345   3.980  16.857  1.6237 -1.0021 -1.5716
 6997SOL     OW32623   0.346   2.404   8.630  0.0241 -0.2996  0.7483
 6997SOL    HW132624   0.253   2.382   8.628 -0.1798  0.4044  2.8588
 6997SOL    HW232625   0.363   2.482   8.682 -1.6037  0.0643  0.7218
 6998SOL     OW32626   3.998   4.179   9.520 -0.0600 -0.2767  0.0337
 6998SOL    HW132627   4.091   4.156   9.519 -0.4032 -1.5962 -1.1689
 6998SOL    HW232628   3.980   4.194   9.612  0.4426 -1.7871  0.3806
 6999SOL     OW32629   1.746   1.082   8.382 -0.1717 -0.0242 -0.3660
 6999SOL    HW132630   1.767   1.169   8.415 -1.6584 -0.1899  0.9817
 6999SOL    HW232631   1.652   1.080   8.365 -0.0492  0.1335 -1.1032
 7000SOL     OW32632   2.958   4.317   7.124  0.1328 -0.2234  0.9884
 7000SOL    HW132633   2.879   4.263   7.131 -0.8182  0.6343 -3.0361
 7000SOL    HW232634   3.021   4.254   7.088 -1.1941 -1.9132  1.6199
 7001SOL     OW32635   4.000   2.635   4.871  0.3482 -0.0558  1.0258
 7001SOL    HW132636   3.938   2.578   4.826 -0.2885  0.9903  0.5692
 7001SOL    HW232637   3.975   2.724   4.846 -0.7653 -0.9960 -1.1734
 7002SOL     OW32638   1.386   4.064  13.395 -0.0680  0.1916 -0.1034
 7002SOL    HW132639   1.292   4.062  13.376 -0.7715  1.0821  3.2824
 7002SOL    HW232640   1.413   4.098  13.310  0.2780  0.3409  0.0673
 7003SOL     OW32641   1.038   2.532  12.565 -0.8529 -0.2163  0.0054
 7003SOL    HW132642   0.947   2.504  12.563 -0.0417 -2.7317 -1.0923
 7003SOL    HW232643   1.039   2.583  12.484  2.6215  0.8413  0.7078
 7004SOL     OW32644   2.297   3.214   6.417  0.3673 -0.0502  0.2969
 7004SOL    HW132645   2.377   3.265   6.406  0.8537 -0.9450 -0.2984
 7004SOL    HW232646   2.316   3.175   6.502  2.8900  0.2209 -0.1251
 7005SOL     OW32647   2.280   1.134  14.435 -0.2014 -0.4903 -0.3665
 7005SOL    HW132648   2.301   1.169  14.522 -0.5401  2.4913 -1.4906
 7005SOL    HW232649   2.272   1.040  14.456  1.3804 -0.3706  0.7571
 7006SOL     OW32650   2.732   4.326   8.961  0.2376 -0.0645  0.1541
 7006SOL    HW132651   2.674   4.395   8.995  1.9160  0.6790  1.5275
 7006SOL    HW232652   2.739   4.335   8.866  0.1993 -1.0827  0.0572
 7007SOL     OW32653   0.128   1.106   4.143 -0.5079 -0.0671 -0.2008
 7007SOL    HW132654   0.099   1.176   4.085  1.1019  0.2502 -0.6135
 7007SOL    HW232655   0.058   1.050   4.108 -0.2306 -0.2424 -0.4689
 7008SOL     OW32656   2.589   3.666   2.457  0.4745  0.1814  0.4516
 7008SOL    HW132657   2.499   3.690   2.480  0.0354 -1.1257  0.0668
 7008SOL    HW232658   2.599   3.686   2.364  0.3287 -0.7895  0.2320
 7009SOL     OW32659   2.308   1.263  10.022  0.0176 -0.3136 -0.2525
 7009SOL    HW132660   2.402   1.268  10.008 -0.2806  1.9194 -1.4757
 7009SOL    HW232661   2.277   1.174  10.001 -1.1897 -0.0297  0.3029
 7010SOL     OW32662   1.947   3.403  11.501  0.1202 -0.3796 -0.4046
 7010SOL    HW132663   1.870   3.459  11.508  0.6225  0.5127 -2.0454
 7010SOL    HW232664   1.914   3.323  11.460  1.3051 -0.9826 -0.1757
 7011SOL     OW32665   1.189   4.621  10.663 -0.0875 -0.2768 -0.5276
 7011SOL    HW132666   1.270   4.661  10.629 -0.7798  1.1505 -0.5078
 7011SOL    HW232667   1.220   4.554  10.723  0.5232  0.5389  0.0763
 7012SOL     OW32668   0.773   0.985   2.426  0.3262 -0.5329  0.0099
 7012SOL    HW132669   0.826   1.064   2.417  2.4742 -2.1757 -1.5503
 7012SOL    HW232670   0.684   1.004   2.395  1.1738  2.4709 -0.5059
 7013SOL     OW32671   1.767   3.143   2.914  0.3819  0.1984 -0.4072
 7013SOL    HW132672   1.748   3.150   3.008  1.0727  0.1908 -0.2609
 7013SOL    HW232673   1.697   3.082   2.893 -0.1341  0.1113  1.4888
 7014SOL     OW32674   3.603   3.615  13.963 -0.6844 -0.9423  0.4890
 7014SOL    HW132675   3.684   3.568  13.945  0.1727  0.2764  1.2042
 7014SOL    HW232676   3.632   3.705  13.944 -2.4035 -0.2844  0.9343
 7015SOL     OW32677   1.589   0.546  11.943  0.1345 -0.3073 -0.3858
 7015SOL    HW132678   1.678   0.573  11.918 -0.0333  0.9717  0.3902
 7015SOL    HW232679   1.584   0.452  11.926 -0.4388 -0.2024 -0.8052
 7016SOL     OW32680   4.572   4.466  16.939 -0.4388 -0.2730 -0.4265
 7016SOL    HW132681   4.576   4.515  17.022  1.8806 -1.3987  0.1349
 7016SOL    HW232682   4.555   4.377  16.970  1.0744 -0.7621 -1.0015
 7017SOL     OW32683   0.803   1.841   7.929 -0.1233 -0.1074 -1.0744
 7017SOL    HW132684   0.780   1.846   7.837 -1.2750  1.2703 -0.7093
 7017SOL    HW232685   0.757   1.761   7.957 -0.9092  0.6882 -0.0922
 7018SOL     OW32686   2.462   0.415   8.332 -0.0935  0.2897 -0.6642
 7018SOL    HW132687   2.500   0.359   8.264 -0.3412 -2.6560  1.5851
 7018SOL    HW232688   2.481   0.356   8.405  0.1386  1.9607  0.6041
 7019SOL     OW32689   1.528   4.325   3.398  0.4137 -0.5709 -0.1853
 7019SOL    HW132690   1.531   4.229   3.405  1.4558 -0.7556 -3.3612
 7019SOL    HW232691   1.475   4.340   3.320 -0.0263  0.8185  0.3760
 7020SOL     OW32692   3.561   2.088   9.200 -0.0848 -0.0765 -0.4635
 7020SOL    HW132693   3.567   2.129   9.286 -1.2398 -1.5407  0.3062
 7020SOL    HW232694   3.546   1.994   9.215  1.8904 -0.4999 -1.1096
 7021SOL     OW32695   3.459   0.234  17.222 -0.5873  0.5103  0.1492
 7021SOL    HW132696   3.394   0.270  17.161  0.1874 -2.1436 -2.2597
 7021SOL    HW232697   3.436   0.141  17.221 -2.1260  0.8658  3.6258
 7022SOL     OW32698   2.769   4.307   2.421  0.3113 -0.2438 -0.9269
 7022SOL    HW132699   2.782   4.245   2.493 -0.7096  1.0715  0.3884
 7022SOL    HW232700   2.697   4.262   2.377 -0.2572 -0.9752  0.7288
 7023SOL     OW32701   1.088   1.798  15.139  0.1931  0.3249  0.3624
 7023SOL    HW132702   1.024   1.742  15.183 -1.0048  2.0842  0.8400
 7023SOL    HW232703   1.154   1.730  15.122  0.8629  1.5779 -2.1870
 7024SOL     OW32704   4.652   1.635   9.988  0.2000 -0.0435  0.8858
 7024SOL    HW132705   4.667   1.545  10.017  2.4197 -0.1277 -0.4934
 7024SOL    HW232706   4.648   1.679  10.072  1.5461  0.2482  0.7962
 7025SOL     OW32707   3.297   2.448   9.399 -0.3169  0.0642  0.3565
 7025SOL    HW132708   3.214   2.495   9.407 -0.8692 -0.9737  0.7013
 7025SOL    HW232709   3.311   2.451   9.304  1.3391 -0.6969  0.5743
 7026SOL     OW32710   1.868   4.590   4.426 -0.2821  0.1156 -0.0828
 7026SOL    HW132711   1.882   4.558   4.337 -0.8989 -0.7221  0.1238
 7026SOL    HW232712   1.896   4.680   4.411  0.5087 -0.1631 -0.2821
 7027SOL     OW32713   2.782   3.072   7.297  0.1092  0.5549  0.2164
 7027SOL    HW132714   2.697   3.095   7.335 -0.4014  1.0959 -1.2449
 7027SOL    HW232715   2.787   3.131   7.222  2.7968 -1.8170 -1.4531
 7028SOL     OW32716   4.214   0.731   7.229  0.4193 -0.3889  0.1962
 7028SOL    HW132717   4.158   0.784   7.173  1.0697 -0.2837 -0.3459
 7028SOL    HW232718   4.275   0.698   7.164 -0.2184 -0.7957 -0.1952
 7029SOL     OW32719   4.039   2.637   9.098 -0.4510  0.2024 -0.3923
 7029SOL    HW132720   3.962   2.596   9.137 -0.9636  0.9798 -0.5841
 7029SOL    HW232721   4.085   2.560   9.065 -0.3596  1.0943 -2.3946
 7030SOL     OW32722   3.649   2.180   2.280 -0.3285  0.2333  0.5352
 7030SOL    HW132723   3.638   2.097   2.326  2.3340 -0.5630 -0.2550
 7030SOL    HW232724   3.743   2.186   2.299 -0.3588  4.4454 -0.6530
 7031SOL     OW32725   4.669   1.160   6.723  0.2615 -0.4113  0.0438
 7031SOL    HW132726   4.621   1.093   6.771  0.7397 -1.7270 -1.3115
 7031SOL    HW232727   4.644   1.140   6.633 -1.0525  2.3608 -0.2313
 7032SOL     OW32728   2.003   4.159   2.843  0.2091  0.9787 -0.1794
 7032SOL    HW132729   1.930   4.103   2.868  0.8629 -0.1330 -0.7980
 7032SOL    HW232730   2.040   4.194   2.925 -2.1958  1.9445  0.5025
 7033SOL     OW32731   0.516   0.982  13.073  0.5333 -1.0051 -0.6449
 7033SOL    HW132732   0.498   1.049  13.007  0.5408 -0.4533 -0.0875
 7033SOL    HW232733   0.437   0.930  13.063 -0.1552 -0.1474  0.3442
 7034SOL     OW32734   4.484   3.183   7.552  0.0063 -0.9215 -0.5366
 7034SOL    HW132735   4.409   3.243   7.555  1.2005  0.5331 -0.2143
 7034SOL    HW232736   4.484   3.159   7.459  1.0710 -0.8565 -0.5542
 7035SOL     OW32737   3.058   3.695   7.276 -0.4714  0.2750 -0.0686
 7035SOL    HW132738   3.133   3.681   7.218  2.4360 -0.7695  3.9526
 7035SOL    HW232739   3.026   3.610   7.306 -2.8597  1.7380  1.5093
 7036SOL     OW32740   3.168   1.098   9.351 -0.6423  0.3236  0.4668
 7036SOL    HW132741   3.150   1.015   9.307  2.7489 -0.9891  1.5981
 7036SOL    HW232742   3.080   1.127   9.376 -0.6079 -0.4958  1.5359
 7037SOL     OW32743   2.834   3.378   3.149 -0.3374 -0.0080  0.0167
 7037SOL    HW132744   2.900   3.447   3.141 -0.2018 -0.1529 -0.1026
 7037SOL    HW232745   2.883   3.311   3.197 -1.5777 -0.3604  0.8095
 7038SOL     OW32746   3.174   1.095   5.757  0.4291  0.1514  0.1418
 7038SOL    HW132747   3.082   1.088   5.730  1.4913 -2.0224 -2.8424
 7038SOL    HW232748   3.180   1.002   5.780  0.6448 -0.1216 -1.0608
 7039SOL     OW32749   0.565   2.774   7.100  0.3477 -0.4141  0.3040
 7039SOL    HW132750   0.533   2.852   7.056  0.3245 -1.3373 -1.3048
 7039SOL    HW232751   0.640   2.747   7.047  1.4535 -0.1301  1.7090
 7040SOL     OW32752   3.267   2.410  11.737 -0.4180  0.3719 -0.2839
 7040SOL    HW132753   3.182   2.407  11.694 -1.1693 -0.0536  1.2040
 7040SOL    HW232754   3.246   2.370  11.822 -3.0345 -0.4685 -1.3371
 7041SOL     OW32755   4.010   1.482   0.107 -0.1534 -0.3876  0.1453
 7041SOL    HW132756   4.096   1.444   0.127 -0.0404  1.1029  2.5536
 7041SOL    HW232757   4.021   1.528   0.024  0.2386  0.8372  0.8773
 7042SOL     OW32758   2.083   3.093   7.367 -0.0370 -0.1138  0.7710
 7042SOL    HW132759   2.102   2.999   7.363 -0.4031 -0.0786 -1.7383
 7042SOL    HW232760   2.108   3.115   7.277 -0.7700  1.0378  0.8484
 7043SOL     OW32761   0.196   1.502  16.261  0.1933  0.6379  0.3578
 7043SOL    HW132762   0.288   1.513  16.286  0.1021  0.6212  0.7051
 7043SOL    HW232763   0.210   1.505  16.166 -0.2779 -1.3924  0.2246
 7044SOL     OW32764   3.181   2.792   2.232 -0.0525  0.0947 -0.5090
 7044SOL    HW132765   3.240   2.861   2.260 -0.3310 -0.0283  0.4080
 7044SOL    HW232766   3.145   2.766   2.317  1.1081  0.4186  0.0830
 7045SOL     OW32767   1.076   0.628   7.807 -0.1906 -0.2557  0.0160
 7045SOL    HW132768   0.998   0.683   7.803  0.1946  0.2469 -0.5005
 7045SOL    HW232769   1.050   0.551   7.757 -2.8345  0.5861  0.0727
 7046SOL     OW32770   2.879   4.296   6.829 -0.1123  0.1831 -0.3278
 7046SOL    HW132771   2.948   4.294   6.895 -1.1513 -0.7943  0.7096
 7046SOL    HW232772   2.883   4.208   6.793  2.9378 -0.0378  0.5641
 7047SOL     OW32773   4.656   3.384  15.313 -0.1097  0.4090  0.2325
 7047SOL    HW132774   0.009   3.417  15.320  0.9367 -2.2643 -0.2556
 7047SOL    HW232775   4.674   3.290  15.308 -1.2660  0.2134 -0.2063
 7048SOL     OW32776   3.181   0.681  11.643 -0.1879  0.3668 -0.2975
 7048SOL    HW132777   3.223   0.743  11.584  2.0524 -1.2024 -0.3545
 7048SOL    HW232778   3.250   0.618  11.662 -0.2079  0.6228  0.6287
 7049SOL     OW32779   3.136   4.041   4.808 -0.2195 -0.4875  0.0145
 7049SOL    HW132780   3.083   3.984   4.752  0.2066 -0.9115  0.0430
 7049SOL    HW232781   3.211   4.061   4.752 -0.0928 -1.1953 -0.0710
 7050SOL     OW32782   3.708   2.669   6.684  0.7357 -0.3639  0.6566
 7050SOL    HW132783   3.795   2.652   6.719  1.2960 -0.0959 -0.5781
 7050SOL    HW232784   3.662   2.702   6.761  1.4590 -0.4671  1.1402
 7051SOL     OW32785   3.275   2.852   0.915  0.5728 -0.4274  0.0207
 7051SOL    HW132786   3.279   2.783   0.981  0.3285 -1.7080 -1.2945
 7051SOL    HW232787   3.339   2.814   0.854  1.4186 -0.2099  0.7662
 7052SOL     OW32788   0.383   3.721   4.578 -0.2043 -0.1956  0.1919
 7052SOL    HW132789   0.296   3.736   4.541  0.1507  0.3587 -0.4163
 7052SOL    HW232790   0.405   3.632   4.551  2.4782  1.7420 -3.9265
 7053SOL     OW32791   3.304   0.844  16.034 -0.2620 -0.2367 -0.0375
 7053SOL    HW132792   3.223   0.838  15.984  1.5527  0.0133 -3.0525
 7053SOL    HW232793   3.310   0.755  16.068  0.1683  0.1024  0.7905
 7054SOL     OW32794   0.636   3.449   8.450 -0.2311 -0.0014 -0.3205
 7054SOL    HW132795   0.571   3.381   8.429 -2.1258  1.5794  0.3664
 7054SOL    HW232796   0.679   3.442   8.364 -0.4919  2.0533 -0.6217
 7055SOL     OW32797   0.895   2.228  13.326  0.2412 -0.2566 -0.7297
 7055SOL    HW132798   0.949   2.187  13.395 -0.1695 -0.3729 -0.4787
 7055SOL    HW232799   0.873   2.150  13.274 -0.5528  1.2113 -2.5679
 7056SOL     OW32800   2.228   3.819   3.157 -0.0206 -0.1560  0.0896
 7056SOL    HW132801   2.322   3.839   3.162 -0.4363  2.1179 -1.4431
 7056SOL    HW232802   2.187   3.897   3.196  1.4831  0.6402  0.0911
 7057SOL     OW32803   4.593   3.186   4.106 -1.2114 -0.3300  0.1212
 7057SOL    HW132804   4.631   3.211   4.190  1.6771 -0.2864 -1.2003
 7057SOL    HW232805   4.601   3.091   4.109 -2.6718 -0.4832 -0.7295
 7058SOL     OW32806   2.319   2.893  16.592  0.3455  0.8512  0.2480
 7058SOL    HW132807   2.231   2.917  16.620  0.8375  1.1682  1.5372
 7058SOL    HW232808   2.349   2.975  16.552  1.6466  0.2775  0.0707
 7059SOL     OW32809   3.798   1.621   9.970  0.0020  0.1539 -0.2157
 7059SOL    HW132810   3.773   1.601   9.880  0.2116  0.8699 -0.4374
 7059SOL    HW232811   3.760   1.709   9.970 -0.7896 -0.1939 -0.5576
 7060SOL     OW32812   2.895   0.809   1.126 -0.5235  0.3270 -0.0416
 7060SOL    HW132813   2.908   0.744   1.195 -2.2849  0.7140  0.6458
 7060SOL    HW232814   2.878   0.887   1.178 -0.5773 -0.5658  1.2684
 7061SOL     OW32815   2.253   2.581   4.116  0.1000  0.1218  0.6443
 7061SOL    HW132816   2.300   2.501   4.093 -0.8988 -0.8546  1.9781
 7061SOL    HW232817   2.199   2.598   4.039 -1.9331  2.6033  2.6098
 7062SOL     OW32818   3.278   0.880   3.316 -0.5519 -0.2989 -0.4043
 7062SOL    HW132819   3.356   0.823   3.320 -0.8785 -0.6873  0.3563
 7062SOL    HW232820   3.210   0.815   3.333 -0.2686  0.0745  2.1488
 7063SOL     OW32821   0.728   2.698   9.374 -0.0037 -0.1473 -0.0608
 7063SOL    HW132822   0.746   2.792   9.380  0.6994 -0.2019 -1.2277
 7063SOL    HW232823   0.706   2.681   9.282 -1.3600 -1.7864  0.5693
 7064SOL     OW32824   2.055   3.347   5.372 -0.5392 -0.1625  0.1107
 7064SOL    HW132825   2.024   3.287   5.440 -2.1218  0.3221 -0.1836
 7064SOL    HW232826   2.100   3.409   5.429  0.1941  0.8228 -1.5462
 7065SOL     OW32827   3.629   2.934   7.904 -0.2177  0.4427  0.3097
 7065SOL    HW132828   3.669   2.875   7.840  1.3759 -1.7018  3.2618
 7065SOL    HW232829   3.660   2.894   7.986  0.2631 -0.8489 -0.5031
 7066SOL     OW32830   4.370   2.550  14.705  0.2516  0.4537 -0.3420
 7066SOL    HW132831   4.346   2.586  14.790 -1.6168 -1.7394  0.0495
 7066SOL    HW232832   4.466   2.561  14.707  0.0855  1.6183  1.2551
 7067SOL     OW32833   2.366   1.369  11.150 -0.9148 -0.2095  0.5171
 7067SOL    HW132834   2.443   1.335  11.196 -1.5252 -2.4242 -0.1337
 7067SOL    HW232835   2.348   1.295  11.093  0.5469  0.0111 -0.2300
 7068SOL     OW32836   2.417   3.066   5.113  0.3407 -0.5878  0.1527
 7068SOL    HW132837   2.332   3.079   5.156  0.4127 -1.7609  0.6593
 7068SOL    HW232838   2.466   3.135   5.158  0.4318 -0.2454 -0.4809
 7069SOL     OW32839   3.807   0.067  10.308 -0.7665  0.0723  0.5663
 7069SOL    HW132840   3.772   4.714  10.311 -1.2631  0.3025  1.4746
 7069SOL    HW232841   3.845   0.072  10.220 -0.1510  1.2465  0.8961
 7070SOL     OW32842   0.031   3.688  12.974 -0.6030 -0.7588 -0.2096
 7070SOL    HW132843   4.676   3.670  12.999 -1.3164 -0.8543 -2.8759
 7070SOL    HW232844   0.070   3.603  12.996  0.0728 -0.2797  0.4372
 7071SOL     OW32845   4.405   0.907   7.042 -0.0896  0.2033  0.1774
 7071SOL    HW132846   4.419   0.986   6.989 -3.2511  0.0755 -0.8218
 7071SOL    HW232847   4.470   0.908   7.113  1.0615  2.4513 -0.9154
 7072SOL     OW32848   1.873   0.960   8.781 -0.2631 -0.0786  0.2119
 7072SOL    HW132849   1.899   0.934   8.693 -4.1137 -1.4814 -0.4822
 7072SOL    HW232850   1.798   1.018   8.779  0.3797  0.5724 -3.4990
 7073SOL     OW32851   3.098   2.276   1.619 -0.0647 -0.4690 -0.2613
 7073SOL    HW132852   3.140   2.191   1.627 -0.9389 -0.8274  0.5706
 7073SOL    HW232853   3.086   2.302   1.711  1.4899 -0.5343 -0.0495
 7074SOL     OW32854   1.973   2.138   6.681  0.2450  0.8116 -0.1282
 7074SOL    HW132855   1.879   2.154   6.672  0.1976  1.3048  1.2365
 7074SOL    HW232856   1.985   2.126   6.587 -1.8505 -0.7583 -0.1883
 7075SOL     OW32857   3.481   4.221   3.001  0.6446  0.5907  0.1354
 7075SOL    HW132858   3.541   4.242   3.073  1.1688  0.6885 -0.3297
 7075SOL    HW232859   3.488   4.127   2.989 -0.0287  0.5296  0.2241
 7076SOL     OW32860   3.087   1.299   7.260 -0.0018  0.1636 -0.1430
 7076SOL    HW132861   3.023   1.306   7.331 -1.6198 -0.2264 -1.5813
 7076SOL    HW232862   3.034   1.262   7.190 -1.1914 -0.8412  1.2804
 7077SOL     OW32863   3.406   1.671  11.422  0.2720 -0.5849 -0.0601
 7077SOL    HW132864   3.447   1.757  11.425 -1.0494 -0.0017  1.1472
 7077SOL    HW232865   3.480   1.617  11.450  1.6236  1.0788 -0.4559
 7078SOL     OW32866   4.399   3.337   3.729  0.4935  0.2209  0.0917
 7078SOL    HW132867   4.336   3.377   3.790  0.5720  1.2352 -0.4890
 7078SOL    HW232868   4.347   3.278   3.674  1.4769  0.7916 -1.4374
 7079SOL     OW32869   1.532   3.643   7.400  0.4223 -0.7458  0.1475
 7079SOL    HW132870   1.448   3.601   7.379  0.3427 -0.0935 -0.8189
 7079SOL    HW232871   1.590   3.576   7.365  0.0740  0.2167 -2.2164
 7080SOL     OW32872   1.482   1.751   2.606 -0.4668 -0.5472  0.1655
 7080SOL    HW132873   1.540   1.702   2.547 -0.8063 -1.1009  0.2884
 7080SOL    HW232874   1.460   1.690   2.677 -1.2516  0.9344  1.1805
 7081SOL     OW32875   3.197   1.600  10.813  0.0040  0.3880  0.1016
 7081SOL    HW132876   3.123   1.659  10.808 -1.0781 -0.8838  1.1048
 7081SOL    HW232877   3.160   1.523  10.768  2.1914  0.0901 -1.1913
 7082SOL     OW32878   1.135   1.521   6.004  0.2451  0.4276  0.0625
 7082SOL    HW132879   1.169   1.433   5.986 -0.2656  0.0945  0.7203
 7082SOL    HW232880   1.126   1.511   6.098  1.0871  0.7435  0.1740
 7083SOL     OW32881   0.582   0.474   3.228 -0.6523  0.1938  0.0073
 7083SOL    HW132882   0.673   0.445   3.224 -1.2567 -1.8126  0.6809
 7083SOL    HW232883   0.574   0.545   3.164  2.1947 -0.3955 -1.0288
 7084SOL     OW32884   4.334   1.047   3.380 -0.2483  0.0210  0.4692
 7084SOL    HW132885   4.360   0.962   3.416 -0.8314 -0.3973 -0.0978
 7084SOL    HW232886   4.298   1.014   3.297  0.4436  0.7621 -0.1285
 7085SOL     OW32887   0.281   1.825   7.979 -0.1400  0.0772  0.1923
 7085SOL    HW132888   0.280   1.776   7.897 -2.7511  1.1610 -0.4323
 7085SOL    HW232889   0.324   1.906   7.954 -0.0824 -0.0604 -0.1513
 7086SOL     OW32890   1.848   2.949   4.311  0.2033 -0.4119  0.7685
 7086SOL    HW132891   1.918   3.000   4.270 -0.2439  0.4471  1.0661
 7086SOL    HW232892   1.880   2.969   4.400  0.0509  1.4621  0.3919
 7087SOL     OW32893   0.339   4.541   7.613 -0.1556  0.2889 -0.1759
 7087SOL    HW132894   0.333   4.583   7.699 -2.4116  1.0200 -0.6948
 7087SOL    HW232895   0.315   4.612   7.553  0.2720  0.3357 -0.2944
 7088SOL     OW32896   3.595   2.331   4.614  0.3119 -0.0099 -0.0810
 7088SOL    HW132897   3.526   2.348   4.551 -0.4545 -1.3676  0.3818
 7088SOL    HW232898   3.614   2.238   4.603  1.0630  0.1784 -0.3289
 7089SOL     OW32899   4.528   4.284   5.426 -0.3982 -0.6874 -0.4948
 7089SOL    HW132900   4.533   4.367   5.474 -5.4695 -1.2341  1.0043
 7089SOL    HW232901   4.448   4.294   5.374  1.3423  1.6758 -2.6938
 7090SOL     OW32902   3.336   2.314   3.253  0.1838 -0.5158 -0.3627
 7090SOL    HW132903   3.393   2.262   3.196  0.7415 -1.5401  1.1228
 7090SOL    HW232904   3.253   2.313   3.206 -1.7495  1.0042  3.0209
 7091SOL     OW32905   4.345   1.772   0.478  0.5314 -0.3645 -0.0774
 7091SOL    HW132906   4.300   1.851   0.449  0.1666 -0.5406  0.0080
 7091SOL    HW232907   4.299   1.700   0.434  0.4607  0.0777 -0.7249
 7092SOL     OW32908   2.606   0.286  10.377 -0.2289 -0.0883 -0.5487
 7092SOL    HW132909   2.545   0.298  10.449  1.2841 -2.6557  1.1629
 7092SOL    HW232910   2.597   0.372  10.335  1.9317  0.5085  0.1806
 7093SOL     OW32911   3.965   3.951   4.195 -0.1249 -0.9555  0.2319
 7093SOL    HW132912   3.945   3.968   4.287 -0.5942  1.2269 -0.2717
 7093SOL    HW232913   4.058   3.974   4.200 -0.0499 -0.8624 -1.4884
 7094SOL     OW32914   4.541   1.979   7.266  0.6382 -0.3285 -0.4223
 7094SOL    HW132915   4.517   2.065   7.300 -1.8720 -1.0086 -0.5308
 7094SOL    HW232916   4.463   1.924   7.273 -0.7048  1.3168 -2.6642
 7095SOL     OW32917   3.511   4.648  10.337  0.6359 -0.1626  0.3204
 7095SOL    HW132918   3.435   4.597  10.310 -1.6736  3.0442  0.6903
 7095SOL    HW232919   3.494   4.728  10.286  2.1379 -1.0693 -1.6310
 7096SOL     OW32920   1.812   3.706   8.051 -0.3116 -0.1919 -0.0690
 7096SOL    HW132921   1.793   3.796   8.079 -0.4187  0.7101 -3.1359
 7096SOL    HW232922   1.740   3.688   7.990  2.4359 -2.0080 -2.7762
 7097SOL     OW32923   0.858   4.438   5.123  0.2033 -0.1126 -0.0704
 7097SOL    HW132924   0.780   4.398   5.161  0.6245  0.7616  1.6724
 7097SOL    HW232925   0.814   4.487   5.054 -1.5680 -1.3473  0.1713
 7098SOL     OW32926   2.074   2.599   1.766 -0.1313 -0.6733  0.7330
 7098SOL    HW132927   1.986   2.561   1.760 -0.2991 -0.2576  0.5535
 7098SOL    HW232928   2.072   2.640   1.852  0.5733  3.2070 -1.1132
 7099SOL     OW32929   3.700   2.053   7.501 -0.1954  0.9953 -0.5109
 7099SOL    HW132930   3.639   1.985   7.471 -0.0524  1.4167 -1.7547
 7099SOL    HW232931   3.766   2.052   7.431  1.2762 -0.1766  0.8803
 7100SOL     OW32932   3.207   1.771   1.765 -0.0908 -1.4294 -0.7474
 7100SOL    HW132933   3.116   1.749   1.783 -0.5748  0.8987 -0.3034
 7100SOL    HW232934   3.257   1.705   1.814 -0.5086 -0.6270  0.7720
 7101SOL     OW32935   1.805   2.059   6.927  0.0277 -0.1226  0.1352
 7101SOL    HW132936   1.845   2.106   6.855 -1.3205 -2.9151 -2.4404
 7101SOL    HW232937   1.806   2.123   6.999  2.1919  1.1829 -1.0827
 7102SOL     OW32938   0.040   2.579   3.090  0.3715  0.3369  0.4625
 7102SOL    HW132939   0.107   2.516   3.063 -0.6809 -2.1104  3.5466
 7102SOL    HW232940   4.722   2.536   3.156 -0.2319 -2.8050 -2.0476
 7103SOL     OW32941   1.933   1.849   3.638 -0.0710 -0.2662 -0.1149
 7103SOL    HW132942   1.944   1.876   3.729  0.1173  0.9148 -0.4836
 7103SOL    HW232943   1.909   1.932   3.595  0.3127  0.8663  1.8513
 7104SOL     OW32944   2.029   2.282   4.718  0.6321 -0.0389 -0.0926
 7104SOL    HW132945   1.963   2.282   4.788 -0.5227  0.4323 -1.1898
 7104SOL    HW232946   2.097   2.341   4.749 -1.0580  0.8531  1.9473
 7105SOL     OW32947   0.203   1.054   6.106 -0.5491  0.0877  0.7713
 7105SOL    HW132948   0.185   1.021   6.019 -0.5839  0.5335  0.6108
 7105SOL    HW232949   0.198   1.148   6.091  3.0365  0.6566  3.0972
 7106SOL     OW32950   0.808   3.226   5.961  0.4224  0.2315  0.0264
 7106SOL    HW132951   0.883   3.174   5.934 -0.6776 -1.7772  0.8464
 7106SOL    HW232952   0.728   3.183   5.930  1.0686 -0.4312 -0.7238
 7107SOL     OW32953   3.728   4.017  11.872 -0.1461  0.4108  0.0779
 7107SOL    HW132954   3.706   4.107  11.895  1.8208  1.1612 -0.9350
 7107SOL    HW232955   3.657   3.981  11.925 -0.2377  1.1211  0.4413
 7108SOL     OW32956   0.453   2.449   7.385 -0.4023 -0.0103  0.2835
 7108SOL    HW132957   0.512   2.394   7.333 -0.8793 -0.2351 -0.0189
 7108SOL    HW232958   0.390   2.385   7.417  0.0032 -1.8403 -2.5810
 7109SOL     OW32959   3.063   4.435  12.989  0.1947  0.3006 -0.3249
 7109SOL    HW132960   3.074   4.353  13.037 -0.8171  0.2190 -0.2302
 7109SOL    HW232961   3.154   4.446  12.962 -0.0630  0.3221 -1.2177
 7110SOL     OW32962   0.389   3.934   2.258 -0.1830  1.4587  0.2511
 7110SOL    HW132963   0.480   3.917   2.230  0.5134  1.6593  2.4069
 7110SOL    HW232964   0.364   3.848   2.293  1.0492  0.7437 -0.5799
 7111SOL     OW32965   2.943   2.537   1.692  0.0253 -0.0555 -0.0631
 7111SOL    HW132966   2.888   2.478   1.641  1.2518  0.3980 -1.9173
 7111SOL    HW232967   3.000   2.562   1.620 -2.3314  1.1559 -1.4850
 7112SOL     OW32968   0.958   1.798   1.826  0.4920 -0.2513  0.7467
 7112SOL    HW132969   0.903   1.782   1.749  0.7598 -0.0548  0.5169
 7112SOL    HW232970   1.047   1.778   1.796  0.3310  1.3130 -0.7396
 7113SOL     OW32971   3.252   1.762  15.736  0.5291  0.1217 -0.0118
 7113SOL    HW132972   3.274   1.670  15.722 -1.6819 -0.5814  1.1716
 7113SOL    HW232973   3.164   1.779  15.703  1.0905  0.6451 -1.2376
 7114SOL     OW32974   4.280   1.537   8.881  0.0760 -0.4000 -0.2331
 7114SOL    HW132975   4.230   1.547   8.962 -0.8161 -0.9378 -0.7152
 7114SOL    HW232976   4.228   1.599   8.829  0.8384  0.2116 -0.2548
 7115SOL     OW32977   2.869   0.146   9.237  0.1551  0.0150  0.9802
 7115SOL    HW132978   2.893   0.076   9.175 -0.5928  1.7274 -1.2301
 7115SOL    HW232979   2.925   0.115   9.308  2.8964  0.8780 -0.8043
 7116SOL     OW32980   0.317   2.464   4.709  0.3030 -0.4679  0.4076
 7116SOL    HW132981   0.387   2.491   4.769 -1.3893  2.0099  1.2798
 7116SOL    HW232982   0.239   2.478   4.763  0.8663  0.1163  1.0815
 7117SOL     OW32983   0.703   0.918   3.889  0.2579 -0.2968  0.0877
 7117SOL    HW132984   0.780   0.909   3.833  1.7320  1.0764  1.9019
 7117SOL    HW232985   0.735   0.868   3.964  0.3178 -0.2005  0.1252
 7118SOL     OW32986   4.720   3.353  16.265  0.1290 -0.3823 -0.1827
 7118SOL    HW132987   4.658   3.341  16.193  1.4467  2.5171 -1.7913
 7118SOL    HW232988   4.658   3.365  16.338  0.1438 -0.2265 -0.1968
 7119SOL     OW32989   0.574   1.268   3.702 -0.3208 -0.0962  0.3372
 7119SOL    HW132990   0.635   1.219   3.756 -0.8165  1.1448  2.0192
 7119SOL    HW232991   0.495   1.219   3.725  0.1398 -1.0153 -0.0501
 7120SOL     OW32992   3.675   0.560   5.784  0.0439  0.4014 -0.2842
 7120SOL    HW132993   3.765   0.546   5.812  0.7844  1.8054 -1.9800
 7120SOL    HW232994   3.636   0.565   5.872  0.0905 -0.8150 -0.1947
 7121SOL     OW32995   0.116   2.224   7.890 -0.0727  0.2669 -0.6736
 7121SOL    HW132996   0.056   2.214   7.816  1.2362 -0.3725 -1.6519
 7121SOL    HW232997   0.170   2.146   7.877 -0.9815 -0.2611 -1.2826
 7122SOL     OW32998   4.177   2.592   8.762 -0.2692 -0.0884  0.5970
 7122SOL    HW132999   4.104   2.651   8.778 -0.3977  0.2224 -1.1350
 7122SOL    HW233000   4.129   2.518   8.724  0.5178  0.0175 -0.5958
 7123SOL     OW33001   2.986   0.787   6.232 -0.5971 -0.0847  0.0292
 7123SOL    HW133002   3.013   0.861   6.177 -1.4082  0.0268 -0.2107
 7123SOL    HW233003   2.896   0.787   6.200 -1.0990  2.0803  1.4516
 7124SOL     OW33004   4.032   3.301  10.554  0.3400 -0.3180 -0.3203
 7124SOL    HW133005   4.059   3.235  10.618  0.4105  0.4178  0.3895
 7124SOL    HW233006   4.121   3.312  10.522  0.4831 -2.0730 -0.5569
 7125SOL     OW33007   4.565   4.368   5.038 -0.3379 -0.1683  0.1042
 7125SOL    HW133008   4.546   4.331   4.952  0.8951 -0.3611 -0.0929
 7125SOL    HW233009   4.549   4.286   5.086  1.3204 -1.1936 -1.0678
 7126SOL     OW33010   2.764   4.498  16.730 -0.0046  0.6025 -0.5802
 7126SOL    HW133011   2.802   4.486  16.643 -0.2018  0.2972 -0.6225
 7126SOL    HW233012   2.809   4.425  16.774 -1.1615  0.7837  0.8773
 7127SOL     OW33013   2.286   3.407  16.906 -0.4755  0.9707 -0.1672
 7127SOL    HW133014   2.325   3.449  16.829  0.4627 -1.4678 -1.0376
 7127SOL    HW233015   2.332   3.323  16.915  1.6872  2.2600  0.8670
 7128SOL     OW33016   3.267   3.025  14.399  0.4672  0.0867 -0.3501
 7128SOL    HW133017   3.288   3.100  14.343 -0.6503 -1.3804 -2.7440
 7128SOL    HW233018   3.185   3.059  14.436 -0.4627  0.8426 -3.0498
 7129SOL     OW33019   0.935   3.571  15.730 -0.7271  0.0055  0.2874
 7129SOL    HW133020   0.853   3.532  15.759 -0.9628  0.8269  0.7476
 7129SOL    HW233021   0.955   3.629  15.804 -1.1108 -0.0716  0.4509
 7130SOL     OW33022   0.152   2.972   5.803  0.4157 -0.5191 -0.4723
 7130SOL    HW133023   0.107   2.888   5.792 -0.7997  0.1054 -0.3093
 7130SOL    HW233024   0.145   2.987   5.898  0.5393 -3.0144 -0.0727
 7131SOL     OW33025   0.169   2.657   1.748 -0.1304  0.2183  0.4668
 7131SOL    HW133026   0.221   2.706   1.813  1.6229 -0.0205 -0.7394
 7131SOL    HW233027   0.154   2.578   1.800  0.6047 -0.9284 -1.0679
 7132SOL     OW33028   0.172   0.420   9.248 -0.1598 -0.9149  0.4517
 7132SOL    HW133029   0.165   0.325   9.249  1.8992 -1.0398  1.7815
 7132SOL    HW233030   0.144   0.440   9.337  2.4128  0.2799  0.9704
 7133SOL     OW33031   0.279   4.144  16.974  0.0690  0.1884  0.0210
 7133SOL    HW133032   0.362   4.105  16.947 -0.0609 -0.6089  0.7715
 7133SOL    HW233033   0.322   4.226  16.997 -1.0881  0.4210  1.3424
 7134SOL     OW33034   1.958   1.461   1.776  0.0657 -0.3211 -0.5635
 7134SOL    HW133035   2.019   1.465   1.849 -1.1084 -0.0494  0.3998
 7134SOL    HW233036   2.014   1.419   1.711  2.3734  2.4307 -0.3475
 7135SOL     OW33037   1.794   0.846   0.768 -0.3769  0.3060 -0.2792
 7135SOL    HW133038   1.786   0.797   0.686 -0.1995  1.2240 -0.8487
 7135SOL    HW233039   1.719   0.903   0.752 -1.1540 -0.2302  1.4610
 7136SOL     OW33040   2.042   2.062   6.003  0.0038 -0.1657  0.3496
 7136SOL    HW133041   1.948   2.072   5.987  0.0844 -0.0111 -0.0232
 7136SOL    HW233042   2.073   2.114   5.930 -1.7988 -1.8426 -1.6242
 7137SOL     OW33043   1.633   3.736   5.999 -0.5462 -0.0512  0.2433
 7137SOL    HW133044   1.651   3.699   5.912 -1.1335 -0.7955  0.4356
 7137SOL    HW233045   1.634   3.830   5.983  0.3748 -0.4108 -1.8849
 7138SOL     OW33046   0.213   0.486  17.059  0.5736 -0.0760  0.3311
 7138SOL    HW133047   0.293   0.450  17.098  1.5787  0.8080 -0.9071
 7138SOL    HW233048   0.151   0.472  17.131 -1.8135  1.4813 -1.4472
 7139SOL     OW33049   0.045   0.232  16.442 -0.3065 -0.3004 -0.4024
 7139SOL    HW133050   0.008   0.172  16.377  2.1920  0.1417 -2.2241
 7139SOL    HW233051   4.724   0.307  16.425 -0.0998  0.3893  2.0069
 7140SOL     OW33052   3.956   3.423  13.670  0.2986  0.1557  0.2242
 7140SOL    HW133053   3.885   3.403  13.731 -0.8837  1.5042 -0.6891
 7140SOL    HW233054   3.915   3.395  13.588  0.3073 -1.9194  0.9331
 7141SOL     OW33055   3.867   3.555  12.898 -0.0937  0.2533  0.5990
 7141SOL    HW133056   3.813   3.570  12.821  0.2001 -0.5590  0.2406
 7141SOL    HW233057   3.808   3.512  12.959 -0.6623 -1.1102 -0.9320
 7142SOL     OW33058   0.536   3.976   4.819 -0.3412  0.3008 -0.2740
 7142SOL    HW133059   0.509   4.007   4.906 -1.1493  1.5011 -0.9392
 7142SOL    HW233060   0.545   3.886   4.849  0.4843  0.2707 -0.6213
 7143SOL     OW33061   2.003   3.280   8.203 -0.0010 -0.3703 -0.7775
 7143SOL    HW133062   1.925   3.334   8.187  1.4110  1.7847 -0.3258
 7143SOL    HW233063   2.035   3.330   8.278  0.4849 -0.6735 -0.7846
 7144SOL     OW33064   2.607   3.559   8.494 -0.0345  0.4192 -0.0240
 7144SOL    HW133065   2.594   3.524   8.407  2.2249 -1.4166  0.3830
 7144SOL    HW233066   2.702   3.561   8.505 -0.0388  2.7004 -0.2686
 7145SOL     OW33067   3.828   2.106   6.611 -0.1537 -0.2726  0.1415
 7145SOL    HW133068   3.870   2.122   6.696  0.0460  0.3463 -0.0727
 7145SOL    HW233069   3.759   2.043   6.632 -0.8408  1.6553  3.6692
 7146SOL     OW33070   2.660   3.902   8.064 -0.2401 -0.7517 -0.1716
 7146SOL    HW133071   2.634   3.950   8.142 -0.5928  1.8547 -1.8752
 7146SOL    HW233072   2.586   3.925   8.007 -0.9155 -0.1598  0.9534
 7147SOL     OW33073   2.367   4.671   2.567 -0.1315 -0.4263  0.1870
 7147SOL    HW133074   2.371   4.654   2.661  0.3664 -0.3928  0.1699
 7147SOL    HW233075   2.393   4.595   2.515  0.0182 -0.6488  0.5927
 7148SOL     OW33076   4.046   2.182   4.096  0.2505 -0.1033 -0.0191
 7148SOL    HW133077   4.017   2.097   4.130 -0.9495 -0.3943 -1.7824
 7148SOL    HW233078   3.977   2.234   4.135 -0.8991 -2.5206  1.1648
 7149SOL     OW33079   2.324   1.026   2.969 -0.1578  0.6362 -0.4280
 7149SOL    HW133080   2.375   1.085   2.913  4.4586 -3.0319 -0.0960
 7149SOL    HW233081   2.242   1.072   2.987 -1.4527 -1.1105 -1.8077
 7150SOL     OW33082   0.439   0.226  13.111  0.4286 -0.1230 -0.0920
 7150SOL    HW133083   0.365   0.246  13.168 -0.3786  2.4216 -2.0331
 7150SOL    HW233084   0.514   0.256  13.162  0.3919  0.6845 -0.5076
 7151SOL     OW33085   3.028   3.823   8.227 -0.1985 -0.2098 -0.5162
 7151SOL    HW133086   3.018   3.745   8.172 -3.0018  1.5091 -2.4767
 7151SOL    HW233087   3.118   3.841   8.201 -0.0980  1.3141  0.8105
 7152SOL     OW33088   0.385   3.170   4.545  0.1398 -0.0226 -0.1164
 7152SOL    HW133089   0.361   3.078   4.539 -1.4558  0.4155 -0.5869
 7152SOL    HW233090   0.460   3.160   4.487 -0.6975  0.4350 -1.2661
 7153SOL     OW33091   0.360   2.329   4.268 -0.2170 -0.0388 -0.6251
 7153SOL    HW133092   0.442   2.361   4.231  1.9451 -3.9452  0.7801
 7153SOL    HW233093   0.367   2.233   4.267  2.5386  0.1752 -0.5052
 7154SOL     OW33094   3.647   0.438   3.798 -0.3655  0.5953 -0.2480
 7154SOL    HW133095   3.702   0.410   3.870  0.2488 -1.1356 -1.3987
 7154SOL    HW233096   3.668   0.532   3.793  0.4200  0.5062  1.5480
 7155SOL     OW33097   2.995   2.718   6.135 -0.0046 -0.2329 -0.1422
 7155SOL    HW133098   2.983   2.637   6.184  1.8492 -0.7028 -0.4569
 7155SOL    HW233099   2.959   2.697   6.049  1.4825 -1.0738 -0.5760
 7156SOL     OW33100   2.549   2.178   6.511 -0.1402  0.0785  0.2002
 7156SOL    HW133101   2.595   2.189   6.595 -0.0849 -0.1468  0.1996
 7156SOL    HW233102   2.460   2.201   6.536  0.3556  0.5973  1.4866
 7157SOL     OW33103   0.984   2.897   8.272 -0.4141 -0.2498  0.3945
 7157SOL    HW133104   0.920   2.835   8.239 -0.7600 -0.3317  1.2106
 7157SOL    HW233105   1.055   2.835   8.288  1.7378  2.6028  2.0528
 7158SOL     OW33106   0.981   0.747   4.374  0.1930  0.2425 -0.6123
 7158SOL    HW133107   0.944   0.786   4.295 -2.1020 -1.4501 -0.3995
 7158SOL    HW233108   0.903   0.744   4.429  0.1168 -0.1743 -0.7395
 7159SOL     OW33109   1.832   2.625  16.926 -0.2606 -0.4158  0.2522
 7159SOL    HW133110   1.910   2.631  16.870  0.0078  0.5378  0.7266
 7159SOL    HW233111   1.790   2.556  16.874 -0.9358 -1.0744  1.6743
 7160SOL     OW33112   0.138   2.448   5.390 -0.0340 -0.2125  0.2978
 7160SOL    HW133113   0.055   2.404   5.374  1.3333 -2.8378  0.4285
 7160SOL    HW233114   0.145   2.494   5.306 -0.7096 -3.0796 -1.3061
 7161SOL     OW33115   2.836   1.951  16.699  0.5349  0.2881  0.2740
 7161SOL    HW133116   2.803   1.960  16.609 -0.0891  1.3902  0.6088
 7161SOL    HW233117   2.828   1.856  16.696 -0.1867  0.3731 -0.7349
 7162SOL     OW33118   2.543   0.268   8.552 -0.3186 -0.5152  0.1789
 7162SOL    HW133119   2.574   0.357   8.568  2.9821 -1.9747  1.7821
 7162SOL    HW233120   2.566   0.220   8.632 -1.0281  0.5304  1.0146
 7163SOL     OW33121   1.018   1.164  16.568 -0.2031  0.0228 -0.2029
 7163SOL    HW133122   1.002   1.161  16.473 -0.7984 -0.3251 -0.0922
 7163SOL    HW233123   0.943   1.110  16.592  1.6162 -0.7886  3.5928
 7164SOL     OW33124   2.019   1.750  15.561 -0.4602  0.1353 -0.3680
 7164SOL    HW133125   1.986   1.800  15.635 -1.7234 -0.0190 -0.8245
 7164SOL    HW233126   1.932   1.716  15.536 -0.5900  0.7343 -0.7135
 7165SOL     OW33127   1.003   1.554   6.252 -0.4762  0.3240  0.1754
 7165SOL    HW133128   0.954   1.472   6.248 -1.4132  1.0421 -2.5046
 7165SOL    HW233129   1.018   1.557   6.347  1.6202 -2.9051 -0.0290
 7166SOL     OW33130   3.576   2.244   9.434  0.1395  0.0250 -0.2205
 7166SOL    HW133131   3.533   2.329   9.437  0.2861  0.0629  1.1433
 7166SOL    HW233132   3.618   2.242   9.521  0.3055 -1.2188 -0.3236
 7167SOL     OW33133   3.047   0.006   8.727  0.2244  0.0333  0.0545
 7167SOL    HW133134   3.021   0.089   8.688  2.3164  0.5829 -0.1777
 7167SOL    HW233135   2.967   4.689   8.718  2.9555 -4.0670 -0.3853
 7168SOL     OW33136   2.464   3.565   6.876 -0.3162  0.0029 -0.0858
 7168SOL    HW133137   2.533   3.498   6.874 -1.5728 -1.2654 -1.0205
 7168SOL    HW233138   2.440   3.548   6.966 -1.5711  2.0010 -0.0344
 7169SOL     OW33139   1.319   4.114   3.724 -0.2970 -0.6454  0.2981
 7169SOL    HW133140   1.372   4.111   3.803  0.7553 -0.3540 -0.3908
 7169SOL    HW233141   1.234   4.128   3.767  0.5326  1.6720  1.2023
 7170SOL     OW33142   3.916   1.697   7.878  0.3284  0.2598 -0.2229
 7170SOL    HW133143   3.878   1.737   7.957  3.5969  1.9488  0.5350
 7170SOL    HW233144   3.912   1.771   7.817  1.0577 -0.2588 -0.9000
 7171SOL     OW33145   0.329   2.133   4.014 -0.5090 -0.0310 -0.1265
 7171SOL    HW133146   0.396   2.125   3.946  0.1985 -1.6988  0.7687
 7171SOL    HW233147   0.382   2.124   4.093  0.4818 -0.3889 -0.8369
 7172SOL     OW33148   4.185   3.360   8.186  0.1535  0.3112  0.2265
 7172SOL    HW133149   4.212   3.421   8.118 -2.7189  0.0142 -1.1706
 7172SOL    HW233150   4.102   3.329   8.151  0.7497 -1.6299  0.5096
 7173SOL     OW33151   0.187   2.877   5.003 -0.4723  0.4540  0.0584
 7173SOL    HW133152   0.274   2.904   4.972  0.1771  1.0137  2.4156
 7173SOL    HW233153   0.221   2.819   5.070 -0.5965 -0.2561 -0.4911
 7174SOL     OW33154   3.667   1.174   7.795  0.1414  0.3274  0.1076
 7174SOL    HW133155   3.611   1.184   7.717  0.4131 -1.0137 -0.2647
 7174SOL    HW233156   3.751   1.181   7.749  0.1674  1.4921  0.3229
 7175SOL     OW33157   4.635   1.498   8.995  0.0661 -0.3711  0.1058
 7175SOL    HW133158   4.596   1.580   8.964 -1.2677 -0.3599  1.7946
 7175SOL    HW233159   4.676   1.533   9.074  1.3318 -1.6252 -0.0108
 7176SOL     OW33160   1.205   4.032  14.296  0.0220  0.0867  0.1054
 7176SOL    HW133161   1.269   4.061  14.231  0.4222  0.4173  0.6478
 7176SOL    HW233162   1.245   3.946  14.307 -1.2449 -0.2081  2.5193
 7177SOL     OW33163   1.042   2.271  15.909  0.2099  0.0699 -0.6697
 7177SOL    HW133164   1.136   2.252  15.917 -0.3437 -2.0766  0.4473
 7177SOL    HW233165   1.027   2.322  15.989  1.2307 -0.7244  0.0326
 7178SOL     OW33166   0.327   4.034   1.889 -0.2899  0.0580  0.2461
 7178SOL    HW133167   0.395   3.981   1.930 -0.6416  0.5456  1.4528
 7178SOL    HW233168   0.382   4.106   1.858 -0.9227  0.0180 -0.9674
 7179SOL     OW33169   0.651   4.009   3.314 -0.0430 -0.1053 -0.2826
 7179SOL    HW133170   0.650   3.962   3.230  0.3748  0.2567 -0.4924
 7179SOL    HW233171   0.606   4.090   3.291  1.9080  0.8566 -0.7831
 7180SOL     OW33172   3.516   0.698   4.119  0.1130 -0.4109  0.2729
 7180SOL    HW133173   3.542   0.760   4.187  1.1111 -1.1107  0.5335
 7180SOL    HW233174   3.450   0.655   4.174 -1.0633  1.3940  0.2617
 7181SOL     OW33175   0.666   3.485   2.474  0.0809 -0.3217  0.1870
 7181SOL    HW133176   0.712   3.514   2.553  1.8191  2.8380 -2.0093
 7181SOL    HW233177   0.742   3.443   2.432 -1.3862  0.3336 -3.1370
 7182SOL     OW33178   2.092   1.796   2.936  0.5447  0.5202  0.3442
 7182SOL    HW133179   2.048   1.761   3.014  1.8280 -0.8181  0.4600
 7182SOL    HW233180   2.158   1.727   2.932 -1.3522 -1.2303 -0.9442
 7183SOL     OW33181   3.448   4.678   1.965 -0.0859 -0.6789  0.3030
 7183SOL    HW133182   3.457   4.601   1.908  1.1262  0.2341 -0.7332
 7183SOL    HW233183   3.368   4.644   2.004  0.7383 -2.6453  0.2808
 7184SOL     OW33184   1.427   1.969   9.606 -0.0673 -0.2794  0.0381
 7184SOL    HW133185   1.400   2.031   9.538 -0.8357 -0.5180  0.1209
 7184SOL    HW233186   1.468   2.033   9.665 -0.8702  0.4852 -0.2349
 7185SOL     OW33187   1.298   4.271   4.829  0.4705 -0.5143 -0.0008
 7185SOL    HW133188   1.223   4.238   4.878 -0.8775  2.0990 -0.3002
 7185SOL    HW233189   1.261   4.350   4.789  0.1999 -1.1056 -0.9353
 7186SOL     OW33190   2.140   4.690   4.910  0.2177  0.3537  0.1150
 7186SOL    HW133191   2.149   4.604   4.869  1.8524  0.6251 -0.1043
 7186SOL    HW233192   2.080   0.001   4.851  0.6217  1.4549  0.5677
 7187SOL     OW33193   0.595   3.060   2.192 -0.3578  0.4416  0.2478
 7187SOL    HW133194   0.617   3.102   2.109  0.0977 -1.7146 -0.7231
 7187SOL    HW233195   0.502   3.080   2.184 -0.6765 -0.6207  1.3485
 7188SOL     OW33196   2.554   2.428   3.447  0.6195  0.1177  0.3722
 7188SOL    HW133197   2.531   2.335   3.442 -1.5974  0.7401 -1.0168
 7188SOL    HW233198   2.582   2.444   3.357 -0.8287 -2.6071 -0.5868
 7189SOL     OW33199   1.483   0.370  16.524  0.5962 -0.2952 -0.4590
 7189SOL    HW133200   1.424   0.428  16.475  2.9158  1.5760 -1.0648
 7189SOL    HW233201   1.567   0.416  16.514  0.3863  0.1230 -0.3013
 7190SOL     OW33202   3.655   2.640   1.273  0.0094 -0.1857  0.4661
 7190SOL    HW133203   3.741   2.681   1.286 -0.8705  0.4463  4.2340
 7190SOL    HW233204   3.659   2.637   1.177  0.4710  0.3611  0.4676
 7191SOL     OW33205   0.593   2.989  17.695 -0.5531  0.0443 -0.4343
 7191SOL    HW133206   0.606   2.932  17.619 -1.8682 -0.6832 -0.1221
 7191SOL    HW233207   0.673   2.988   0.005 -2.1037 -1.0736  1.9729
 7192SOL     OW33208   3.302   3.378  13.437 -0.3583  0.0075  0.5526
 7192SOL    HW133209   3.344   3.339  13.513 -0.1873  0.8201  0.8756
 7192SOL    HW233210   3.371   3.385  13.370 -0.8900  0.4281  0.0459
 7193SOL     OW33211   0.099   1.866   3.496  0.8800 -0.8013 -0.6016
 7193SOL    HW133212   0.092   1.891   3.588 -0.2508  0.5320 -1.0389
 7193SOL    HW233213   0.026   1.912   3.454 -0.7173 -1.5573  1.3582
 7194SOL     OW33214   4.114   3.380  16.316 -0.0873  0.5829 -0.2629
 7194SOL    HW133215   4.100   3.468  16.351 -1.6757 -0.4329  1.6857
 7194SOL    HW233216   4.077   3.335  16.391  0.6563 -0.7811 -0.7184
 7195SOL     OW33217   2.770   0.354  12.557  0.1173  0.2951 -0.5004
 7195SOL    HW133218   2.811   0.321  12.637  1.7328 -1.3926 -2.0372
 7195SOL    HW233219   2.698   0.293  12.542 -0.7663  1.7121 -2.0111
 7196SOL     OW33220   1.715   0.260   1.780  0.1413  0.3365  0.1201
 7196SOL    HW133221   1.724   0.305   1.864 -2.4771  0.5922  0.2718
 7196SOL    HW233222   1.621   0.262   1.761  0.1939 -0.5552 -0.2523
 7197SOL     OW33223   0.323   1.015   2.086  0.3824 -0.7373 -0.3591
 7197SOL    HW133224   0.338   0.921   2.083  1.0447 -0.6794  1.3728
 7197SOL    HW233225   0.404   1.039   2.042  0.9858 -0.2458  1.0168
 7198SOL     OW33226   1.974   4.317   2.291  0.2782 -0.0418  0.4690
 7198SOL    HW133227   2.057   4.352   2.258  0.0842  1.3347  1.4103
 7198SOL    HW233228   1.908   4.366   2.241  2.7562  1.5216 -1.3139
 7199SOL     OW33229   2.710   2.345   6.057  0.0697  0.3433  0.4983
 7199SOL    HW133230   2.751   2.313   6.137 -1.4142 -0.3154  1.0058
 7199SOL    HW233231   2.635   2.385   6.101 -0.3143 -0.6542  0.7601
 7200SOL     OW33232   3.512   4.164   6.253 -0.3065 -0.7645 -0.4768
 7200SOL    HW133233   3.558   4.081   6.240  1.2240  0.1616 -0.9845
 7200SOL    HW233234   3.487   4.157   6.345  1.1676 -3.2899 -0.2677
 7201SOL     OW33235   4.602   3.809   9.039  0.1392 -0.6167 -0.0748
 7201SOL    HW133236   4.652   3.823   8.958 -1.9668  0.0521 -1.2447
 7201SOL    HW233237   4.640   3.728   9.075 -0.8635 -0.4840  1.2639
 7202SOL     OW33238   2.442   1.550   3.927  0.3600  0.4748 -0.2376
 7202SOL    HW133239   2.395   1.470   3.903 -1.0769  1.0001  0.7542
 7202SOL    HW233240   2.387   1.587   3.997 -2.5030 -3.3133 -0.5046
 7203SOL     OW33241   2.257   3.951  12.019  0.7700  0.2032  0.0024
 7203SOL    HW133242   2.170   3.990  12.018  1.2616  1.3293  1.0908
 7203SOL    HW233243   2.235   3.867  11.979 -1.2621  1.0816 -0.6926
 7204SOL     OW33244   1.054   0.302   8.512 -0.4806  0.7847 -0.5091
 7204SOL    HW133245   1.090   0.242   8.447 -2.5917 -1.4536  0.3895
 7204SOL    HW233246   0.983   0.245   8.542  1.8938 -1.8065  0.1168
 7205SOL     OW33247   4.639   2.514   4.181  0.2930 -0.5792  0.5368
 7205SOL    HW133248   4.714   2.488   4.128  0.1273 -2.1185  1.0619
 7205SOL    HW233249   4.602   2.578   4.120  2.7978  2.1064  1.8340
 7206SOL     OW33250   0.084   2.181   3.927 -0.0787  0.1365 -0.3226
 7206SOL    HW133251   0.061   2.264   3.970 -0.2407 -0.0962  0.0402
 7206SOL    HW233252   0.166   2.159   3.970 -0.5900 -0.2580  0.4562
 7207SOL     OW33253   1.610   4.548   7.374  0.2877  0.4296  0.6162
 7207SOL    HW133254   1.699   4.583   7.373  0.2468  0.4849 -1.9563
 7207SOL    HW233255   1.612   4.527   7.280  0.5413  0.3756  0.6340
 7208SOL     OW33256   2.550   3.897   4.891 -1.1324  0.1963 -0.5059
 7208SOL    HW133257   2.471   3.933   4.933 -1.0650  1.6725 -1.6303
 7208SOL    HW233258   2.530   3.804   4.894  2.8335 -0.6718 -2.0283
 7209SOL     OW33259   1.172   2.679   8.363  0.0134  0.3412 -0.1850
 7209SOL    HW133260   1.268   2.675   8.360 -0.0456 -1.7235  0.7814
 7209SOL    HW233261   1.152   2.588   8.383  0.3627  0.2809 -0.1181
 7210SOL     OW33262   3.304   1.611   4.718  0.4226 -0.3146 -0.1104
 7210SOL    HW133263   3.339   1.630   4.805 -0.7432 -0.3233  0.3646
 7210SOL    HW233264   3.244   1.682   4.696 -0.7059 -0.7343  1.5844
 7211SOL     OW33265   2.749   2.416   6.349  0.1433 -0.5639 -0.1682
 7211SOL    HW133266   2.746   2.371   6.434 -1.2867 -0.6740 -0.2809
 7211SOL    HW233267   2.839   2.451   6.347  0.2507 -0.7241  1.6261
 7212SOL     OW33268   3.681   1.632  11.738  0.1136 -0.0411  0.5136
 7212SOL    HW133269   3.599   1.597  11.772  0.1577  0.3216  0.9937
 7212SOL    HW233270   3.698   1.719  11.774 -2.3805  0.6851 -0.0683
 7213SOL     OW33271   3.251   3.224  12.252 -0.1818 -0.0311 -0.1583
 7213SOL    HW133272   3.337   3.222  12.212 -1.3918 -1.5511 -2.6402
 7213SOL    HW233273   3.287   3.255  12.335 -1.4790  0.6721  0.1453
 7214SOL     OW33274   0.042   4.438  14.082  0.1857  0.0327  0.3743
 7214SOL    HW133275   0.058   4.362  14.138 -1.3346 -1.2555 -0.9326
 7214SOL    HW233276   0.133   4.459  14.061  0.2425 -0.5228  0.0625
 7215SOL     OW33277   0.367   2.453  17.509  0.4249 -0.4831 -0.0682
 7215SOL    HW133278   0.388   2.541  17.476  2.0478 -0.5365  0.8253
 7215SOL    HW233279   0.437   2.402  17.468  0.7172 -0.0930 -0.0536
 7216SOL     OW33280   1.840   1.225   7.301 -0.1240 -0.7284 -0.1147
 7216SOL    HW133281   1.900   1.198   7.232  1.9619  1.2920  0.8920
 7216SOL    HW233282   1.763   1.247   7.249  0.0403 -0.2275 -0.1494
 7217SOL     OW33283   3.674   1.267   8.356 -0.4118 -0.3319 -0.3920
 7217SOL    HW133284   3.681   1.172   8.369  2.8494  0.0851  0.9534
 7217SOL    HW233285   3.763   1.286   8.327 -0.1236 -0.2623  0.5206
 7218SOL     OW33286   3.472   0.346   5.938  0.2975  0.3597 -0.2013
 7218SOL    HW133287   3.377   0.335   5.940  0.1658  1.2728 -1.3420
 7218SOL    HW233288   3.492   0.332   5.845  1.5383 -1.5511  0.3410
 7219SOL     OW33289   2.407   2.741   8.655 -0.2020  0.1552 -0.9183
 7219SOL    HW133290   2.425   2.766   8.564  0.3508  0.2584 -0.7754
 7219SOL    HW233291   2.325   2.692   8.645  0.7040 -1.9560  2.0554
 7220SOL     OW33292   3.677   4.594   8.956  0.0718 -0.3002  0.4395
 7220SOL    HW133293   3.757   4.615   8.907 -0.7035  0.0343 -0.6916
 7220SOL    HW233294   3.705   4.506   8.982  0.0774 -0.6794 -0.8691
 7221SOL     OW33295   2.217   3.016   5.955  0.4042  0.2511  0.0259
 7221SOL    HW133296   2.237   3.008   6.048  0.3476 -2.2307 -0.1657
 7221SOL    HW233297   2.205   2.923   5.937  0.4729  0.5751 -1.7403
 7222SOL     OW33298   0.828   2.416   3.251  0.4115 -0.2667  0.2210
 7222SOL    HW133299   0.799   2.330   3.219 -0.3806  0.2543 -0.4641
 7222SOL    HW233300   0.746   2.464   3.257  0.8410  0.3996  0.7350
 7223SOL     OW33301   4.336   0.149  17.620 -0.4648  0.0031  0.2377
 7223SOL    HW133302   4.337   0.239  17.587 -0.3080  0.2953  1.0341
 7223SOL    HW233303   4.305   0.166  17.709  0.7732  2.1578  0.2775
 7224SOL     OW33304   3.785   4.496   9.613  0.3414  0.1527 -0.7192
 7224SOL    HW133305   3.842   4.569   9.593  1.3060 -0.3653  0.1329
 7224SOL    HW233306   3.846   4.440   9.662  0.3648 -2.1623 -3.4147
 7225SOL     OW33307   3.061   3.839  10.687  0.3155  0.0033  0.7092
 7225SOL    HW133308   3.011   3.911  10.725  0.1796 -0.5734  1.6321
 7225SOL    HW233309   3.008   3.761  10.704 -1.6837  1.1079 -0.3928
 7226SOL     OW33310   4.379   0.447  10.942  0.4013  0.6548  0.1973
 7226SOL    HW133311   4.328   0.392  11.003  1.1531 -1.1940 -0.8439
 7226SOL    HW233312   4.360   0.413  10.855  0.4920 -0.1509  0.4883
 7227SOL     OW33313   0.783   4.546   7.106  0.1081 -0.4083 -0.1976
 7227SOL    HW133314   0.799   4.640   7.115 -0.3690 -0.3945  0.5108
 7227SOL    HW233315   0.765   4.513   7.194  0.5594 -0.7299 -0.2249
 7228SOL     OW33316   1.347   0.150   3.544 -0.3842  0.9144 -0.4256
 7228SOL    HW133317   1.338   0.061   3.579  1.7340 -0.3609 -3.1515
 7228SOL    HW233318   1.441   0.164   3.558 -0.3515 -1.4166  1.8163
 7229SOL     OW33319   4.044   3.663   4.073  0.0851 -0.2934  0.2383
 7229SOL    HW133320   4.064   3.742   4.022  0.6222  0.2482  1.2830
 7229SOL    HW233321   3.981   3.630   4.009  0.4682 -1.6937  0.5831
 7230SOL     OW33322   1.411   3.117   6.948 -0.1729  0.6082  0.4280
 7230SOL    HW133323   1.372   3.035   6.918  1.1365  1.3361 -3.2673
 7230SOL    HW233324   1.339   3.174   6.923 -0.0226 -0.3082 -2.0872
 7231SOL     OW33325   3.776   4.020   7.009  0.3254  0.0112  0.3299
 7231SOL    HW133326   3.782   4.116   7.012  0.8101  0.0199 -0.7999
 7231SOL    HW233327   3.855   3.991   6.964  0.9343  2.0111  0.0907
 7232SOL     OW33328   2.474   4.005   7.814 -0.3329 -0.1849 -0.4201
 7232SOL    HW133329   2.503   4.087   7.852  1.4744 -1.5935  1.2142
 7232SOL    HW233330   2.404   3.980   7.875 -0.0986 -0.3810 -0.2301
 7233SOL     OW33331   1.059   4.546   8.539 -0.1979 -0.4467  0.5422
 7233SOL    HW133332   1.095   4.511   8.458  0.7634  5.2825 -1.5035
 7233SOL    HW233333   1.070   4.466   8.591 -1.6787 -1.7250 -1.0909
 7234SOL     OW33334   1.642   1.230   3.755  0.4156 -0.1848 -0.2675
 7234SOL    HW133335   1.722   1.242   3.806 -0.0264 -0.6577  0.5461
 7234SOL    HW233336   1.650   1.135   3.744  0.1002 -0.5782  2.8035
 7235SOL     OW33337   2.884   4.416  10.747 -0.1201 -0.3698 -0.2380
 7235SOL    HW133338   2.871   4.358  10.822  0.7197 -0.0130  0.1890
 7235SOL    HW233339   2.857   4.501  10.782  1.6064  0.1258 -0.0996
 7236SOL     OW33340   1.634   2.328   5.203 -0.1101  0.4628  0.3354
 7236SOL    HW133341   1.587   2.301   5.281  0.1236  1.1438  0.7106
 7236SOL    HW233342   1.632   2.423   5.207 -1.3648  0.4022  1.0586
 7237SOL     OW33343   2.220   3.061   2.654  0.0087  0.3188  0.3725
 7237SOL    HW133344   2.237   3.058   2.560 -2.5750 -1.1861 -0.0541
 7237SOL    HW233345   2.172   3.143   2.668 -2.2841 -1.2321  1.6290
 7238SOL     OW33346   4.599   3.190   7.793 -0.3034  0.0664  0.6033
 7238SOL    HW133347   4.578   3.198   7.700  0.8692 -0.1925  0.3215
 7238SOL    HW233348   4.514   3.199   7.837  0.3081 -0.2252  1.8524
 7239SOL     OW33349   0.404   0.295  16.200  0.0289  0.2904 -0.1778
 7239SOL    HW133350   0.399   0.391  16.206  1.8042  0.3226  0.9000
 7239SOL    HW233351   0.321   0.278  16.156 -1.0348 -1.1475  2.4372
 7240SOL     OW33352   3.805   4.160   4.110  0.1614 -0.2804 -0.2966
 7240SOL    HW133353   3.858   4.228   4.152  0.1687 -0.3454 -0.1997
 7240SOL    HW233354   3.844   4.080   4.144  0.5493  0.7131  1.5906
 7241SOL     OW33355   3.440   2.227   8.816  0.0898  0.1008 -0.6924
 7241SOL    HW133356   3.493   2.181   8.751  0.1488 -0.8999  0.0464
 7241SOL    HW233357   3.413   2.149   8.865 -0.3100  0.4803 -0.3072
 7242SOL     OW33358   3.667   1.581   9.744  0.1489  0.2872  0.7206
 7242SOL    HW133359   3.578   1.545   9.748 -0.0254  0.6786  0.3721
 7242SOL    HW233360   3.711   1.500   9.716  0.2557  0.8105 -0.6383
 7243SOL     OW33361   1.465   3.279   4.271  0.1125  0.1985  0.4105
 7243SOL    HW133362   1.432   3.194   4.239  0.4179  0.4974 -0.6913
 7243SOL    HW233363   1.410   3.297   4.348 -0.5883  0.7475 -0.2211
 7244SOL     OW33364   4.020   3.899   6.937 -0.1807 -0.3708 -0.2279
 7244SOL    HW133365   4.078   3.972   6.915 -1.8819  0.8840 -0.4942
 7244SOL    HW233366   4.091   3.836   6.922  0.2597  0.0689  0.0303
 7245SOL     OW33367   3.776   3.838   5.693 -0.5771 -0.0798 -0.5367
 7245SOL    HW133368   3.762   3.876   5.606 -4.6664 -1.7851 -0.6245
 7245SOL    HW233369   3.850   3.783   5.667 -1.8097 -2.1497  0.3205
 7246SOL     OW33370   3.901   3.798   8.428  0.2763 -0.2264  0.7019
 7246SOL    HW133371   3.847   3.808   8.350  0.8801  0.7088  0.4043
 7246SOL    HW233372   3.833   3.760   8.483  0.3378 -0.0214  0.9224
 7247SOL     OW33373   1.266   2.601  14.982  0.7323  0.1904 -0.0985
 7247SOL    HW133374   1.303   2.659  15.049 -0.1398  0.8557 -0.1871
 7247SOL    HW233375   1.249   2.519  15.028 -0.3032  1.1066  1.1712
 7248SOL     OW33376   2.795   4.072   7.085 -0.0541  0.5756  0.2845
 7248SOL    HW133377   2.738   3.996   7.093 -1.0873  1.4170  0.9354
 7248SOL    HW233378   2.766   4.102   6.999  0.3916 -0.1806 -0.1252
 7249SOL     OW33379   1.054   3.233   6.741 -0.2096 -0.2291  0.2171
 7249SOL    HW133380   0.990   3.193   6.800 -0.5975 -0.0318 -0.0678
 7249SOL    HW233381   1.112   3.271   6.807 -0.4031  2.7766 -1.3536
 7250SOL     OW33382   3.568   1.135   9.280  0.1058  0.0216 -0.9222
 7250SOL    HW133383   3.629   1.187   9.227  1.5612  0.4626  1.1549
 7250SOL    HW233384   3.619   1.054   9.285  0.5314  0.2432 -1.6397
 7251SOL     OW33385   4.595   0.958   3.733  0.2239 -0.4401 -0.0782
 7251SOL    HW133386   4.666   0.943   3.670 -2.3313 -0.9664 -2.8103
 7251SOL    HW233387   4.601   0.878   3.784 -1.1635 -0.7443 -0.3838
 7252SOL     OW33388   0.186   3.350   2.669  0.3965  0.0546  0.3589
 7252SOL    HW133389   0.152   3.374   2.755  2.0897  0.8605  0.8002
 7252SOL    HW233390   0.281   3.343   2.678  0.4314 -0.6863 -0.6663
 7253SOL     OW33391   0.542   1.323  10.201  0.2754  0.5252  0.0441
 7253SOL    HW133392   0.595   1.264  10.147 -1.3306 -3.2409  2.5549
 7253SOL    HW233393   0.524   1.287  10.288 -0.1875  0.4647 -0.0801
 7254SOL     OW33394   1.635   4.460   7.102  0.2584  0.2237 -0.0687
 7254SOL    HW133395   1.586   4.533   7.064  2.7326  0.4666 -2.7770
 7254SOL    HW233396   1.584   4.392   7.058  1.1186 -1.4664  1.5802
 7255SOL     OW33397   0.707   4.136   4.416 -0.3055 -0.1764  0.1993
 7255SOL    HW133398   0.654   4.205   4.375 -0.2983  0.0026  0.4948
 7255SOL    HW233399   0.640   4.105   4.475  1.3574  0.3444  2.3578
 7256SOL     OW33400   3.906   2.390   4.209 -0.1717 -0.6662 -0.2187
 7256SOL    HW133401   3.841   2.459   4.220  0.4009 -0.2212  0.3395
 7256SOL    HW233402   3.989   2.434   4.189 -0.3361 -0.1963  0.1426
 7257SOL     OW33403   3.949   3.923   3.237 -0.9949  0.5758  0.1730
 7257SOL    HW133404   3.879   3.948   3.298 -3.6229  0.0836 -2.6937
 7257SOL    HW233405   3.948   3.832   3.266 -0.8767  0.1564 -1.1562
 7258SOL     OW33406   4.222   4.620   4.371 -0.7926 -0.2385 -0.2459
 7258SOL    HW133407   4.190   4.703   4.337 -1.2023 -0.5801 -0.6914
 7258SOL    HW233408   4.185   4.612   4.459  2.4615 -0.1553  1.1257
 7259SOL     OW33409   2.676   1.575   4.292  0.3368  0.3224  0.0115
 7259SOL    HW133410   2.638   1.581   4.380 -0.0885  1.7921 -0.2736
 7259SOL    HW233411   2.715   1.662   4.280 -0.3598  1.0623  3.0268
 7260SOL     OW33412   1.986   0.914  11.260  0.4364  0.4628  0.3266
 7260SOL    HW133413   2.042   0.839  11.281 -0.3750  0.4613  2.4673
 7260SOL    HW233414   2.051   0.983  11.245  2.1182 -0.2573  4.1544
 7261SOL     OW33415   0.162   2.469   7.193  0.5192 -0.3871  0.3122
 7261SOL    HW133416   0.247   2.494   7.156  0.1608 -0.0611 -0.3004
 7261SOL    HW233417   0.190   2.420   7.270 -0.6126  1.1788  1.7390
 7262SOL     OW33418   3.617   1.114   6.520  0.7832 -0.3169 -0.0104
 7262SOL    HW133419   3.700   1.156   6.544 -0.8883  1.7390  2.1883
 7262SOL    HW233420   3.610   1.150   6.432  0.2002 -0.6693 -0.1045
 7263SOL     OW33421   2.784   2.071   2.871  0.2837  0.2072  0.4699
 7263SOL    HW133422   2.779   2.137   2.939 -0.7024 -0.0818  0.6871
 7263SOL    HW233423   2.762   1.988   2.913  1.5967 -1.8650 -2.9803
 7264SOL     OW33424   3.840   1.112  12.075 -0.8658  0.1339  0.2581
 7264SOL    HW133425   3.840   1.160  12.158  2.2315  0.2288  0.2119
 7264SOL    HW233426   3.815   1.182  12.014 -2.2339 -0.7666 -0.2074
 7265SOL     OW33427   0.742   0.808   7.039  0.0458  0.6241  0.4992
 7265SOL    HW133428   0.731   0.903   7.031  2.0355  0.7663 -0.5505
 7265SOL    HW233429   0.837   0.802   7.030 -0.0627 -0.6598  0.3144
 7266SOL     OW33430   3.181   4.450  10.669 -0.1203  0.0664 -0.1385
 7266SOL    HW133431   3.149   4.511  10.736 -0.4345  1.1428 -1.2643
 7266SOL    HW233432   3.130   4.371  10.686 -0.6839  0.3132 -0.6786
 7267SOL     OW33433   0.116   2.431  10.616  0.3364  0.2289  0.1228
 7267SOL    HW133434   0.197   2.455  10.570 -0.0661  0.1197 -0.6380
 7267SOL    HW233435   0.144   2.346  10.650 -2.3381 -0.6724  0.0794
 7268SOL     OW33436   4.261   3.081   3.046  0.0011  0.0911 -0.1674
 7268SOL    HW133437   4.259   3.138   2.969 -0.7755 -0.3246 -0.4531
 7268SOL    HW233438   4.287   3.154   3.102 -0.2247  1.1637 -1.4574
 7269SOL     OW33439   1.304   4.337   6.691 -0.3954  0.2980  0.3315
 7269SOL    HW133440   1.247   4.396   6.641 -2.1205 -1.0135  0.7532
 7269SOL    HW233441   1.250   4.263   6.718  2.3194 -1.7995  0.0387
 7270SOL     OW33442   3.399   1.650  10.321 -0.0730 -0.4394  0.3560
 7270SOL    HW133443   3.471   1.708  10.345 -0.7191  0.4957  0.0286
 7270SOL    HW233444   3.444   1.569  10.346 -0.0482 -0.4613  0.2400
 7271SOL     OW33445   3.583   2.971   9.798 -0.1073  0.0880  0.4976
 7271SOL    HW133446   3.630   3.013   9.726 -2.4434 -0.8466 -1.5727
 7271SOL    HW233447   3.546   2.903   9.741 -0.6104 -0.3249  1.3275
 7272SOL     OW33448   1.615   3.569   8.390 -0.6198  0.1862  0.4545
 7272SOL    HW133449   1.580   3.489   8.428 -0.2227  0.3887  1.2389
 7272SOL    HW233450   1.703   3.564   8.427 -0.8627 -0.8142  0.8823
 7273SOL     OW33451   3.505   2.374   2.129 -0.0319 -0.0807 -0.8351
 7273SOL    HW133452   3.523   2.438   2.197  1.5088  0.5866 -1.8695
 7273SOL    HW233453   3.527   2.293   2.175  0.8750  0.2251 -0.7298
 7274SOL     OW33454   3.473   4.496   3.249 -0.4720  0.2672 -0.2701
 7274SOL    HW133455   3.458   4.485   3.343  0.7563 -1.8995 -0.3300
 7274SOL    HW233456   3.513   4.410   3.240 -0.1525  0.3533  0.3210
 7275SOL     OW33457   3.157   4.735   3.266 -0.3005  0.7749  0.1340
 7275SOL    HW133458   3.145   4.640   3.271  1.4177  0.5222 -0.6492
 7275SOL    HW233459   3.230   0.018   3.206  0.9195 -1.3023  0.9903
 7276SOL     OW33460   2.967   0.372   5.142  0.5253  0.0401 -0.1814
 7276SOL    HW133461   3.043   0.370   5.084  0.8162  0.5802  0.1912
 7276SOL    HW233462   2.989   0.451   5.191  0.2744 -1.2221  1.9725
 7277SOL     OW33463   4.204   1.836  12.129 -0.2350 -0.2598 -0.0249
 7277SOL    HW133464   4.197   1.761  12.188 -1.9286 -0.8844 -1.0379
 7277SOL    HW233465   4.121   1.830  12.083 -0.4056 -0.0564  0.2579
 7278SOL     OW33466   1.599   2.788  15.358 -0.0495  0.0096  0.3827
 7278SOL    HW133467   1.550   2.792  15.440  1.7906  1.7199  1.4057
 7278SOL    HW233468   1.576   2.876  15.327  1.2993  0.4466  0.6126
 7279SOL     OW33469   1.725   0.934   4.472  0.0656 -0.1035  0.1612
 7279SOL    HW133470   1.771   1.018   4.471  1.8108 -1.0684 -0.6537
 7279SOL    HW233471   1.714   0.909   4.564 -0.8293 -2.2293 -0.5125
 7280SOL     OW33472   0.213   3.628   5.021  0.0500 -0.0129 -0.5634
 7280SOL    HW133473   0.233   3.574   5.098 -0.6013  0.6800  0.0940
 7280SOL    HW233474   0.236   3.566   4.953 -0.1092 -1.5128  0.7522
 7281SOL     OW33475   4.228   0.496   6.056  0.0263 -0.2562  0.2359
 7281SOL    HW133476   4.195   0.585   6.051 -1.0546 -0.7244 -1.0015
 7281SOL    HW233477   4.160   0.463   6.114 -1.7220  0.6767 -1.2710
 7282SOL     OW33478   0.084   0.681   9.184  0.5649  0.0433  0.1383
 7282SOL    HW133479   0.117   0.596   9.213 -2.7018 -0.8423  1.2848
 7282SOL    HW233480   4.731   0.676   9.221  0.6088 -3.6518 -0.1922
 7283SOL     OW33481   4.341   1.240   8.250 -0.5962  0.8961 -0.2489
 7283SOL    HW133482   4.365   1.219   8.160 -0.7119  0.4750 -0.1854
 7283SOL    HW233483   4.396   1.174   8.293  0.7536  1.1263 -1.6473
 7284SOL     OW33484   2.570   0.135   7.176  0.0791 -0.4785  0.0292
 7284SOL    HW133485   2.588   0.229   7.170 -0.5061 -0.3018  1.0226
 7284SOL    HW233486   2.503   0.133   7.108  0.2878 -1.1935 -0.1519
 7285SOL     OW33487   2.338   0.977   4.309  0.1485  0.5622 -0.3126
 7285SOL    HW133488   2.340   0.898   4.255 -0.5299  0.0892  0.3574
 7285SOL    HW233489   2.248   0.971   4.339  0.0431  0.9655 -0.5561
 7286SOL     OW33490   1.725   3.385  13.219 -0.1507 -0.8578  0.5038
 7286SOL    HW133491   1.773   3.460  13.254  0.0383 -0.7401 -0.0084
 7286SOL    HW233492   1.708   3.410  13.128 -0.8995 -0.5497  0.7352
 7287SOL     OW33493   4.144   2.244   3.273 -0.0812  0.4837 -0.1891
 7287SOL    HW133494   4.103   2.214   3.354  1.9518 -0.9512  0.3156
 7287SOL    HW233495   4.076   2.233   3.207 -0.4730 -0.2499  0.3320
 7288SOL     OW33496   2.572   1.348   3.541  0.3404  0.2115 -0.4124
 7288SOL    HW133497   2.608   1.368   3.627  1.0851  0.9082 -0.8812
 7288SOL    HW233498   2.514   1.418   3.512 -0.4220 -0.0265  0.5538
 7289SOL     OW33499   2.329   1.244   5.362 -0.5274 -0.1277 -0.4830
 7289SOL    HW133500   2.392   1.218   5.428 -0.8849 -0.4368 -0.2637
 7289SOL    HW233501   2.317   1.168   5.306 -1.9225 -2.4940  3.0778
 7290SOL     OW33502   3.553   1.376   7.923  0.1365  0.2928  0.2932
 7290SOL    HW133503   3.638   1.418   7.919 -0.1820  0.6440 -2.6391
 7290SOL    HW233504   3.581   1.293   7.887 -0.2108  0.3986 -0.2237
 7291SOL     OW33505   2.957   2.874   3.347  0.2483  0.1587 -0.4802
 7291SOL    HW133506   3.043   2.914   3.357 -0.6631  1.9867  0.1019
 7291SOL    HW233507   2.925   2.911   3.265  0.1000 -0.2956 -0.6297
 7292SOL     OW33508   1.626   0.461   7.066  0.1501 -0.6596 -0.1524
 7292SOL    HW133509   1.610   0.491   7.156  0.6542 -1.4446  0.1941
 7292SOL    HW233510   1.715   0.429   7.080  1.1345  2.0521 -0.2226
 7293SOL     OW33511   4.735   3.365   1.285 -0.4010 -0.0243 -0.2812
 7293SOL    HW133512   0.034   3.360   1.374 -1.5481 -0.6898  0.1275
 7293SOL    HW233513   4.693   3.450   1.286  2.0677  1.2048 -0.1703
 7294SOL     OW33514   2.098   0.102   0.729  0.3976 -0.6818  0.4497
 7294SOL    HW133515   2.040   0.148   0.669  2.3656  2.0600  0.6567
 7294SOL    HW233516   2.180   0.151   0.724  0.2136 -0.5947 -1.6224
 7295SOL     OW33517   4.543   1.501   0.099  0.4431  0.7065 -0.4631
 7295SOL    HW133518   4.580   1.440   0.036  0.2993 -1.2369  1.3390
 7295SOL    HW233519   4.607   1.571   0.115 -0.6426  1.3457  1.0927
 7296SOL     OW33520   1.834   0.383   6.673 -0.6620 -0.0859  0.0908
 7296SOL    HW133521   1.926   0.358   6.676 -0.3397  1.0453 -0.4160
 7296SOL    HW233522   1.806   0.367   6.582 -2.2722 -1.4986  0.8397
 7297SOL     OW33523   2.458   3.502   3.750 -0.2184  0.3183  0.4733
 7297SOL    HW133524   2.509   3.444   3.694  0.3055  2.5849 -1.4264
 7297SOL    HW233525   2.366   3.481   3.734  0.5017 -0.9601 -2.0497
 7298SOL     OW33526   3.534   1.826   9.238  0.3475  0.2553 -1.0085
 7298SOL    HW133527   3.442   1.808   9.256  0.3521  1.2927  0.0196
 7298SOL    HW233528   3.562   1.833   9.329 -1.0059  1.4749 -0.6891
 7299SOL     OW33529   1.988   1.027   3.751 -0.3089  0.0891 -0.0386
 7299SOL    HW133530   1.973   1.091   3.682 -0.4541 -1.0530 -1.0561
 7299SOL    HW233531   2.072   1.052   3.790 -0.0559 -2.8685  1.3138
 7300SOL     OW33532   1.436   0.499   6.006 -0.0152  0.0956  0.6695
 7300SOL    HW133533   1.501   0.436   5.975 -0.7239 -0.6124  0.6146
 7300SOL    HW233534   1.370   0.434   6.030 -1.2803  1.0825 -0.1107
 7301SOL     OW33535   0.062   4.535  16.759 -0.2046 -0.0632 -0.2992
 7301SOL    HW133536   0.012   4.581  16.692  0.1640 -0.4405 -0.8295
 7301SOL    HW233537   0.007   4.565  16.832 -0.0965 -1.7019  0.4395
 7302SOL     OW33538   2.401   1.996   3.252 -0.6933 -0.0437  0.0237
 7302SOL    HW133539   2.320   2.005   3.302 -1.0326 -1.2601 -0.3202
 7302SOL    HW233540   2.390   1.907   3.220 -1.9348  0.3009 -0.5025
 7303SOL     OW33541   0.068   4.106  15.340 -0.0289  0.2531  0.6532
 7303SOL    HW133542   0.051   4.026  15.290  0.1523  0.9034 -0.4554
 7303SOL    HW233543   0.143   4.133  15.288 -1.5524 -0.1219 -1.7384
 7304SOL     OW33544   2.883   1.331   6.081 -0.2809  0.0793  0.2731
 7304SOL    HW133545   2.977   1.347   6.078 -0.2607  0.2287  1.5363
 7304SOL    HW233546   2.884   1.241   6.115 -0.8972 -0.3693 -0.8915
 7305SOL     OW33547   0.739   3.294  10.828  0.1324 -0.1389  0.5109
 7305SOL    HW133548   0.830   3.274  10.849  0.3409  1.5652  1.2060
 7305SOL    HW233549   0.695   3.304  10.912  1.7570  1.2106  1.1874
 7306SOL     OW33550   0.146   0.285   0.080  0.3593  0.0136  1.0290
 7306SOL    HW133551   0.126   0.255   0.168  0.3817 -0.2330  0.9515
 7306SOL    HW233552   0.110   0.371   0.101  0.2934  0.5897 -1.4240
 7307SOL     OW33553   2.590   2.539   8.648  0.0235  0.1177 -0.1066
 7307SOL    HW133554   2.546   2.610   8.693 -0.5069  1.1696 -2.2662
 7307SOL    HW233555   2.667   2.582   8.612  0.1437 -1.1829 -1.4024
 7308SOL     OW33556   4.507   1.042   4.039 -0.5897 -0.3987  0.1022
 7308SOL    HW133557   4.560   1.036   3.960 -0.6466  3.0114 -0.2175
 7308SOL    HW233558   4.425   1.004   4.007 -0.5269  0.6729 -1.3315
 7309SOL     OW33559   0.026   0.264   9.611 -0.5627  0.5782  0.9373
 7309SOL    HW133560   0.055   0.198   9.547  1.5319 -0.0585  2.5909
 7309SOL    HW233561   0.032   0.347   9.563 -1.1353 -0.6453 -1.2525
 7310SOL     OW33562   2.455   0.051   6.069 -0.2136 -0.0938 -0.0660
 7310SOL    HW133563   2.424   4.718   6.010  0.0139 -1.1582  1.0529
 7310SOL    HW233564   2.497   0.005   6.141 -1.0208  1.3918  1.3765
 7311SOL     OW33565   0.853   3.588   9.708 -0.2000 -0.4490  0.0523
 7311SOL    HW133566   0.874   3.681   9.716 -3.3528  0.4509 -1.9555
 7311SOL    HW233567   0.877   3.556   9.794  2.1996  5.0665  1.4435
 7312SOL     OW33568   4.182   0.395   7.172  0.2294  0.0304  0.2815
 7312SOL    HW133569   4.212   0.334   7.105  0.7856 -0.6582  1.1441
 7312SOL    HW233570   4.267   0.396   7.217  0.0244  1.5885  0.6506
 7313SOL     OW33571   1.259   1.550   1.476  0.2728  0.3316  0.4852
 7313SOL    HW133572   1.250   1.465   1.433 -0.5770 -0.1134  1.5400
 7313SOL    HW233573   1.272   1.612   1.405  0.3541 -0.7611 -0.4478
 7314SOL     OW33574   0.728   2.682   2.980 -0.4064  0.0463 -0.9937
 7314SOL    HW133575   0.666   2.737   2.932  0.1934  1.1272 -0.5229
 7314SOL    HW233576   0.796   2.666   2.915 -0.2330 -0.1209 -0.7743
 7315SOL     OW33577   3.786   1.465   7.216  0.4383  0.1463 -0.0847
 7315SOL    HW133578   3.834   1.386   7.241 -0.3839  0.2970  1.9114
 7315SOL    HW233579   3.750   1.503   7.296  1.2178 -0.5022  0.5731
 7316SOL     OW33580   0.573   4.113   1.199 -0.3440  0.5602  0.2232
 7316SOL    HW133581   0.644   4.097   1.262  0.4573 -1.2772 -1.1576
 7316SOL    HW233582   0.539   4.025   1.188  0.0427  0.3614  0.6369
 7317SOL     OW33583   4.660   0.643   3.345 -0.9145 -0.2380  0.3668
 7317SOL    HW133584   4.644   0.597   3.427 -1.3202 -0.3898  0.2070
 7317SOL    HW233585   4.633   0.579   3.279  1.9417 -1.0706  0.0264
 7318SOL     OW33586   1.997   2.609   5.750  0.8700 -0.4903 -0.4007
 7318SOL    HW133587   2.019   2.680   5.811  1.9178 -0.5787 -0.6661
 7318SOL    HW233588   2.031   2.530   5.793 -0.8372 -1.9526 -1.7698
 7319SOL     OW33589   2.831   2.204   1.521  0.6801 -0.0304 -0.0252
 7319SOL    HW133590   2.920   2.222   1.552  0.6185 -0.8450  0.6332
 7319SOL    HW233591   2.851   2.114   1.494 -0.3944 -0.2546 -0.0471
 7320SOL     OW33592   3.022   4.449   5.639 -0.4778  0.1889 -0.2161
 7320SOL    HW133593   3.060   4.494   5.715  1.1418 -1.2597 -0.1358
 7320SOL    HW233594   2.994   4.510   5.572  1.9528 -2.0580 -3.3089
 7321SOL     OW33595   3.094   3.965   6.359 -0.4464 -0.1566  0.1991
 7321SOL    HW133596   3.073   4.045   6.408 -1.1633  0.5064 -1.1890
 7321SOL    HW233597   3.014   3.913   6.355 -0.5371 -0.2576  3.4259
 7322SOL     OW33598   3.510   4.424   1.559 -0.0105  0.0486  0.0924
 7322SOL    HW133599   3.457   4.447   1.483  2.6275  1.3457 -1.3701
 7322SOL    HW233600   3.587   4.381   1.523 -0.6526 -0.2629 -0.9117
 7323SOL     OW33601   1.979   3.030   6.775 -0.3471 -0.0285  0.2997
 7323SOL    HW133602   1.929   3.060   6.699 -0.2443 -1.4441 -0.3206
 7323SOL    HW233603   1.916   3.009   6.843 -0.8589 -1.2525 -0.5511
 7324SOL     OW33604   0.291   2.914   7.027 -0.1729 -0.2790  0.0092
 7324SOL    HW133605   0.373   2.942   6.988 -1.0842  1.7014 -0.4462
 7324SOL    HW233606   0.230   2.923   6.954 -2.2449 -0.3600  1.7379
 7325SOL     OW33607   4.691   2.975   2.035  0.3187  0.2470  0.4657
 7325SOL    HW133608   4.692   2.887   1.997  0.6016  0.9445 -1.1455
 7325SOL    HW233609   4.711   2.964   2.128  2.7979  0.4339 -0.0608
 7326SOL     OW33610   3.221   3.585   7.530 -0.9491 -0.3261 -0.4988
 7326SOL    HW133611   3.154   3.636   7.484  1.6215  1.0998 -2.7248
 7326SOL    HW233612   3.234   3.523   7.458 -0.1361  1.1099 -1.5881
 7327SOL     OW33613   0.162   3.663   8.419  0.7171 -0.2071 -0.1595
 7327SOL    HW133614   0.145   3.575   8.385 -0.6539 -0.0495  0.0872
 7327SOL    HW233615   0.096   3.705   8.364  1.4573  2.7087  1.1689
 7328SOL     OW33616   0.952   0.848   2.254  0.3388  0.1625  0.3707
 7328SOL    HW133617   0.891   0.891   2.314  0.6315  1.8201 -0.4928
 7328SOL    HW233618   0.915   0.845   2.166 -2.2544  0.4090  1.4493
 7329SOL     OW33619   4.612   3.452   3.200  0.1207  0.1773 -0.3906
 7329SOL    HW133620   4.679   3.518   3.215  0.8536 -0.3513 -1.3040
 7329SOL    HW233621   4.540   3.479   3.258  1.3650  0.8796  0.8135
 7330SOL     OW33622   1.691   2.317   7.473  0.0193 -0.0086  0.2109
 7330SOL    HW133623   1.704   2.259   7.548  3.3175 -1.3032 -1.3703
 7330SOL    HW233624   1.653   2.397   7.510  2.0690  0.6127  0.9592
 7331SOL     OW33625   0.883   3.348   7.671 -0.1351  0.2969  0.2338
 7331SOL    HW133626   0.841   3.432   7.691 -0.2903  0.1264  0.6238
 7331SOL    HW233627   0.866   3.343   7.577  1.8241 -1.7174 -0.0266
 7332SOL     OW33628   2.294   0.921  14.784 -0.2085  0.3275 -0.6295
 7332SOL    HW133629   2.344   0.839  14.786 -1.4945 -0.4536 -0.1551
 7332SOL    HW233630   2.234   0.892  14.715  0.3158  0.4135 -1.1200
 7333SOL     OW33631   4.328   2.820   4.183 -0.3315 -0.9448  0.1895
 7333SOL    HW133632   4.319   2.914   4.166 -2.6511 -1.5478 -1.9661
 7333SOL    HW233633   4.334   2.794   4.091  1.3161  0.8425 -0.2160
 7334SOL     OW33634   1.968   2.615   0.118  0.1684  0.1803  0.0431
 7334SOL    HW133635   1.901   2.679   0.144  2.5103  2.1723  1.2258
 7334SOL    HW233636   1.996   2.659   0.038 -1.2299  1.2211  0.1179
 7335SOL     OW33637   1.463   1.904   3.047  0.1350 -0.0310 -0.1242
 7335SOL    HW133638   1.413   1.973   3.003  1.4395  0.5983 -0.6228
 7335SOL    HW233639   1.411   1.879   3.123 -0.8471  1.9123 -0.1759
 7336SOL     OW33640   0.176   0.506   1.142 -0.4343  0.0257 -0.4422
 7336SOL    HW133641   0.259   0.472   1.175 -0.7251  2.0447  2.3179
 7336SOL    HW233642   0.206   0.563   1.071  0.0149 -2.0114 -1.8992
 7337SOL     OW33643   3.466   4.552   3.717  0.2415  0.0112  0.2557
 7337SOL    HW133644   3.457   4.506   3.800 -0.7702 -3.6903 -1.9229
 7337SOL    HW233645   3.506   4.477   3.673 -1.1304 -2.1117  2.6606
 7338SOL     OW33646   3.274   2.372   4.706  0.2758 -0.1277 -0.2493
 7338SOL    HW133647   3.339   2.312   4.743  0.0936 -0.4639 -0.4831
 7338SOL    HW233648   3.312   2.384   4.619 -2.4856 -0.2796 -1.4429
 7339SOL     OW33649   0.510   4.518  10.455 -0.3480 -0.1262 -0.1973
 7339SOL    HW133650   0.483   4.588  10.514 -1.1290 -0.9539  0.4133
 7339SOL    HW233651   0.448   4.448  10.473 -1.1516  0.8698  0.8733
 7340SOL     OW33652   4.296   0.674   2.758 -0.2116 -0.2226  0.1659
 7340SOL    HW133653   4.263   0.732   2.690  0.8422 -1.1703 -1.1303
 7340SOL    HW233654   4.391   0.679   2.746 -0.0984  0.3953  1.2894
 7341SOL     OW33655   1.454   2.052  14.990  0.3952 -0.0152  0.0326
 7341SOL    HW133656   1.486   2.134  15.028  0.8960  0.0893 -0.5968
 7341SOL    HW233657   1.524   1.999  15.029  0.2863 -0.6217 -0.5820
 7342SOL     OW33658   0.166   2.586   3.625 -0.0295  0.2156  0.3707
 7342SOL    HW133659   0.101   2.569   3.694  1.5236 -1.4568  1.4249
 7342SOL    HW233660   0.114   2.652   3.579  1.1345  1.9396  1.5162
 7343SOL     OW33661   2.931   0.353   7.002  0.2472  0.2604 -0.5097
 7343SOL    HW133662   2.971   0.286   6.947  2.0593  0.4533  0.5792
 7343SOL    HW233663   2.917   0.427   6.943  2.0794 -0.1784 -1.4913
 7344SOL     OW33664   3.894   2.165   2.390  0.2769 -0.1399  0.1438
 7344SOL    HW133665   3.931   2.128   2.470  1.0210 -2.8194 -1.4689
 7344SOL    HW233666   3.960   2.230   2.367  0.5218  0.1135  1.5653
 7345SOL     OW33667   0.645   1.453   5.245  0.4544 -0.7905  0.2314
 7345SOL    HW133668   0.691   1.443   5.328  1.9620  1.8420 -0.2857
 7345SOL    HW233669   0.716   1.492   5.194 -0.6495  0.5983 -0.2589
 7346SOL     OW33670   1.490   2.863   5.235 -0.4725  0.9997  0.1652
 7346SOL    HW133671   1.561   2.918   5.201  0.3028 -0.9464 -1.3441
 7346SOL    HW233672   1.416   2.916   5.204 -1.3054  0.2834  0.9524
 7347SOL     OW33673   2.297   0.758   3.010  0.1966  0.3964  0.2141
 7347SOL    HW133674   2.327   0.847   2.988  0.6555  0.4152  0.9146
 7347SOL    HW233675   2.351   0.728   3.083  1.0642  0.2343 -0.4885
 7348SOL     OW33676   2.727   4.223   1.880  0.3682  0.2240 -0.2050
 7348SOL    HW133677   2.657   4.162   1.904  0.2678 -0.2128 -1.6388
 7348SOL    HW233678   2.691   4.302   1.840 -1.1737  0.4129  1.5574
 7349SOL     OW33679   2.105   0.095   4.092  0.1205 -0.2993  1.0204
 7349SOL    HW133680   2.073   0.046   4.016  2.3388 -0.4983  0.1931
 7349SOL    HW233681   2.146   0.163   4.038 -2.3746  0.4875  0.1122
 7350SOL     OW33682   3.941   3.918   9.032  0.2644  0.4069 -0.0393
 7350SOL    HW133683   3.846   3.923   9.042  0.1809 -2.6406  0.6145
 7350SOL    HW233684   3.975   3.954   9.114 -2.2293 -1.1172  1.6339
 7351SOL     OW33685   4.261   3.841  16.085 -0.1106  0.2281  0.2407
 7351SOL    HW133686   4.178   3.881  16.060 -0.7639  1.1712  3.8643
 7351SOL    HW233687   4.278   3.882  16.170  3.2267  2.8192 -1.6532
 7352SOL     OW33688   2.730   2.495   5.469 -0.0911 -0.2767  0.2481
 7352SOL    HW133689   2.700   2.517   5.381  2.6652  1.0028 -0.3533
 7352SOL    HW233690   2.762   2.575   5.511 -0.5176  0.1430 -0.2336
 7353SOL     OW33691   2.279   1.461   5.925  0.2106  0.0020 -0.1863
 7353SOL    HW133692   2.208   1.401   5.901  0.7450 -0.8513  0.4028
 7353SOL    HW233693   2.312   1.432   6.010 -0.3818 -0.7319 -0.2051
 7354SOL     OW33694   4.580   0.125   3.438 -0.2779 -0.3342 -0.1737
 7354SOL    HW133695   4.622   0.134   3.353 -0.8650 -1.5844 -0.5914
 7354SOL    HW233696   4.509   0.183   3.411 -0.8983 -1.1061 -0.1907
 7355SOL     OW33697   0.663   2.913  11.181  0.3498  0.6584  0.1996
 7355SOL    HW133698   0.615   2.864  11.115 -1.3528  2.5657  0.0138
 7355SOL    HW233699   0.674   2.850  11.253 -1.0096 -1.1719 -1.2091
 7356SOL     OW33700   1.343   1.163   9.588 -0.1237 -0.2280 -0.1665
 7356SOL    HW133701   1.393   1.151   9.507 -0.0550 -0.8400 -0.0270
 7356SOL    HW233702   1.256   1.169   9.550 -0.1834  1.2993  0.1798
 7357SOL     OW33703   2.176   1.550   7.626 -0.4358 -0.0400 -0.2949
 7357SOL    HW133704   2.082   1.569   7.621 -0.9401 -2.3278  0.6887
 7357SOL    HW233705   2.214   1.575   7.542 -1.2153 -1.3008 -1.0101
 7358SOL     OW33706   0.200   0.097   7.999  0.3700 -0.0759 -0.0920
 7358SOL    HW133707   0.293   0.115   8.007  0.2982  0.6769 -1.1063
 7358SOL    HW233708   0.206   0.002   7.991  1.4783 -0.2628  2.8244
 7359SOL     OW33709   4.620   3.017   6.441 -0.6785  1.2393 -0.0418
 7359SOL    HW133710   4.541   3.008   6.388 -0.2075 -1.0657 -0.3524
 7359SOL    HW233711   4.627   3.112   6.439  2.0911  0.9855 -1.7590
 7360SOL     OW33712   4.187   2.487   7.091 -0.3559  0.1899 -0.1034
 7360SOL    HW133713   4.235   2.496   7.009  3.2017 -0.8022  1.8764
 7360SOL    HW233714   4.223   2.408   7.134 -0.8477  0.6895  1.2395
 7361SOL     OW33715   0.986   3.195  15.279 -0.4861  0.9105 -0.1342
 7361SOL    HW133716   0.968   3.135  15.207  2.6153  0.1038 -0.2413
 7361SOL    HW233717   0.971   3.285  15.253  2.2378  1.0056 -1.3795
 7362SOL     OW33718   0.194   1.903   5.452  0.2028  0.1672 -0.0679
 7362SOL    HW133719   0.159   1.851   5.525 -0.2585 -1.2477 -1.2953
 7362SOL    HW233720   0.163   1.991   5.473 -0.6086 -0.2813  0.6100
 7363SOL     OW33721   2.999   2.685   7.844  0.5214  0.3765 -0.2093
 7363SOL    HW133722   2.946   2.633   7.784  1.7893 -1.8296  0.6013
 7363SOL    HW233723   3.057   2.737   7.787  2.1524  0.6865  1.7410
 7364SOL     OW33724   0.036   0.512   9.476  0.4739 -0.1820  0.0371
 7364SOL    HW133725   0.083   0.583   9.518 -1.3002 -1.4994  4.3074
 7364SOL    HW233726   4.694   0.554   9.437 -0.5992 -0.2703  2.1006
 7365SOL     OW33727   3.658   0.415   7.495  0.5334  0.4648  0.0187
 7365SOL    HW133728   3.638   0.442   7.405  0.2932 -0.8459 -0.3177
 7365SOL    HW233729   3.747   0.446   7.505  0.2176  1.6466 -0.8196
 7366SOL     OW33730   3.490   4.442   5.694 -0.2033  0.3169  0.3974
 7366SOL    HW133731   3.490   4.442   5.790 -1.7555  1.9960  0.4001
 7366SOL    HW233732   3.472   4.351   5.672  1.9751 -0.2889  1.2255
 7367SOL     OW33733   0.941   2.833   7.181  0.0332 -0.3536 -0.0053
 7367SOL    HW133734   0.859   2.835   7.231  0.6065 -0.4532  0.9181
 7367SOL    HW233735   0.932   2.750   7.134  0.9412 -1.8320  2.4426
 7368SOL     OW33736   2.018   2.191  10.494 -0.2322 -0.3497 -0.1102
 7368SOL    HW133737   1.992   2.110  10.450 -2.6520 -1.7112  3.8627
 7368SOL    HW233738   2.069   2.156  10.567  1.3777 -0.6631 -1.3660
 7369SOL     OW33739   2.940   2.886   6.437  0.0309 -0.2868 -0.0451
 7369SOL    HW133740   3.018   2.940   6.448  0.1175 -0.8594  2.0547
 7369SOL    HW233741   2.978   2.799   6.447  0.9238  0.1327  0.1209
 7370SOL     OW33742   1.878   2.249   3.377 -0.1084  0.2391 -0.4402
 7370SOL    HW133743   1.895   2.278   3.287 -2.2830 -1.9788 -1.5608
 7370SOL    HW233744   1.855   2.157   3.368 -1.2161  0.4342  0.4186
 7371SOL     OW33745   0.474   2.909   1.768  0.6344 -0.2871 -0.0011
 7371SOL    HW133746   0.504   2.829   1.811 -0.2196 -0.6921 -0.1650
 7371SOL    HW233747   0.551   2.966   1.760 -0.6324  1.0276 -2.7034
 7372SOL     OW33748   3.336   0.647   8.979 -0.1658  0.1358 -0.2852
 7372SOL    HW133749   3.285   0.720   8.943  1.6962  1.2778 -0.6055
 7372SOL    HW233750   3.426   0.677   8.970  0.1147 -0.8377 -0.6804
 7373SOL     OW33751   3.631   0.402  17.331  0.0304  0.0218  0.7784
 7373SOL    HW133752   3.593   0.332  17.278 -0.5821  2.0702 -1.4818
 7373SOL    HW233753   3.553   0.456  17.331  0.4043  0.5639 -1.7931
 7374SOL     OW33754   0.408   2.129  17.671 -0.2453 -0.0018  0.4739
 7374SOL    HW133755   0.331   2.180  17.697 -1.2080 -0.2746 -1.8620
 7374SOL    HW233756   0.486   2.185  17.664 -1.4912  1.4370 -1.8999
 7375SOL     OW33757   4.404   3.539   3.354  0.4966 -0.7279  0.5024
 7375SOL    HW133758   4.360   3.615   3.316 -0.9866 -0.7994  2.0978
 7375SOL    HW233759   4.386   3.560   3.446  0.1591 -0.0283  0.2701
 7376SOL     OW33760   0.974   2.801  12.901 -0.0503 -0.9344  0.4624
 7376SOL    HW133761   1.068   2.816  12.911  0.2932 -0.7062 -2.9949
 7376SOL    HW233762   0.971   2.709  12.873 -0.8618 -0.4702 -0.9875
 7377SOL     OW33763   1.914   0.622  11.087  0.1467 -0.0505 -0.0996
 7377SOL    HW133764   1.909   0.678  11.164 -0.6321  1.6507 -1.3899
 7377SOL    HW233765   1.822   0.606  11.065  0.0879 -1.7004  1.3239
 7378SOL     OW33766   0.028   0.615   7.254 -0.3663  0.2671 -0.1638
 7378SOL    HW133767   0.030   0.539   7.312  0.5117 -0.4645 -1.1597
 7378SOL    HW233768   0.119   0.613   7.225 -0.3952  0.3146 -0.2581
 7379SOL     OW33769   0.200   0.212   1.758  0.2896 -0.4301  0.1639
 7379SOL    HW133770   0.194   0.158   1.837 -1.8046  4.1955  3.1223
 7379SOL    HW233771   0.293   0.226   1.739 -0.1240  0.1266 -1.4006
 7380SOL     OW33772   3.111   3.286  11.977 -0.1512  0.6200 -0.1817
 7380SOL    HW133773   3.121   3.218  12.043  0.4057 -1.6347 -2.6174
 7380SOL    HW233774   3.134   3.250  11.891 -1.5835 -3.1248  1.0170
 7381SOL     OW33775   2.347   2.336   3.977 -0.1401  0.6590 -0.3139
 7381SOL    HW133776   2.294   2.375   3.907  0.7138 -0.2012 -1.4408
 7381SOL    HW233777   2.283   2.286   4.028  0.5782  0.9716  0.8917
 7382SOL     OW33778   3.409   3.760  17.125  0.1713  0.6335 -0.1114
 7382SOL    HW133779   3.430   3.736  17.215 -1.1185 -0.4308 -0.1068
 7382SOL    HW233780   3.428   3.680  17.077  1.5138 -0.0537  1.5736
 7383SOL     OW33781   4.345   0.797   6.509  0.3380 -0.2323  0.5337
 7383SOL    HW133782   4.434   0.796   6.476  0.5552 -0.8052  1.1448
 7383SOL    HW233783   4.360   0.819   6.601  3.6987  1.1364 -0.3631
 7384SOL     OW33784   3.497   1.564  16.691  0.3902 -0.1160  0.3424
 7384SOL    HW133785   3.492   1.643  16.745 -3.2291 -0.0332 -0.1262
 7384SOL    HW233786   3.462   1.584  16.605  0.7262  1.9947  0.7051
 7385SOL     OW33787   4.138   3.266   8.812 -0.2824 -0.5551  0.3605
 7385SOL    HW133788   4.127   3.361   8.804 -3.6643 -0.9878 -0.1344
 7385SOL    HW233789   4.122   3.235   8.723 -1.6702 -0.6524  0.6554
 7386SOL     OW33790   2.636   1.703  14.285  0.2094  0.0386  0.5024
 7386SOL    HW133791   2.700   1.774  14.283 -1.7603  1.8941  2.4119
 7386SOL    HW233792   2.593   1.712  14.370  1.4416  3.3527  0.7748
 7387SOL     OW33793   0.790   4.027  14.576 -0.1198 -0.1198  0.7788
 7387SOL    HW133794   0.842   4.093  14.623 -0.7323 -1.0238  2.7106
 7387SOL    HW233795   0.863   3.967  14.561 -0.9906 -1.2632  1.0870
 7388SOL     OW33796   0.908   3.033   5.782  0.1542 -0.5290  0.3464
 7388SOL    HW133797   0.997   3.005   5.804  0.3760 -1.2609 -1.4554
 7388SOL    HW233798   0.919   3.059   5.691  0.5727  0.6682  0.7392
 7389SOL     OW33799   0.926   3.675  16.758  0.3323  0.0988  0.0706
 7389SOL    HW133800   0.961   3.652  16.672  1.1612 -2.0168  0.9716
 7389SOL    HW233801   0.964   3.762  16.768  0.1367  0.3116 -1.0123
 7390SOL     OW33802   3.595   1.016  13.741  0.2533  0.0698 -0.3342
 7390SOL    HW133803   3.510   0.991  13.705  0.0622  1.0555 -0.5728
 7390SOL    HW233804   3.633   1.063  13.667 -0.1278 -0.9880 -1.2017
 7391SOL     OW33805   2.008   0.135  11.623  0.0986 -0.4657 -0.1187
 7391SOL    HW133806   2.090   0.119  11.577  0.9532  1.3074  0.8206
 7391SOL    HW233807   2.035   0.092  11.705 -1.0425  4.1472  2.7091
 7392SOL     OW33808   1.781   4.588   8.759  0.1484 -0.5891 -0.3073
 7392SOL    HW133809   1.763   4.630   8.675  1.1734 -1.1709 -0.8153
 7392SOL    HW233810   1.751   4.662   8.813 -0.3365  0.9257 -2.6411
 7393SOL     OW33811   1.861   4.597   6.650  0.1776  0.2032 -0.4661
 7393SOL    HW133812   1.927   4.617   6.717  1.9122 -1.7975 -1.5652
 7393SOL    HW233813   1.879   4.504   6.634 -1.7460 -0.1944 -0.2564
 7394SOL     OW33814   3.699   1.259  12.313  0.2932 -0.0344  0.2533
 7394SOL    HW133815   3.654   1.178  12.293  2.7730 -1.9641  2.5631
 7394SOL    HW233816   3.637   1.299  12.374  1.0436 -0.8862  1.5568
 7395SOL     OW33817   3.172   0.346   9.230  0.1278 -0.1368  0.6340
 7395SOL    HW133818   3.154   0.322   9.139  1.5591 -0.9325  0.5497
 7395SOL    HW233819   3.240   0.281   9.250 -1.1801 -1.5168  0.6285
 7396SOL     OW33820   1.314   3.790   7.863  0.0788  0.4526 -0.4182
 7396SOL    HW133821   1.273   3.863   7.817 -0.5688  0.4974  0.2252
 7396SOL    HW233822   1.320   3.736   7.784  0.5149  0.6759 -0.5367
 7397SOL     OW33823   2.042   2.676  14.457  0.1373 -0.2743 -0.2475
 7397SOL    HW133824   2.024   2.761  14.498  1.4862 -0.2136  0.2052
 7397SOL    HW233825   1.971   2.619  14.486 -0.9310  1.9649  1.4830
 7398SOL     OW33826   3.997   0.702   0.831 -0.2402 -0.0166 -0.7544
 7398SOL    HW133827   3.930   0.675   0.768  0.2867 -0.2881 -1.1941
 7398SOL    HW233828   3.942   0.735   0.903  0.4141 -1.6255  0.4788
 7399SOL     OW33829   1.619   3.049  17.233 -0.2191  0.2335  1.0006
 7399SOL    HW133830   1.662   3.028  17.151  2.6696 -0.7840  2.7808
 7399SOL    HW233831   1.656   3.132  17.262 -2.2339  1.1415  0.9645
 7400SOL     OW33832   3.513   2.453  14.656  0.7182 -0.2248  0.3370
 7400SOL    HW133833   3.486   2.516  14.590 -0.3688  0.9432  1.9003
 7400SOL    HW233834   3.450   2.471  14.725 -1.8281 -1.3537 -1.7237
 7401SOL     OW33835   3.502   3.085   8.874  0.8543  0.0816 -0.6304
 7401SOL    HW133836   3.474   3.017   8.813 -1.2972  1.2095 -0.9177
 7401SOL    HW233837   3.498   3.164   8.819 -2.1761 -0.8356 -1.7181
 7402SOL     OW33838   1.784   2.548  14.461 -0.1503 -0.0796  0.4390
 7402SOL    HW133839   1.716   2.607  14.428 -0.5433 -0.5869  0.3424
 7402SOL    HW233840   1.747   2.525  14.546  0.4471 -0.9995  0.4507
 7403SOL     OW33841   4.093   3.666   8.621  0.0611 -0.6505 -0.0036
 7403SOL    HW133842   4.073   3.731   8.689  2.1918 -0.6612  0.6370
 7403SOL    HW233843   4.013   3.687   8.572 -0.6578 -0.6010  1.1826
 7404SOL     OW33844   1.592   4.046  12.243  0.4867  0.1993 -0.1733
 7404SOL    HW133845   1.507   4.052  12.199 -0.3242 -2.4871  1.0309
 7404SOL    HW233846   1.573   3.997  12.323  0.7377 -0.7279 -0.6794
 7405SOL     OW33847   4.042   0.642  11.078  0.2357 -0.1286  0.2492
 7405SOL    HW133848   4.045   0.642  11.174 -0.5696  3.7188  0.2643
 7405SOL    HW233849   4.047   0.547  11.062 -1.8815 -0.2871  0.5123
 7406SOL     OW33850   0.625   3.783   9.913  0.2725 -0.5468  0.8153
 7406SOL    HW133851   0.720   3.772   9.915  0.7520  3.3689 -0.0614
 7406SOL    HW233852   0.582   3.721   9.972 -0.4553 -0.3597  0.4920
 7407SOL     OW33853   4.414   1.002   6.260  0.1204  0.0424  0.0814
 7407SOL    HW133854   4.344   0.974   6.319 -1.4765  2.1762 -0.8182
 7407SOL    HW233855   4.387   0.948   6.186 -1.0314 -1.5750  1.6753
 7408SOL     OW33856   0.433   3.267   6.036  0.3473 -0.1846  0.1953
 7408SOL    HW133857   0.362   3.212   6.003 -0.4235  2.5598 -2.8049
 7408SOL    HW233858   0.490   3.232   5.968 -0.9414  0.8139 -1.4190
 7409SOL     OW33859   0.579   0.536  13.487 -0.9196  0.5037 -0.2270
 7409SOL    HW133860   0.624   0.539  13.403  2.0290  1.1145  1.4085
 7409SOL    HW233861   0.655   0.556  13.541 -0.7581 -0.9970  0.1254
 7410SOL     OW33862   2.372   4.094   2.934  0.1379 -0.0164 -0.3299
 7410SOL    HW133863   2.433   4.167   2.942 -2.9118  2.5439 -0.6630
 7410SOL    HW233864   2.359   4.081   3.028 -4.3123  3.7077 -0.4620
 7411SOL     OW33865   4.659   4.423  10.218 -0.2954  0.2805 -0.4008
 7411SOL    HW133866   4.725   4.472  10.267 -1.7553  1.3553  0.4885
 7411SOL    HW233867   4.668   4.442  10.124  1.2671 -2.3892 -0.7803
 7412SOL     OW33868   0.785   3.483   1.125  0.0890  0.8711 -0.0755
 7412SOL    HW133869   0.861   3.447   1.172  0.9441 -0.5552 -2.5318
 7412SOL    HW233870   0.823   3.481   1.037  0.6684 -0.7314  0.1963
 7413SOL     OW33871   4.692   0.687   3.752 -0.0134 -0.0859 -0.1257
 7413SOL    HW133872   0.032   0.721   3.703 -0.4746 -1.4779 -1.8010
 7413SOL    HW233873   4.669   0.603   3.714  1.0881 -0.9268  1.0508
 7414SOL     OW33874   3.904   0.916   8.499  0.0231  0.5572 -0.1335
 7414SOL    HW133875   3.949   0.832   8.494 -0.6853  0.2311 -1.1862
 7414SOL    HW233876   3.910   0.938   8.592  1.9726 -1.6405  0.2486
 7415SOL     OW33877   0.702   3.107   8.442 -0.1391  0.1027 -0.3105
 7415SOL    HW133878   0.703   3.099   8.347 -0.5007 -0.2765 -0.2805
 7415SOL    HW233879   0.608   3.098   8.458  0.1670 -1.7359  0.4422
 7416SOL     OW33880   3.917   1.790   5.097 -0.0196 -0.8671  0.0023
 7416SOL    HW133881   4.005   1.826   5.087 -0.0153 -0.7535  0.4350
 7416SOL    HW233882   3.890   1.771   5.007 -1.5611 -3.1810  0.9378
 7417SOL     OW33883   3.085   2.001   4.242 -0.8159  0.1986  0.1034
 7417SOL    HW133884   3.128   1.922   4.209  2.5629  1.5196  1.3502
 7417SOL    HW233885   3.164   2.048   4.269  0.9978 -3.3772  0.9773
 7418SOL     OW33886   0.502   3.041   0.701 -0.4014 -0.1471  0.1594
 7418SOL    HW133887   0.579   3.097   0.690 -0.3665  0.2797  2.5044
 7418SOL    HW233888   0.468   3.058   0.789  0.0990 -0.4233  0.4080
 7419SOL     OW33889   0.451   1.027   4.647  0.5529 -0.0882  0.2680
 7419SOL    HW133890   0.475   1.096   4.584 -0.6913  0.3292  0.2463
 7419SOL    HW233891   0.364   1.055   4.675 -0.2832 -2.6095  0.1885
 7420SOL     OW33892   1.807   1.768   4.400 -0.6089  0.0275 -0.3242
 7420SOL    HW133893   1.840   1.689   4.357 -1.1769  0.5786 -1.7409
 7420SOL    HW233894   1.713   1.750   4.393 -0.3712 -1.4682  0.2646
 7421SOL     OW33895   2.798   4.557   6.721 -0.2167  0.3082  0.3074
 7421SOL    HW133896   2.823   4.470   6.751 -2.2588 -1.6500 -3.6289
 7421SOL    HW233897   2.879   4.607   6.730 -1.4762  2.4098  0.0703
 7422SOL     OW33898   2.385   0.787  14.240  0.0032 -0.0672 -0.6262
 7422SOL    HW133899   2.439   0.825  14.309  2.0912 -1.9338 -1.2260
 7422SOL    HW233900   2.362   0.870  14.199 -1.8723  0.0278  0.6557
 7423SOL     OW33901   1.044   0.845   9.522 -0.1331 -0.1478  0.0009
 7423SOL    HW133902   0.994   0.774   9.562  1.2349 -1.1470 -0.0603
 7423SOL    HW233903   1.100   0.806   9.454  0.1547  0.3888 -0.0706
 7424SOL     OW33904   0.841   1.459   1.882  0.2635 -0.1517 -0.4157
 7424SOL    HW133905   0.759   1.471   1.929  1.2200  1.5946  0.8205
 7424SOL    HW233906   0.823   1.520   1.811 -0.4851  1.1266  0.8693
 7425SOL     OW33907   1.809   2.523   5.310 -0.3142 -0.1739 -0.1167
 7425SOL    HW133908   1.830   2.564   5.394  0.1701  0.0289 -0.3389
 7425SOL    HW233909   1.874   2.456   5.289 -0.6296  0.0570 -1.8296
 7426SOL     OW33910   3.776   1.100   9.982 -0.0010 -0.6633 -0.3854
 7426SOL    HW133911   3.799   1.168  10.045 -1.7866 -0.3655 -0.0454
 7426SOL    HW233912   3.793   1.021  10.032 -0.5539 -0.8692 -0.5303
 7427SOL     OW33913   4.292   4.571   8.513 -0.6517  0.3229  0.2253
 7427SOL    HW133914   4.346   4.623   8.453 -0.0830 -2.2175 -1.4639
 7427SOL    HW233915   4.266   4.499   8.456  1.7261  0.2523 -0.7837
 7428SOL     OW33916   3.578   2.896   9.376 -0.0504  0.5169 -0.3682
 7428SOL    HW133917   3.634   2.870   9.304  1.3393  0.7423  0.6244
 7428SOL    HW233918   3.522   2.944   9.315  0.5665 -1.1067 -2.2007
 7429SOL     OW33919   1.233   2.501   6.543  0.1550  0.0310 -0.2615
 7429SOL    HW133920   1.285   2.525   6.620 -2.4097 -2.4104  2.2121
 7429SOL    HW233921   1.180   2.580   6.532 -0.6375 -0.4762 -0.0863
 7430SOL     OW33922   2.256   1.052   6.950 -0.0735  0.3037  0.1103
 7430SOL    HW133923   2.270   0.959   6.967  0.5111  0.0483 -1.7011
 7430SOL    HW233924   2.235   1.039   6.857  3.4527  1.0690 -0.8254
 7431SOL     OW33925   1.133   0.434  16.830 -0.1204 -0.0231  0.0008
 7431SOL    HW133926   1.064   0.371  16.852  1.2031 -0.6417  2.3994
 7431SOL    HW233927   1.202   0.381  16.871  0.0767 -0.0500 -0.3658
 7432SOL     OW33928   2.467   0.095   4.747 -0.4648  0.2479  0.0159
 7432SOL    HW133929   2.407   0.022   4.733  1.0570 -0.7235 -1.4938
 7432SOL    HW233930   2.421   0.160   4.694 -0.3741 -0.7278 -1.2457
 7433SOL     OW33931   2.255   3.996   8.006 -0.7191  0.1387 -0.3644
 7433SOL    HW133932   2.162   3.975   7.991 -0.9412  0.2992  0.7488
 7433SOL    HW233933   2.261   3.999   8.102  1.7115 -0.4896 -0.5005
 7434SOL     OW33934   4.129   3.882   9.737 -0.3106 -0.6669 -0.5224
 7434SOL    HW133935   4.134   3.787   9.724  0.6595 -0.5674 -0.9625
 7434SOL    HW233936   4.039   3.892   9.706 -0.4260 -0.6191 -0.1657
 7435SOL     OW33937   1.028   4.679  11.495 -0.4059  0.2891 -0.2903
 7435SOL    HW133938   1.057   4.627  11.419 -1.0322  3.1285 -2.4762
 7435SOL    HW233939   1.111   4.690  11.542 -0.8042 -2.7714  1.1220
 7436SOL     OW33940   3.357   2.616  13.419  0.1216  0.2084  0.1041
 7436SOL    HW133941   3.419   2.667  13.470  1.7736 -0.7772 -0.9111
 7436SOL    HW233942   3.418   2.574  13.359 -1.8337 -0.6281 -1.3093
 7437SOL     OW33943   4.303   2.195   2.249  0.6445 -0.3168 -0.8885
 7437SOL    HW133944   4.336   2.280   2.220 -3.5431  1.7340  0.2492
 7437SOL    HW233945   4.228   2.180   2.192  1.5461  1.2090 -2.4908
 7438SOL     OW33946   4.453   1.290  10.341 -0.0020 -0.2684 -0.0580
 7438SOL    HW133947   4.414   1.232  10.275  1.1295 -0.3483 -0.6531
 7438SOL    HW233948   4.421   1.242  10.418 -0.3263 -1.9090 -1.2088
 7439SOL     OW33949   0.945   3.286   4.121 -0.3694 -0.1144 -0.2631
 7439SOL    HW133950   0.967   3.223   4.054  2.3444  2.3542 -1.7050
 7439SOL    HW233951   0.893   3.243   4.189 -1.9181  0.1417 -1.2786
 7440SOL     OW33952   3.191   0.404   9.561  0.2394 -0.5316 -0.3572
 7440SOL    HW133953   3.277   0.435   9.588 -0.3615  1.3809 -0.6272
 7440SOL    HW233954   3.143   0.486   9.570  1.2811 -0.1074  1.1651
 7441SOL     OW33955   0.120   1.951   3.746 -0.0833  0.3721  0.0011
 7441SOL    HW133956   0.131   2.035   3.790  2.2693 -0.8849  1.8292
 7441SOL    HW233957   0.176   1.890   3.795  0.3770  0.0511 -0.9133
 7442SOL     OW33958   0.339   4.030   1.379  0.1313  0.3570 -0.1746
 7442SOL    HW133959   0.375   3.945   1.403 -0.3808 -0.3395 -1.8947
 7442SOL    HW233960   0.369   4.088   1.449 -3.0028  2.2993 -0.4456
 7443SOL     OW33961   0.442   0.213   9.901 -0.2271 -0.9449 -0.0322
 7443SOL    HW133962   0.408   0.294   9.863  0.1035 -0.1832  1.3115
 7443SOL    HW233963   0.410   0.214   9.991 -2.6605  1.1334 -0.9249
 7444SOL     OW33964   2.600   0.251   6.568 -0.3353  0.4493  0.0633
 7444SOL    HW133965   2.610   0.176   6.510 -0.5028  1.1407 -0.8640
 7444SOL    HW233966   2.678   0.237   6.621  0.4838  0.2304 -1.1976
 7445SOL     OW33967   1.672   2.666   2.807  0.3313 -0.2559 -0.2466
 7445SOL    HW133968   1.614   2.733   2.843  2.9093  1.0736  1.4323
 7445SOL    HW233969   1.609   2.596   2.793 -2.1551  1.7751  0.7891
 7446SOL     OW33970   2.150   3.119   5.192 -0.3683  0.6814  0.6483
 7446SOL    HW133971   2.123   3.205   5.226 -1.3982  1.1000 -1.2383
 7446SOL    HW233972   2.065   3.080   5.170 -1.1714  2.5153  0.4407
 7447SOL     OW33973   1.168   3.328   3.797 -0.3947 -0.2530  0.8349
 7447SOL    HW133974   1.225   3.251   3.808  1.3263  0.4666 -3.1165
 7447SOL    HW233975   1.085   3.299   3.835 -0.2937 -3.3465 -1.2996
 7448SOL     OW33976   4.010   2.519  12.633 -0.4860  0.2454 -0.8983
 7448SOL    HW133977   3.978   2.592  12.687  1.3002 -0.0489  0.5603
 7448SOL    HW233978   4.090   2.504  12.683 -1.2906 -1.5258 -0.1597
 7449SOL     OW33979   1.952   0.240   6.177  0.2150  0.2155 -0.0468
 7449SOL    HW133980   1.931   0.210   6.088  0.0409  0.5631 -0.1251
 7449SOL    HW233981   2.004   0.167   6.209  0.8333  1.4677  1.7871
 7450SOL     OW33982   1.421   2.960   0.337  0.1608  0.3147 -0.5413
 7450SOL    HW133983   1.370   2.880   0.353 -2.1139  1.4611 -2.2932
 7450SOL    HW233984   1.420   2.962   0.242 -3.4818 -0.5316 -0.5173
 7451SOL     OW33985   0.016   2.158  13.330 -0.0370  0.0571 -0.2211
 7451SOL    HW133986   0.096   2.205  13.308  0.7200 -0.4260  1.5183
 7451SOL    HW233987   4.717   2.147  13.241 -0.1214 -0.6398 -0.1002
 7452SOL     OW33988   3.425   1.573  11.780 -0.2378 -0.1083 -0.0326
 7452SOL    HW133989   3.384   1.655  11.809 -0.4139 -0.0173 -0.5368
 7452SOL    HW233990   3.355   1.514  11.808  0.5535 -0.1768  1.7611
 7453SOL     OW33991   1.559   2.246   3.596 -0.1859 -0.7569  0.7297
 7453SOL    HW133992   1.591   2.311   3.535  1.4728 -2.1159  0.1536
 7453SOL    HW233993   1.505   2.296   3.658  0.7412  1.2747 -0.1041
 7454SOL     OW33994   3.206   2.689  16.827 -0.4561  0.1922  0.1703
 7454SOL    HW133995   3.207   2.704  16.921  0.0825 -0.3047  0.2505
 7454SOL    HW233996   3.154   2.761  16.793  0.7364  1.2465  0.6030
 7455SOL     OW33997   4.087   1.614   9.122 -0.3512  0.0946  0.2938
 7455SOL    HW133998   4.044   1.554   9.184 -0.9596 -0.0920 -0.3111
 7455SOL    HW233999   4.094   1.696   9.172  0.3454  1.7384 -2.4897
 7456SOL     OW34000   1.471   1.645   0.786 -0.4107 -0.2289  0.1371
 7456SOL    HW134001   1.565   1.632   0.791 -0.7034 -2.2586  0.3027
 7456SOL    HW234002   1.459   1.578   0.719 -2.5792 -0.0162  0.3102
 7457SOL     OW34003   0.440   1.699   8.689 -0.0068  0.0504 -0.5051
 7457SOL    HW134004   0.415   1.771   8.632  0.5001  0.0895 -0.6796
 7457SOL    HW234005   0.525   1.682   8.649 -0.9598  1.4733 -3.1294
 7458SOL     OW34006   4.086   2.497  14.311 -0.1342  0.4683 -0.0537
 7458SOL    HW134007   4.126   2.547  14.381  0.1168 -0.5744  0.5482
 7458SOL    HW234008   4.058   2.413  14.348  0.3787  0.0956 -0.5066
 7459SOL     OW34009   2.803   1.411   2.967  0.7608 -0.0337  0.2409
 7459SOL    HW134010   2.730   1.428   3.027  0.2599  1.1693 -0.7169
 7459SOL    HW234011   2.774   1.467   2.896 -1.5986 -0.9394  0.4891
 7460SOL     OW34012   1.106   4.636   0.796 -0.2592  0.0648  0.5045
 7460SOL    HW134013   1.043   4.588   0.743 -0.5283  2.0694 -0.9804
 7460SOL    HW234014   1.128   4.697   0.726 -0.5391  0.0183  0.3797
 7461SOL     OW34015   0.113   0.764   4.406 -0.6405 -0.2482 -0.1923
 7461SOL    HW134016   0.121   0.764   4.311  0.9291  1.0314 -0.0594
 7461SOL    HW234017   0.194   0.723   4.436 -0.0021  1.9937  1.1630
 7462SOL     OW34018   1.097   0.456   1.557  0.3533 -0.1458 -0.3975
 7462SOL    HW134019   1.011   0.498   1.568  0.8801  0.1840  2.5420
 7462SOL    HW234020   1.076   0.363   1.558  0.2497 -0.1305 -1.0777
 7463SOL     OW34021   4.625   2.785   5.403 -0.4467 -0.4696  0.2307
 7463SOL    HW134022   4.692   2.824   5.347  0.2628  0.0477  1.4494
 7463SOL    HW234023   4.563   2.857   5.415  0.6008  0.5625 -0.5211
 7464SOL     OW34024   0.854   3.444   2.136 -0.5388  0.3838  0.0621
 7464SOL    HW134025   0.759   3.438   2.125 -0.3857 -1.8797 -0.1399
 7464SOL    HW234026   0.858   3.407   2.224 -2.6269  1.2668  0.5421
 7465SOL     OW34027   1.877   3.946   6.221  0.5393 -0.1085  0.0800
 7465SOL    HW134028   1.816   3.893   6.273  0.7865 -0.0350  0.4396
 7465SOL    HW234029   1.873   3.903   6.135 -0.4660  1.3035 -0.5733
 7466SOL     OW34030   4.683   3.504   5.966 -0.2296 -0.4321  0.2123
 7466SOL    HW134031   4.730   3.580   5.930  0.8253 -1.3095 -0.2611
 7466SOL    HW234032   4.596   3.542   5.979  0.7221  1.3510  1.4507
 7467SOL     OW34033   1.242   3.309  10.029 -0.0497 -0.4764  0.5469
 7467SOL    HW134034   1.213   3.386  10.078  0.7092 -0.2105  0.5768
 7467SOL    HW234035   1.164   3.268   9.992  0.8474 -1.3675 -0.3503
 7468SOL     OW34036   4.126   1.651   1.067  0.0852 -0.2402  0.0375
 7468SOL    HW134037   4.110   1.745   1.060 -0.3610 -0.2464  0.9455
 7468SOL    HW234038   4.206   1.650   1.121 -0.4014  1.0964  0.7777
 7469SOL     OW34039   0.389   0.414   5.242  0.0116  0.1074  0.0867
 7469SOL    HW134040   0.368   0.499   5.281  1.6647  0.9294 -0.7917
 7469SOL    HW234041   0.408   0.429   5.149 -0.5610 -0.1023 -0.0611
 7470SOL     OW34042   2.728   1.629   6.666 -0.4227  0.2776  0.4386
 7470SOL    HW134043   2.758   1.605   6.753 -0.7197 -0.1923  0.4137
 7470SOL    HW234044   2.718   1.724   6.677  0.2174  0.1355  2.1523
 7471SOL     OW34045   4.694   0.494   8.552  0.0645 -0.5976  0.4092
 7471SOL    HW134046   0.009   0.558   8.601 -0.5499 -1.3606  2.0345
 7471SOL    HW234047   0.006   0.411   8.562  1.7113  0.4561  1.2254
 7472SOL     OW34048   2.767   1.802   3.533  0.0711 -0.0166 -0.9707
 7472SOL    HW134049   2.753   1.874   3.471 -0.4788  2.0266  1.5336
 7472SOL    HW234050   2.740   1.853   3.609 -0.4864 -2.9638  0.8127
 7473SOL     OW34051   4.659   1.244   7.914 -0.0119 -0.3874 -0.1445
 7473SOL    HW134052   4.714   1.177   7.954 -0.1887 -0.3404  0.1742
 7473SOL    HW234053   4.633   1.189   7.839 -3.4300  0.4037  0.4782
 7474SOL     OW34054   1.739   3.169  10.900  0.1960 -0.3934  0.1455
 7474SOL    HW134055   1.793   3.179  10.821  0.4952 -0.6864  0.3105
 7474SOL    HW234056   1.692   3.087  10.886  0.1539 -0.2620 -0.4849
 7475SOL     OW34057   1.547   2.805   3.332 -0.4549  0.3251 -0.0812
 7475SOL    HW134058   1.494   2.784   3.409  0.4580 -2.4471 -0.2159
 7475SOL    HW234059   1.478   2.775   3.273  0.0812  0.9189 -1.0099
 7476SOL     OW34060   3.246   1.357  13.669 -0.1113 -0.2765 -0.0047
 7476SOL    HW134061   3.339   1.370  13.684 -0.4696  2.4238 -0.2104
 7476SOL    HW234062   3.216   1.310  13.747 -0.7743 -1.0456 -0.7176
 7477SOL     OW34063   0.515   0.686  16.267  0.4930  0.0829  0.1434
 7477SOL    HW134064   0.515   0.659  16.359  0.2406 -0.9398 -0.1628
 7477SOL    HW234065   0.421   0.673  16.256  0.6615 -1.4594  0.5263
 7478SOL     OW34066   1.417   0.906   5.111 -0.1311  0.2077  0.3314
 7478SOL    HW134067   1.363   0.837   5.151  2.1023 -3.8329 -3.6356
 7478SOL    HW234068   1.356   0.974   5.082  1.2184  0.9039 -0.8478
 7479SOL     OW34069   0.968   2.665   2.459 -0.4350  0.1636  0.5511
 7479SOL    HW134070   0.936   2.754   2.471  1.0312  0.8699 -0.7178
 7479SOL    HW234071   1.063   2.673   2.470 -0.5472  0.6850  1.1430
 7480SOL     OW34072   4.448   0.576  17.108  0.2813 -0.4919  0.1705
 7480SOL    HW134073   4.414   0.640  17.171  1.7541  1.9999 -1.5958
 7480SOL    HW234074   4.386   0.598  17.038  1.0415  0.3812 -0.2162
 7481SOL     OW34075   3.128   3.969   1.857 -0.6043  0.5020 -0.2737
 7481SOL    HW134076   3.124   4.064   1.849  1.1183  0.6750  0.9987
 7481SOL    HW234077   3.038   3.951   1.828 -0.0120 -0.8413 -1.2605
 7482SOL     OW34078   1.722   1.469   1.605  0.0649  0.3437  0.4292
 7482SOL    HW134079   1.793   1.477   1.668  1.5240 -2.9549 -0.7489
 7482SOL    HW234080   1.689   1.383   1.630  0.7294 -0.1746 -0.4748
 7483SOL     OW34081   3.931   3.607   3.813 -0.2226 -0.2425  0.5645
 7483SOL    HW134082   4.014   3.561   3.804 -0.1190  0.5273 -2.3591
 7483SOL    HW234083   3.954   3.685   3.763  1.8450 -0.9022  0.4690
 7484SOL     OW34084   2.537   0.473   4.784 -0.4315  0.4387  0.4712
 7484SOL    HW134085   2.462   0.474   4.725 -0.3271 -0.1247  0.3250
 7484SOL    HW234086   2.607   0.519   4.738 -0.6607 -2.6724 -3.0321
 7485SOL     OW34087   1.024   4.606   7.947  0.2952 -0.4915 -0.6534
 7485SOL    HW134088   1.091   4.650   7.895 -0.1280  0.1305 -0.6614
 7485SOL    HW234089   1.032   4.519   7.907  0.3255 -1.1834  0.8230
 7486SOL     OW34090   3.985   1.535   3.794  0.6411 -0.2646 -0.2601
 7486SOL    HW134091   4.025   1.542   3.881 -2.1460 -0.6779  1.0557
 7486SOL    HW234092   3.934   1.456   3.810  1.2693 -0.3774  1.1950
 7487SOL     OW34093   2.108   3.040   0.967 -0.2177 -0.0662  0.6232
 7487SOL    HW134094   2.109   2.945   0.968 -0.8308 -0.0911 -2.0248
 7487SOL    HW234095   2.155   3.061   1.047  0.3802 -1.9342  0.7510
 7488SOL     OW34096   0.980   4.339  16.881 -0.3419  0.2921 -0.0711
 7488SOL    HW134097   0.936   4.353  16.965 -0.6734  0.4052 -0.2635
 7488SOL    HW234098   1.010   4.248  16.887 -0.5957  0.1398 -1.1303
 7489SOL     OW34099   0.483   2.697  14.451  0.0294 -0.5261  0.2294
 7489SOL    HW134100   0.529   2.780  14.465 -0.5593 -0.2792  0.7199
 7489SOL    HW234101   0.551   2.656  14.398  1.0762  1.0362  0.3709
 7490SOL     OW34102   0.483   0.592  11.411 -0.5480  0.2829  0.8586
 7490SOL    HW134103   0.487   0.646  11.332  1.8337  0.6244  1.2168
 7490SOL    HW234104   0.427   0.649  11.464  0.4404  1.0654  1.0554
 7491SOL     OW34105   4.712   3.183   4.362 -0.0057 -0.5207 -0.3249
 7491SOL    HW134106   4.653   3.168   4.436 -1.8527 -2.3208 -2.1798
 7491SOL    HW234107   0.048   3.121   4.377  0.8441  1.0841  2.1888
 7492SOL     OW34108   4.460   1.700   3.230  0.4436  0.0209  0.3738
 7492SOL    HW134109   4.368   1.723   3.218  0.5808  1.5546  2.2127
 7492SOL    HW234110   4.442   1.609   3.255  0.4216 -0.3222 -0.9061
 7493SOL     OW34111   4.535   4.691  17.579 -0.5751  0.2918  0.1226
 7493SOL    HW134112   4.462   0.016  17.594 -1.2445 -0.7573  1.1797
 7493SOL    HW234113   4.601   0.024  17.584  1.5692 -1.6419 -1.6226
 7494SOL     OW34114   4.279   2.481   3.589 -0.0451 -0.0386  0.0104
 7494SOL    HW134115   4.199   2.505   3.542  1.1162  1.5965 -1.1558
 7494SOL    HW234116   4.270   2.388   3.611  2.1859  0.4877  3.1104
 7495SOL     OW34117   1.072   0.813   2.676  0.1906  0.0872 -0.2489
 7495SOL    HW134118   1.138   0.766   2.625 -0.1710 -0.9953  0.2766
 7495SOL    HW234119   0.996   0.756   2.688 -0.9904  1.6436 -0.3091
 7496SOL     OW34120   1.779   0.745  12.165 -0.2475  0.6875  0.6239
 7496SOL    HW134121   1.791   0.716  12.255 -1.0600  1.3357  0.9328
 7496SOL    HW234122   1.697   0.794  12.172 -1.1131 -0.7225  0.3316
 7497SOL     OW34123   2.015   3.660   6.518 -0.2286  0.1861 -0.1861
 7497SOL    HW134124   1.932   3.653   6.565  0.0989  0.5989  0.4560
 7497SOL    HW234125   2.045   3.570   6.518  0.6495  0.4749  1.4352
 7498SOL     OW34126   3.122   3.629   0.064 -0.5752 -0.2739 -0.3946
 7498SOL    HW134127   3.117   3.534   0.053 -3.5573 -0.0817 -0.6066
 7498SOL    HW234128   3.072   3.645   0.144  0.0913 -0.8610  0.1433
 7499SOL     OW34129   2.613   2.295   1.383  0.3617  0.0573 -0.3975
 7499SOL    HW134130   2.667   2.261   1.455  0.8493  0.1603 -0.7144
 7499SOL    HW234131   2.609   2.222   1.322 -0.3329 -0.7070  0.5617
 7500SOL     OW34132   0.629   1.280  14.232 -0.3175  0.2132  0.4931
 7500SOL    HW134133   0.533   1.278  14.239 -0.4420 -0.0855 -1.2695
 7500SOL    HW234134   0.643   1.224  14.308  0.7425  1.4572  1.2135
 7501SOL     OW34135   0.268   3.522   6.126 -0.3844 -0.1135 -0.1982
 7501SOL    HW134136   0.228   3.503   6.041  0.2074 -0.6599 -0.3488
 7501SOL    HW234137   0.270   3.433   6.163  1.0252  1.3656  3.2692
 7502SOL     OW34138   2.117   3.288   4.832  0.3241  0.0067 -0.2670
 7502SOL    HW134139   2.082   3.335   4.756 -1.3651 -1.6058 -0.5093
 7502SOL    HW234140   2.140   3.358   4.893 -1.8554 -0.5648  1.2489
 7503SOL     OW34141   2.157   0.056   1.960 -0.0266 -0.0476  0.1710
 7503SOL    HW134142   2.241   0.086   1.925 -1.4309  1.1401 -2.1614
 7503SOL    HW234143   2.189   4.711   2.001  2.0314  0.2583 -0.8579
 7504SOL     OW34144   1.438   4.652  10.542 -0.0874 -0.1895  0.0965
 7504SOL    HW134145   1.506   4.673  10.478  0.8682 -1.1903  0.7995
 7504SOL    HW234146   1.486   4.653  10.625 -1.1378  0.6645  0.6981
 7505SOL     OW34147   3.926   4.385   2.271 -0.7848  0.1455 -0.5423
 7505SOL    HW134148   3.943   4.349   2.184  1.2269 -0.4275  0.0983
 7505SOL    HW234149   4.014   4.418   2.287 -0.0222 -0.8065 -2.7347
 7506SOL     OW34150   2.595   3.863   2.801 -0.0349 -0.4345  0.5251
 7506SOL    HW134151   2.599   3.839   2.894 -0.9912  0.1656  0.7252
 7506SOL    HW234152   2.501   3.877   2.790  0.2614  1.7056  0.7963
 7507SOL     OW34153   0.889   3.362   2.392  0.1695  0.6663  0.0817
 7507SOL    HW134154   0.979   3.344   2.418 -0.2178  1.1122  1.7807
 7507SOL    HW234155   0.850   3.275   2.402  1.8620 -0.3784 -2.5424
 7508SOL     OW34156   2.274   2.746  11.513 -0.1133 -0.0966  0.5960
 7508SOL    HW134157   2.203   2.687  11.540  1.1002 -1.7602  0.1984
 7508SOL    HW234158   2.323   2.720  11.591 -0.5807  0.1356  0.9699
 7509SOL     OW34159   0.517   3.420   3.874 -0.5003  0.5992 -0.3049
 7509SOL    HW134160   0.469   3.342   3.846  1.0953  0.1457 -1.7654
 7509SOL    HW234161   0.497   3.417   3.968  0.4594  2.1727 -0.0538
 7510SOL     OW34162   0.612   3.418   6.723  0.0764 -0.4186  0.8141
 7510SOL    HW134163   0.670   3.420   6.647 -1.6907  1.8725 -0.4925
 7510SOL    HW234164   0.677   3.393   6.789 -0.7927 -0.1190  1.7958
 7511SOL     OW34165   4.569   2.707  16.638 -0.1920 -0.1744 -0.0745
 7511SOL    HW134166   4.634   2.776  16.651 -0.3805  0.0111 -0.1152
 7511SOL    HW234167   4.503   2.756  16.589  0.6968  0.3071 -0.7795
 7512SOL     OW34168   1.426   4.197   9.782  0.2067  0.1431 -0.0884
 7512SOL    HW134169   1.416   4.113   9.739 -0.8520  0.5255 -0.5873
 7512SOL    HW234170   1.493   4.171   9.845 -1.5962 -0.1782  1.6949
 7513SOL     OW34171   1.977   0.889   7.111 -0.6069 -0.0392 -0.6831
 7513SOL    HW134172   1.937   0.873   7.197  0.6338 -3.0835 -0.6788
 7513SOL    HW234173   1.927   0.965   7.080  0.2217  0.4679 -0.7675
 7514SOL     OW34174   3.138   1.579   9.097  0.3586  0.2938 -0.2687
 7514SOL    HW134175   3.120   1.514   9.030  0.5670 -2.7530  2.6687
 7514SOL    HW234176   3.103   1.654   9.049 -1.2251  1.0404  2.0058
 7515SOL     OW34177   1.799   3.079   6.562  0.2085 -0.6895 -0.1839
 7515SOL    HW134178   1.754   3.022   6.499  0.7485 -1.0459 -0.2469
 7515SOL    HW234179   1.735   3.087   6.632  0.4914  0.9313 -0.1036
 7516SOL     OW34180   3.466   4.161   6.503 -0.4441 -0.3429  0.5670
 7516SOL    HW134181   3.405   4.209   6.558 -0.1205  0.1458  0.4960
 7516SOL    HW234182   3.497   4.104   6.573  0.6791 -1.0159 -0.4666
 7517SOL     OW34183   2.740   4.204   4.588 -0.2358  0.3363  0.1552
 7517SOL    HW134184   2.773   4.179   4.502 -0.5941  0.1373  0.0736
 7517SOL    HW234185   2.733   4.126   4.643  0.3554  0.2352  0.0869
 7518SOL     OW34186   4.284   1.200   3.093 -0.1139 -0.3098  0.4021
 7518SOL    HW134187   4.347   1.258   3.136 -0.4417  0.8973 -0.7696
 7518SOL    HW234188   4.331   1.175   3.014 -3.0161  0.5765 -1.5729
 7519SOL     OW34189   1.802   2.063  12.044  0.0763 -0.5226  0.2085
 7519SOL    HW134190   1.790   2.136  11.984 -1.9655 -1.1051 -0.1223
 7519SOL    HW234191   1.871   2.023  11.991  0.7408  2.4494 -1.1390
 7520SOL     OW34192   3.607   4.175   9.574  0.2273  0.3883  0.4752
 7520SOL    HW134193   3.534   4.124   9.609  1.5060 -1.6143  0.2512
 7520SOL    HW234194   3.610   4.255   9.628  2.8304  1.5760 -1.4338
 7521SOL     OW34195   4.254   1.776   5.274 -0.4103  0.4131  0.0071
 7521SOL    HW134196   4.260   1.694   5.224 -0.0476  1.2557 -1.3262
 7521SOL    HW234197   4.249   1.846   5.209 -0.0226  0.3461 -0.0921
 7522SOL     OW34198   0.362   0.320   5.910  0.2234  0.4785 -0.2677
 7522SOL    HW134199   0.366   0.407   5.949  0.1858  0.7942 -0.9722
 7522SOL    HW234200   0.332   0.336   5.821 -0.2232  1.7528  0.1161
 7523SOL     OW34201   2.637   2.346   6.758 -0.3600 -0.0684 -0.2129
 7523SOL    HW134202   2.669   2.271   6.808  0.5133 -0.6080 -1.5853
 7523SOL    HW234203   2.714   2.379   6.712  0.4792  0.8074  1.8504
 7524SOL     OW34204   1.970   2.002   8.331 -0.3552 -0.2120 -0.0159
 7524SOL    HW134205   1.987   1.927   8.387  1.5708  1.2417  1.3515
 7524SOL    HW234206   1.985   1.971   8.242 -1.8355 -1.6209  0.2263
 7525SOL     OW34207   0.632   2.562   8.565  0.3363  0.1484  0.8463
 7525SOL    HW134208   0.694   2.517   8.509 -0.5807  0.5300 -0.4734
 7525SOL    HW234209   0.689   2.616   8.619  0.1740  1.2184 -0.0388
 7526SOL     OW34210   1.984   1.608   1.489 -0.0611 -0.0240  0.3740
 7526SOL    HW134211   1.899   1.572   1.515 -0.9299  1.4710 -0.3726
 7526SOL    HW234212   1.984   1.693   1.533 -1.8744  0.8058 -1.2514
 7527SOL     OW34213   2.566   3.147  17.085 -0.1291 -0.8612 -0.1657
 7527SOL    HW134214   2.495   3.206  17.111  0.3945 -0.8601  1.2495
 7527SOL    HW234215   2.522   3.065  17.061 -0.3116 -1.5420  2.5109
 7528SOL     OW34216   0.146   0.556   6.830 -0.1129  0.3014 -0.0662
 7528SOL    HW134217   0.134   0.634   6.884 -0.1010 -1.4061  2.4032
 7528SOL    HW234218   0.167   0.604   6.750 -1.7255  0.4687 -0.3954
 7529SOL     OW34219   2.180   1.833   7.272  0.2863 -0.0522  0.1580
 7529SOL    HW134220   2.162   1.924   7.246 -0.1362 -0.0735  0.3818
 7529SOL    HW234221   2.133   1.783   7.205 -0.5326  3.3425 -1.8188
 7530SOL     OW34222   0.947   1.145  16.896 -0.1214  0.1803 -0.3763
 7530SOL    HW134223   1.036   1.179  16.908 -0.7056  0.9073  1.9975
 7530SOL    HW234224   0.975   1.074  16.838 -1.1697 -0.5884  0.0506
 7531SOL     OW34225   1.531   0.298  17.279 -0.6297 -0.1236 -0.1595
 7531SOL    HW134226   1.479   0.369  17.239 -0.6781  0.6700  1.3334
 7531SOL    HW234227   1.459   0.241  17.304 -1.7533  1.8457  1.0620
 7532SOL     OW34228   3.025   1.681  17.193  0.6517 -0.5488 -0.4858
 7532SOL    HW134229   2.958   1.617  17.216 -0.0247  0.6061  0.7794
 7532SOL    HW234230   3.101   1.638  17.155  0.8589 -0.4344 -0.2080
 7533SOL     OW34231   0.086   4.299   5.205 -0.0890 -0.2361 -0.2513
 7533SOL    HW134232   0.052   4.314   5.293  0.9680 -1.1575  0.3110
 7533SOL    HW234233   0.037   4.364   5.155  0.8749  0.0879 -0.7637
 7534SOL     OW34234   3.525   4.431   1.879 -0.1489  0.3571 -0.2841
 7534SOL    HW134235   3.556   4.422   1.789  2.6810 -1.4858  0.8697
 7534SOL    HW234236   3.482   4.347   1.898 -2.1100  1.2361 -0.7851
 7535SOL     OW34237   0.177   3.803   7.207  0.0249 -0.2839  0.3632
 7535SOL    HW134238   0.235   3.865   7.162  0.3952 -1.2460 -0.4902
 7535SOL    HW234239   0.118   3.776   7.136  0.4908  1.9341 -0.8765
 7536SOL     OW34240   0.069   3.660   3.339  0.5051 -0.3317  0.6861
 7536SOL    HW134241   0.090   3.630   3.428 -2.1697 -1.1589  1.0316
 7536SOL    HW234242   0.066   3.754   3.352  2.9086 -0.0675 -0.7449
 7537SOL     OW34243   3.094   2.894   1.621  0.0419  0.9820 -0.5834
 7537SOL    HW134244   3.017   2.914   1.568 -1.1064  1.5708  1.3032
 7537SOL    HW234245   3.096   2.802   1.596 -0.5095 -0.1290  3.5482
 7538SOL     OW34246   2.906   0.172   3.854  0.0167  0.1222  0.2670
 7538SOL    HW134247   3.000   0.154   3.849 -0.3211 -1.6869  0.2419
 7538SOL    HW234248   2.882   0.228   3.780 -1.4620  0.7415  1.2125
 7539SOL     OW34249   2.636   1.897  15.966  0.0908 -0.1422  0.2250
 7539SOL    HW134250   2.598   1.874  15.881  1.8047  3.1128 -1.4288
 7539SOL    HW234251   2.685   1.976  15.943  0.0086  0.6096  2.6248
 7540SOL     OW34252   0.310   3.754   5.303 -0.7099 -0.3034 -0.0391
 7540SOL    HW134253   0.229   3.799   5.328  0.0960  0.1089  1.8596
 7540SOL    HW234254   0.346   3.815   5.239  0.6543 -0.0326  0.9781
 7541SOL     OW34255   4.423   0.503  13.929  0.0511  0.2982  0.3101
 7541SOL    HW134256   4.335   0.469  13.947 -0.3805  0.5364 -1.3213
 7541SOL    HW234257   4.447   0.482  13.839  2.4466  0.5495  0.9068
 7542SOL     OW34258   3.909   1.862   9.357 -0.6353  0.3597  0.3341
 7542SOL    HW134259   3.881   1.945   9.398 -1.3575  0.6778 -0.8045
 7542SOL    HW234260   3.862   1.810   9.422 -0.2335 -0.9359 -0.4142
 7543SOL     OW34261   3.920   4.716   5.013 -0.4810 -0.0336  0.6750
 7543SOL    HW134262   3.977   4.706   5.090 -1.9767 -2.0332  1.5301
 7543SOL    HW234263   3.949   0.067   4.984 -1.3402 -0.3122 -1.0104
 7544SOL     OW34264   0.114   3.942   5.951 -0.4487  0.4691 -0.2562
 7544SOL    HW134265   0.116   4.034   5.923 -1.3114  0.3136 -0.8407
 7544SOL    HW234266   0.169   3.953   6.029 -1.2555 -1.0241  0.4994
 7545SOL     OW34267   0.017   2.020   8.500 -0.0861  0.3236 -0.2248
 7545SOL    HW134268   0.004   2.062   8.585  1.8139 -2.2044  1.2989
 7545SOL    HW234269   0.107   2.046   8.479  0.5874 -1.2389  0.6949
 7546SOL     OW34270   3.266   0.342   3.161 -0.9432 -0.2516  0.2502
 7546SOL    HW134271   3.175   0.317   3.143 -0.3381 -2.2997  0.0268
 7546SOL    HW234272   3.299   0.272   3.217 -1.7792 -1.5184 -0.8389
 7547SOL     OW34273   3.738   2.404   9.672 -0.0664  0.3081  0.0106
 7547SOL    HW134274   3.712   2.424   9.762 -0.9370  1.8583 -0.5881
 7547SOL    HW234275   3.831   2.422   9.683 -0.2850  1.3310  0.1716
 7548SOL     OW34276   1.705   1.610   3.612  0.6247 -0.3949 -0.1733
 7548SOL    HW134277   1.627   1.660   3.638  0.5263 -0.8691  0.4500
 7548SOL    HW234278   1.753   1.625   3.694 -0.2670  0.7371  0.1518
 7549SOL     OW34279   2.037   2.939  10.953  0.6884  0.1068  0.0584
 7549SOL    HW134280   2.102   3.009  10.954  0.8914 -0.1467  2.5109
 7549SOL    HW234281   2.051   2.882  11.028 -1.6938  0.8304  1.0575
 7550SOL     OW34282   2.515   4.027  12.011 -0.3134  0.0669  0.8985
 7550SOL    HW134283   2.564   3.954  12.050 -1.7978 -1.8699 -0.8558
 7550SOL    HW234284   2.428   3.987  12.010 -1.0846  1.8753 -2.2025
 7551SOL     OW34285   2.731   4.402  11.335 -0.5272 -0.3778  0.4603
 7551SOL    HW134286   2.765   4.394  11.424 -1.9242 -1.0122  0.9305
 7551SOL    HW234287   2.765   4.322  11.295 -0.8956  0.1324 -0.8904
 7552SOL     OW34288   2.120   3.758  11.873 -0.1321  0.2241  0.1150
 7552SOL    HW134289   2.028   3.770  11.898  0.3542 -0.0957  2.0661
 7552SOL    HW234290   2.105   3.734  11.781 -1.8328 -1.3852  0.8142
 7553SOL     OW34291   1.457   3.683   2.926  0.1823 -0.0999  0.8177
 7553SOL    HW134292   1.427   3.712   2.840 -0.1957 -2.6095  0.0823
 7553SOL    HW234293   1.380   3.681   2.983 -0.6378  2.5130 -0.1973
 7554SOL     OW34294   0.660   4.664  13.675  0.2448  0.0092  0.0797
 7554SOL    HW134295   0.656   4.710  13.591  0.5285 -1.6732 -0.8418
 7554SOL    HW234296   0.717   4.588  13.665  0.8745  0.1546  2.3963
 7555SOL     OW34297   0.246   4.327   8.754  0.6240 -0.4203  0.0850
 7555SOL    HW134298   0.265   4.398   8.815 -2.1335  0.3775  0.0243
 7555SOL    HW234299   0.163   4.358   8.717  1.3179  0.9203 -0.3267
 7556SOL     OW34300   0.050   4.169  16.845 -0.4178 -0.3844 -0.6341
 7556SOL    HW134301   0.076   4.077  16.838 -0.0127 -0.3192  0.0483
 7556SOL    HW234302   0.137   4.202  16.867 -0.4812 -0.0238 -0.9276
 7557SOL     OW34303   1.781   4.532   4.838  0.0870  0.1161 -0.7522
 7557SOL    HW134304   1.842   4.491   4.899  0.6166 -2.3172 -2.9233
 7557SOL    HW234305   1.709   4.479   4.872  1.0367  0.7024  2.2064
 7558SOL     OW34306   3.865   1.651  15.928  0.0444  0.6452  0.3049
 7558SOL    HW134307   3.899   1.583  15.985  1.1566  0.0308 -1.0881
 7558SOL    HW234308   3.946   1.702  15.936 -0.3749  1.2801  0.5141
 7559SOL     OW34309   4.474   2.215  15.988 -0.6363  0.3685  0.3094
 7559SOL    HW134310   4.468   2.162  16.067  0.9612 -1.3886 -0.7526
 7559SOL    HW234311   4.386   2.215  15.950  0.4233 -2.1043 -2.1689
 7560SOL     OW34312   0.691   2.210   0.144 -0.2798  0.4681  0.3898
 7560SOL    HW134313   0.651   2.156   0.213  3.0740 -0.3975  1.6747
 7560SOL    HW234314   0.626   2.280   0.138  0.3217  0.9969  0.0026
 7561SOL     OW34315   1.841   2.096   3.714  0.0843 -0.9589 -0.5909
 7561SOL    HW134316   1.786   2.021   3.738  0.6124 -1.2946 -0.4230
 7561SOL    HW234317   1.874   2.120   3.801 -1.2861 -1.2544  0.0193
 7562SOL     OW34318   2.605   1.840  10.123 -0.8668 -0.0947 -0.7117
 7562SOL    HW134319   2.519   1.860  10.085 -0.6920  0.1765 -0.9623
 7562SOL    HW234320   2.577   1.760  10.168 -0.6691  0.4006  0.2966
 7563SOL     OW34321   1.407   1.378   9.763 -0.0652  0.2289  0.6871
 7563SOL    HW134322   1.384   1.350   9.852  0.0668  0.1653  0.7013
 7563SOL    HW234323   1.361   1.314   9.710 -1.9940  1.6258  0.6693
 7564SOL     OW34324   2.455   0.301   3.826  0.6802  0.2860 -0.3539
 7564SOL    HW134325   2.475   0.214   3.792 -2.6591  0.4204 -2.6691
 7564SOL    HW234326   2.432   0.355   3.751  0.1413 -0.7769 -0.9521
 7565SOL     OW34327   1.928   1.191   8.022 -0.0532  0.3300 -0.3718
 7565SOL    HW134328   1.944   1.255   8.091  3.0151  1.3119 -1.9653
 7565SOL    HW234329   1.892   1.249   7.954 -0.0297  1.9824  1.0272
 7566SOL     OW34330   3.108   0.040   1.610  0.3287  0.8082 -0.0831
 7566SOL    HW134331   3.137   4.687   1.590 -1.1830  0.5941 -1.3932
 7566SOL    HW234332   3.129   0.080   1.526 -2.1501  1.2969 -0.4850
 7567SOL     OW34333   2.831   1.923   5.079  0.6276  0.1201  0.0365
 7567SOL    HW134334   2.811   2.015   5.064  1.8253  0.2435 -0.8821
 7567SOL    HW234335   2.808   1.922   5.172  0.8521  1.3014  0.1138
 7568SOL     OW34336   3.422   0.404  15.078 -1.1586  0.8501  0.0408
 7568SOL    HW134337   3.387   0.465  15.142  0.7499  0.5600  1.3402
 7568SOL    HW234338   3.474   0.346  15.134 -1.0121 -1.6341 -2.6530
 7569SOL     OW34339   4.533   3.498   8.609  0.4262 -0.4649 -0.0163
 7569SOL    HW134340   4.580   3.534   8.684 -2.1661  3.2816 -0.1796
 7569SOL    HW234341   4.562   3.407   8.600  1.0046 -0.3306  0.5061
 7570SOL     OW34342   4.486   0.932   2.442 -0.1331 -0.3096  0.0952
 7570SOL    HW134343   4.508   0.956   2.352  0.1740 -1.6180 -0.1757
 7570SOL    HW234344   4.563   0.966   2.488  0.0705 -0.8538  0.1585
 7571SOL     OW34345   1.508   1.900   8.493  0.0829 -0.2926 -0.2298
 7571SOL    HW134346   1.567   1.841   8.447  1.5715 -1.0654  2.6664
 7571SOL    HW234347   1.564   1.962   8.538 -2.1472  2.3811 -1.0910
 7572SOL     OW34348   2.441   4.498   2.290  0.0808  0.7435  0.0529
 7572SOL    HW134349   2.433   4.426   2.353  1.3311  1.4616  1.0407
 7572SOL    HW234350   2.501   4.462   2.225 -0.8683  1.2499 -1.1019
 7573SOL     OW34351   0.589   0.706   5.779 -0.3088  0.0609  0.1058
 7573SOL    HW134352   0.515   0.754   5.815  0.0678  0.1179  0.7988
 7573SOL    HW234353   0.630   0.669   5.857  0.0364 -0.6880 -0.4223
 7574SOL     OW34354   4.362   2.223  11.797 -0.2111  0.4146 -0.3107
 7574SOL    HW134355   4.350   2.147  11.854 -0.3113 -0.5387 -1.6073
 7574SOL    HW234356   4.305   2.208  11.722  0.9300  0.5623 -1.2008
 7575SOL     OW34357   3.651   0.063   9.140  0.4029  0.1958  0.3259
 7575SOL    HW134358   3.640   4.729   9.075 -1.8739 -1.1705  2.1771
 7575SOL    HW234359   3.695   0.017   9.211  1.9704 -0.4403 -1.0522
 7576SOL     OW34360   2.227   2.816   3.341 -0.8292 -0.1898 -0.4030
 7576SOL    HW134361   2.178   2.802   3.260  0.9480  0.5693 -1.5941
 7576SOL    HW234362   2.173   2.769   3.404 -1.3456 -1.1138 -1.5360
 7577SOL     OW34363   3.869   3.168   7.610 -0.0219 -0.1713 -0.4212
 7577SOL    HW134364   3.850   3.108   7.682 -1.6169 -1.6496 -2.1036
 7577SOL    HW234365   3.873   3.254   7.651  1.5935 -1.2598  1.7274
 7578SOL     OW34366   3.022   3.490   5.033 -0.0848 -0.6316  0.1086
 7578SOL    HW134367   3.021   3.549   4.958  3.6437  0.6000  1.0622
 7578SOL    HW234368   3.059   3.548   5.099  0.6292  0.6059 -1.3840
 7579SOL     OW34369   1.462   0.113   4.470  0.4012 -0.2370  0.0896
 7579SOL    HW134370   1.537   0.055   4.486  0.9075  0.7947  1.4676
 7579SOL    HW234371   1.390   0.050   4.464  0.3022 -0.2140  1.0308
 7580SOL     OW34372   4.213   4.105   4.917  0.3156 -0.1335 -0.3370
 7580SOL    HW134373   4.151   4.175   4.898  1.1607  0.7551  0.1355
 7580SOL    HW234374   4.198   4.093   5.011  2.9229  1.1033  0.2445
 7581SOL     OW34375   4.328   4.459   6.984 -0.5353 -0.0279  0.0768
 7581SOL    HW134376   4.274   4.538   6.975 -0.3050  0.3589  2.1122
 7581SOL    HW234377   4.255   4.414   7.026  0.7351  0.3760  2.6885
 7582SOL     OW34378   0.750   0.095  16.882 -0.6297  0.3068  0.2281
 7582SOL    HW134379   0.718   0.183  16.862 -0.6779  0.2640  0.1154
 7582SOL    HW234380   0.669   0.046  16.870 -0.0455 -0.4833 -0.5315
 7583SOL     OW34381   0.450   0.205   1.964  0.2853 -0.5657 -0.7761
 7583SOL    HW134382   0.379   0.141   1.961  1.0587 -1.4847  0.7719
 7583SOL    HW234383   0.467   0.206   1.870  1.9161 -3.4323 -0.4916
 7584SOL     OW34384   1.689   2.706   3.712  0.4103  0.2590  0.0793
 7584SOL    HW134385   1.661   2.626   3.668 -0.9062 -0.2931  1.9514
 7584SOL    HW234386   1.750   2.660   3.770 -0.1887 -2.0597 -1.1637
 7585SOL     OW34387   4.414   3.635   6.009  0.1489 -0.0281 -0.2608
 7585SOL    HW134388   4.425   3.730   6.009 -0.1814  0.0112 -0.8267
 7585SOL    HW234389   4.335   3.631   6.063 -0.0382 -0.4235 -0.5664
 7586SOL     OW34390   3.281   3.516   3.626  0.3158 -0.2703  0.1731
 7586SOL    HW134391   3.315   3.477   3.545 -0.1477  1.6276 -0.9222
 7586SOL    HW234392   3.195   3.539   3.593  0.1371  0.4477  1.1395
 7587SOL     OW34393   3.031   1.068   5.293 -0.2130 -0.1768  0.4588
 7587SOL    HW134394   3.121   1.036   5.290  0.2993  1.4060 -0.7824
 7587SOL    HW234395   2.979   1.007   5.240 -1.6413  2.3308 -1.0075
 7588SOL     OW34396   2.229   2.234   3.265 -0.1727 -0.2856 -0.0314
 7588SOL    HW134397   2.177   2.162   3.302  0.4341 -0.3103  0.7725
 7588SOL    HW234398   2.322   2.211   3.271 -0.0290  0.4405  0.5811
 7589SOL     OW34399   2.610   2.946  15.638  0.2243  0.0513 -0.1510
 7589SOL    HW134400   2.652   2.867  15.672 -0.5308 -0.0943  0.4644
 7589SOL    HW234401   2.679   2.984  15.584  0.3423 -0.0889 -0.0991
 7590SOL     OW34402   2.824   4.123   5.656  0.2230 -0.1030 -0.4382
 7590SOL    HW134403   2.775   4.203   5.674 -1.1932 -1.5684  2.1975
 7590SOL    HW234404   2.866   4.119   5.742 -0.6267  1.0934  0.0318
 7591SOL     OW34405   0.867   3.876   5.646  0.2135 -0.5021  0.0006
 7591SOL    HW134406   0.892   3.826   5.724 -1.0788 -2.3258 -0.7545
 7591SOL    HW234407   0.813   3.938   5.695  1.8524  0.5966  0.4091
 7592SOL     OW34408   1.829   4.553   8.421  0.3386  0.0895  0.5234
 7592SOL    HW134409   1.835   4.643   8.455 -1.3042  0.0060  1.0165
 7592SOL    HW234410   1.746   4.524   8.459 -0.2504  0.1449 -0.7374
 7593SOL     OW34411   0.331   0.216   9.043 -0.4354 -0.4341  0.2306
 7593SOL    HW134412   0.331   0.172   9.128  1.8759 -0.2184  0.3635
 7593SOL    HW234413   0.241   0.207   9.011 -1.3077 -2.0618  3.2032
 7594SOL     OW34414   3.127   0.288  10.681  0.5657  0.4409  0.0471
 7594SOL    HW134415   3.048   0.264  10.632  0.4041 -1.3217  1.1703
 7594SOL    HW234416   3.181   0.213  10.656 -0.9933 -1.8119  3.3243
 7595SOL     OW34417   3.664   4.279   9.100  0.2035  0.7667 -0.1745
 7595SOL    HW134418   3.664   4.211   9.167 -2.5888 -2.2732 -3.3011
 7595SOL    HW234419   3.641   4.353   9.156 -1.8324  1.4800 -1.9831
 7596SOL     OW34420   2.984   4.550   8.429  0.0561  0.1386  0.4442
 7596SOL    HW134421   2.916   4.484   8.414 -0.2878  0.9734 -1.6313
 7596SOL    HW234422   2.992   4.551   8.524  0.4688  0.4813  0.4066
 7597SOL     OW34423   0.597   0.513   7.397 -0.5319 -0.1049 -0.2056
 7597SOL    HW134424   0.618   0.600   7.366 -1.3866  0.2332  0.1525
 7597SOL    HW234425   0.594   0.451   7.324  0.1176  1.5130 -1.5973
 7598SOL     OW34426   2.334   0.010  14.381 -0.1285  0.1658  0.0815
 7598SOL    HW134427   2.311   0.102  14.367  1.0537  0.7230  1.8264
 7598SOL    HW234428   2.242   4.722  14.387  0.2791 -1.0140  1.6974
 7599SOL     OW34429   2.819   1.756   5.788  0.4441  0.1776 -0.0431
 7599SOL    HW134430   2.807   1.851   5.793  0.4295  0.1359  0.8025
 7599SOL    HW234431   2.907   1.748   5.750  0.8760 -1.1696  1.2422
 7600SOL     OW34432   1.968   2.850   7.620 -0.4128  0.2304  0.1055
 7600SOL    HW134433   2.012   2.788   7.678  0.3032  0.4150 -0.2375
 7600SOL    HW234434   1.989   2.931   7.666  3.0342 -1.6156  1.8052
 7601SOL     OW34435   2.457   1.487   5.499  0.2907  0.4439  0.7242
 7601SOL    HW134436   2.482   1.395   5.500 -1.1105  0.0493 -0.0443
 7601SOL    HW234437   2.518   1.531   5.558 -0.9410  2.4689  0.4973
 7602SOL     OW34438   1.946   0.655   7.698 -0.4553 -0.0249 -0.8004
 7602SOL    HW134439   1.859   0.615   7.698 -1.5548  2.3192  0.8503
 7602SOL    HW234440   1.937   0.717   7.770  1.9217  0.3277 -0.8059
 7603SOL     OW34441   3.579   2.084  16.372 -0.0762  0.6389 -0.3800
 7603SOL    HW134442   3.622   2.165  16.347 -0.3531  0.4563 -1.4329
 7603SOL    HW234443   3.598   2.092  16.466 -0.0594 -2.2695 -0.1218
 7604SOL     OW34444   4.428   4.417  11.466  0.1817 -0.3524 -0.1420
 7604SOL    HW134445   4.420   4.322  11.462 -1.6366 -0.1737 -0.7458
 7604SOL    HW234446   4.338   4.449  11.455  0.7186  1.1566 -0.1961
 7605SOL     OW34447   4.431   4.277   2.340  0.1400  0.0360 -0.2559
 7605SOL    HW134448   4.375   4.227   2.280  0.2323 -2.4943  1.7673
 7605SOL    HW234449   4.499   4.301   2.277 -0.9383 -1.1891 -1.8765
 7606SOL     OW34450   0.681   0.230   9.516  0.3979 -0.8969 -0.3623
 7606SOL    HW134451   0.749   0.238   9.583  1.5590 -0.6443 -1.5839
 7606SOL    HW234452   0.727   0.184   9.446 -1.9088  0.0940 -2.5335
 7607SOL     OW34453   2.195   1.341   1.637 -0.6693  0.0579  0.5532
 7607SOL    HW134454   2.276   1.365   1.683  0.8851 -1.7221 -1.2737
 7607SOL    HW234455   2.235   1.282   1.573 -1.1099  1.5288 -1.0565
 7608SOL     OW34456   3.230   3.484   7.806 -0.0782 -0.3350 -0.4406
 7608SOL    HW134457   3.229   3.493   7.710  1.5550  0.4710 -0.3970
 7608SOL    HW234458   3.149   3.530   7.829 -0.0543 -0.8034  0.5793
 7609SOL     OW34459   3.622   1.624   7.705  0.4564 -0.0197 -0.7670
 7609SOL    HW134460   3.537   1.602   7.742 -0.0970  1.1544 -1.3399
 7609SOL    HW234461   3.667   1.542   7.724  0.7262 -0.2905 -2.5517
 7610SOL     OW34462   2.160   4.007   3.591 -0.2766  0.1768  0.0002
 7610SOL    HW134463   2.151   3.994   3.496 -1.2989 -0.6754  0.2114
 7610SOL    HW234464   2.232   4.070   3.588  0.0203 -0.1045  1.4741
 7611SOL     OW34465   2.860   0.254   3.604  0.2661 -0.5795 -0.0106
 7611SOL    HW134466   2.843   0.333   3.551 -0.8556  0.5439  2.0329
 7611SOL    HW234467   2.814   0.186   3.554  0.4582 -0.9568  0.3266
 7612SOL     OW34468   2.161   2.361   9.193  0.5000 -0.2169  0.5337
 7612SOL    HW134469   2.126   2.273   9.205  0.3191  0.1265  2.5732
 7612SOL    HW234470   2.109   2.386   9.117  0.9252 -0.5485  0.1403
 7613SOL     OW34471   1.909   4.413  11.157 -0.2198 -0.2906 -0.4833
 7613SOL    HW134472   1.849   4.345  11.127 -0.5258 -1.0434  1.8324
 7613SOL    HW234473   1.913   4.481  11.090 -3.0256  1.5239  1.1725
 7614SOL     OW34474   1.893   0.048   4.796  0.3288 -0.0504  0.3556
 7614SOL    HW134475   1.871   0.066   4.888  1.0285 -1.0466  0.7202
 7614SOL    HW234476   1.869   4.692   4.780 -1.4672  0.3085  0.9572
 7615SOL     OW34477   2.452   1.696   8.249 -0.1155 -0.0202 -0.1065
 7615SOL    HW134478   2.463   1.610   8.209 -2.1976 -1.4551  2.4429
 7615SOL    HW234479   2.531   1.708   8.303 -0.2438  1.6713 -0.2702
 7616SOL     OW34480   2.348   0.023   6.654 -0.0759 -0.9661  0.0346
 7616SOL    HW134481   2.387   0.107   6.678  3.4141 -2.7252  0.4141
 7616SOL    HW234482   2.311   0.001   6.740  3.5405  1.4600  2.1990
 7617SOL     OW34483   4.653   0.070   7.513 -0.1692  0.0488 -0.0167
 7617SOL    HW134484   4.647   4.712   7.532 -1.8832  0.2449  0.4790
 7617SOL    HW234485   4.710   0.091   7.587 -0.8812 -1.5682  0.9984
 7618SOL     OW34486   0.812   1.982  13.214 -0.6560 -0.0980  0.4312
 7618SOL    HW134487   0.792   2.004  13.123  0.9112  0.2013  0.1564
 7618SOL    HW234488   0.885   1.920  13.206 -1.5348 -1.0542 -0.1149
 7619SOL     OW34489   2.975   2.512   8.528 -0.6110 -0.1730 -0.5194
 7619SOL    HW134490   2.924   2.578   8.481 -1.2911  0.9039  1.6811
 7619SOL    HW234491   2.977   2.541   8.620  1.9256 -1.0227 -0.3079
 7620SOL     OW34492   2.155   3.987   5.804  0.7990  0.4363 -0.8232
 7620SOL    HW134493   2.107   3.912   5.769 -1.3535  0.6280  1.7785
 7620SOL    HW234494   2.229   3.995   5.743 -0.3907  0.1974 -2.3101
 7621SOL     OW34495   1.704   2.522   2.045 -0.7335 -0.6211 -0.2327
 7621SOL    HW134496   1.647   2.505   2.120 -0.8466 -2.0953 -0.6663
 7621SOL    HW234497   1.717   2.435   2.009 -0.0719 -0.2014 -1.0125
 7622SOL     OW34498   2.392   2.271   7.931  0.5477  0.0439 -0.1836
 7622SOL    HW134499   2.414   2.362   7.910  0.8026  0.0291  0.0326
 7622SOL    HW234500   2.340   2.247   7.854  1.0983 -1.9830  0.0812
 7623SOL     OW34501   4.159   1.003   4.239  0.6644 -0.5096 -0.0776
 7623SOL    HW134502   4.110   1.017   4.157 -0.9257  3.0824  1.5151
 7623SOL    HW234503   4.170   0.908   4.228 -2.7861 -0.9257 -0.1815
 7624SOL     OW34504   0.618   1.721   2.636 -0.3757 -0.0986 -0.0890
 7624SOL    HW134505   0.664   1.705   2.718 -1.9789  2.1057  1.2049
 7624SOL    HW234506   0.689   1.689   2.580 -1.3663  0.6058 -1.7333
 7625SOL     OW34507   1.282   3.726   4.541 -0.3244 -0.1675  0.0692
 7625SOL    HW134508   1.329   3.806   4.518 -2.3007  0.8303 -0.5286
 7625SOL    HW234509   1.214   3.729   4.474 -1.0449 -0.3659  0.7889
 7626SOL     OW34510   1.292   2.998   1.689 -0.0234 -0.1335  0.8086
 7626SOL    HW134511   1.276   2.906   1.711  0.0781 -0.1425  0.8447
 7626SOL    HW234512   1.386   2.994   1.671 -0.2849 -1.6390 -0.2157
 7627SOL     OW34513   1.581   3.282   8.253 -0.3327  0.1818 -0.0609
 7627SOL    HW134514   1.658   3.327   8.218  0.3457  0.7006  2.1309
 7627SOL    HW234515   1.509   3.320   8.202  1.2368  0.7711 -1.8628
 7628SOL     OW34516   4.073   2.045   5.511  0.7042  0.6327  0.0730
 7628SOL    HW134517   4.008   2.107   5.544 -0.6039  0.3095 -1.9131
 7628SOL    HW234518   4.033   2.018   5.429  0.0740  0.2139  0.5137
 7629SOL     OW34519   4.714   0.819   4.931  0.0694  0.1650  0.4546
 7629SOL    HW134520   0.015   0.836   4.844 -0.3672  0.1289  0.2616
 7629SOL    HW234521   4.655   0.746   4.915  0.4433 -0.5762  2.4482
 7630SOL     OW34522   2.855   0.315  12.858  0.0920 -0.2613  0.3248
 7630SOL    HW134523   2.920   0.277  12.917  0.8454  0.7246  0.1433
 7630SOL    HW234524   2.824   0.393  12.905  1.5679  0.4894  0.0306
 7631SOL     OW34525   3.962   0.203  13.292  0.2145 -0.2202  0.3195
 7631SOL    HW134526   3.902   0.276  13.283  0.7277  0.2376  0.5915
 7631SOL    HW234527   3.996   0.241  13.373  1.1662 -0.1079 -0.1246
 7632SOL     OW34528   3.731   2.028   1.926 -0.6710  0.0461  0.6811
 7632SOL    HW134529   3.704   2.120   1.916  1.0210  0.2644 -1.9789
 7632SOL    HW234530   3.707   1.998   1.839  5.0292 -0.7951 -0.5908
 7633SOL     OW34531   4.043   3.218   6.798  0.3907  0.6162  0.3032
 7633SOL    HW134532   4.074   3.299   6.838  0.0607  1.0671 -0.3514
 7633SOL    HW234533   3.950   3.225   6.818 -0.1840 -2.6239 -1.1687
 7634SOL     OW34534   1.462   4.317  10.990  0.0777 -0.0886  0.3413
 7634SOL    HW134535   1.530   4.251  11.001  1.0707  0.8665 -0.0409
 7634SOL    HW234536   1.513   4.383  10.943  0.0196  0.1246  0.5793
 7635SOL     OW34537   4.007   3.012   3.592 -0.2817  0.2137  0.5388
 7635SOL    HW134538   3.978   3.019   3.501  2.4923  1.2458 -0.2811
 7635SOL    HW234539   4.071   2.942   3.578  0.8420  1.0886  1.2906
 7636SOL     OW34540   2.895   1.888   4.026  0.1304 -0.2310  0.1394
 7636SOL    HW134541   2.942   1.880   4.109  1.7832  2.2666 -0.5464
 7636SOL    HW234542   2.917   1.966   3.975 -0.8510 -0.1415 -0.1454
 7637SOL     OW34543   4.077   3.091   7.451  0.4220 -0.8920  0.1292
 7637SOL    HW134544   4.030   3.107   7.369 -0.2380 -4.0191 -0.1307
 7637SOL    HW234545   4.009   3.101   7.518  0.2498  0.4710 -0.2569
 7638SOL     OW34546   4.618   1.744   0.611 -0.0690  0.1180  0.1929
 7638SOL    HW134547   4.534   1.718   0.575 -0.1056  0.4290  0.0478
 7638SOL    HW234548   4.610   1.836   0.584 -0.9459  0.3673  1.2817
 7639SOL     OW34549   1.436   4.197   7.653 -0.4179  0.0335  0.7000
 7639SOL    HW134550   1.482   4.231   7.576 -0.2530  1.6036  1.4907
 7639SOL    HW234551   1.430   4.278   7.703 -1.2783 -0.6696  1.7124
 7640SOL     OW34552   1.271   0.899   1.725 -0.1926  0.0209 -0.2873
 7640SOL    HW134553   1.226   0.970   1.772 -0.5949 -0.8502  0.6339
 7640SOL    HW234554   1.360   0.932   1.740 -0.6924  1.5875 -0.7982
 7641SOL     OW34555   3.703   0.965   0.382  0.5537 -0.1529 -0.0467
 7641SOL    HW134556   3.615   1.000   0.369  1.1281  1.3445  0.0415
 7641SOL    HW234557   3.714   0.930   0.293 -0.0553 -0.3789 -0.0260
 7642SOL     OW34558   2.080   0.594   2.435 -0.0808  0.4595  0.1361
 7642SOL    HW134559   1.990   0.595   2.403 -0.2550 -2.2331  0.5456
 7642SOL    HW234560   2.114   0.506   2.415  0.6997  1.0119 -0.9459
 7643SOL     OW34561   2.364   3.720   8.407 -0.1309 -0.7149 -0.3383
 7643SOL    HW134562   2.453   3.716   8.441 -0.0701 -1.1643 -0.5600
 7643SOL    HW234563   2.326   3.785   8.466 -1.9794 -3.3673  1.4004
 7644SOL     OW34564   2.450   0.200  13.110 -0.2160 -0.5637 -0.4280
 7644SOL    HW134565   2.508   0.273  13.089 -0.8506 -0.4779 -1.8315
 7644SOL    HW234566   2.500   0.134  13.061 -2.0000 -2.3354  0.1430
 7645SOL     OW34567   1.778   2.808   0.177 -1.2816  0.9374  0.3802
 7645SOL    HW134568   1.705   2.757   0.213 -0.4623  1.6510  3.0254
 7645SOL    HW234569   1.737   2.859   0.107 -1.1309 -1.1107 -1.2164
 7646SOL     OW34570   2.846   0.169  16.431 -0.0352 -0.1937 -0.4481
 7646SOL    HW134571   2.797   0.086  16.433  0.9241 -0.8345 -2.9422
 7646SOL    HW234572   2.912   0.152  16.364  1.5354 -1.3302  1.4195
 7647SOL     OW34573   3.669   2.540   7.812 -0.3226  0.2467 -0.1262
 7647SOL    HW134574   3.591   2.498   7.848  0.1387  0.6527  1.3341
 7647SOL    HW234575   3.720   2.465   7.781 -0.2393  0.1762  0.1889
 7648SOL     OW34576   3.124   0.265   8.287 -0.5268 -0.6610  0.0221
 7648SOL    HW134577   3.211   0.267   8.247  0.4607  2.4105  2.3558
 7648SOL    HW234578   3.088   0.346   8.253 -0.9020 -0.5999  0.5775
 7649SOL     OW34579   3.058   4.687   6.666 -0.0482  0.3448  0.8536
 7649SOL    HW134580   3.151   4.699   6.650  0.0739 -1.1124  0.4557
 7649SOL    HW234581   3.029   4.641   6.587  0.6590  2.7341 -0.7745
 7650SOL     OW34582   4.312   0.655   5.397 -0.4006 -0.3923  0.3986
 7650SOL    HW134583   4.334   0.664   5.489  0.6249 -1.0584  0.2178
 7650SOL    HW234584   4.252   0.728   5.384  0.8118 -0.0388 -3.2433
 7651SOL     OW34585   4.606   0.599   6.087  0.2541  0.0893  0.6089
 7651SOL    HW134586   4.552   0.664   6.043  1.6264  0.6609 -0.2358
 7651SOL    HW234587   4.560   0.517   6.103 -0.5375  0.1556 -1.3573
 7652SOL     OW34588   0.999   2.371  15.467  0.0086  0.1674  0.3044
 7652SOL    HW134589   1.062   2.434  15.501 -0.9782  1.3406 -0.0390
 7652SOL    HW234590   0.997   2.310  15.541  2.8852 -0.3624 -0.0542
 7653SOL     OW34591   2.617   2.811   8.061  0.4135 -0.2142  0.4980
 7653SOL    HW134592   2.630   2.744   7.993  0.1598 -0.4442  0.6776
 7653SOL    HW234593   2.664   2.888   8.028 -1.0107 -0.3897 -1.9666
 7654SOL     OW34594   2.019   2.697   6.162  0.2884 -0.2308 -0.0787
 7654SOL    HW134595   1.966   2.620   6.182 -1.9058  1.1761 -0.4434
 7654SOL    HW234596   1.977   2.767   6.211  1.7639 -0.3555  1.3486
 7655SOL     OW34597   1.886   3.605   6.247  0.0497 -0.7988 -0.1085
 7655SOL    HW134598   1.864   3.659   6.323  0.3449  0.8869 -1.2131
 7655SOL    HW234599   1.809   3.576   6.199  0.0202  1.2893 -1.3346
 7656SOL     OW34600   0.598   1.660  12.419  0.3040  0.1537  0.4900
 7656SOL    HW134601   0.631   1.622  12.337 -0.0590 -0.3164  0.5608
 7656SOL    HW234602   0.505   1.657  12.395  0.4443  0.7838 -0.1123
 7657SOL     OW34603   3.619   2.064   4.658 -0.2893  0.2640 -0.8392
 7657SOL    HW134604   3.644   2.040   4.747  0.2585 -1.4161 -1.4452
 7657SOL    HW234605   3.531   2.027   4.662 -0.3256  0.2477 -1.7455
 7658SOL     OW34606   4.111   2.951   5.708 -0.1819 -0.0839  0.0677
 7658SOL    HW134607   4.113   2.855   5.703  1.9187  0.0151 -1.0250
 7658SOL    HW234608   4.108   2.970   5.614 -3.9734 -1.2124 -0.0385
 7659SOL     OW34609   1.245   3.339   3.505  0.3218 -0.1688 -0.2381
 7659SOL    HW134610   1.179   3.291   3.455  0.0881 -1.2036  1.0620
 7659SOL    HW234611   1.228   3.308   3.594  2.4361  1.3973  0.7145
 7660SOL     OW34612   1.307   2.438  11.568  0.6125  0.1638  0.2818
 7660SOL    HW134613   1.277   2.504  11.505 -2.6069 -0.5316  1.1057
 7660SOL    HW234614   1.305   2.484  11.652  3.0495  2.8452 -1.1273
 7661SOL     OW34615   1.436   2.645  17.158 -0.3998  0.1836 -0.2526
 7661SOL    HW134616   1.443   2.605  17.245 -0.0252  0.6275 -0.0792
 7661SOL    HW234617   1.374   2.716  17.174  0.0247  0.0826  1.9275
 7662SOL     OW34618   0.796   1.623   4.349 -0.7572  0.3625 -0.1807
 7662SOL    HW134619   0.808   1.717   4.342  1.5474 -0.0361 -1.6522
 7662SOL    HW234620   0.878   1.591   4.311  0.4377  1.8685  1.1251
 7663SOL     OW34621   3.407   3.880   2.216 -0.4903  0.5832 -0.3777
 7663SOL    HW134622   3.473   3.949   2.205  1.1832 -0.7311  1.2962
 7663SOL    HW234623   3.337   3.936   2.249 -0.1639  0.4581  0.5172
 7664SOL     OW34624   0.196   4.304   2.483  0.1662  0.4465  0.3407
 7664SOL    HW134625   0.114   4.258   2.500  0.4181 -0.5416 -1.1811
 7664SOL    HW234626   0.228   4.321   2.572  1.2331  2.6902 -0.4676
 7665SOL     OW34627   1.313   0.438  17.404 -0.1228 -0.4809  0.1849
 7665SOL    HW134628   1.291   0.495  17.477  0.0687 -1.7402  1.2106
 7665SOL    HW234629   1.374   0.498  17.360  1.6002 -1.0888  1.7814
 7666SOL     OW34630   1.872   3.121  13.252 -0.1446  0.2127  0.2620
 7666SOL    HW134631   1.851   3.108  13.160 -0.2288 -2.8596  0.7227
 7666SOL    HW234632   1.842   3.211  13.262 -0.1053  0.3440 -0.7470
 7667SOL     OW34633   3.841   1.607   1.098 -0.1297  0.2970 -0.0947
 7667SOL    HW134634   3.850   1.516   1.124 -0.0556 -0.0674 -1.3785
 7667SOL    HW234635   3.925   1.625   1.056 -2.1133  5.0977 -1.9988
 7668SOL     OW34636   0.887   3.808   8.413 -0.0980  0.5518  0.1694
 7668SOL    HW134637   0.922   3.776   8.330 -1.9247 -0.5225 -0.1820
 7668SOL    HW234638   0.964   3.776   8.461  1.4632  0.6734 -2.2220
 7669SOL     OW34639   0.733   0.958   4.715 -0.5371  0.5553 -0.1637
 7669SOL    HW134640   0.797   1.015   4.671 -0.1764  2.3588  2.6941
 7669SOL    HW234641   0.658   1.018   4.723 -0.0534  1.2722 -0.9943
 7670SOL     OW34642   1.102   3.984  15.270 -0.2982  0.2786 -0.2358
 7670SOL    HW134643   1.110   4.057  15.332 -2.3157  1.4200 -1.3381
 7670SOL    HW234644   1.053   4.032  15.204  0.3778 -2.2382 -2.5711
 7671SOL     OW34645   4.631   4.370   2.105 -0.2230 -0.0680 -0.5894
 7671SOL    HW134646   4.663   4.459   2.093 -1.0515  0.3214  0.0875
 7671SOL    HW234647   4.703   4.323   2.063  0.7701 -0.1769  1.2759
 7672SOL     OW34648   3.394   1.901  16.441  0.0160 -0.1579  0.1060
 7672SOL    HW134649   3.475   1.949  16.424  0.7882 -1.5892 -0.2233
 7672SOL    HW234650   3.340   1.921  16.365 -0.0405  0.1326  0.2208
 7673SOL     OW34651   3.943   4.359   8.205  0.6413  0.0630 -0.1151
 7673SOL    HW134652   3.900   4.393   8.284  1.5033 -2.1571  1.3313
 7673SOL    HW234653   3.963   4.270   8.236  1.4518  0.0922 -0.5522
 7674SOL     OW34654   1.889   1.563  11.617 -0.7898  0.0120 -0.5963
 7674SOL    HW134655   1.845   1.481  11.638 -0.2443 -0.8549 -2.8015
 7674SOL    HW234656   1.976   1.528  11.596 -0.9310 -1.3505  1.0873
 7675SOL     OW34657   4.373   3.532  15.796 -0.1839 -0.2124 -0.1680
 7675SOL    HW134658   4.426   3.561  15.870  1.3143 -1.9929 -0.5677
 7675SOL    HW234659   4.287   3.504  15.827  0.9237 -0.7861  2.3992
 7676SOL     OW34660   1.361   0.206   2.359 -0.0055  0.3974 -0.0776
 7676SOL    HW134661   1.281   0.226   2.406  0.2702  1.0633  0.1063
 7676SOL    HW234662   1.314   0.214   2.276 -1.8394 -0.3730  0.8949
 7677SOL     OW34663   1.011   3.155   7.861  0.3834  0.2843  0.4090
 7677SOL    HW134664   0.964   3.217   7.805  1.7796 -0.4393 -1.5823
 7677SOL    HW234665   1.001   3.202   7.944  1.1466  1.1244  0.0268
 7678SOL     OW34666   3.672   0.700   5.269 -0.2132  0.5088  0.5211
 7678SOL    HW134667   3.647   0.635   5.335 -0.4868 -0.9572 -1.0397
 7678SOL    HW234668   3.757   0.727   5.302  0.2777  1.4598 -1.5700
 7679SOL     OW34669   1.574   0.940  12.169 -0.4228 -0.5444 -0.4247
 7679SOL    HW134670   1.544   0.996  12.241 -0.4993 -0.2486 -0.6868
 7679SOL    HW234671   1.581   1.011  12.106  0.5208 -0.2707 -0.0227
 7680SOL     OW34672   2.627   3.030   1.789  0.0586 -0.4952  0.0813
 7680SOL    HW134673   2.624   3.117   1.829 -0.0879  0.0288 -1.0847
 7680SOL    HW234674   2.712   2.993   1.814 -0.6056 -2.2474 -0.2921
 7681SOL     OW34675   4.548   4.171   2.880 -0.5006  0.4494  0.5171
 7681SOL    HW134676   4.470   4.118   2.898  0.9905 -1.4594  1.3118
 7681SOL    HW234677   4.524   4.220   2.802  0.9615  1.2595  0.5821
 7682SOL     OW34678   1.919   4.213   2.577 -0.1310 -0.0134  0.1031
 7682SOL    HW134679   1.997   4.208   2.522  0.6054  1.3609  1.0237
 7682SOL    HW234680   1.957   4.199   2.664  1.8336  1.2897 -0.5583
 7683SOL     OW34681   1.928   1.409   7.802  0.1876 -0.7549 -0.8828
 7683SOL    HW134682   1.910   1.483   7.744 -0.3690  0.0248  0.2806
 7683SOL    HW234683   2.008   1.438   7.845 -1.0141  1.0346  0.1478
 7684SOL     OW34684   1.138   4.102   3.962 -0.4349  0.5563 -0.0462
 7684SOL    HW134685   1.043   4.110   3.958 -0.4912 -0.3854 -0.6035
 7684SOL    HW234686   1.152   4.119   4.055 -3.4895 -3.9464  1.2264
 7685SOL     OW34687   0.910   1.475   8.078 -0.7751  0.3080 -0.1004
 7685SOL    HW134688   0.816   1.487   8.091 -0.7904 -0.9267  0.9595
 7685SOL    HW234689   0.927   1.474   8.173  1.8458  1.8133 -0.5749
 7686SOL     OW34690   2.178   4.402   7.119  0.2949  0.5153  0.1315
 7686SOL    HW134691   2.166   4.340   7.047  1.5612  2.0903 -1.4125
 7686SOL    HW234692   2.246   4.357   7.170 -0.0855 -0.1787  0.0339
 7687SOL     OW34693   3.566   1.177  10.253 -0.9894 -0.0588  0.3823
 7687SOL    HW134694   3.606   1.254  10.212 -2.0484 -0.7118 -1.8525
 7687SOL    HW234695   3.641   1.119  10.267 -0.3480  0.5839 -0.3320
 7688SOL     OW34696   2.979   0.476  14.002  0.1540 -0.3328  0.8770
 7688SOL    HW134697   2.953   0.398  13.952  0.6346 -0.4191  0.7555
 7688SOL    HW234698   3.015   0.429  14.078 -0.8898  0.5421  1.9047
 7689SOL     OW34699   4.374   3.190   7.959  0.6184 -0.4855  0.0841
 7689SOL    HW134700   4.297   3.159   7.913  1.1540 -1.5856 -0.0765
 7689SOL    HW234701   4.393   3.125   8.026 -0.2740  0.5309  1.3316
 7690SOL     OW34702   4.603   4.659   5.963 -0.2441 -0.1614  0.5888
 7690SOL    HW134703   4.545   4.713   6.017 -0.7454  2.8225 -2.9202
 7690SOL    HW234704   4.569   4.678   5.875 -0.4889 -2.4867  0.1834
 7691SOL     OW34705   4.470   1.971   3.677 -0.2834 -0.6448  0.4220
 7691SOL    HW134706   4.384   1.969   3.634  0.1297 -1.1581 -0.3848
 7691SOL    HW234707   4.458   1.932   3.763 -0.4384  1.4317  1.3162
 7692SOL     OW34708   0.460   0.124   1.702  0.5620  0.3756  0.1800
 7692SOL    HW134709   0.483   0.164   1.618  0.6258 -1.9631 -0.9252
 7692SOL    HW234710   0.532   0.062   1.708 -0.0210 -0.5158 -1.9660
 7693SOL     OW34711   0.812   1.215   8.894  1.1083 -0.4716 -0.4025
 7693SOL    HW134712   0.802   1.288   8.955 -2.9306 -0.9667 -0.4752
 7693SOL    HW234713   0.745   1.154   8.924 -0.5074  0.6263 -1.7569
 7694SOL     OW34714   1.615   4.437  14.625 -0.5563  0.2830 -0.2196
 7694SOL    HW134715   1.568   4.496  14.566 -0.8981  0.0203 -0.2135
 7694SOL    HW234716   1.535   4.388  14.647 -0.1701  0.0827  0.6962
 7695SOL     OW34717   4.333   2.410   0.964 -0.3391 -0.4590  0.6571
 7695SOL    HW134718   4.374   2.330   0.932 -0.0468  0.9337 -2.5103
 7695SOL    HW234719   4.260   2.408   0.902  0.8605 -1.6853 -0.7234
 7696SOL     OW34720   2.006   1.084   1.499 -0.1474 -0.1243  0.3030
 7696SOL    HW134721   2.100   1.090   1.483 -0.4439  0.4699 -1.2695
 7696SOL    HW234722   2.014   1.010   1.559  1.7660  0.0451  0.2568
 7697SOL     OW34723   2.093   1.811  13.700  0.1382  0.2350 -0.0310
 7697SOL    HW134724   2.150   1.763  13.760 -0.5328  0.8864  1.1105
 7697SOL    HW234725   2.010   1.776  13.731 -0.1895  0.7610 -0.3182
 7698SOL     OW34726   4.449   3.329   2.504  0.4320 -0.0575  0.0654
 7698SOL    HW134727   4.471   3.250   2.553 -0.7793 -1.3609 -1.5084
 7698SOL    HW234728   4.439   3.383   2.582  0.6326  0.0856 -0.0048
 7699SOL     OW34729   3.731   3.227   5.640 -0.0524 -0.1202 -0.2145
 7699SOL    HW134730   3.809   3.271   5.608  0.2729  0.9805  2.1350
 7699SOL    HW234731   3.714   3.176   5.561  0.1362 -0.0879 -0.2741
 7700SOL     OW34732   4.222   3.135   1.485  0.1064 -0.2412  0.6309
 7700SOL    HW134733   4.317   3.129   1.494  0.0527 -2.2919 -0.0612
 7700SOL    HW234734   4.188   3.066   1.543 -0.0852 -0.3237  0.4214
 7701SOL     OW34735   3.256   0.130   5.572  0.2116 -0.0897  0.0497
 7701SOL    HW134736   3.212   0.063   5.625  1.0454  0.3175  1.2730
 7701SOL    HW234737   3.308   0.086   5.505 -1.4045  0.6049 -1.6550
 7702SOL     OW34738   1.880   1.239   5.600 -0.0427 -0.5487  0.1324
 7702SOL    HW134739   1.800   1.205   5.641 -0.6918  0.3226 -0.4297
 7702SOL    HW234740   1.951   1.216   5.659  0.0125  1.2479  0.7361
 7703SOL     OW34741   1.145   3.557   5.074  0.7648  0.2562  0.4327
 7703SOL    HW134742   1.192   3.641   5.075  0.6800  0.3064  0.0610
 7703SOL    HW234743   1.215   3.506   5.114  0.5713 -0.0506  0.3792
 7704SOL     OW34744   3.218   3.251   8.239 -0.7622  0.7523  0.0247
 7704SOL    HW134745   3.244   3.331   8.193 -3.8379  1.7211 -0.0207
 7704SOL    HW234746   3.162   3.280   8.311 -0.0588  0.4423  0.6980
 7705SOL     OW34747   1.470   2.664  16.892  0.0606 -0.3919 -0.2104
 7705SOL    HW134748   1.459   2.666  16.988  1.4223 -0.5806 -0.0538
 7705SOL    HW234749   1.511   2.749  16.879 -1.5601  0.3155 -0.6308
 7706SOL     OW34750   1.270   0.405   5.782 -0.0541 -0.0893 -0.3940
 7706SOL    HW134751   1.182   0.432   5.753  0.5071  2.8997  0.7433
 7706SOL    HW234752   1.293   0.340   5.716  0.3011 -0.9501  0.5826
 7707SOL     OW34753   0.945   4.597   9.633 -0.1643  0.3068 -0.0690
 7707SOL    HW134754   0.986   4.602   9.719 -1.5289  1.2072  0.5423
 7707SOL    HW234755   0.940   4.501   9.629  1.1028  0.2912 -1.1799
 7708SOL     OW34756   4.407   2.778   8.755 -0.6291  0.3097  0.0547
 7708SOL    HW134757   4.337   2.713   8.758  1.3254 -1.9546 -2.2702
 7708SOL    HW234758   4.474   2.740   8.813  0.2044 -0.7805 -1.5979
 7709SOL     OW34759   3.895   1.605   2.733 -0.3212 -0.5897 -0.1104
 7709SOL    HW134760   3.975   1.564   2.699  1.0111  4.4583 -2.9309
 7709SOL    HW234761   3.849   1.526   2.762  0.5798 -0.4572  1.6820
 7710SOL     OW34762   1.620   3.103   2.613 -0.0007  0.2671  0.4019
 7710SOL    HW134763   1.574   3.185   2.634  0.4846  0.3147  1.2339
 7710SOL    HW234764   1.593   3.044   2.683 -0.7419 -1.1178 -1.0601
 7711SOL     OW34765   0.875   1.340   7.409  0.0467 -0.0271 -0.1190
 7711SOL    HW134766   0.885   1.434   7.426 -2.2469 -0.1179  1.7115
 7711SOL    HW234767   0.813   1.342   7.337  0.3888  2.0944 -0.3432
 7712SOL     OW34768   1.856   4.037   9.191  0.4173  0.5904  1.0823
 7712SOL    HW134769   1.942   4.062   9.158  1.4039  0.7994  3.8569
 7712SOL    HW234770   1.817   4.003   9.110  1.0678 -0.8176  1.3482
 7713SOL     OW34771   3.925   3.013   9.395  0.3170  0.6209 -0.1889
 7713SOL    HW134772   3.947   2.997   9.303 -0.2007  3.0783 -0.7408
 7713SOL    HW234773   3.982   3.088   9.416  0.8729  0.6393 -1.8000
 7714SOL     OW34774   2.980   3.247   2.494  0.2954  0.2971  0.1654
 7714SOL    HW134775   2.973   3.202   2.578 -1.8106  0.4667  0.0621
 7714SOL    HW234776   2.930   3.325   2.518 -0.3814 -0.4023  1.0245
 7715SOL     OW34777   3.338   4.307   2.105  0.5451  0.4006  0.1249
 7715SOL    HW134778   3.399   4.362   2.153  1.0793 -0.1534  0.0906
 7715SOL    HW234779   3.264   4.364   2.086  0.0049  0.4665  2.4014
 7716SOL     OW34780   1.375   3.516   4.149  0.3178 -0.1919  0.5734
 7716SOL    HW134781   1.410   3.435   4.184  0.2881 -0.6824 -0.5401
 7716SOL    HW234782   1.401   3.579   4.216  1.9799 -1.2390  0.8969
 7717SOL     OW34783   1.837   0.353   7.575  0.1092  0.2157 -0.4686
 7717SOL    HW134784   1.782   0.409   7.631  1.0857  0.2612  0.4583
 7717SOL    HW234785   1.921   0.363   7.621  2.5112 -0.8076 -4.6648
 7718SOL     OW34786   2.761   3.013   7.920  0.2753 -0.7161  0.2032
 7718SOL    HW134787   2.812   3.068   7.979 -0.5563 -1.1625  1.3523
 7718SOL    HW234788   2.677   3.060   7.921  1.3089  1.1409 -1.6857
 7719SOL     OW34789   4.427   0.501   8.637  0.6643  0.4093 -0.1271
 7719SOL    HW134790   4.517   0.481   8.611  0.3599 -1.8306  0.5198
 7719SOL    HW234791   4.447   0.564   8.707  2.1087 -0.5835  0.3528
 7720SOL     OW34792   0.494   2.156   8.116 -0.1687  0.4799 -0.1109
 7720SOL    HW134793   0.511   2.063   8.127  2.1431  0.9258  0.0726
 7720SOL    HW234794   0.482   2.187   8.206  2.0676 -1.0558  0.7126
 7721SOL     OW34795   0.282   4.651   7.365  0.1056 -0.7494 -0.0546
 7721SOL    HW134796   0.369   4.687   7.346 -0.2923  0.8894  1.2072
 7721SOL    HW234797   0.302   4.561   7.339  1.7474 -0.4687  0.1927
 7722SOL     OW34798   2.625   2.906   3.003 -0.5691 -0.0542 -0.4447
 7722SOL    HW134799   2.631   2.989   3.049  0.8959  0.9294 -2.4284
 7722SOL    HW234800   2.552   2.919   2.942  0.2597 -2.2906 -1.9571
 7723SOL     OW34801   4.600   2.399   7.579  0.0680 -0.7186  0.2160
 7723SOL    HW134802   4.671   2.463   7.587 -1.0455  0.6205 -0.5437
 7723SOL    HW234803   4.532   2.452   7.620 -0.1754  0.1711 -1.3317
 7724SOL     OW34804   3.988   2.561   7.264 -0.6156  0.3499 -0.8021
 7724SOL    HW134805   3.928   2.505   7.215 -0.0228  1.9519 -3.3890
 7724SOL    HW234806   4.061   2.548   7.203  0.3252  3.2194 -0.2668
 7725SOL     OW34807   2.009   4.542   5.180 -0.3501  0.1756 -0.0431
 7725SOL    HW134808   2.089   4.519   5.227  0.4565  0.6067 -1.2105
 7725SOL    HW234809   2.032   4.496   5.099  0.4309  1.8132 -0.7607
 7726SOL     OW34810   4.098   4.510   0.886  0.1770 -0.2397  0.3808
 7726SOL    HW134811   4.095   4.582   0.823 -0.3737  2.6689  3.7446
 7726SOL    HW234812   4.192   4.497   0.897 -0.1463 -2.4701  0.5418
 7727SOL     OW34813   3.071   1.782   8.207 -0.5409 -0.0556  0.1092
 7727SOL    HW134814   3.138   1.842   8.237 -0.0541  0.0687 -1.2704
 7727SOL    HW234815   3.022   1.840   8.149 -0.6459  1.4061  1.6691
 7728SOL     OW34816   1.049   2.344   5.901  0.1119 -0.1503 -0.7831
 7728SOL    HW134817   1.108   2.268   5.905 -0.3958 -0.5751 -1.3440
 7728SOL    HW234818   1.034   2.350   5.807 -1.8659  0.9840 -0.3958
 7729SOL     OW34819   1.384   0.418   7.553  0.1228  0.2122  0.2037
 7729SOL    HW134820   1.446   0.345   7.547  1.6859  1.5639 -0.0286
 7729SOL    HW234821   1.312   0.385   7.500  1.4334 -1.5789 -0.4531
 7730SOL     OW34822   2.305   1.534   9.630 -1.2756  0.6723  0.1075
 7730SOL    HW134823   2.399   1.524   9.615 -1.0485 -0.1365  2.1084
 7730SOL    HW234824   2.290   1.448   9.670 -0.8470 -0.0866 -1.3565
 7731SOL     OW34825   4.180   2.358   3.928 -0.6598 -0.3127 -0.0233
 7731SOL    HW134826   4.193   2.307   3.847 -0.7853  0.2792 -0.4144
 7731SOL    HW234827   4.123   2.300   3.978  0.4393  0.7814  2.4576
 7732SOL     OW34828   0.851   3.673   7.463 -0.3375  0.3326  0.1135
 7732SOL    HW134829   0.923   3.735   7.474  2.6041 -2.6994 -1.9286
 7732SOL    HW234830   0.791   3.734   7.421 -2.5818 -2.9948 -1.5353
 7733SOL     OW34831   2.515   3.384  12.966  0.0801 -0.5526 -0.1657
 7733SOL    HW134832   2.580   3.348  13.027  1.1714  0.9079 -0.4752
 7733SOL    HW234833   2.564   3.394  12.884 -0.7467 -2.7766 -0.9331
 7734SOL     OW34834   0.559   1.160   5.276  0.2593  0.0940 -0.0075
 7734SOL    HW134835   0.471   1.176   5.309  0.8527  0.5477  1.3690
 7734SOL    HW234836   0.585   1.248   5.247 -1.9255  0.5881 -0.4537
 7735SOL     OW34837   3.320   3.015   0.594  0.2118 -0.5615  0.1526
 7735SOL    HW134838   3.355   3.094   0.635  0.2778 -0.9656  0.8721
 7735SOL    HW234839   3.356   2.953   0.656  0.6964  1.6839  2.1164
 7736SOL     OW34840   0.820   3.017   0.412 -0.5134  0.6095  0.0245
 7736SOL    HW134841   0.757   2.956   0.448 -2.5159  2.3494 -0.5317
 7736SOL    HW234842   0.860   2.979   0.333  0.7643  0.0935  0.9248
 7737SOL     OW34843   3.859   3.777   2.499  0.2836  0.2940 -0.1880
 7737SOL    HW134844   3.880   3.685   2.516  1.3092  0.3537 -1.1130
 7737SOL    HW234845   3.942   3.807   2.461 -0.5287  0.6733 -1.6662
 7738SOL     OW34846   1.374   2.903   7.366 -0.2509 -0.1748  0.2407
 7738SOL    HW134847   1.280   2.905   7.382  0.0094  0.3236  1.7277
 7738SOL    HW234848   1.391   2.990   7.332 -0.3174 -0.2849 -0.0720
 7739SOL     OW34849   3.551   2.759   4.504 -0.0752  0.7150 -0.5451
 7739SOL    HW134850   3.570   2.853   4.509  0.6785  0.5010  0.7538
 7739SOL    HW234851   3.468   2.751   4.458 -0.6679  1.5892  0.3773
 7740SOL     OW34852   0.526   1.884   8.156 -0.2359 -0.0518 -0.2447
 7740SOL    HW134853   0.469   1.808   8.167 -0.3074  0.3672  2.2707
 7740SOL    HW234854   0.586   1.851   8.089 -1.0600 -0.1734 -0.9290
 7741SOL     OW34855   0.559   1.618   9.193  0.1812  1.0414  0.4194
 7741SOL    HW134856   0.491   1.628   9.127 -0.1954 -1.9216  0.3482
 7741SOL    HW234857   0.517   1.545   9.239  2.8489 -1.2425 -0.7764
 7742SOL     OW34858   4.695   4.091  12.134  0.1101  0.1386  0.2655
 7742SOL    HW134859   0.004   4.026  12.188 -0.7565 -0.2228  0.5530
 7742SOL    HW234860   4.636   4.028  12.093  1.8465 -0.5464 -1.1772
 7743SOL     OW34861   0.989   2.113   2.051 -0.2146  0.9176 -0.1652
 7743SOL    HW134862   1.047   2.038   2.039  1.7366  2.3951 -0.0507
 7743SOL    HW234863   1.002   2.137   2.143  2.0627 -1.1890  0.0522
 7744SOL     OW34864   4.394   2.385  15.344  0.3698  0.1441  0.0188
 7744SOL    HW134865   4.319   2.330  15.368 -0.6134  1.3316 -0.3297
 7744SOL    HW234866   4.412   2.366  15.252  0.9332  2.6640 -0.3702
 7745SOL     OW34867   0.680   2.437   4.639 -0.3328 -0.2313 -0.0555
 7745SOL    HW134868   0.612   2.395   4.693  0.2126 -0.4066  0.4894
 7745SOL    HW234869   0.740   2.458   4.710  0.7077 -1.2863 -0.6357
 7746SOL     OW34870   1.114   0.994   2.886  0.2106  0.8358 -0.0015
 7746SOL    HW134871   1.131   0.914   2.936  1.7104  0.9167 -0.3548
 7746SOL    HW234872   1.095   0.953   2.801 -0.7045  1.1716  0.0425
 7747SOL     OW34873   2.338   4.350   3.108 -0.3913 -0.0219  0.5578
 7747SOL    HW134874   2.427   4.362   3.073  0.0547 -0.8724  1.4166
 7747SOL    HW234875   2.349   4.397   3.191  0.0911 -3.5830  2.5021
 7748SOL     OW34876   2.164   4.424   2.546  0.5569  0.1033  0.1844
 7748SOL    HW134877   2.072   4.452   2.542  0.1459 -1.0514  1.3074
 7748SOL    HW234878   2.201   4.494   2.599  1.6525 -0.2027 -0.1857
 7749SOL     OW34879   3.188   4.717  15.364  0.0917  0.5806 -0.4307
 7749SOL    HW134880   3.228   0.018  15.285  0.2735  2.6143  0.6024
 7749SOL    HW234881   3.207   4.624  15.358 -1.3621  0.2806 -0.3134
 7750SOL     OW34882   2.998   2.496   6.295  0.2271  0.1305 -0.3094
 7750SOL    HW134883   3.071   2.444   6.261 -0.0748  0.7199 -1.8469
 7750SOL    HW234884   3.017   2.497   6.389 -0.0465  1.1154 -0.2628
 7751SOL     OW34885   0.410   1.828  16.749 -0.8234 -0.1551  0.6305
 7751SOL    HW134886   0.367   1.858  16.669 -0.5835  0.8567  0.8908
 7751SOL    HW234887   0.369   1.883  16.816 -0.2270  3.8409 -2.2986
 7752SOL     OW34888   4.538   1.887   3.412  0.7401  0.0877 -0.6612
 7752SOL    HW134889   4.506   1.820   3.351  2.4492 -0.0731 -1.3893
 7752SOL    HW234890   4.534   1.845   3.498 -0.7132 -0.4743 -0.9984
 7753SOL     OW34891   0.890   3.249  11.563 -0.0291  0.2329  0.6708
 7753SOL    HW134892   0.869   3.220  11.652  0.4355 -1.3805  0.2598
 7753SOL    HW234893   0.799   3.262  11.536 -0.4655 -1.8049  1.1670
 7754SOL     OW34894   4.410   3.609   3.662  0.3328  0.0042  0.0502
 7754SOL    HW134895   4.382   3.528   3.704 -0.2542 -0.5370 -1.3854
 7754SOL    HW234896   4.498   3.628   3.696  0.8658  0.2292 -1.4616
 7755SOL     OW34897   1.331   4.632   3.685  0.0315  0.7991 -0.2767
 7755SOL    HW134898   1.250   4.581   3.689  1.2493 -1.0874  0.3307
 7755SOL    HW234899   1.397   4.564   3.702 -0.0872  1.4601  2.7066
 7756SOL     OW34900   0.532   2.476   5.230  0.0327  0.0270 -1.0805
 7756SOL    HW134901   0.526   2.496   5.323 -2.0287  1.3790 -1.4937
 7756SOL    HW234902   0.447   2.432   5.219  0.1734 -0.6285  0.4856
 7757SOL     OW34903   2.748   0.992   5.474 -0.4128 -0.4272  0.1649
 7757SOL    HW134904   2.720   0.901   5.483  3.0059 -1.6140 -0.8532
 7757SOL    HW234905   2.815   0.997   5.406  1.0908 -2.3038  1.5065
 7758SOL     OW34906   4.231   1.188  14.980  0.1665 -0.1107 -0.6592
 7758SOL    HW134907   4.323   1.188  15.006 -0.5642  1.8519  2.0120
 7758SOL    HW234908   4.175   1.207  15.056 -1.8967  3.1818 -2.9931
 7759SOL     OW34909   2.964   0.549  13.696  0.0490  0.0017  0.3680
 7759SOL    HW134910   2.907   0.591  13.761 -2.2675  0.5569 -2.0273
 7759SOL    HW234911   2.938   0.461  13.723  0.5854  0.3311  1.9661
 7760SOL     OW34912   3.617   1.529   4.771 -1.2537 -0.0550 -0.0047
 7760SOL    HW134913   3.531   1.531   4.812 -1.3802  4.4351 -0.3988
 7760SOL    HW234914   3.585   1.535   4.681  0.3315 -0.3813 -0.5846
 7761SOL     OW34915   2.839   4.403   8.034  0.1476 -0.2816  0.0708
 7761SOL    HW134916   2.814   4.494   8.051 -2.4069 -1.1824  1.1002
 7761SOL    HW234917   2.917   4.396   8.089 -0.5064 -2.0325  0.7675
 7762SOL     OW34918   0.671   0.471   4.157 -0.0048  0.5726 -0.4468
 7762SOL    HW134919   0.748   0.417   4.174 -0.1468  0.6633  0.5112
 7762SOL    HW234920   0.609   0.399   4.166 -0.0181  0.4703 -1.3478
 7763SOL     OW34921   3.655   3.830  11.229  0.4544 -0.4527  0.6385
 7763SOL    HW134922   3.672   3.781  11.309 -0.2515 -0.4598  0.7877
 7763SOL    HW234923   3.718   3.902  11.241  3.3938 -2.8491 -0.4891
 7764SOL     OW34924   0.224   2.735  14.618 -0.0510 -0.5079  0.2652
 7764SOL    HW134925   0.317   2.717  14.604  0.3901  2.0240 -0.0275
 7764SOL    HW234926   0.177   2.701  14.542  1.3140 -0.2397 -0.6986
 7765SOL     OW34927   2.771   1.191   8.303 -0.4011 -0.1902 -0.5408
 7765SOL    HW134928   2.803   1.173   8.391  1.2767  0.5758 -1.0082
 7765SOL    HW234929   2.854   1.216   8.262  0.1358 -1.9673 -0.5390
 7766SOL     OW34930   3.406   1.834   6.686 -0.2055 -0.0977 -0.5587
 7766SOL    HW134931   3.358   1.825   6.604  0.0408 -0.7922 -0.6298
 7766SOL    HW234932   3.376   1.757   6.734 -0.9421  1.0070  0.7671
 7767SOL     OW34933   3.032   0.903   1.550  1.0903 -0.1458 -0.0735
 7767SOL    HW134934   2.943   0.869   1.543  1.2722 -0.4204 -1.0224
 7767SOL    HW234935   3.022   0.992   1.583  0.0371 -0.1807 -0.2880
 7768SOL     OW34936   0.909   0.662   1.270 -0.2380  0.4124 -0.1607
 7768SOL    HW134937   0.893   0.616   1.352 -2.6620  1.3165 -0.1370
 7768SOL    HW234938   0.946   0.745   1.301  1.0317 -0.4287  0.5754
 7769SOL     OW34939   0.926   2.722   2.753  0.7863 -0.1605 -0.0676
 7769SOL    HW134940   0.896   2.709   2.662 -0.2696  0.6498  0.1683
 7769SOL    HW234941   0.916   2.817   2.757 -3.6227 -0.7190  2.0637
 7770SOL     OW34942   2.783   1.007  10.219  0.1557  0.1502 -0.3695
 7770SOL    HW134943   2.817   1.053  10.295  1.5715 -0.9958 -0.2909
 7770SOL    HW234944   2.760   1.078  10.159 -0.4748 -1.2139 -1.7710
 7771SOL     OW34945   3.318   2.222  16.260  0.3631  0.1447  0.2609
 7771SOL    HW134946   3.294   2.284  16.191 -0.4663 -2.5972 -1.9595
 7771SOL    HW234947   3.411   2.244  16.266  0.6182 -0.1615 -2.2180
 7772SOL     OW34948   3.753   0.080   5.423  0.6663 -0.0655 -0.3732
 7772SOL    HW134949   3.847   0.095   5.412  0.3130  0.1750 -2.9747
 7772SOL    HW234950   3.739   0.089   5.517 -0.8801 -0.7720 -0.5367
 7773SOL     OW34951   3.986   1.188   9.321 -0.2324  0.3277  0.5125
 7773SOL    HW134952   4.067   1.239   9.326  1.0675 -1.6798 -0.0183
 7773SOL    HW234953   3.972   1.167   9.414  1.7767 -0.7574  0.5868
 7774SOL     OW34954   0.630   3.776   7.324  0.3050  0.0637  0.1976
 7774SOL    HW134955   0.537   3.754   7.331  0.0004  1.4148  0.5431
 7774SOL    HW234956   0.640   3.845   7.390  0.8999 -0.7278  0.9195
 7775SOL     OW34957   2.253   1.639   4.442  0.2987  0.1119  0.4426
 7775SOL    HW134958   2.185   1.705   4.461 -0.7884 -0.9350  0.2176
 7775SOL    HW234959   2.211   1.553   4.439  1.9417 -0.5931 -1.8459
 7776SOL     OW34960   2.231   2.036   2.990 -0.5462 -0.0362  0.5731
 7776SOL    HW134961   2.195   2.051   3.078 -2.9669 -2.9635  0.0862
 7776SOL    HW234962   2.170   1.968   2.961 -0.7866  0.2112  0.4918
 7777SOL     OW34963   1.181   2.638  11.777 -0.2298 -0.4293  0.0046
 7777SOL    HW134964   1.109   2.679  11.729  0.4617 -0.0369 -0.7030
 7777SOL    HW234965   1.246   2.706  11.758  0.9142 -1.0518  1.7134
 7778SOL     OW34966   1.053   4.303   2.118 -0.3442  0.2321 -0.1131
 7778SOL    HW134967   1.145   4.284   2.096 -0.2428  0.8978 -0.2559
 7778SOL    HW234968   1.065   4.370   2.185  1.4108  0.4522 -0.6275
 7779SOL     OW34969   1.890   4.538   7.417 -0.4621 -0.2887  0.5729
 7779SOL    HW134970   1.867   4.596   7.489 -0.6840 -0.4264  0.6147
 7779SOL    HW234971   1.985   4.531   7.428 -0.4954 -0.2749  0.8523
 7780SOL     OW34972   2.621   3.422   8.030  0.0575 -0.6202  0.2098
 7780SOL    HW134973   2.621   3.509   8.070 -0.2312 -0.3795 -0.3171
 7780SOL    HW234974   2.666   3.368   8.094  1.3134  0.2418  0.0550
 7781SOL     OW34975   1.999   2.975   3.665  0.7438 -0.0314  0.2103
 7781SOL    HW134976   2.013   2.991   3.571 -2.9828  0.5658 -0.2483
 7781SOL    HW234977   1.905   2.956   3.661  0.7362  0.1483 -0.4396
 7782SOL     OW34978   0.680   4.193  11.910 -0.3881 -0.1746 -0.2060
 7782SOL    HW134979   0.744   4.160  11.847  1.0945  0.8289  0.7627
 7782SOL    HW234980   0.610   4.130  11.892  0.3882 -0.6738 -1.4669
 7783SOL     OW34981   3.382   0.017   5.377 -0.0407  0.1107  0.0649
 7783SOL    HW134982   3.412   0.069   5.302  0.0687 -0.5666 -0.3615
 7783SOL    HW234983   3.412   4.665   5.354  1.5528  0.3754  1.1520
 7784SOL     OW34984   1.918   1.394   8.194  0.4381  0.0946 -0.1268
 7784SOL    HW134985   1.980   1.403   8.266 -1.6169  2.1124  1.4067
 7784SOL    HW234986   1.905   1.487   8.176  0.0359  0.0056 -0.2890
 7785SOL     OW34987   3.030   0.560   4.012 -0.1606 -0.4588  0.0158
 7785SOL    HW134988   2.950   0.550   3.961 -0.7570 -0.4878  0.9554
 7785SOL    HW234989   3.059   0.642   3.974 -0.1176 -0.1692  0.6780
 7786SOL     OW34990   2.844   1.857   4.481  0.4743  0.0681  0.6151
 7786SOL    HW134991   2.919   1.864   4.422 -1.4510 -1.1281 -1.9563
 7786SOL    HW234992   2.795   1.930   4.443  0.1035 -1.1003 -1.1459
 7787SOL     OW34993   1.373   4.386   8.886 -0.5899 -0.0750 -0.1588
 7787SOL    HW134994   1.437   4.431   8.941 -1.1967  1.0848 -0.4036
 7787SOL    HW234995   1.430   4.362   8.813 -0.6542 -0.3400 -0.1207
 7788SOL     OW34996   1.309   2.844   3.120  0.0892 -0.4078 -0.1824
 7788SOL    HW134997   1.241   2.791   3.163 -0.3208  1.1408  1.0643
 7788SOL    HW234998   1.336   2.923   3.165 -0.6432 -2.0067  3.0428
 7789SOL     OW34999   3.808   3.883  13.234 -0.5715 -0.6773 -0.0569
 7789SOL    HW135000   3.760   3.936  13.297 -0.6921  0.3880 -1.0387
 7789SOL    HW235001   3.809   3.798  13.278 -2.7476  0.2547  1.7686
 7790SOL     OW35002   1.468   0.654  11.619 -0.1380  0.0051 -0.5670
 7790SOL    HW135003   1.561   0.635  11.607 -0.1169  0.0537 -0.4803
 7790SOL    HW235004   1.453   0.638  11.712 -0.4470 -0.2029 -0.6530
 7791SOL     OW35005   0.503   0.775   4.589 -0.1730  0.1249  0.5901
 7791SOL    HW135006   0.409   0.770   4.572 -0.4112  0.3050  1.9051
 7791SOL    HW235007   0.513   0.866   4.615 -0.4068  0.8473 -1.8152
 7792SOL     OW35008   4.223   4.291   2.621  0.0836 -0.3547  0.3600
 7792SOL    HW135009   4.184   4.215   2.579  1.6210 -1.4154  0.8474
 7792SOL    HW235010   4.173   4.364   2.585  1.0200 -0.6736 -1.5703
 7793SOL     OW35011   3.471   3.134   8.158  0.2312 -0.1661  0.2361
 7793SOL    HW135012   3.390   3.179   8.133  0.0628 -0.2028  0.7145
 7793SOL    HW235013   3.428   3.060   8.201  0.9814  0.4053  1.9718
 7794SOL     OW35014   2.622   3.852  14.320  0.1153 -0.2994 -0.1764
 7794SOL    HW135015   2.689   3.908  14.359 -0.2808 -0.5122  0.8221
 7794SOL    HW235016   2.544   3.905  14.336 -0.4331 -0.7466 -1.3747
 7795SOL     OW35017   1.335   4.720   7.348 -0.6874  0.6565  0.4168
 7795SOL    HW135018   1.406   4.674   7.304 -0.2902  1.0277  0.6672
 7795SOL    HW235019   1.260   4.672   7.313 -1.2029  3.3742 -2.2350
 7796SOL     OW35020   3.269   1.383  11.538 -0.3930  0.5607 -0.1475
 7796SOL    HW135021   3.346   1.439  11.528  1.0883 -1.2250  1.4059
 7796SOL    HW235022   3.201   1.447  11.516 -0.1354  0.7094 -0.5205
 7797SOL     OW35023   2.041   1.728   7.067 -0.4605 -0.1287  0.2133
 7797SOL    HW135024   1.949   1.705   7.070 -0.2752 -1.0456 -0.8882
 7797SOL    HW235025   2.061   1.748   6.975 -0.0776 -1.2203  0.0500
 7798SOL     OW35026   4.140   3.761   7.820 -0.3765 -0.0699 -0.2592
 7798SOL    HW135027   4.112   3.782   7.909  0.4324  0.7850 -0.2009
 7798SOL    HW235028   4.226   3.721   7.831 -0.6951 -0.6316  0.1387
 7799SOL     OW35029   1.738   0.790  16.440  0.2048  0.8104  0.5521
 7799SOL    HW135030   1.729   0.873  16.486  0.1604  1.5638 -0.8060
 7799SOL    HW235031   1.726   0.816  16.349  0.5876 -3.3284 -0.6912
 7800SOL     OW35032   3.736   4.278   5.565  0.5448  0.3555  0.5504
 7800SOL    HW135033   3.759   4.305   5.476  3.0187 -2.2117  0.4104
 7800SOL    HW235034   3.690   4.196   5.549 -1.1902  1.8614 -2.0572
 7801SOL     OW35035   1.526   1.513   8.475 -0.3898  0.2693  0.1971
 7801SOL    HW135036   1.451   1.514   8.415 -0.0043  1.4705 -0.2508
 7801SOL    HW235037   1.571   1.584   8.430 -2.7308  0.9856 -0.9943
 7802SOL     OW35038   3.181   4.486   8.846 -0.5372  0.1720  0.0232
 7802SOL    HW135039   3.158   4.523   8.760 -0.9996  0.7634  0.3980
 7802SOL    HW235040   3.266   4.528   8.856 -0.7169  0.7330 -0.8321
 7803SOL     OW35041   3.255   2.190   6.815  0.1339 -0.4796  0.4394
 7803SOL    HW135042   3.298   2.165   6.898  1.3239  2.1549  0.6261
 7803SOL    HW235043   3.237   2.283   6.822  0.5145 -0.3626 -0.1593
 7804SOL     OW35044   4.165   3.865   2.973 -0.1137 -0.0753 -0.2152
 7804SOL    HW135045   4.080   3.823   2.979 -1.1626  2.4708  2.8335
 7804SOL    HW235046   4.145   3.945   2.925 -2.7019 -0.6625 -0.0807
 7805SOL     OW35047   0.805   0.209   4.468 -0.1072 -0.0909 -0.1111
 7805SOL    HW135048   0.866   0.234   4.399 -0.4471 -1.6275 -0.9774
 7805SOL    HW235049   0.825   0.269   4.539  3.6875 -1.5107  0.0015
 7806SOL     OW35050   4.073   3.938   3.942  0.5498  0.1563  0.3252
 7806SOL    HW135051   4.151   3.991   3.958  1.6907 -0.9946 -1.4165
 7806SOL    HW235052   4.011   3.967   4.008 -0.4971  2.4780 -1.6902
 7807SOL     OW35053   1.819   1.622   6.280  0.8261  0.2288  0.2884
 7807SOL    HW135054   1.783   1.669   6.205 -1.8684 -1.6646  0.3803
 7807SOL    HW235055   1.887   1.571   6.237  1.8982  1.4410  0.5482
 7808SOL     OW35056   3.526   3.852   5.816 -0.3830  0.4110  0.8048
 7808SOL    HW135057   3.610   3.861   5.770 -1.3364  1.9214 -0.6108
 7808SOL    HW235058   3.517   3.761   5.789  0.1888 -0.0230  2.0517
 7809SOL     OW35059   0.554   4.692   2.839  0.6885 -0.1218  0.0028
 7809SOL    HW135060   0.520   0.043   2.862 -0.7838 -0.6206 -0.3092
 7809SOL    HW235061   0.475   4.642   2.857  1.7490 -1.1142  1.8804
 7810SOL     OW35062   0.621   3.562   9.578 -0.4192  0.2367 -0.0027
 7810SOL    HW135063   0.705   3.573   9.623 -0.6937 -1.5841  0.9549
 7810SOL    HW235064   0.597   3.474   9.609  2.2990 -0.8186 -0.9395
 7811SOL     OW35065   2.120   0.860   5.447 -0.0198  0.0500  0.1024
 7811SOL    HW135066   2.154   0.928   5.506 -0.7405  0.1610  0.3993
 7811SOL    HW235067   2.157   0.795   5.506  2.9733  1.0240 -0.7468
 7812SOL     OW35068   0.414   0.743  12.521 -0.8218  0.2577  0.3750
 7812SOL    HW135069   0.341   0.785  12.475 -0.6442  0.9111  0.6926
 7812SOL    HW235070   0.428   0.665  12.467  3.4581  2.1838 -1.3036
 7813SOL     OW35071   0.859   2.397   2.448  0.5281 -0.0893 -0.1026
 7813SOL    HW135072   0.805   2.366   2.521  0.2561 -2.7975 -1.4787
 7813SOL    HW235073   0.887   2.488   2.461  0.3863  0.2378 -2.1261
 7814SOL     OW35074   3.637   1.004   8.424  0.6378 -0.3047  0.1521
 7814SOL    HW135075   3.711   0.989   8.482 -0.3625 -2.2183  0.9725
 7814SOL    HW235076   3.647   0.931   8.363  1.3553  0.1632 -0.2813
 7815SOL     OW35077   3.151   1.108   3.928  0.2397 -0.0799 -0.6123
 7815SOL    HW135078   3.139   1.190   3.881  0.2613 -1.5183 -3.1066
 7815SOL    HW235079   3.225   1.077   3.877  0.6483 -2.7180  1.5533
 7816SOL     OW35080   0.499   3.704  12.266  0.4356  0.7294  0.1620
 7816SOL    HW135081   0.461   3.699  12.179  1.0989  2.6369 -0.2387
 7816SOL    HW235082   0.502   3.608  12.275 -0.7038  0.4883 -2.0018
 7817SOL     OW35083   0.435   2.770   6.358  0.2286  0.5170 -0.2102
 7817SOL    HW135084   0.416   2.862   6.376  1.5599  0.8562 -0.5280
 7817SOL    HW235085   0.505   2.779   6.293  0.7409 -0.5701  0.1831
 7818SOL     OW35086   1.941   2.925   5.797  0.0101 -0.0315 -0.2352
 7818SOL    HW135087   2.017   2.917   5.854 -1.6755  0.8504  2.1291
 7818SOL    HW235088   1.977   2.965   5.718 -0.0200  0.5086  0.0240
 7819SOL     OW35089   0.015   4.290   8.132 -0.2109 -0.2842 -0.0699
 7819SOL    HW135090   4.707   4.344   8.067  0.8017 -0.7684 -1.1527
 7819SOL    HW235091   4.674   4.258   8.180  0.7773 -0.7824  1.2064
 7820SOL     OW35092   3.348   1.212   3.735  0.1336 -0.1907  0.4094
 7820SOL    HW135093   3.382   1.227   3.647 -0.4951  1.9913  0.5256
 7820SOL    HW235094   3.285   1.284   3.740  0.8330  0.4683 -0.1988
 7821SOL     OW35095   0.073   3.811  17.649  0.3604 -0.4655 -0.3509
 7821SOL    HW135096   0.138   3.763  17.596  0.7527 -0.4377  0.1038
 7821SOL    HW235097   0.062   3.885  17.589  0.8449 -1.2048 -1.3537
 7822SOL     OW35098   4.085   0.406   1.128  0.5495 -0.3185 -0.3664
 7822SOL    HW135099   4.152   0.418   1.195 -0.0431 -2.2410  0.5732
 7822SOL    HW235100   4.023   0.361   1.185  0.4293 -0.1183 -0.3413
 7823SOL     OW35101   3.534   3.317   5.803 -0.1353  0.3334 -0.2549
 7823SOL    HW135102   3.604   3.293   5.742 -1.0653 -0.3187 -1.0625
 7823SOL    HW235103   3.533   3.238   5.857 -2.3945  0.3470 -0.2865
 7824SOL     OW35104   2.711   1.211  10.065 -0.0332  0.0473  0.1867
 7824SOL    HW135105   2.774   1.280  10.044 -0.2567  0.5236  1.0417
 7824SOL    HW235106   2.648   1.240  10.000 -0.0850 -2.4622 -0.8613
 7825SOL     OW35107   1.242   1.752   5.943  0.4075  0.1865  0.5264
 7825SOL    HW135108   1.197   1.669   5.953  0.8650 -0.1049  0.1749
 7825SOL    HW235109   1.327   1.719   5.915  1.3467  0.0269  3.5466
 7826SOL     OW35110   1.710   3.731   2.838 -0.2487  0.2009 -0.4774
 7826SOL    HW135111   1.623   3.704   2.869 -1.2658  1.3709 -2.3319
 7826SOL    HW235112   1.754   3.746   2.922 -0.9667 -0.9090  0.1025
 7827SOL     OW35113   3.585   2.365   5.138 -0.2490 -0.0374  0.1738
 7827SOL    HW135114   3.587   2.431   5.069 -1.6073  0.3057  0.4700
 7827SOL    HW235115   3.550   2.416   5.211  1.9676  0.6202  0.7811
 7828SOL     OW35116   3.128   0.955   6.066 -0.1761  0.6427 -1.0626
 7828SOL    HW135117   3.139   0.913   5.981  2.6160 -0.8899  0.0436
 7828SOL    HW235118   3.208   0.939   6.117 -1.4400  2.4116  1.4562
 7829SOL     OW35119   2.449   0.976   1.583 -0.1955  0.9760  0.1903
 7829SOL    HW135120   2.477   0.898   1.630 -1.6355 -1.0469 -2.2414
 7829SOL    HW235121   2.513   0.975   1.512 -0.2964 -1.3329  0.1388
 7830SOL     OW35122   2.748   3.492   4.694  0.2849  0.2278  0.0203
 7830SOL    HW135123   2.773   3.413   4.648 -2.0067  0.0434 -0.9347
 7830SOL    HW235124   2.724   3.543   4.617 -0.1726  1.5401  1.0106
 7831SOL     OW35125   3.795   1.572   3.207  0.2468 -0.2850 -0.7300
 7831SOL    HW135126   3.884   1.597   3.231  0.4030 -0.8873 -0.6829
 7831SOL    HW235127   3.743   1.633   3.260  0.0575 -1.0756  0.0057
 7832SOL     OW35128   0.815   0.121   1.316 -0.0039  0.2602  0.4503
 7832SOL    HW135129   0.896   0.115   1.367  1.7055  0.3507 -2.2298
 7832SOL    HW235130   0.815   0.033   1.278 -2.4079  1.1212 -1.5306
 7833SOL     OW35131   4.598   2.665   6.716 -0.2507  0.1422  0.4157
 7833SOL    HW135132   4.545   2.716   6.777  0.5419  0.7051  0.6351
 7833SOL    HW235133   4.526   2.623   6.669  1.9889 -1.0545 -1.9219
 7834SOL     OW35134   4.111   2.387   1.414  0.4835 -0.4939 -0.1828
 7834SOL    HW135135   4.192   2.368   1.366 -0.9012  0.4159 -2.8136
 7834SOL    HW235136   4.123   2.339   1.497  3.9482 -1.5476 -1.2663
 7835SOL     OW35137   0.103   3.418   4.046 -0.3978 -0.1289  0.4432
 7835SOL    HW135138   0.146   3.338   4.017 -1.0302  0.3219 -1.7325
 7835SOL    HW235139   0.022   3.401   3.999  0.5960 -0.7921 -1.0420
 7836SOL     OW35140   0.276   3.082  12.891  0.2884  0.2116 -0.2776
 7836SOL    HW135141   0.318   3.097  12.806  1.6474  0.0531  0.3762
 7836SOL    HW235142   0.358   3.052  12.931  1.7748  2.7876 -1.4192
 7837SOL     OW35143   1.548   3.680   4.302  0.1241 -0.6376  0.5257
 7837SOL    HW135144   1.637   3.655   4.324 -0.0136 -1.0201  0.6527
 7837SOL    HW235145   1.548   3.750   4.367 -1.8348 -1.0958  1.0225
 7838SOL     OW35146   4.116   3.039   6.023 -0.0976 -0.1445 -0.1655
 7838SOL    HW135147   4.068   3.022   5.942  0.2063 -1.9646  0.0274
 7838SOL    HW235148   4.204   3.052   5.987  0.1110  0.0737  0.4094
 7839SOL     OW35149   4.053   4.341   4.879  0.1701  0.6699  0.0262
 7839SOL    HW135150   4.134   4.387   4.902 -0.5046  1.3833  0.9826
 7839SOL    HW235151   3.998   4.418   4.860  2.8197  2.3789 -0.6659
 7840SOL     OW35152   4.507   0.924   9.351  0.0577  0.1433  0.1427
 7840SOL    HW135153   4.577   0.863   9.326 -1.4105 -1.4735  0.0200
 7840SOL    HW235154   4.475   0.963   9.270 -0.6648  2.6202  1.6050
 7841SOL     OW35155   3.146   3.923   9.474 -0.1967  0.2673 -0.1599
 7841SOL    HW135156   3.052   3.922   9.490  0.1851  2.3600  2.2149
 7841SOL    HW235157   3.158   3.843   9.423 -2.9130 -1.4592  1.8815
 7842SOL     OW35158   4.184   2.354   6.071  0.1310 -0.4366 -0.2756
 7842SOL    HW135159   4.141   2.377   6.153  0.6831  1.2633 -0.4577
 7842SOL    HW235160   4.241   2.287   6.109  0.3459 -0.4754 -0.6575
 7843SOL     OW35161   1.114   2.861   7.441 -0.2749  0.7573  0.5695
 7843SOL    HW135162   1.038   2.822   7.398 -0.4657  0.5947  1.0472
 7843SOL    HW235163   1.084   2.938   7.490 -3.2326 -0.4992  0.7162
 7844SOL     OW35164   0.587   2.375  10.713 -0.7135 -0.6216  0.5097
 7844SOL    HW135165   0.647   2.423  10.657 -0.9859 -0.9306 -0.0541
 7844SOL    HW235166   0.627   2.383  10.799 -1.3520  1.7934  0.5876
 7845SOL     OW35167   1.522   3.474   6.961 -0.0288 -0.1800 -0.1767
 7845SOL    HW135168   1.512   3.438   6.873  2.8753 -1.1622 -0.1267
 7845SOL    HW235169   1.445   3.528   6.975 -0.1081 -0.2745 -0.2432
 7846SOL     OW35170   0.343   2.243   5.481  0.4121  0.1632  0.7768
 7846SOL    HW135171   0.269   2.298   5.453 -0.0430 -1.1423 -0.6079
 7846SOL    HW235172   0.380   2.290   5.556  2.4674 -0.0828 -0.0963
 7847SOL     OW35173   3.863   1.301   5.654 -0.7596  0.0009  0.4911
 7847SOL    HW135174   3.929   1.257   5.709  0.3231 -2.6707 -2.9518
 7847SOL    HW235175   3.926   1.349   5.600 -2.1461  1.2784  0.0402
 7848SOL     OW35176   4.726   2.174   4.487  0.7260  0.3905  0.0259
 7848SOL    HW135177   4.689   2.262   4.494 -1.0525 -0.3663  0.1608
 7848SOL    HW235178   4.676   2.132   4.556  0.8570 -0.6208 -0.5026
 7849SOL     OW35179   1.035   4.554   9.878 -0.0250 -0.0591 -0.3678
 7849SOL    HW135180   1.121   4.579   9.842 -0.2480  1.1591 -0.0317
 7849SOL    HW235181   1.059   4.503   9.956  1.6054  2.1640  0.5774
 7850SOL     OW35182   3.921   0.608   8.484 -0.1292  0.2471 -0.8646
 7850SOL    HW135183   3.905   0.524   8.442 -0.9525  0.0221 -0.1048
 7850SOL    HW235184   3.996   0.602   8.543  0.4633  0.5821 -1.5861
 7851SOL     OW35185   4.676   2.544   8.661 -0.0648  0.1322 -0.4253
 7851SOL    HW135186   4.636   2.462   8.691  1.9212 -0.0061  1.8137
 7851SOL    HW235187   4.687   2.583   8.747  0.0136 -0.4067 -0.1903
 7852SOL     OW35188   1.840   3.130   6.063  0.2784 -0.0597  0.2352
 7852SOL    HW135189   1.864   3.165   5.977  0.0798 -0.8026 -0.1202
 7852SOL    HW235190   1.780   3.199   6.091 -0.4151 -0.7093  0.3415
 7853SOL     OW35191   0.286   1.633   7.787 -0.4298 -0.5713 -0.3003
 7853SOL    HW135192   0.252   1.618   7.699  2.0911 -1.1420 -1.1660
 7853SOL    HW235193   0.293   1.543   7.820 -0.5893  0.0198  1.3604
 7854SOL     OW35194   2.415   3.637   7.840  0.0190  0.2822  0.2821
 7854SOL    HW135195   2.328   3.653   7.805  0.2400  0.5849 -0.1261
 7854SOL    HW235196   2.393   3.641   7.933  1.0498  1.5394  0.4658
 7855SOL     OW35197   3.671   4.031   7.340  0.5053  0.0118 -0.3491
 7855SOL    HW135198   3.731   4.105   7.346 -0.2360  0.5774  0.0635
 7855SOL    HW235199   3.641   4.032   7.249  1.5411 -0.4238 -0.6982
 7856SOL     OW35200   2.759   1.919   6.484  0.0392 -0.5701  0.0823
 7856SOL    HW135201   2.750   2.002   6.436 -2.0861 -0.9558 -0.2216
 7856SOL    HW235202   2.725   1.860   6.417  2.5242 -0.6603 -1.0604
 7857SOL     OW35203   2.810   4.608   8.723 -0.1715 -0.6059  0.2010
 7857SOL    HW135204   2.735   4.553   8.701 -0.7858 -1.0475  3.4538
 7857SOL    HW235205   2.788   4.638   8.811 -0.0750  0.6159 -0.1839
 7858SOL     OW35206   4.525   3.575  16.021 -0.2687 -0.7471  0.0043
 7858SOL    HW135207   4.551   3.483  16.024  0.6310 -0.4408  1.9088
 7858SOL    HW235208   4.557   3.599  16.108 -0.8859  1.9684 -0.5446
 7859SOL     OW35209   4.515   1.487   7.389  0.5971  0.6261 -0.1578
 7859SOL    HW135210   4.504   1.579   7.413 -1.7153  0.2126  0.4309
 7859SOL    HW235211   4.505   1.451   7.477  0.5496  0.0547 -0.3978
 7860SOL     OW35212   0.041   3.974   4.254  0.2171 -0.3827  0.6975
 7860SOL    HW135213   0.050   4.065   4.283  0.7205 -0.1603 -0.1947
 7860SOL    HW235214   0.059   3.985   4.161 -0.1968 -1.1625  0.5324
 7861SOL     OW35215   1.416   3.726   8.222 -0.6612  0.1923  0.7344
 7861SOL    HW135216   1.461   3.672   8.287 -1.1044 -1.1410 -0.0606
 7861SOL    HW235217   1.399   3.663   8.152  1.2533 -0.6685  1.0125
 7862SOL     OW35218   4.641   4.148   6.350 -0.1402  0.4445  0.2800
 7862SOL    HW135219   0.001   4.137   6.349 -0.2464 -0.3681 -0.7793
 7862SOL    HW235220   4.609   4.070   6.304 -1.6694  1.9527 -1.1950
 7863SOL     OW35221   3.471   3.655   6.447  0.5820 -0.1578 -0.0576
 7863SOL    HW135222   3.489   3.686   6.536 -1.5352 -2.1965  1.0981
 7863SOL    HW235223   3.420   3.728   6.413 -2.5708 -1.9508  0.8257
 7864SOL     OW35224   3.681   2.359   3.419 -0.1625 -0.1487  0.7463
 7864SOL    HW135225   3.663   2.265   3.418 -2.5207  0.3162 -0.7070
 7864SOL    HW235226   3.754   2.359   3.480 -0.1569 -1.4247  0.7396
 7865SOL     OW35227   3.481   0.933   4.288 -0.5569 -0.2212  0.3883
 7865SOL    HW135228   3.503   0.972   4.372  0.4435 -0.0432  0.0386
 7865SOL    HW235229   3.435   1.003   4.242  1.3123 -0.4423 -1.7923
 7866SOL     OW35230   3.904   0.709   1.963 -0.4839  0.2440 -0.4365
 7866SOL    HW135231   3.865   0.622   1.973 -0.8184  0.3599 -0.7351
 7866SOL    HW235232   3.849   0.757   2.025 -1.5211 -2.1801  0.5122
 7867SOL     OW35233   0.085   0.324   9.934  0.5588 -0.6033 -0.4935
 7867SOL    HW135234   0.043   0.311   9.849 -3.0074  0.0092  1.1390
 7867SOL    HW235235   0.119   0.411   9.913 -0.0056 -0.5430 -1.1594
 7868SOL     OW35236   3.437   1.619  15.452  0.1966 -0.5901  0.0925
 7868SOL    HW135237   3.442   1.524  15.457 -0.2236 -0.6227 -0.1265
 7868SOL    HW235238   3.494   1.641  15.378  0.7709 -0.8282  0.4608
 7869SOL     OW35239   0.291   2.377   2.335 -0.0623  0.3412 -0.0115
 7869SOL    HW135240   0.346   2.313   2.380 -0.9137 -0.4260 -0.0759
 7869SOL    HW235241   0.356   2.433   2.293  1.3848  0.0885  1.9031
 7870SOL     OW35242   1.145   0.510   4.307 -0.6204 -0.0612 -0.1678
 7870SOL    HW135243   1.129   0.603   4.324  3.2331  0.5548  0.0924
 7870SOL    HW235244   1.052   0.488   4.305 -0.6346 -0.2286  2.1401
 7871SOL     OW35245   0.219   4.162   9.685 -0.3595 -0.4149  0.5924
 7871SOL    HW135246   0.214   4.179   9.779 -3.0370  0.8806  0.2197
 7871SOL    HW235247   0.129   4.184   9.661 -0.3976 -0.8021  0.3810
 7872SOL     OW35248   2.497   2.420   8.358 -0.6903 -0.1493  0.1563
 7872SOL    HW135249   2.545   2.391   8.436 -2.1869 -2.2291  0.2960
 7872SOL    HW235250   2.548   2.501   8.347  0.0003 -0.2890  2.2572
 7873SOL     OW35251   3.003   4.052   5.432 -0.0152 -0.3382  0.6830
 7873SOL    HW135252   2.956   4.073   5.513  2.0950  1.1201  1.5175
 7873SOL    HW235253   3.054   4.133   5.434  0.0893 -0.3844 -0.1690
 7874SOL     OW35254   4.528   0.509  13.256 -0.3597 -0.2880 -0.4374
 7874SOL    HW135255   4.550   0.426  13.298 -1.7057 -1.4154 -1.9745
 7874SOL    HW235256   4.572   0.569  13.316  0.5184  0.6310 -2.0473
 7875SOL     OW35257   1.651   1.940   2.433 -0.2022 -0.3265  0.0662
 7875SOL    HW135258   1.658   1.847   2.450  2.4633  0.1398  1.4537
 7875SOL    HW235259   1.721   1.969   2.492 -2.4407  2.4771  1.3408
 7876SOL     OW35260   1.188   0.422   2.776  0.6670 -0.4670  0.2351
 7876SOL    HW135261   1.130   0.462   2.710  0.4561  0.0809  0.7554
 7876SOL    HW235262   1.121   0.379   2.829  1.8821 -0.5547  1.6945
 7877SOL     OW35263   2.346   4.548   9.750 -0.1617 -0.2476 -0.2424
 7877SOL    HW135264   2.289   4.472   9.755  1.6597 -1.5120  1.5437
 7877SOL    HW235265   2.387   4.542   9.836 -2.0606  2.2208  0.8319
 7878SOL     OW35266   0.400   2.657   4.903  0.1272 -0.1163  0.1838
 7878SOL    HW135267   0.382   2.643   4.996  2.7348  0.5912  0.7965
 7878SOL    HW235268   0.491   2.688   4.900 -0.6085  1.9923 -0.3979
 7879SOL     OW35269   4.442   3.702   5.014 -0.9568 -0.0943 -0.0137
 7879SOL    HW135270   4.508   3.768   4.992  0.8474 -2.8746 -2.9658
 7879SOL    HW235271   4.501   3.628   5.024 -2.8412 -1.5288  0.5121
 7880SOL     OW35272   0.468   3.770   7.989 -0.1763 -0.4076  0.1664
 7880SOL    HW135273   0.476   3.765   8.084 -0.9494 -2.0608  0.1418
 7880SOL    HW235274   0.553   3.735   7.961  0.3976  0.7482  0.4902
 7881SOL     OW35275   1.987   1.895  14.048  0.4578 -0.4288  0.3053
 7881SOL    HW135276   2.080   1.903  14.072  0.6623 -3.3733  0.5103
 7881SOL    HW235277   1.975   1.959  13.978 -0.1402  1.0225  1.7423
 7882SOL     OW35278   1.257   2.866   6.992  0.2795  0.5910  0.1910
 7882SOL    HW135279   1.233   2.928   7.062 -0.1231  0.9265 -0.2426
 7882SOL    HW235280   1.278   2.791   7.047  1.8697  0.4937 -0.5612
 7883SOL     OW35281   1.742   2.586   7.833 -0.1717 -0.4726 -0.4725
 7883SOL    HW135282   1.762   2.679   7.823 -0.9388 -0.1536  0.8606
 7883SOL    HW235283   1.824   2.546   7.862  0.3193  1.5943  1.0055
 7884SOL     OW35284   4.574   4.131   0.205  0.0477  0.0413  0.2431
 7884SOL    HW135285   4.624   4.209   0.227  0.9964 -0.7460  0.9070
 7884SOL    HW235286   4.641   4.063   0.197  0.1962  0.1806  0.3131
 7885SOL     OW35287   2.560   1.062   3.238 -0.4154 -0.0281 -0.1776
 7885SOL    HW135288   2.492   0.995   3.235 -0.3335 -0.2467  2.7278
 7885SOL    HW235289   2.543   1.082   3.331 -0.6900 -0.9078 -0.0398
 7886SOL     OW35290   4.584   4.069  10.526  0.4357  0.6209  0.0439
 7886SOL    HW135291   4.589   3.983  10.484 -1.6912 -0.0538  1.1934
 7886SOL    HW235292   4.599   4.054  10.619  1.1068  0.8408 -0.0294
 7887SOL     OW35293   3.489   0.156   4.822  0.2506 -0.3876  0.1835
 7887SOL    HW135294   3.413   0.211   4.799 -0.5774 -1.5008  0.2418
 7887SOL    HW235295   3.442   0.077   4.849  1.9989 -1.0635  1.2118
 7888SOL     OW35296   3.928   1.241  17.598  0.1750 -0.6899  0.3260
 7888SOL    HW135297   4.013   1.220  17.636 -0.7071 -2.3772  1.3557
 7888SOL    HW235298   3.936   1.334  17.575  0.0915 -0.8731 -0.4491
 7889SOL     OW35299   0.203   0.880   0.595  0.1637 -0.0628  0.0871
 7889SOL    HW135300   0.232   0.971   0.599 -0.5627  0.2600 -2.0540
 7889SOL    HW235301   0.178   0.863   0.686  0.2628  1.6587  0.4287
 7890SOL     OW35302   1.675   0.599  10.968 -0.2638 -0.2180 -0.5447
 7890SOL    HW135303   1.582   0.593  10.992  0.1625 -1.2236  0.8942
 7890SOL    HW235304   1.686   0.609  10.874 -1.0503 -0.0168 -0.6137
 7891SOL     OW35305   3.087   2.392   1.378 -0.1782  0.3716  0.4901
 7891SOL    HW135306   3.090   2.359   1.467 -0.0315 -0.1329  0.3007
 7891SOL    HW235307   3.170   2.364   1.340  0.4383  1.6739  0.8915
 7892SOL     OW35308   1.209   2.291   9.654  0.0539  0.5899  0.1569
 7892SOL    HW135309   1.180   2.203   9.678  0.0345  0.6395  0.3176
 7892SOL    HW235310   1.133   2.339   9.685  1.4856  1.3662  2.4619
 7893SOL     OW35311   0.796   3.048   6.986 -0.0806 -0.1549  0.0668
 7893SOL    HW135312   0.772   3.006   7.069  0.5351  0.4272  0.5405
 7893SOL    HW235313   0.877   3.004   6.958 -0.6914 -1.4713  0.3620
 7894SOL     OW35314   1.649   0.716   8.173 -0.1909 -0.3358  0.1156
 7894SOL    HW135315   1.554   0.720   8.177 -0.3734 -1.7055 -2.5663
 7894SOL    HW235316   1.680   0.714   8.263 -1.8837  0.0613  0.7056
 7895SOL     OW35317   4.082   1.159   3.791 -0.0639  0.4122  0.1875
 7895SOL    HW135318   4.042   1.163   3.704  1.6308 -0.4356 -0.6232
 7895SOL    HW235319   4.005   1.179   3.844  0.0082  1.5756 -0.1493
 7896SOL     OW35320   3.911   2.812   5.893 -0.3916 -0.4491  0.2399
 7896SOL    HW135321   3.866   2.744   5.843 -0.8882 -1.3447  1.9202
 7896SOL    HW235322   3.921   2.882   5.828  0.0773  2.3052  3.3016
 7897SOL     OW35323   2.178   0.748   6.124  0.5540  0.3067  0.1003
 7897SOL    HW135324   2.265   0.767   6.090  0.8061  1.1763  1.2222
 7897SOL    HW235325   2.189   0.690   6.199  0.4914 -0.1146 -0.2155
 7898SOL     OW35326   1.448   1.676  10.250 -0.3894 -0.0790  0.2000
 7898SOL    HW135327   1.437   1.680  10.156  1.1680  1.9666  0.1050
 7898SOL    HW235328   1.531   1.724  10.256  0.0175 -0.7163 -0.2911
 7899SOL     OW35329   3.602   3.258   5.007  0.2997  0.8511  0.1712
 7899SOL    HW135330   3.579   3.280   4.917  0.5142  0.9811  0.1493
 7899SOL    HW235331   3.697   3.245   5.002  0.0163  0.0454 -3.4873
 7900SOL     OW35332   2.798   1.765  13.963  0.6058 -0.6043 -0.7365
 7900SOL    HW135333   2.786   1.724  14.048  1.7934  0.2597 -0.1461
 7900SOL    HW235334   2.727   1.720  13.917  0.2988 -2.9806  2.0649
 7901SOL     OW35335   2.407   2.945   2.829  0.0307 -0.1980  0.3332
 7901SOL    HW135336   2.321   2.975   2.802  0.6613 -0.4485 -2.0097
 7901SOL    HW235337   2.434   2.877   2.767  2.8128  2.2141 -1.1523
 7902SOL     OW35338   2.898   3.254   3.751  0.0375 -0.1040  0.5396
 7902SOL    HW135339   2.930   3.332   3.796  0.8775  0.2586 -0.7194
 7902SOL    HW235340   2.972   3.194   3.744  0.3082  0.2250  0.6170
 7903SOL     OW35341   0.513   4.333   1.816  0.5342  0.0400 -0.5937
 7903SOL    HW135342   0.589   4.379   1.850  0.3425  0.3661 -0.6061
 7903SOL    HW235343   0.463   4.402   1.773  0.0942 -0.3166 -0.6646
 7904SOL     OW35344   3.808   1.119  10.514  0.0097  0.1386 -0.0776
 7904SOL    HW135345   3.800   1.211  10.491 -3.4278  0.0101  0.6299
 7904SOL    HW235346   3.793   1.063  10.438  1.5393  1.2404 -1.1754
 7905SOL     OW35347   3.511   0.223   6.527  0.0760 -0.3507 -0.1336
 7905SOL    HW135348   3.540   0.309   6.560  0.9299 -1.2143  1.3649
 7905SOL    HW235349   3.441   0.252   6.469 -1.3443  0.7634  2.1107
 7906SOL     OW35350   1.178   2.081  11.798 -0.0648 -0.1885 -0.0225
 7906SOL    HW135351   1.088   2.065  11.827  0.1294 -0.3046  0.5289
 7906SOL    HW235352   1.206   2.149  11.859  1.0281  0.1071 -0.8733
 7907SOL     OW35353   1.702   4.445   2.515  0.2880  0.4519  0.3335
 7907SOL    HW135354   1.739   4.357   2.525  0.5408  0.4341 -0.7314
 7907SOL    HW235355   1.647   4.432   2.592 -1.3276 -0.0969 -0.9122
 7908SOL     OW35356   3.999   3.664   0.874  0.5490 -0.2975  0.2355
 7908SOL    HW135357   4.050   3.702   0.945 -0.9742 -0.2823  1.3324
 7908SOL    HW235358   4.049   3.700   0.801 -0.7952 -1.9827 -1.5195
 7909SOL     OW35359   2.591   0.160   9.311 -0.0590 -0.0122 -0.3874
 7909SOL    HW135360   2.665   0.109   9.278  0.3832 -0.6221  1.5469
 7909SOL    HW235361   2.623   0.212   9.384  0.0673 -0.4231 -0.1549
 7910SOL     OW35362   4.303   1.240   0.821  0.7844 -0.2529  0.5846
 7910SOL    HW135363   4.253   1.322   0.815 -0.0736 -0.8936 -0.9602
 7910SOL    HW235364   4.276   1.200   0.904  0.1064 -0.8159  0.0879
 7911SOL     OW35365   4.697   4.279   9.242 -0.2992  1.1087 -0.0065
 7911SOL    HW135366   4.697   4.263   9.336  0.0424 -1.5231 -0.4712
 7911SOL    HW235367   4.646   4.209   9.202  1.8731 -0.1382 -0.5659
 7912SOL     OW35368   2.764   2.111  17.223  0.2915 -0.1486  0.3467
 7912SOL    HW135369   2.698   2.137  17.287 -0.9346 -0.2934 -0.8464
 7912SOL    HW235370   2.699   2.069  17.166  1.5046 -0.2223 -0.9676
 7913SOL     OW35371   2.546   0.128  10.120 -0.3189 -0.0847  0.2276
 7913SOL    HW135372   2.467   0.081  10.144 -1.0544  0.3265 -1.3619
 7913SOL    HW235373   2.566   0.163  10.207 -0.0421 -0.8390  0.4707
 7914SOL     OW35374   1.567   1.328  15.744  0.0697  0.0664 -0.0384
 7914SOL    HW135375   1.603   1.404  15.697  1.8031 -2.0892 -2.2070
 7914SOL    HW235376   1.624   1.340  15.820  0.2596 -0.3285 -0.1180
 7915SOL     OW35377   0.292   0.975  11.759 -0.3054  0.3408 -0.3425
 7915SOL    HW135378   0.304   0.956  11.852  0.1338  1.8780 -0.0688
 7915SOL    HW235379   0.330   0.896  11.721  2.7238  2.0022 -0.7802
 7916SOL     OW35380   4.069   0.018   3.609  0.7251  0.4629  0.0481
 7916SOL    HW135381   3.979   4.735   3.583  0.5737  0.7655  0.3458
 7916SOL    HW235382   4.105   0.064   3.533 -1.5344  2.0711 -0.0568
 7917SOL     OW35383   0.081   1.055   7.042  0.3415  0.0553  0.6300
 7917SOL    HW135384   0.098   1.149   7.042 -0.3147  0.1858 -0.6258
 7917SOL    HW235385   0.112   1.045   7.132 -1.6813  0.0763  1.3449
 7918SOL     OW35386   0.831   3.262   8.781 -0.1412  0.4997 -0.4021
 7918SOL    HW135387   0.835   3.239   8.688  2.2912 -0.3260 -0.0817
 7918SOL    HW235388   0.789   3.183   8.815  3.6276 -0.6151  1.6581
 7919SOL     OW35389   1.560   0.547   5.741 -0.5903 -0.2353  0.3492
 7919SOL    HW135390   1.563   0.554   5.646 -1.9828 -1.2111  0.2246
 7919SOL    HW235391   1.502   0.474   5.763 -0.2295  0.0359  2.2725
 7920SOL     OW35392   4.228   4.417   6.049  0.7185 -0.2526  0.4110
 7920SOL    HW135393   4.302   4.468   6.016 -0.2914  1.0514  0.1395
 7920SOL    HW235394   4.269   4.371   6.121 -0.2589 -2.5930 -0.5271
 7921SOL     OW35395   0.716   2.895   8.762 -0.2612  0.0530 -0.2167
 7921SOL    HW135396   0.709   2.876   8.669 -1.0405  3.5503 -0.8842
 7921SOL    HW235397   0.686   2.811   8.798  1.9027 -0.7359 -0.2822
 7922SOL     OW35398   4.682   2.221   2.843 -0.0269  0.0360  0.4470
 7922SOL    HW135399   4.598   2.267   2.837  0.4749  0.9076  0.0584
 7922SOL    HW235400   4.686   2.178   2.928 -0.0243 -1.7085 -0.4408
 7923SOL     OW35401   1.946   0.547   7.293 -0.1865 -0.0101 -0.3391
 7923SOL    HW135402   1.945   0.542   7.388  1.2378 -1.1910 -0.3901
 7923SOL    HW235403   1.940   0.641   7.276  1.6775  0.3234  0.8219
 7924SOL     OW35404   3.694   3.970   5.109 -0.5833  0.1674  0.0648
 7924SOL    HW135405   3.646   4.026   5.171  1.6348  2.7795 -0.5881
 7924SOL    HW235406   3.638   3.970   5.032 -0.6598  3.1094  0.1275
 7925SOL     OW35407   0.937   0.483  17.420 -0.0865 -0.1587 -0.4998
 7925SOL    HW135408   1.008   0.520  17.472 -0.2320  1.0324 -1.1668
 7925SOL    HW235409   0.970   0.509  17.334  1.0319  0.6836  0.1906
 7926SOL     OW35410   4.155   2.511   9.384  0.1790  0.2908  0.1929
 7926SOL    HW135411   4.230   2.551   9.339  0.0712 -0.3891 -0.5928
 7926SOL    HW235412   4.134   2.577   9.449  1.4182 -0.3620  1.2555
 7927SOL     OW35413   0.887   1.676   5.449 -0.3448  0.0305 -0.6132
 7927SOL    HW135414   0.814   1.725   5.409 -0.5577  0.5074  0.3752
 7927SOL    HW235415   0.944   1.667   5.372 -0.6124  1.9891 -1.0223
 7928SOL     OW35416   1.998   1.183   3.247 -0.1612  0.0707  0.2268
 7928SOL    HW135417   1.948   1.248   3.295 -0.6170 -0.2171  0.1468
 7928SOL    HW235418   2.009   1.114   3.313 -0.4676 -2.8477 -2.7593
 7929SOL     OW35419   1.035   2.068   6.491 -0.1666 -0.1001 -0.5129
 7929SOL    HW135420   1.099   2.112   6.549 -1.5412 -1.8821  2.3584
 7929SOL    HW235421   1.071   1.980   6.499  1.7007  0.6877 -0.0349
 7930SOL     OW35422   0.152   3.324   7.290  0.0978  0.2476 -0.2374
 7930SOL    HW135423   0.117   3.267   7.358 -0.0772  1.8540  1.0372
 7930SOL    HW235424   0.164   3.403   7.343 -2.0906  0.3268  0.1448
 7931SOL     OW35425   2.006   0.919   1.710  0.4293 -0.1981 -0.4270
 7931SOL    HW135426   1.954   0.953   1.783  0.3683  1.4390 -1.2290
 7931SOL    HW235427   2.065   0.867   1.764 -0.6730 -0.0833  0.8984
 7932SOL     OW35428   3.806   3.667   2.238 -0.2386  0.4543  0.5116
 7932SOL    HW135429   3.746   3.742   2.239  1.1567  1.5786 -0.4499
 7932SOL    HW235430   3.847   3.686   2.154 -1.1618 -1.4274 -0.3698
 7933SOL     OW35431   0.022   2.692   5.932 -0.3225 -0.0371  0.8043
 7933SOL    HW135432   4.701   2.734   5.867  0.4830 -0.4986 -0.1925
 7933SOL    HW235433   0.017   2.743   6.012  0.3796  0.2179  0.6862
 7934SOL     OW35434   4.460   3.509   7.200 -0.0679  0.2190 -0.0931
 7934SOL    HW135435   4.488   3.569   7.130  0.0888  0.0444 -0.1778
 7934SOL    HW235436   4.505   3.430   7.172 -3.4449 -1.1364 -1.7920
 7935SOL     OW35437   2.452   4.690   7.891 -0.0404  0.2680  0.1515
 7935SOL    HW135438   2.547   4.690   7.881 -0.0461  0.6293  0.1042
 7935SOL    HW235439   2.421   0.041   7.916  0.7981  0.7792 -0.5761
 7936SOL     OW35440   4.190   3.459   2.086 -0.0931  0.5654 -0.1615
 7936SOL    HW135441   4.161   3.534   2.034 -1.0091  0.3861  0.0926
 7936SOL    HW235442   4.213   3.404   2.011  1.0463 -0.8020  1.1782
 7937SOL     OW35443   4.701   2.690  11.962 -0.1814  0.4872 -0.3265
 7937SOL    HW135444   4.659   2.771  11.933  0.2362  0.1239 -1.9328
 7937SOL    HW235445   4.660   2.620  11.911  0.9464 -1.2442  1.1530
 7938SOL     OW35446   1.564   4.380  16.770  0.5123 -0.0247 -0.6764
 7938SOL    HW135447   1.553   4.435  16.848 -1.7586 -1.2283 -0.1566
 7938SOL    HW235448   1.601   4.296  16.797  1.0955  0.0085 -1.3828
 7939SOL     OW35449   3.546   1.224   7.552 -0.4892  0.2942 -0.6511
 7939SOL    HW135450   3.568   1.138   7.517  2.0636  0.6023  0.1942
 7939SOL    HW235451   3.466   1.245   7.504  1.2501  1.7545 -2.9108
 7940SOL     OW35452   0.057   2.503   6.506  0.1014 -0.0902  0.4039
 7940SOL    HW135453   0.048   2.430   6.445  0.4596 -0.1608  0.4376
 7940SOL    HW235454   0.007   2.570   6.459 -0.6580  0.5114  2.0961
 7941SOL     OW35455   4.208   0.189   5.790  0.1928 -0.0034 -0.6352
 7941SOL    HW135456   4.126   0.201   5.742  0.7212 -1.1720 -1.8307
 7941SOL    HW235457   4.179   0.142   5.867 -0.4945  1.0098 -0.2670
 7942SOL     OW35458   1.759   4.170   3.221 -0.0498  0.1131  0.1042
 7942SOL    HW135459   1.664   4.160   3.222 -0.1024  0.3936 -1.5372
 7942SOL    HW235460   1.785   4.121   3.142  0.5325  1.8294 -0.7707
 7943SOL     OW35461   4.432   1.692   6.093 -0.0527  0.8833 -0.3166
 7943SOL    HW135462   4.482   1.610   6.097 -0.0209  0.9560  0.6871
 7943SOL    HW235463   4.498   1.760   6.078  1.2890 -0.3712 -0.2088
 7944SOL     OW35464   3.539   0.004  14.155  0.6279  0.0623 -0.6077
 7944SOL    HW135465   3.536   0.002  14.251  2.0463  3.8110 -0.4691
 7944SOL    HW235466   3.559   4.647  14.140  1.4258  0.1605 -0.1440
 7945SOL     OW35467   4.033   4.016   9.279  0.5724  0.5068 -0.6913
 7945SOL    HW135468   3.988   4.046   9.358 -0.8876  0.1078 -1.3708
 7945SOL    HW235469   4.066   4.098   9.241  0.5540  0.3677 -1.0054
 7946SOL     OW35470   4.391   0.927  12.238  0.1093 -0.1210  0.3931
 7946SOL    HW135471   4.436   0.909  12.155 -0.9791  0.2468 -0.2684
 7946SOL    HW235472   4.455   0.988  12.275  0.9821 -1.9120  1.8355
 7947SOL     OW35473   1.819   1.659   6.737 -0.6309  0.0476 -0.1048
 7947SOL    HW135474   1.775   1.602   6.674  0.9266 -0.6075 -0.6031
 7947SOL    HW235475   1.829   1.606   6.816 -0.3167 -0.7338 -0.6561
 7948SOL     OW35476   0.180   3.428  13.990  0.1324  0.7940 -0.3334
 7948SOL    HW135477   0.119   3.412  13.918 -2.1094  0.2041  1.6815
 7948SOL    HW235478   0.152   3.518  14.006  0.1429  1.0409 -1.7432
 7949SOL     OW35479   4.192   3.505  17.290  0.0538 -0.4814 -0.0126
 7949SOL    HW135480   4.135   3.564  17.241  0.5544 -1.4421 -1.7442
 7949SOL    HW235481   4.182   3.428  17.235 -1.8928  0.6296 -1.2323
 7950SOL     OW35482   0.953   0.442   2.892  0.3663  0.0717 -0.1758
 7950SOL    HW135483   0.924   0.520   2.844  0.5982 -0.0264 -0.4744
 7950SOL    HW235484   0.880   0.382   2.878 -0.2037  0.2929  1.7962
 7951SOL     OW35485   4.112   0.451  14.306 -0.2244  0.4235 -0.0746
 7951SOL    HW135486   4.152   0.415  14.385 -3.5684 -0.7410  1.0941
 7951SOL    HW235487   4.153   0.534  14.281  1.5415 -0.4063  0.1133
 7952SOL     OW35488   0.039   3.571   0.851 -0.4585  0.2923 -0.0644
 7952SOL    HW135489   4.694   3.550   0.897  0.9329  0.0505  2.2846
 7952SOL    HW235490   0.006   3.560   0.762 -1.1253 -1.6678  0.4398
 7953SOL     OW35491   3.333   2.062  11.634  0.2121 -0.1531  0.3994
 7953SOL    HW135492   3.370   2.009  11.564  0.2924  2.9477 -1.9399
 7953SOL    HW235493   3.289   2.122  11.574  2.8748  0.2583 -1.1110
 7954SOL     OW35494   0.052   3.997   1.521  0.0571  0.2716 -0.1273
 7954SOL    HW135495   0.089   3.913   1.493 -1.1424 -1.5546  3.7317
 7954SOL    HW235496   0.124   4.052   1.489  0.9815 -0.9266 -0.1279
 7955SOL     OW35497   0.193   0.584   7.978  0.0347 -0.6388 -0.1488
 7955SOL    HW135498   0.099   0.589   7.998  0.3599 -0.4079  1.2597
 7955SOL    HW235499   0.223   0.524   8.046  1.5286  0.9928  0.6178
 7956SOL     OW35500   3.396   2.631   3.046  0.5767 -0.0213  0.4315
 7956SOL    HW135501   3.455   2.702   3.021  0.0225 -0.2319 -1.4803
 7956SOL    HW235502   3.425   2.561   2.986  1.3871  1.9946 -1.5171
 7957SOL     OW35503   4.667   1.920   1.743  0.0685 -0.0949 -0.7652
 7957SOL    HW135504   0.024   1.908   1.723  0.1921 -1.2828  0.5088
 7957SOL    HW235505   4.670   1.920   1.838  0.0882 -0.6014 -0.7644
 7958SOL     OW35506   3.520   1.080   8.121 -0.8465 -0.0899  0.3519
 7958SOL    HW135507   3.612   1.104   8.131 -1.8408  2.7431  2.6684
 7958SOL    HW235508   3.483   1.166   8.100  1.6059  1.4350  2.2857
 7959SOL     OW35509   0.125   4.311   1.938  0.8282  0.1009  0.3665
 7959SOL    HW135510   0.092   4.295   1.850  1.8211  0.8940 -0.1469
 7959SOL    HW235511   0.161   4.226   1.962 -0.2599 -0.5062 -0.1407
 7960SOL     OW35512   4.422   1.376   8.703  0.0317  0.1390 -0.2073
 7960SOL    HW135513   4.374   1.419   8.774 -2.0042 -0.7845 -1.0343
 7960SOL    HW235514   4.376   1.424   8.634 -0.9804 -0.2193  0.2185
 7961SOL     OW35515   4.556   2.098  16.838  0.7571 -0.2302 -0.4630
 7961SOL    HW135516   4.486   2.051  16.792  2.3623  0.1451 -3.3249
 7961SOL    HW235517   4.600   2.146  16.767 -1.2261  0.9301 -0.9031
 7962SOL     OW35518   2.817   3.120   4.059  0.2115 -0.5342  0.3709
 7962SOL    HW135519   2.790   3.139   3.969 -0.0457 -0.6345  0.4272
 7962SOL    HW235520   2.879   3.054   4.028  0.5603 -0.5895  1.1964
 7963SOL     OW35521   2.256   1.725   1.102  1.0128 -1.0144 -0.2306
 7963SOL    HW135522   2.172   1.701   1.141  0.3342 -0.5767 -1.4400
 7963SOL    HW235523   2.260   1.818   1.123  2.8671 -1.2198  0.2943
 7964SOL     OW35524   0.798   3.578   3.360 -0.6288 -0.0585 -0.1903
 7964SOL    HW135525   0.849   3.527   3.422  0.1605  1.9374  0.8272
 7964SOL    HW235526   0.806   3.528   3.279  1.9074  0.5192 -0.3054
 7965SOL     OW35527   1.978   2.419   4.982  0.0642 -0.2168  0.4863
 7965SOL    HW135528   1.971   2.489   4.918  0.7085 -1.6275 -1.1284
 7965SOL    HW235529   1.887   2.392   4.972 -0.3973  1.6080 -0.3011
 7966SOL     OW35530   1.364   2.327   6.386  0.1991 -0.4085  0.0701
 7966SOL    HW135531   1.320   2.323   6.301  1.4388  0.7102 -0.6452
 7966SOL    HW235532   1.302   2.385   6.430 -1.1384 -1.8444  0.0372
 7967SOL     OW35533   4.494   1.920   9.653 -0.1028 -0.6003  0.6916
 7967SOL    HW135534   4.488   1.936   9.558  0.7031 -0.9858  0.5680
 7967SOL    HW235535   4.457   1.997   9.695 -0.0954  0.2137 -0.7955
 7968SOL     OW35536   2.445   2.751  16.790  0.0841  0.1425 -0.0375
 7968SOL    HW135537   2.404   2.808  16.726 -0.2139 -0.6335 -0.5355
 7968SOL    HW235538   2.523   2.724  16.742  1.4317  0.6430  1.8760
 7969SOL     OW35539   2.350   3.668   4.745 -0.5802  0.1814  0.4152
 7969SOL    HW135540   2.424   3.627   4.790 -2.1564 -2.2312  0.7929
 7969SOL    HW235541   2.390   3.712   4.670  1.5355 -1.4810  0.5609
 7970SOL     OW35542   4.321   0.221   9.808 -0.3487 -0.1235  0.1951
 7970SOL    HW135543   4.397   0.279   9.812  0.6814 -1.6211  2.3619
 7970SOL    HW235544   4.353   0.171   9.733 -1.3894  1.3186 -1.1887
 7971SOL     OW35545   3.780   0.664  11.316  0.9187 -0.3226 -0.4045
 7971SOL    HW135546   3.833   0.743  11.313  1.9075 -1.0299 -1.6920
 7971SOL    HW235547   3.697   0.688  11.357  0.5303  0.7312 -1.8103
 7972SOL     OW35548   4.236   2.127  10.095  0.4921  0.3232  0.6757
 7972SOL    HW135549   4.254   2.162  10.008  3.1873  0.3608  1.2465
 7972SOL    HW235550   4.150   2.164  10.114  0.6124  1.4717 -1.0163
 7973SOL     OW35551   4.100   2.820   2.216  0.2955 -0.0859 -0.1025
 7973SOL    HW135552   4.022   2.829   2.270  0.1124  1.8479 -0.6894
 7973SOL    HW235553   4.121   2.913   2.208 -0.0247 -0.0157 -0.1089
 7974SOL     OW35554   4.253   1.738   9.729  0.1492  0.8327  0.4377
 7974SOL    HW135555   4.185   1.781   9.780 -0.7126  0.2570 -0.2381
 7974SOL    HW235556   4.288   1.817   9.686 -0.1163  0.6513 -0.1143
 7975SOL     OW35557   4.598   4.098   9.071 -0.7426 -0.2474 -0.0614
 7975SOL    HW135558   4.578   4.006   9.086 -2.6471  0.3981  1.2990
 7975SOL    HW235559   4.688   4.097   9.037 -0.9660 -0.8441 -0.6410
 7976SOL     OW35560   4.584   2.666  12.186  0.2719  0.2658 -0.6273
 7976SOL    HW135561   4.622   2.585  12.219 -1.6503  0.3796  1.9011
 7976SOL    HW235562   4.609   2.660  12.094 -0.7062 -1.3289 -0.7787
 7977SOL     OW35563   3.950   3.756   6.536 -0.3292  0.2817 -0.1441
 7977SOL    HW135564   3.864   3.718   6.515  0.4331  0.3171 -3.3100
 7977SOL    HW235565   3.954   3.831   6.477 -0.4212  0.2672 -0.1691
 7978SOL     OW35566   1.030   3.410   8.240  0.3870 -0.2728  0.4792
 7978SOL    HW135567   0.992   3.323   8.244  2.0366 -1.0730 -1.2801
 7978SOL    HW235568   0.967   3.444   8.176  2.1917  1.4786 -0.3854
 7979SOL     OW35569   1.110   2.976   3.721  0.0371  0.1355 -0.4041
 7979SOL    HW135570   1.067   2.972   3.635  1.5207  0.4963 -1.1597
 7979SOL    HW235571   1.172   2.903   3.713 -1.2688 -1.0098 -0.1210
 7980SOL     OW35572   0.822   0.447   8.489  0.5521  0.1199  0.1261
 7980SOL    HW135573   0.872   0.366   8.497 -1.0729 -0.7821  1.1486
 7980SOL    HW235574   0.808   0.478   8.578  1.0422 -0.0964  0.2777
 7981SOL     OW35575   4.140   1.878   9.187 -0.6791 -0.1261 -0.4544
 7981SOL    HW135576   4.178   1.965   9.194  1.1119 -0.8557 -0.9826
 7981SOL    HW235577   4.067   1.889   9.248 -1.4304  0.6308 -1.5070
 7982SOL     OW35578   4.235   2.251   7.257  0.0431  0.1195  0.0405
 7982SOL    HW135579   4.217   2.281   7.346 -0.9780  0.1924 -0.2014
 7982SOL    HW235580   4.331   2.259   7.264  0.2013 -1.4562 -0.3841
 7983SOL     OW35581   0.532   3.598   0.842  0.0996  0.2043  0.2379
 7983SOL    HW135582   0.559   3.527   0.900 -0.4932 -0.3136 -0.1153
 7983SOL    HW235583   0.443   3.579   0.812 -0.1147  1.3480  0.1558
 7984SOL     OW35584   0.247   1.970  15.170 -0.1677  0.4764 -0.3185
 7984SOL    HW135585   0.234   1.925  15.254 -0.6801  0.9648 -0.1336
 7984SOL    HW235586   0.335   2.002  15.188  0.2228 -1.7836  1.7713
 7985SOL     OW35587   4.517   4.200  10.221 -0.2876 -0.2251 -0.5484
 7985SOL    HW135588   4.459   4.228  10.291 -1.2355 -0.5145 -1.2269
 7985SOL    HW235589   4.572   4.278  10.214  0.8545 -0.8744  1.2027
 7986SOL     OW35590   4.062   3.321   3.108  0.0034 -0.5838 -0.1144
 7986SOL    HW135591   4.122   3.287   3.042 -0.7911  2.2512 -2.3076
 7986SOL    HW235592   4.091   3.412   3.105  1.5206 -1.0534  0.4014
 7987SOL     OW35593   3.103   4.452   3.273 -0.4123 -0.1008  0.2437
 7987SOL    HW135594   3.136   4.460   3.363 -0.0172 -1.0644  0.1896
 7987SOL    HW235595   3.011   4.479   3.280 -0.3177  0.3739 -0.3693
 7988SOL     OW35596   3.470   3.656   9.177  0.0871 -0.2468 -0.5919
 7988SOL    HW135597   3.506   3.567   9.179 -0.0159 -0.2756  0.1925
 7988SOL    HW235598   3.519   3.699   9.108  1.3319 -0.0259  0.4300
 7989SOL     OW35599   3.733   0.279   3.238  0.1956 -0.2263  0.2051
 7989SOL    HW135600   3.710   0.186   3.243  1.3120 -0.5910 -1.4454
 7989SOL    HW235601   3.676   0.319   3.304  0.7937  0.1786  0.4757
 7990SOL     OW35602   0.590   1.126  15.374 -0.2940 -0.2494 -0.2528
 7990SOL    HW135603   0.563   1.082  15.294 -0.5947  0.5075 -0.5612
 7990SOL    HW235604   0.665   1.177  15.342  0.6318 -2.0424 -0.9693
 7991SOL     OW35605   2.248   3.714   2.078 -0.2775 -0.4147 -0.2022
 7991SOL    HW135606   2.199   3.694   2.157 -0.5378 -1.1725 -0.5583
 7991SOL    HW235607   2.209   3.641   2.030  1.3339 -1.5879  0.2520
 7992SOL     OW35608   3.496   1.971   9.491 -0.2198  0.4888 -0.3092
 7992SOL    HW135609   3.510   2.065   9.499  1.1323  0.1668  1.0869
 7992SOL    HW235610   3.421   1.969   9.551  0.5199  1.9069  0.6603
 7993SOL     OW35611   0.154   2.700   2.500  0.6680 -0.2781 -0.5334
 7993SOL    HW135612   0.104   2.736   2.573  0.8215 -1.0144 -0.0642
 7993SOL    HW235613   0.207   2.776   2.476 -0.2674  0.8408  1.0226
 7994SOL     OW35614   3.792   3.284   3.624 -0.2551  0.1656  0.4825
 7994SOL    HW135615   3.852   3.241   3.685  0.9998  0.4246 -0.5707
 7994SOL    HW235616   3.829   3.278   3.536 -1.4624  0.3365 -0.0427
 7995SOL     OW35617   4.514   4.634   3.259 -0.1802 -0.2691  0.2474
 7995SOL    HW135618   4.474   4.683   3.187  0.4605 -0.5110 -0.2707
 7995SOL    HW235619   4.514   4.701   3.327 -0.4549 -1.4058  1.3706
 7996SOL     OW35620   1.190   0.062  11.076  0.0403 -0.3176  0.2798
 7996SOL    HW135621   1.122   4.731  11.088  1.1782 -1.7381 -1.3131
 7996SOL    HW235622   1.267   0.007  11.061  0.2952 -0.2946  1.5091
 7997SOL     OW35623   2.502   0.675  11.020  0.1670 -0.0769 -0.2869
 7997SOL    HW135624   2.549   0.691  11.102 -2.0514  0.8180  0.8035
 7997SOL    HW235625   2.440   0.748  11.019  0.7166  0.3606 -2.2926
 7998SOL     OW35626   0.783   3.270   4.827  0.2495  0.5444  0.0625
 7998SOL    HW135627   0.762   3.245   4.917 -1.3173  2.2354  0.1820
 7998SOL    HW235628   0.846   3.341   4.836  1.7833 -1.1460  2.4151
 7999SOL     OW35629   3.068   2.925  16.733  0.7941 -0.4235 -0.1370
 7999SOL    HW135630   3.117   2.987  16.679 -1.2825  0.7650 -0.6456
 7999SOL    HW235631   2.982   2.964  16.718  1.8873  2.6562  1.5313
 8000SOL     OW35632   0.976   0.353   9.442 -0.2052  0.3889  0.3320
 8000SOL    HW135633   0.971   0.260   9.465  3.2556  0.2923  0.6411
 8000SOL    HW235634   0.972   0.345   9.346  1.8678  2.2783  0.0911
 8001SOL     OW35635   3.688   4.398  11.432 -0.6678 -0.1332 -0.0194
 8001SOL    HW135636   3.641   4.481  11.440  1.6900  1.3405 -1.3690
 8001SOL    HW235637   3.614   4.350  11.395  0.2641 -0.9091 -0.8744
 8002SOL     OW35638   0.671   3.720  16.657 -0.4991 -0.3346 -0.3262
 8002SOL    HW135639   0.703   3.803  16.624 -0.5068 -0.7240 -1.3040
 8002SOL    HW235640   0.753   3.690  16.695 -0.0871 -0.5373 -1.3863
 8003SOL     OW35641   1.749   4.712   5.623  0.3627  0.1615  0.3120
 8003SOL    HW135642   1.717   4.624   5.638 -0.2521 -0.1318 -2.7294
 8003SOL    HW235643   1.843   4.697   5.634  0.0163 -1.2201  1.3249
 8004SOL     OW35644   0.777   1.227   8.628  0.7186  0.0763  0.5993
 8004SOL    HW135645   0.810   1.237   8.717 -1.8409  0.6045  1.4949
 8004SOL    HW235646   0.697   1.280   8.626  0.8040  0.1048 -1.7163
 8005SOL     OW35647   4.335   1.711   0.738  0.0659 -0.3235 -0.3221
 8005SOL    HW135648   4.332   1.799   0.777 -2.6215 -0.5818  0.0421
 8005SOL    HW235649   4.317   1.726   0.646 -1.1174  0.3947  0.0221
 8006SOL     OW35650   3.554   0.092   8.343  0.0527  0.5925  0.5281
 8006SOL    HW135651   3.466   0.095   8.380 -0.8565 -2.6113 -1.3952
 8006SOL    HW235652   3.552   0.175   8.295  0.7072  0.4595  0.2729
 8007SOL     OW35653   3.126   1.689  12.180 -0.0789  0.0109  0.4809
 8007SOL    HW135654   3.197   1.660  12.236  0.9292  1.3432 -0.0826
 8007SOL    HW235655   3.122   1.781  12.208 -1.9445 -0.4472  1.6863
 8008SOL     OW35656   3.446   0.402   2.866  0.3994  0.3223  0.0128
 8008SOL    HW135657   3.497   0.444   2.797  1.1340  3.0833  2.2602
 8008SOL    HW235658   3.455   0.309   2.846  0.5377  0.7596 -1.9162
 8009SOL     OW35659   4.105   1.561   8.368 -0.0731 -0.1930  0.2811
 8009SOL    HW135660   4.140   1.585   8.282 -0.6257  0.2624  0.1863
 8009SOL    HW235661   4.089   1.467   8.360  1.8735 -0.5788  0.8275
 8010SOL     OW35662   4.500   3.913  13.544 -1.3303 -0.2221  0.4307
 8010SOL    HW135663   4.486   3.822  13.570  2.4236 -1.1480 -0.7700
 8010SOL    HW235664   4.583   3.912  13.497 -0.2479  2.2292  2.2771
 8011SOL     OW35665   0.012   2.403   6.069 -0.1728 -1.0074  0.1887
 8011SOL    HW135666   0.014   2.495   6.097  0.7478 -1.2298  0.8420
 8011SOL    HW235667   4.662   2.404   6.027 -0.5436  1.7451  1.0172
 8012SOL     OW35668   3.875   3.986  11.571 -0.4556 -0.5067  0.8924
 8012SOL    HW135669   3.882   3.892  11.554  1.1146 -0.0643 -1.0344
 8012SOL    HW235670   3.886   3.985  11.666 -1.3272  0.7776  1.0050
 8013SOL     OW35671   1.461   4.703  11.145 -0.3523 -0.3167  0.0563
 8013SOL    HW135672   1.448   0.044  11.201  1.1698 -0.9311  1.2638
 8013SOL    HW235673   1.514   4.652  11.206 -0.7599 -0.2068  0.5062
 8014SOL     OW35674   1.733   1.173  10.386  0.1103  0.5857  0.1860
 8014SOL    HW135675   1.683   1.235  10.439 -0.2478 -0.9957  1.6728
 8014SOL    HW235676   1.811   1.180  10.440  2.0795  0.9261 -2.6773
 8015SOL     OW35677   1.850   4.573   1.335  0.3797  0.2698 -0.1321
 8015SOL    HW135678   1.800   4.539   1.260  2.1882  0.6612 -1.5164
 8015SOL    HW235679   1.845   4.669   1.327 -0.1697  0.2260 -0.3081
 8016SOL     OW35680   0.803   0.537  13.652  0.5657  0.1977  0.3563
 8016SOL    HW135681   0.857   0.605  13.692 -2.0150  2.3077  0.3160
 8016SOL    HW235682   0.864   0.464  13.655 -0.5283 -0.7266  0.0973
 8017SOL     OW35683   1.600   3.978   7.098 -0.3883  0.1045 -0.3679
 8017SOL    HW135684   1.677   3.925   7.076 -0.3854 -0.4044  0.8759
 8017SOL    HW235685   1.583   4.024   7.016  1.7395  1.1006 -0.2484
 8018SOL     OW35686   3.155   2.787  14.594 -0.0929 -0.3724 -0.6743
 8018SOL    HW135687   3.132   2.746  14.677 -1.6771  1.4966 -0.1925
 8018SOL    HW235688   3.184   2.877  14.610 -0.7724 -0.0556 -1.2406
 8019SOL     OW35689   0.376   0.147   0.123  0.3747  0.0589  0.0732
 8019SOL    HW135690   0.329   0.185   0.197 -0.8669 -1.2297 -0.0595
 8019SOL    HW235691   0.333   0.210   0.065 -0.9701 -0.4971  0.4701
 8020SOL     OW35692   2.057   0.370   7.996  0.3614  0.5079  0.5572
 8020SOL    HW135693   2.014   0.448   8.033  2.5386  1.1043  1.8137
 8020SOL    HW235694   2.147   0.387   8.024  0.4957 -0.6495  0.7890
 8021SOL     OW35695   2.518   1.419   7.655 -0.1688 -0.2086 -0.4124
 8021SOL    HW135696   2.439   1.367   7.667 -0.4140  0.4038  0.6279
 8021SOL    HW235697   2.585   1.355   7.678 -1.2912 -1.2912 -0.1736
 8022SOL     OW35698   0.180   2.152   8.189 -0.4905 -0.2594  0.3089
 8022SOL    HW135699   0.176   2.069   8.238 -2.8483 -0.4630 -0.2276
 8022SOL    HW235700   0.200   2.117   8.103  1.4534  0.0010  0.6726
 8023SOL     OW35701   4.234   4.406   8.308  0.3392 -0.0326 -0.0126
 8023SOL    HW135702   4.238   4.320   8.349 -2.3509 -0.0267  0.2724
 8023SOL    HW235703   4.275   4.388   8.223  1.1408 -0.8401  0.5389
 8024SOL     OW35704   2.840   1.118   2.184  0.5184  0.6252 -0.2247
 8024SOL    HW135705   2.891   1.038   2.177  0.2915  0.3099  1.7495
 8024SOL    HW235706   2.857   1.152   2.272  1.0926  0.0386 -0.1140
 8025SOL     OW35707   2.533   3.296  15.299  0.1708 -0.4992  0.1092
 8025SOL    HW135708   2.514   3.344  15.218  2.1709  0.3250  0.1314
 8025SOL    HW235709   2.448   3.289  15.343 -0.0856  0.5344 -0.2082
 8026SOL     OW35710   3.511   0.433  11.189  0.6239 -0.0885 -0.0621
 8026SOL    HW135711   3.547   0.484  11.116  0.9639 -1.9422 -1.1822
 8026SOL    HW235712   3.503   0.501  11.256  1.5011  0.5076 -0.5580
 8027SOL     OW35713   2.863   4.472  11.563 -0.2056 -0.0259  0.4298
 8027SOL    HW135714   2.872   4.388  11.608 -0.4993  0.9001  2.1931
 8027SOL    HW235715   2.890   4.534  11.630 -2.6953  2.3984 -0.8057
 8028SOL     OW35716   2.112   1.162   2.986 -0.1050  0.0392  0.1353
 8028SOL    HW135717   2.037   1.193   2.935 -0.3066  0.1097  0.4765
 8028SOL    HW235718   2.068   1.170   3.070  1.7521 -0.1346  1.1338
 8029SOL     OW35719   3.955   2.694   7.778 -0.1576 -0.1528 -0.0185
 8029SOL    HW135720   3.962   2.613   7.827  1.0841 -0.4153 -0.6214
 8029SOL    HW235721   4.017   2.668   7.710  1.4097  2.8319  0.2779
 8030SOL     OW35722   0.438   2.955   7.474 -0.2693 -0.4340 -0.3842
 8030SOL    HW135723   0.437   2.868   7.435  0.8677  0.0185 -1.4221
 8030SOL    HW235724   0.369   2.999   7.425 -0.3569 -1.0130 -0.7818
 8031SOL     OW35725   2.240   1.344   3.853 -0.3517  0.3251  0.0836
 8031SOL    HW135726   2.166   1.404   3.861  0.0821  0.8548  0.0999
 8031SOL    HW235727   2.220   1.287   3.927  1.8452 -1.9622 -1.0786
 8032SOL     OW35728   3.133   0.145   7.959 -0.3478  0.0473 -0.1922
 8032SOL    HW135729   3.160   0.095   8.036 -0.1297  3.8673  2.2146
 8032SOL    HW235730   3.125   0.067   7.903 -0.8800 -0.2126  0.2495
 8033SOL     OW35731   0.530   2.403   4.874  0.5611 -0.2359  0.4013
 8033SOL    HW135732   0.463   2.381   4.939  1.2466 -1.7171  0.6000
 8033SOL    HW235733   0.594   2.440   4.935  0.9503  0.1060 -0.2239
 8034SOL     OW35734   2.675   1.735   2.513  0.3997 -0.0946  0.0851
 8034SOL    HW135735   2.636   1.759   2.429  0.8210 -1.4170 -0.4785
 8034SOL    HW235736   2.658   1.813   2.566  1.2781  0.2598 -0.1379
 8035SOL     OW35737   4.327   0.330   1.648  0.7609  0.2464  0.2432
 8035SOL    HW135738   4.249   0.333   1.703  1.8930 -4.0925  2.0723
 8035SOL    HW235739   4.290   0.324   1.560  2.3991 -0.3817 -0.3928
 8036SOL     OW35740   2.019   3.428   4.606  0.4066  0.1317  0.1935
 8036SOL    HW135741   2.005   3.494   4.538  1.7767 -0.3874 -0.5926
 8036SOL    HW235742   1.927   3.404   4.610  0.3016  0.5784  0.4285
 8037SOL     OW35743   3.009   1.562   6.300 -0.3105 -0.1980 -0.1527
 8037SOL    HW135744   3.096   1.600   6.290  0.6324 -2.4139 -0.3492
 8037SOL    HW235745   2.999   1.542   6.393  1.5338 -0.5734 -0.0218
 8038SOL     OW35746   4.147   2.560   4.278  0.7006  0.3671  0.8301
 8038SOL    HW135747   4.169   2.637   4.225 -0.6293  0.7957  0.9168
 8038SOL    HW235748   4.237   2.546   4.307  1.0805  1.4396  0.1824
 8039SOL     OW35749   1.137   4.107   6.709  0.6647  0.0032 -0.1125
 8039SOL    HW135750   1.188   4.106   6.628  2.3998 -3.4758  0.9872
 8039SOL    HW235751   1.064   4.050   6.685  2.6040 -2.2993 -0.5915
 8040SOL     OW35752   0.237   1.152  13.435  0.3097  0.0948 -0.3577
 8040SOL    HW135753   0.242   1.068  13.480  0.3680  0.8487  1.0210
 8040SOL    HW235754   0.329   1.163  13.412  0.2118  1.0936 -0.2397
 8041SOL     OW35755   2.791   3.210   5.456  0.2922 -0.2470  0.0659
 8041SOL    HW135756   2.744   3.174   5.532  0.4396 -0.5525  0.0104
 8041SOL    HW235757   2.778   3.144   5.388 -1.0921 -0.0081  0.0954
 8042SOL     OW35758   4.617   0.810   1.909  0.4076  0.0636  0.3527
 8042SOL    HW135759   4.593   0.896   1.873 -1.5265 -1.2970 -1.6075
 8042SOL    HW235760   4.678   0.775   1.844 -0.0641 -1.9337  0.9740
 8043SOL     OW35761   0.526   4.304   5.775  0.4192 -0.0028  0.4561
 8043SOL    HW135762   0.500   4.289   5.866 -0.4086 -0.2080  0.1804
 8043SOL    HW235763   0.583   4.380   5.790 -0.9351  1.1482 -0.2516
 8044SOL     OW35764   1.327   3.242  12.646 -0.6718 -0.1770  0.2949
 8044SOL    HW135765   1.364   3.247  12.558 -0.7781  0.6390  0.2953
 8044SOL    HW235766   1.269   3.169  12.626 -0.8279  0.3909 -1.3675
 8045SOL     OW35767   1.823   4.193  13.901 -0.1604 -0.5069 -0.4871
 8045SOL    HW135768   1.753   4.139  13.937 -0.0967  1.9476  3.2985
 8045SOL    HW235769   1.899   4.165  13.952  0.2122  0.7280 -0.3683
 8046SOL     OW35770   4.375   1.441   5.735  0.2141 -0.2158 -0.3417
 8046SOL    HW135771   4.299   1.481   5.777  2.1008  2.0345  0.9491
 8046SOL    HW235772   4.376   1.359   5.785  0.5149  0.7947  1.3238
 8047SOL     OW35773   3.358   3.322   7.529  0.1093  0.1084  0.2218
 8047SOL    HW135774   3.359   3.397   7.469  0.3762 -0.6307 -0.6935
 8047SOL    HW235775   3.319   3.251   7.478  0.8333  0.9963 -1.5998
 8048SOL     OW35776   0.321   2.444  10.436 -0.0695  0.5363  0.0640
 8048SOL    HW135777   0.363   2.359  10.428  0.3299  0.8423 -1.2249
 8048SOL    HW235778   0.286   2.466  10.349  0.4458 -1.4486 -0.6500
 8049SOL     OW35779   0.339   3.400   9.468 -0.1433 -0.0008  0.1744
 8049SOL    HW135780   0.345   3.465   9.537  1.2119  0.7599 -0.6511
 8049SOL    HW235781   0.247   3.407   9.441 -0.6079  3.0808  2.5980
 8050SOL     OW35782   4.567   1.064   9.608 -0.7822 -0.0238  0.2907
 8050SOL    HW135783   4.588   1.060   9.515 -1.1483 -1.7065  0.2763
 8050SOL    HW235784   4.575   1.159   9.613  1.4844 -0.2196  0.6699
 8051SOL     OW35785   3.325   2.949   6.313 -0.4905 -0.3832  0.7056
 8051SOL    HW135786   3.268   3.005   6.260  0.3724 -0.2365 -0.0777
 8051SOL    HW235787   3.319   2.861   6.275 -3.2281 -0.1377  0.6017
 8052SOL     OW35788   2.724   0.249   2.118 -0.0130 -0.0388  0.1258
 8052SOL    HW135789   2.761   0.278   2.034  0.1049 -0.5709 -0.0046
 8052SOL    HW235790   2.793   0.207   2.169 -1.0565 -0.5225  1.1395
 8053SOL     OW35791   3.539   0.558  13.156  0.2332 -0.1425 -0.5804
 8053SOL    HW135792   3.510   0.550  13.247 -1.5220  3.8328 -0.8383
 8053SOL    HW235793   3.571   0.648  13.150  1.1354 -0.5117 -1.2860
 8054SOL     OW35794   1.474   4.524   5.926  0.2902 -0.0190  0.4890
 8054SOL    HW135795   1.446   4.552   5.839  0.7461  1.7464  0.9194
 8054SOL    HW235796   1.475   4.428   5.916  0.4986  0.1271 -1.0073
 8055SOL     OW35797   4.450   1.031   5.337  0.3436  0.5907 -0.3262
 8055SOL    HW135798   4.494   0.976   5.272  1.9819 -1.9969  2.9622
 8055SOL    HW235799   4.360   0.999   5.336  0.0029  1.5598 -0.4226
 8056SOL     OW35800   0.679   2.743   3.471 -0.7883  0.3173 -0.1260
 8056SOL    HW135801   0.595   2.771   3.508 -0.4730  0.2687  0.6221
 8056SOL    HW235802   0.728   2.738   3.553 -2.4855 -1.6604  0.7505
 8057SOL     OW35803   4.597   4.121  15.530  0.2891  0.1449 -0.6513
 8057SOL    HW135804   4.681   4.091  15.497  1.2801  1.9959  0.1788
 8057SOL    HW235805   4.531   4.078  15.475 -0.4356  1.7124 -1.0094
 8058SOL     OW35806   2.161   1.811  14.583 -0.0374 -0.4628 -0.0010
 8058SOL    HW135807   2.067   1.791  14.588  0.2604 -1.2318  2.0132
 8058SOL    HW235808   2.159   1.907  14.584  2.3925 -0.4367  1.4245
 8059SOL     OW35809   4.463   1.908   8.695  0.5126 -0.5068 -0.0749
 8059SOL    HW135810   4.383   1.859   8.676 -0.6746 -0.2403  4.2475
 8059SOL    HW235811   4.466   1.973   8.625  1.4708 -0.1651  0.2956
 8060SOL     OW35812   1.089   0.418  10.900  0.3160  0.3573 -0.0265
 8060SOL    HW135813   1.146   0.423  10.977  1.1580 -0.4575 -0.5981
 8060SOL    HW235814   1.118   0.336  10.861 -0.1373  0.3111 -0.2756
 8061SOL     OW35815   4.125   3.919  11.449  0.7020  0.5254 -0.6256
 8061SOL    HW135816   4.142   3.966  11.367 -0.0903  0.1267 -1.0130
 8061SOL    HW235817   4.209   3.935  11.492  0.2516 -2.5759  1.3914
 8062SOL     OW35818   3.423   1.084   4.599  0.0186  0.4052 -0.3834
 8062SOL    HW135819   3.431   1.174   4.631 -1.1814  0.5210 -0.3840
 8062SOL    HW235820   3.400   1.038   4.680 -3.0162  0.5774 -1.1495
 8063SOL     OW35821   0.941   1.067   7.876  0.2144  0.2474 -0.8149
 8063SOL    HW135822   1.032   1.097   7.883  0.4140 -0.5945  0.2458
 8063SOL    HW235823   0.901   1.120   7.945  2.4634  0.7772  0.1029
 8064SOL     OW35824   2.530   3.244   2.718  0.0477  0.1818 -0.2942
 8064SOL    HW135825   2.501   3.231   2.628 -1.8697  1.9267  0.0559
 8064SOL    HW235826   2.453   3.284   2.759 -0.1216 -1.6449  1.1666
 8065SOL     OW35827   3.773   1.624  16.641  0.2224  0.3235 -0.5192
 8065SOL    HW135828   3.768   1.700  16.583  3.6471  0.1069 -1.0901
 8065SOL    HW235829   3.683   1.595  16.628  0.5950 -0.6306 -0.9448
 8066SOL     OW35830   3.062   3.504   3.942  0.8363 -0.1101 -0.2643
 8066SOL    HW135831   2.994   3.517   3.876  0.8462  0.9541 -0.0597
 8066SOL    HW235832   3.018   3.534   4.022  0.9197 -0.7301  0.0175
 8067SOL     OW35833   1.708   3.431   5.424 -0.5595  0.4355  0.3459
 8067SOL    HW135834   1.743   3.516   5.399 -1.1818  0.3686 -0.7554
 8067SOL    HW235835   1.740   3.380   5.350 -3.0872 -0.1130 -0.3754
 8068SOL     OW35836   1.404   3.160   6.561  0.1740  0.2574  0.4276
 8068SOL    HW135837   1.423   3.068   6.579 -0.8052 -0.4559 -2.1930
 8068SOL    HW235838   1.357   3.148   6.479 -0.4286  2.0157  0.5037
 8069SOL     OW35839   2.144   0.868  14.562 -0.2725 -0.1827 -0.1699
 8069SOL    HW135840   2.082   0.806  14.600  0.7256 -0.5599  0.8313
 8069SOL    HW235841   2.102   0.867  14.476 -1.8921  0.7211  0.6132
 8070SOL     OW35842   0.158   0.710   8.343 -0.1592 -0.4218 -0.3999
 8070SOL    HW135843   0.145   0.688   8.435  3.1272 -0.0728  0.1386
 8070SOL    HW235844   0.198   0.631   8.305  0.8151 -0.9907  1.8365
 8071SOL     OW35845   2.546   0.555  15.086  0.6707  0.4095  0.2639
 8071SOL    HW135846   2.630   0.582  15.123  0.7964  0.6678 -0.2030
 8071SOL    HW235847   2.519   0.647  15.085  0.5635  0.3793  1.9246
 8072SOL     OW35848   1.549   0.060   3.952 -0.5287  0.1595 -0.0913
 8072SOL    HW135849   1.563   0.096   3.865  0.3849  0.3074  0.1148
 8072SOL    HW235850   1.564   4.701   3.941  0.8612 -0.0112  3.3430
 8073SOL     OW35851   4.019   3.434   7.356 -0.2739  0.4034  0.1440
 8073SOL    HW135852   3.967   3.399   7.284  0.3042 -0.1754  0.0018
 8073SOL    HW235853   3.961   3.501   7.391 -2.9431 -0.8885 -1.8553
 8074SOL     OW35854   0.023   2.663   4.384 -0.0869 -0.4176 -0.3269
 8074SOL    HW135855   4.728   2.595   4.324  2.2547 -0.5242 -1.3927
 8074SOL    HW235856   0.105   2.622   4.412  0.2182 -1.1252 -2.2822
 8075SOL     OW35857   0.729   3.780   0.915 -0.9597 -0.0330 -0.0731
 8075SOL    HW135858   0.804   3.722   0.922 -1.0634 -0.3773 -1.8902
 8075SOL    HW235859   0.676   3.726   0.856  1.5730 -2.7874  0.1589
 8076SOL     OW35860   4.217   0.131   6.397 -0.3176  0.5069  0.8843
 8076SOL    HW135861   4.147   0.068   6.379  0.0727  0.1571  0.6073
 8076SOL    HW235862   4.247   0.088   6.477  0.0966 -1.9720 -0.6016
 8077SOL     OW35863   2.579   0.789  11.243  0.1954 -0.3022  0.0176
 8077SOL    HW135864   2.594   0.790  11.338  2.9212  1.9829 -0.4488
 8077SOL    HW235865   2.563   0.882  11.226  1.7037 -0.3840 -1.8751
 8078SOL     OW35866   4.589   3.470  11.311 -0.2869  0.0993 -0.1372
 8078SOL    HW135867   4.511   3.420  11.287 -0.9845  0.5159  1.2197
 8078SOL    HW235868   4.570   3.477  11.405 -2.7753  1.0219 -0.6898
 8079SOL     OW35869   3.792   0.398  13.266 -0.5747  0.4075  0.5391
 8079SOL    HW135870   3.823   0.489  13.261 -1.2890  0.5370 -1.5881
 8079SOL    HW235871   3.711   0.402  13.215  0.2194  1.3641 -0.6501
 8080SOL     OW35872   3.796   1.117   2.045  0.0407 -0.0417  0.1129
 8080SOL    HW135873   3.729   1.105   2.113 -0.7037  1.9573 -0.2588
 8080SOL    HW235874   3.763   1.046   1.991  1.5301 -1.4382  1.0591
 8081SOL     OW35875   3.071   3.491   9.162  0.1466 -0.3912 -0.1443
 8081SOL    HW135876   3.006   3.443   9.111  0.2427 -0.7318  0.0514
 8081SOL    HW235877   3.119   3.540   9.096  0.1700  1.7080  1.4380
 8082SOL     OW35878   3.782   4.243   5.877  0.1952 -0.3465  0.2168
 8082SOL    HW135879   3.805   4.150   5.867 -0.4640 -0.5960  1.0089
 8082SOL    HW235880   3.718   4.261   5.809  2.0415 -0.2220 -1.5110
 8083SOL     OW35881   4.516   3.039   3.812 -0.4830  0.7401  0.0731
 8083SOL    HW135882   4.455   3.099   3.770 -0.6140  0.9111  0.5026
 8083SOL    HW235883   4.509   3.065   3.904 -2.3283  1.0539 -0.1570
 8084SOL     OW35884   2.506   3.147   8.196  0.3406 -0.3305 -0.0686
 8084SOL    HW135885   2.584   3.200   8.177  0.8075 -0.9578  0.1146
 8084SOL    HW235886   2.435   3.188   8.146  0.3674 -1.1537 -0.7812
 8085SOL     OW35887   3.348   1.292   9.302 -0.3349  0.3532  0.6976
 8085SOL    HW135888   3.283   1.221   9.311  0.8802 -0.8012  0.3478
 8085SOL    HW235889   3.430   1.243   9.296  0.6440  1.9638  1.2181
 8086SOL     OW35890   2.536   4.082  11.072  0.6764  0.0703 -0.2095
 8086SOL    HW135891   2.501   4.066  11.160  1.0284 -0.7012 -0.2058
 8086SOL    HW235892   2.552   3.992  11.044 -0.2543 -0.5822  1.3697
 8087SOL     OW35893   3.775   0.430   3.024  0.1200 -0.1508 -0.3086
 8087SOL    HW135894   3.772   0.348   2.976  0.6785  0.4839 -1.4193
 8087SOL    HW235895   3.738   0.400   3.107  1.5071 -1.0821 -0.0252
 8088SOL     OW35896   0.347   4.387   3.029  0.0363 -0.1530 -0.1397
 8088SOL    HW135897   0.318   4.366   3.118  0.7688 -1.3282 -0.1703
 8088SOL    HW235898   0.437   4.354   3.026  0.4258  0.8570  0.3282
 8089SOL     OW35899   0.995   3.226   0.012  0.6632 -0.0648  0.1906
 8089SOL    HW135900   1.016   3.258  17.665  1.1711 -2.3500 -0.5300
 8089SOL    HW235901   1.015   3.301   0.067 -0.6883  0.5868 -0.2280
 8090SOL     OW35902   4.544   0.408   8.206 -0.1065  0.2203 -0.3812
 8090SOL    HW135903   4.639   0.396   8.213 -0.0384  0.4233 -0.8993
 8090SOL    HW235904   4.519   0.390   8.296 -0.6697  2.8998 -0.0112
 8091SOL     OW35905   3.185   0.970   3.562  0.3663  0.0203  0.1152
 8091SOL    HW135906   3.175   0.887   3.608  2.8090 -2.0791 -3.1829
 8091SOL    HW235907   3.229   0.931   3.487  1.8640 -0.4727  1.2583
 8092SOL     OW35908   3.063   0.899  15.822  0.3959 -0.1025 -0.5163
 8092SOL    HW135909   3.089   0.813  15.853  0.3830  0.0682 -0.0333
 8092SOL    HW235910   2.989   0.919  15.880 -1.1309 -2.4277 -1.6790
 8093SOL     OW35911   3.568   1.104  13.008  0.3708  0.1969  0.0129
 8093SOL    HW135912   3.504   1.040  12.976 -0.1990 -0.0883  1.7217
 8093SOL    HW235913   3.639   1.049  13.038 -1.2165 -1.5189  0.6220
 8094SOL     OW35914   1.091   1.637  15.855 -0.0372  0.6254 -0.4802
 8094SOL    HW135915   1.096   1.622  15.760  1.1421 -1.9223 -0.0250
 8094SOL    HW235916   1.090   1.544  15.875 -1.2260  0.9348  0.9149
 8095SOL     OW35917   1.255   4.102   1.715 -0.3051  0.2352  0.1672
 8095SOL    HW135918   1.258   4.065   1.803  0.8175 -1.9627 -0.8000
 8095SOL    HW235919   1.272   4.193   1.737 -1.3646  0.6677 -0.7700
 8096SOL     OW35920   2.373   2.301  11.500 -0.6836  0.0620  0.2486
 8096SOL    HW135921   2.298   2.359  11.484  0.1429  1.4672  1.4591
 8096SOL    HW235922   2.332   2.215  11.510  0.5891 -0.5694 -0.0950
 8097SOL     OW35923   3.033   1.916   8.633 -0.0220  0.4004  0.2294
 8097SOL    HW135924   3.041   1.822   8.617  1.1952  0.2197  1.8517
 8097SOL    HW235925   2.941   1.925   8.657 -0.2582 -2.7724  0.5635
 8098SOL     OW35926   4.079   2.411   5.698 -0.1035 -0.4717 -0.5503
 8098SOL    HW135927   4.171   2.389   5.684 -0.4316 -2.5994  0.7653
 8098SOL    HW235928   4.047   2.327   5.728 -0.5805 -0.2682 -0.4831
 8099SOL     OW35929   1.564   3.900  16.774 -0.5098 -0.0747 -0.2557
 8099SOL    HW135930   1.470   3.902  16.790 -0.6481 -1.0815 -0.9222
 8099SOL    HW235931   1.601   3.825  16.820  0.5793  0.4687 -0.2426
 8100SOL     OW35932   3.459   1.257   3.494  0.3266 -0.4052  0.1181
 8100SOL    HW135933   3.438   1.347   3.521 -1.0774 -0.8558  0.4959
 8100SOL    HW235934   3.437   1.259   3.401 -0.4986 -1.0760  0.3006
 8101SOL     OW35935   3.737   3.989  14.287  0.5867 -0.3332 -0.1746
 8101SOL    HW135936   3.781   4.015  14.368  0.4132  0.5514 -0.3648
 8101SOL    HW235937   3.781   3.904  14.276 -0.8030 -1.1200  0.2629
 8102SOL     OW35938   4.208   1.764   3.127  0.1086  0.3725  0.3131
 8102SOL    HW135939   4.227   1.718   3.046  1.3158  0.9038  0.2927
 8102SOL    HW235940   4.237   1.854   3.111  0.5822  0.1092 -0.3245
 8103SOL     OW35941   4.713   2.674  14.858  0.1952  0.9816 -0.2573
 8103SOL    HW135942   4.734   2.595  14.809 -1.4504  0.1516  0.3957
 8103SOL    HW235943   0.030   2.734  14.805  1.6056  0.3769  0.4595
 8104SOL     OW35944   3.773   2.577   3.214  0.3548 -0.1843  0.3678
 8104SOL    HW135945   3.868   2.591   3.205  0.5042 -0.0075  2.1843
 8104SOL    HW235946   3.765   2.549   3.305 -0.7640 -0.5831  0.1406
 8105SOL     OW35947   1.657   0.268   5.607 -0.3110 -0.2189 -0.0624
 8105SOL    HW135948   1.675   0.174   5.606 -2.0715 -0.5580  0.1956
 8105SOL    HW235949   1.635   0.276   5.515 -0.7243  0.2392  0.0728
 8106SOL     OW35950   4.241   4.240   6.670 -1.1012  0.2980  0.3634
 8106SOL    HW135951   4.336   4.231   6.665 -1.0910  0.6270 -0.0920
 8106SOL    HW235952   4.209   4.196   6.591 -0.5081  0.2201  0.1622
 8107SOL     OW35953   2.280   0.889   9.088 -0.4469  0.1571 -0.6400
 8107SOL    HW135954   2.269   0.869   9.181 -0.4604  0.3159 -0.6082
 8107SOL    HW235955   2.366   0.848   9.073  0.4861  2.3136 -1.1773
 8108SOL     OW35956   4.681   3.620   3.764  0.2226  0.0720 -0.3079
 8108SOL    HW135957   4.716   3.554   3.824 -1.3133 -1.0493 -0.6185
 8108SOL    HW235958   0.015   3.642   3.703 -1.0836  0.5437 -1.6347
 8109SOL     OW35959   2.169   4.476   2.219  0.0312  0.1723 -0.3254
 8109SOL    HW135960   2.264   4.472   2.229 -0.0521 -2.8265 -0.7642
 8109SOL    HW235961   2.154   4.556   2.270 -0.1049 -0.1250  0.1041
 8110SOL     OW35962   1.931   4.353   6.603  0.4221 -0.3970  0.2829
 8110SOL    HW135963   2.021   4.359   6.636  0.2676  0.1118  0.6143
 8110SOL    HW235964   1.903   4.276   6.653  0.3922  1.9829  3.9155
 8111SOL     OW35965   1.421   2.758   2.892  0.0900  0.6370 -0.1670
 8111SOL    HW135966   1.337   2.716   2.876 -0.1780  1.3837 -0.7290
 8111SOL    HW235967   1.412   2.782   2.984  1.4711 -2.1761  0.6838
 8112SOL     OW35968   3.464   4.529  10.606 -0.0450  0.2643 -0.1350
 8112SOL    HW135969   3.432   4.596  10.545  1.3902  0.0477 -1.1421
 8112SOL    HW235970   3.386   4.475  10.616 -0.6115  0.9293 -0.9377
 8113SOL     OW35971   4.334   2.770   1.697 -0.6422 -0.6209  0.9627
 8113SOL    HW135972   4.367   2.681   1.714  2.2631  0.9909  3.8740
 8113SOL    HW235973   4.349   2.776   1.603 -2.3988 -2.7199  0.5337
 8114SOL     OW35974   2.467   1.096   4.540  0.1541  0.2853  0.1429
 8114SOL    HW135975   2.402   1.088   4.470  0.9524 -0.2310 -0.5507
 8114SOL    HW235976   2.424   1.038   4.603 -1.5593  2.1709  0.6788
 8115SOL     OW35977   4.039   3.555  16.090 -0.3542 -0.0648  0.6885
 8115SOL    HW135978   4.073   3.491  16.152 -0.1177 -0.2624  0.3570
 8115SOL    HW235979   4.105   3.624  16.101  0.4377 -0.0882 -3.5648
 8116SOL     OW35980   0.652   3.189   0.552  0.1533  0.0668  0.1319
 8116SOL    HW135981   0.681   3.143   0.473  1.1447  1.5428 -0.3838
 8116SOL    HW235982   0.738   3.228   0.568 -0.3996  1.5292 -0.4185
 8117SOL     OW35983   4.644   1.597   9.485 -0.2657 -0.3272 -0.0327
 8117SOL    HW135984   4.659   1.619   9.577 -1.5118  1.2981 -0.2112
 8117SOL    HW235985   4.635   1.502   9.493  2.3431 -0.7234 -1.8924
 8118SOL     OW35986   0.922   2.201   7.992 -0.5966  0.1262 -0.5283
 8118SOL    HW135987   0.838   2.247   7.985 -1.7202 -1.2500  3.4600
 8118SOL    HW235988   0.982   2.272   7.972  1.4678 -1.4312  0.1300
 8119SOL     OW35989   2.945   0.220   1.887 -0.3830  0.1913  0.3924
 8119SOL    HW135990   3.018   0.260   1.934 -2.8660  0.2424  4.1276
 8119SOL    HW235991   2.948   0.280   1.812 -0.1791  0.3042  0.4901
 8120SOL     OW35992   0.618   0.505   5.567 -0.3662  0.2719  0.3636
 8120SOL    HW135993   0.592   0.565   5.638  2.9919  1.3134  0.7058
 8120SOL    HW235994   0.636   0.571   5.500  0.4541 -0.4072 -0.0747
 8121SOL     OW35995   1.948   4.719   3.204 -0.1210  0.1397 -0.5310
 8121SOL    HW135996   1.912   4.734   3.116  1.0404 -0.5488 -1.1332
 8121SOL    HW235997   1.951   4.624   3.197  0.1672  0.3850 -3.8241
 8122SOL     OW35998   0.850   2.858   6.610 -0.2928  0.6659 -0.1536
 8122SOL    HW135999   0.836   2.952   6.626  0.5527  0.8877 -0.7017
 8122SOL    HW236000   0.779   2.843   6.548  1.0667  0.3630 -1.6480
 8123SOL     OW36001   4.274   0.340   4.469 -0.1862  0.1154  0.1055
 8123SOL    HW136002   4.336   0.335   4.542 -1.4627 -3.8476  0.9475
 8123SOL    HW236003   4.202   0.388   4.510  0.3115  0.1135  0.9829
 8124SOL     OW36004   0.721   0.648   6.353 -0.0627  0.3081  0.0264
 8124SOL    HW136005   0.790   0.713   6.341 -0.9382  1.4072  0.9642
 8124SOL    HW236006   0.756   0.579   6.296  0.4191  2.1232 -1.8705
 8125SOL     OW36007   1.777   2.543   3.949  0.0823  0.9651 -0.5522
 8125SOL    HW136008   1.706   2.491   3.986  2.1175 -0.5700  1.2253
 8125SOL    HW236009   1.809   2.582   4.030 -1.4159 -0.2375  0.6089
 8126SOL     OW36010   3.866   1.252   7.614 -0.5049 -0.1771 -0.3292
 8126SOL    HW136011   3.792   1.304   7.583 -1.8443 -1.4686  0.6708
 8126SOL    HW236012   3.902   1.211   7.536  0.8200 -1.9841  1.2271
 8127SOL     OW36013   4.416   4.580   1.469 -0.1759 -0.2826 -0.1856
 8127SOL    HW136014   4.456   4.666   1.484  2.3306 -1.4021 -0.3462
 8127SOL    HW236015   4.448   4.522   1.538  0.0061 -0.5855 -0.5236
 8128SOL     OW36016   2.540   0.011   3.663  0.6584  0.1148 -0.1475
 8128SOL    HW136017   2.518   4.668   3.613  0.3106  0.2260 -0.1677
 8128SOL    HW236018   2.611   0.041   3.606  3.2476  0.1363  3.0949
 8129SOL     OW36019   0.747   0.242   2.531  0.0766  0.7143 -0.5954
 8129SOL    HW136020   0.664   0.199   2.552  0.4964  0.4800  0.5791
 8129SOL    HW236021   0.767   0.181   2.460 -0.6140 -0.3539  0.1368
 8130SOL     OW36022   3.716   4.428  12.626  0.9979  0.2908 -0.5673
 8130SOL    HW136023   3.679   4.389  12.547 -1.9273  1.1471  0.3837
 8130SOL    HW236024   3.775   4.487  12.579  0.1859  0.8964 -0.8224
 8131SOL     OW36025   1.240   4.529   6.096  0.0306  0.1412 -0.8359
 8131SOL    HW136026   1.306   4.590   6.065  0.5838 -0.3549 -0.6286
 8131SOL    HW236027   1.289   4.450   6.076  1.6776  1.1176 -0.6866
 8132SOL     OW36028   3.345   3.038   2.974  0.5249 -0.3758 -0.3113
 8132SOL    HW136029   3.399   3.008   2.901  4.2407  3.0585  1.0100
 8132SOL    HW236030   3.302   3.115   2.938 -1.6517 -2.3364 -1.8746
 8133SOL     OW36031   2.227   0.816   6.524 -0.2302  0.2081  0.2494
 8133SOL    HW136032   2.187   0.881   6.582  1.2673 -0.3341  1.8899
 8133SOL    HW236033   2.151   0.763   6.500 -1.3242  1.6783  0.4633
 8134SOL     OW36034   3.888   0.403   8.296 -0.5366 -0.1651  0.4558
 8134SOL    HW136035   3.976   0.418   8.261 -0.3864 -0.3305  0.7553
 8134SOL    HW236036   3.895   0.332   8.360  2.5277  0.8661  1.2808
 8135SOL     OW36037   1.983   4.202   5.720 -0.1492 -0.3293  0.3703
 8135SOL    HW136038   2.031   4.129   5.758  0.8098  1.1115  1.9591
 8135SOL    HW236039   2.058   4.261   5.724 -0.4240 -0.0469  1.6870
 8136SOL     OW36040   1.614   0.867   1.041 -0.1708  0.0038  0.3668
 8136SOL    HW136041   1.627   0.960   1.061 -0.1755  0.4898 -1.7975
 8136SOL    HW236042   1.558   0.876   0.963 -1.6391  0.5747  1.4866
 8137SOL     OW36043   0.003   0.850   1.472 -0.0015 -0.4575 -0.3433
 8137SOL    HW136044   4.671   0.916   1.486 -1.1687 -1.5656 -0.7830
 8137SOL    HW236045   0.058   0.899   1.533 -0.2278 -1.7202  0.8854
 8138SOL     OW36046   1.066   3.674   2.936  0.1251  0.6506 -0.1835
 8138SOL    HW136047   0.997   3.701   2.996 -0.4792 -0.6398 -0.2884
 8138SOL    HW236048   1.039   3.724   2.859 -1.1598 -1.1531 -0.9012
 8139SOL     OW36049   1.451   1.024   4.821  0.2604  0.8702  0.4830
 8139SOL    HW136050   1.544   1.031   4.804  0.4665 -1.6176  0.5042
 8139SOL    HW236051   1.434   1.102   4.873  0.2195  0.4656  1.0819
 8140SOL     OW36052   1.221   4.365   1.457 -0.6484  0.1404 -0.6680
 8140SOL    HW136053   1.144   4.318   1.490  0.7020 -1.8825 -0.4009
 8140SOL    HW236054   1.288   4.298   1.469  1.1727  1.7959 -1.6652
 8141SOL     OW36055   0.381   2.151   6.843  0.5045 -0.2331 -0.0434
 8141SOL    HW136056   0.391   2.245   6.830 -1.0346 -0.1191 -0.4484
 8141SOL    HW236057   0.453   2.139   6.905 -0.7986 -1.0037  1.3318
 8142SOL     OW36058   0.498   2.071   3.725  0.2918 -0.3672  0.1351
 8142SOL    HW136059   0.444   1.993   3.710 -0.0362  0.2974 -2.0482
 8142SOL    HW236060   0.465   2.132   3.660 -0.2526 -1.2827 -0.4488
 8143SOL     OW36061   0.198   1.343  15.980  0.1959 -0.1335 -0.4543
 8143SOL    HW136062   0.134   1.375  15.916 -0.0121  2.0130  0.8503
 8143SOL    HW236063   0.253   1.421  15.989  2.4802 -2.0058  1.7767
 8144SOL     OW36064   4.604   3.928  15.742  0.2020  0.3121  0.1592
 8144SOL    HW136065   4.578   3.890  15.825  0.5255 -1.2100 -0.4294
 8144SOL    HW236066   4.674   3.875  15.703 -0.0281 -0.7992  1.2704
 8145SOL     OW36067   1.580   4.358   6.310  0.0722  0.3186 -0.2640
 8145SOL    HW136068   1.500   4.390   6.353  0.0444 -1.7261  1.1687
 8145SOL    HW236069   1.632   4.437   6.295  1.5961 -0.5204  0.6391
 8146SOL     OW36070   1.027   1.418   0.624  0.1345  0.3947  0.5048
 8146SOL    HW136071   1.050   1.326   0.621  1.8012  0.8124  0.3868
 8146SOL    HW236072   0.947   1.420   0.571  0.4981  0.2404 -0.0391
 8147SOL     OW36073   1.155   0.728   9.796 -0.6319  0.3715 -0.1117
 8147SOL    HW136074   1.211   0.656   9.825 -2.1179 -0.8864 -0.3732
 8147SOL    HW236075   1.099   0.678   9.737  0.6857 -0.0583 -1.0055
 8148SOL     OW36076   0.875   2.592  11.196 -0.3832 -0.2278  0.4307
 8148SOL    HW136077   0.965   2.574  11.224 -0.0101 -1.7009 -1.6655
 8148SOL    HW236078   0.832   2.506  11.197 -0.4189 -0.2064  0.6064
 8149SOL     OW36079   3.024   0.671   7.674  0.3961  0.4120  0.3288
 8149SOL    HW136080   3.108   0.708   7.649  0.5873  1.2274  2.1352
 8149SOL    HW236081   3.003   0.628   7.591 -0.2198  0.5527  0.4075
 8150SOL     OW36082   3.513   2.427   5.565 -0.4837  0.4537 -0.4134
 8150SOL    HW136083   3.451   2.410   5.636  1.0627 -0.9313  0.6139
 8150SOL    HW236084   3.597   2.427   5.611 -1.1823 -2.0095  0.8468
 8151SOL     OW36085   2.744   0.887   8.782 -0.7117 -0.5064 -0.0214
 8151SOL    HW136086   2.812   0.819   8.781 -0.8868 -0.6521 -1.5860
 8151SOL    HW236087   2.796   0.967   8.793 -1.0281 -0.6834  2.6689
 8152SOL     OW36088   2.632   4.351   3.646 -0.9167 -0.0645 -0.1160
 8152SOL    HW136089   2.713   4.381   3.687 -0.3340  0.4650 -1.6484
 8152SOL    HW236090   2.630   4.415   3.575 -2.3716  1.2199  1.0883
 8153SOL     OW36091   2.570   1.711   0.353 -0.3786  0.0368 -0.2905
 8153SOL    HW136092   2.526   1.795   0.339 -2.3402 -0.8501  0.5264
 8153SOL    HW236093   2.663   1.735   0.348 -0.4780  0.5115  0.2519
 8154SOL     OW36094   2.578   2.433   1.991 -0.3917 -0.0901 -0.2191
 8154SOL    HW136095   2.527   2.369   1.942  0.4221 -0.7097 -0.2629
 8154SOL    HW236096   2.575   2.500   1.922 -2.0813 -0.3757 -0.4149
 8155SOL     OW36097   1.834   1.471   2.802 -0.0538  0.5168 -0.3103
 8155SOL    HW136098   1.745   1.485   2.770  0.1182  1.5667 -0.3331
 8155SOL    HW236099   1.886   1.541   2.761 -0.3689 -0.7719 -2.9039
 8156SOL     OW36100   4.581   0.640  10.397  0.0574 -0.3817  0.1727
 8156SOL    HW136101   4.595   0.725  10.439 -2.0040  0.3995 -0.7432
 8156SOL    HW236102   4.518   0.590  10.449  0.0947  0.3709  0.9416
 8157SOL     OW36103   0.169   0.718   3.104 -0.0504  0.1423  0.3724
 8157SOL    HW136104   0.194   0.810   3.116 -2.9917  0.8874  0.8583
 8157SOL    HW236105   0.114   0.694   3.179  0.8308  1.0324  1.2930
 8158SOL     OW36106   3.941   3.290   9.212 -0.0572  0.2045 -0.2120
 8158SOL    HW136107   3.860   3.252   9.179 -0.4907 -0.8492  2.1095
 8158SOL    HW236108   4.014   3.251   9.163  0.5556 -0.6065  1.3698
 8159SOL     OW36109   2.473   3.182  11.823 -0.5483 -0.1584  0.1784
 8159SOL    HW136110   2.436   3.130  11.752  2.0829 -1.3316 -0.3238
 8159SOL    HW236111   2.560   3.197  11.788 -0.3429 -1.1168  0.2676
 8160SOL     OW36112   3.363   4.194  10.017 -0.3993  0.3285  0.0896
 8160SOL    HW136113   3.322   4.123  10.067 -1.2430  0.7716  0.0319
 8160SOL    HW236114   3.427   4.140   9.971 -1.7490 -0.1640 -1.2414
 8161SOL     OW36115   1.615   4.491  10.885 -0.1485 -0.4191  0.1465
 8161SOL    HW136116   1.647   4.505  10.795 -0.7665  1.9676  0.2921
 8161SOL    HW236117   1.691   4.527  10.931  0.4981 -0.7314 -0.6588
 8162SOL     OW36118   1.970   1.070  15.296  0.2376 -0.0215 -0.0707
 8162SOL    HW136119   2.021   1.023  15.229  0.5058  0.2658 -0.0695
 8162SOL    HW236120   1.979   1.157  15.256 -1.4297  0.3644  0.4084
 8163SOL     OW36121   3.502   3.411   6.365  0.1101 -0.0856 -0.1533
 8163SOL    HW136122   3.499   3.505   6.382  0.3935  0.0298 -0.7537
 8163SOL    HW236123   3.409   3.390   6.360 -0.1823  0.8038  1.4210
 8164SOL     OW36124   0.670   2.458  10.963  0.6802 -0.2708  0.3621
 8164SOL    HW136125   0.587   2.500  10.986 -0.6063  0.1960 -5.2120
 8164SOL    HW236126   0.695   2.436  11.053  0.8252  0.0400  0.3997
 8165SOL     OW36127   3.485   0.081   6.767  0.0341  0.7634 -0.1354
 8165SOL    HW136128   3.466   0.147   6.701  0.8337  0.1490 -0.9771
 8165SOL    HW236129   3.409   0.058   6.821  0.9424 -1.7473  0.0922
 8166SOL     OW36130   4.397   1.538   5.460  0.4450  0.2948 -0.5901
 8166SOL    HW136131   4.384   1.495   5.545 -1.3920  0.1510 -0.9442
 8166SOL    HW236132   4.320   1.594   5.473 -0.2815 -0.7432 -0.4337
 8167SOL     OW36133   4.170   0.172  14.080 -0.3647  0.0091  0.3052
 8167SOL    HW136134   4.177   0.093  14.028  0.3143 -0.1353  0.6169
 8167SOL    HW236135   4.097   0.160  14.140  0.6680  2.8657  2.1468
 8168SOL     OW36136   0.885   2.776   4.921  0.1849 -0.3571  0.5411
 8168SOL    HW136137   0.818   2.823   4.873 -0.2559 -1.4487  0.0842
 8168SOL    HW236138   0.940   2.847   4.956  1.5891 -1.2524  0.1751
 8169SOL     OW36139   3.617   2.281  13.003 -0.1621 -0.2305 -0.4634
 8169SOL    HW136140   3.608   2.226  12.925  0.6821 -1.0364  0.0121
 8169SOL    HW236141   3.542   2.340  13.004  0.5900  0.6939  1.5427
 8170SOL     OW36142   1.388   1.460   5.948  0.5231  0.6714 -0.1244
 8170SOL    HW136143   1.412   1.522   5.879 -1.5259  1.9016  0.2675
 8170SOL    HW236144   1.407   1.379   5.900  0.6136 -0.2913  1.5519
 8171SOL     OW36145   0.701   2.970  15.890  0.3910  0.3257  0.0150
 8171SOL    HW136146   0.665   3.051  15.925  1.7960  1.5046 -1.2527
 8171SOL    HW236147   0.639   2.912  15.934  1.7525 -1.7483 -0.8002
 8172SOL     OW36148   2.081   0.966   4.365 -0.3907  0.3133  0.5062
 8172SOL    HW136149   2.039   0.955   4.280  0.8447 -0.4025 -0.0124
 8172SOL    HW236150   2.018   1.019   4.413 -0.7333  1.1993 -0.9426
 8173SOL     OW36151   3.762   1.315  11.937  0.4196 -0.1424  0.1529
 8173SOL    HW136152   3.681   1.324  11.887  0.1468 -0.6498  0.4993
 8173SOL    HW236153   3.759   1.401  11.980  1.1458  0.3090 -0.6820
 8174SOL     OW36154   1.638   4.021   5.931 -0.0947 -0.2081 -0.3620
 8174SOL    HW136155   1.611   4.042   6.021  0.6737  1.8749 -0.6058
 8174SOL    HW236156   1.674   4.107   5.909 -0.2222 -0.2725 -0.8306
 8175SOL     OW36157   3.607   1.289  16.758 -0.0969  0.2299  0.3907
 8175SOL    HW136158   3.673   1.285  16.827 -1.0574 -0.9139  1.2558
 8175SOL    HW236159   3.583   1.379  16.739 -1.2380 -0.1437  0.0713
 8176SOL     OW36160   4.514   2.598   5.024  0.0357 -0.0550 -0.3364
 8176SOL    HW136161   4.589   2.628   4.972  1.6656  0.6376  2.4307
 8176SOL    HW236162   4.446   2.605   4.957 -0.0376 -0.4166 -0.3029
 8177SOL     OW36163   1.242   3.114   9.629  0.1659 -0.1315 -0.4894
 8177SOL    HW136164   1.283   3.193   9.595 -0.5529 -0.3665 -1.8923
 8177SOL    HW236165   1.160   3.151   9.662 -1.0338 -0.7572 -2.7521
 8178SOL     OW36166   3.337   4.142  14.036  0.3862  0.2189  0.3099
 8178SOL    HW136167   3.357   4.161  14.127 -2.3337 -0.8798  1.1618
 8178SOL    HW236168   3.317   4.048  14.042  0.7840  0.0723 -0.6059
 8179SOL     OW36169   3.596   1.808   7.346 -0.8075 -0.5146  0.1941
 8179SOL    HW136170   3.516   1.816   7.398 -0.1978 -1.4806  1.2792
 8179SOL    HW236171   3.586   1.731   7.290 -0.8019 -0.7158  0.4743
 8180SOL     OW36172   0.341   2.317   5.040 -0.1211  0.1068 -0.1452
 8180SOL    HW136173   0.367   2.231   5.074  0.8026 -0.3129 -1.8769
 8180SOL    HW236174   0.248   2.313   5.060 -0.4153  0.5561 -1.4049
 8181SOL     OW36175   0.652   2.594  11.643  0.0693  0.1114  0.1646
 8181SOL    HW136176   0.576   2.622  11.694 -0.1327 -0.2874  0.0788
 8181SOL    HW236177   0.712   2.666  11.665  0.7441 -0.0032 -1.3089
 8182SOL     OW36178   2.630   2.824   5.483 -0.1425  0.1809 -0.1287
 8182SOL    HW136179   2.544   2.789   5.461  0.8678 -2.4072  0.0909
 8182SOL    HW236180   2.648   2.870   5.401 -0.4129  1.0147  0.2704
 8183SOL     OW36181   4.560   1.672   7.989  0.1143 -0.1652 -0.4172
 8183SOL    HW136182   4.515   1.630   8.062 -0.7395  1.0939 -0.2158
 8183SOL    HW236183   4.611   1.600   7.952 -0.6686  0.0704 -1.9482
 8184SOL     OW36184   2.733   2.708   2.855 -0.1752 -0.1488  0.0723
 8184SOL    HW136185   2.762   2.778   2.797 -0.3081  0.2666  0.5109
 8184SOL    HW236186   2.674   2.762   2.907  0.2291  0.3074  0.0509
 8185SOL     OW36187   4.502   4.154  17.673 -0.2539 -0.2447  0.2862
 8185SOL    HW136188   4.485   4.063  17.652  4.4349 -1.0778  0.1174
 8185SOL    HW236189   4.566   4.147   0.002 -0.9919 -1.9791  0.7774
 8186SOL     OW36190   2.626   1.219   2.430 -0.2496  0.1666 -0.0445
 8186SOL    HW136191   2.692   1.245   2.365 -0.4178 -3.7357 -1.7838
 8186SOL    HW236192   2.612   1.126   2.412  0.2073  0.5777 -2.6372
 8187SOL     OW36193   3.132   1.964   7.765 -0.0083 -0.2092  1.3132
 8187SOL    HW136194   3.089   1.879   7.779  1.6218 -1.0001  1.5128
 8187SOL    HW236195   3.065   2.002   7.708  1.1326  1.6532  1.2150
 8188SOL     OW36196   1.318   2.633   3.859 -0.3860  0.1114 -0.3427
 8188SOL    HW136197   1.228   2.661   3.872 -1.2807 -3.2944  0.6168
 8188SOL    HW236198   1.353   2.715   3.824  0.1487  0.6190  1.3648
 8189SOL     OW36199   2.438   0.453   5.836  1.0060 -0.3632 -0.4838
 8189SOL    HW136200   2.374   0.411   5.893  0.6120 -0.1716 -0.7905
 8189SOL    HW236201   2.480   0.369   5.817  0.9143 -0.7584  1.0114
 8190SOL     OW36202   0.777   0.694   4.531  0.5297  0.0441 -0.1069
 8190SOL    HW136203   0.683   0.704   4.520  0.3178 -0.3624  1.2840
 8190SOL    HW236204   0.773   0.666   4.623 -1.2451  0.7934  0.0428
 8191SOL     OW36205   3.507   3.209   6.915  0.4583 -0.4044 -0.0337
 8191SOL    HW136206   3.516   3.303   6.932 -1.3691 -0.6141  2.2410
 8191SOL    HW236207   3.465   3.189   6.999  2.1623  0.8238  1.1328
 8192SOL     OW36208   1.872   0.142   5.903 -0.5018 -0.4595 -0.2240
 8192SOL    HW136209   1.779   0.128   5.889 -0.2770  0.4302 -2.7587
 8192SOL    HW236210   1.874   0.230   5.865  0.5014 -0.6607 -0.6437
 8193SOL     OW36211   0.710   1.451   3.522 -0.1525  0.1070 -0.2918
 8193SOL    HW136212   0.640   1.456   3.456 -0.3520 -0.8288 -0.1542
 8193SOL    HW236213   0.666   1.397   3.588  3.3739  1.1784  2.8627
 8194SOL     OW36214   3.422   0.570  17.328  0.0300  0.4992  0.2414
 8194SOL    HW136215   3.334   0.534  17.338 -0.4703  1.5626 -0.3868
 8194SOL    HW236216   3.401   0.639  17.266  0.6738  1.2093  0.8055
 8195SOL     OW36217   2.688   1.925  12.382  0.0603  0.0349 -0.0297
 8195SOL    HW136218   2.603   1.963  12.407 -0.2960 -0.5451 -0.3665
 8195SOL    HW236219   2.729   1.987  12.322 -3.6802  0.4186 -2.1944
 8196SOL     OW36220   1.530   0.618   5.401 -1.2069  0.5017 -0.2518
 8196SOL    HW136221   1.444   0.613   5.359 -2.5312  0.2894  2.4888
 8196SOL    HW236222   1.587   0.560   5.351  0.9747  1.6771  0.8768
 8197SOL     OW36223   0.208   1.131   4.714 -0.1193 -0.3011  0.4831
 8197SOL    HW136224   0.174   1.178   4.639 -0.5685 -0.9261  0.2904
 8197SOL    HW236225   0.169   1.180   4.786  1.5306  0.1253  1.0733
 8198SOL     OW36226   3.619   2.300   5.846  0.0545 -0.3578  0.4374
 8198SOL    HW136227   3.533   2.268   5.874  0.1692  0.1893  1.4508
 8198SOL    HW236228   3.671   2.276   5.922  0.5220 -0.0593  0.2084
 8199SOL     OW36229   3.838   4.657   3.530  0.6162  0.4434 -0.1277
 8199SOL    HW136230   3.793   4.681   3.610 -0.9571  0.0404 -0.8842
 8199SOL    HW236231   3.839   4.561   3.536 -1.4966  0.3417 -1.4021
 8200SOL     OW36232   2.075   2.881   4.121 -0.5788 -0.3798  0.5064
 8200SOL    HW136233   2.119   2.817   4.065 -1.4996  1.1968 -2.0492
 8200SOL    HW236234   2.024   2.926   4.053  0.6728 -0.0768 -0.2259
 8201SOL     OW36235   1.721   1.165  14.946  0.1487 -0.1422 -0.2526
 8201SOL    HW136236   1.768   1.118  15.016  1.0359 -0.1949 -0.8811
 8201SOL    HW236237   1.778   1.170  14.869 -0.9302  1.0566 -0.9718
 8202SOL     OW36238   0.126   0.481   6.027 -0.2942  0.1731 -0.2319
 8202SOL    HW136239   0.032   0.499   6.033 -0.3155 -0.0525  0.1028
 8202SOL    HW236240   0.134   0.398   6.074 -2.1199 -0.0700 -0.3753
 8203SOL     OW36241   3.926   3.570  15.715 -0.4730 -0.1823  0.4241
 8203SOL    HW136242   3.917   3.666  15.710  0.5140 -0.1375 -0.7684
 8203SOL    HW236243   3.841   3.542  15.682  0.2954 -2.5999  0.5249
 8204SOL     OW36244   0.225   2.748  12.947 -0.2031  0.1748 -0.1329
 8204SOL    HW136245   0.204   2.746  12.854  2.0034 -2.1886 -0.5834
 8204SOL    HW236246   0.278   2.827  12.955 -0.0372  0.3894 -3.5883
 8205SOL     OW36247   0.491   0.670   4.087 -0.6588 -0.2315 -0.4758
 8205SOL    HW136248   0.501   0.730   4.160 -0.5813 -0.6738 -0.1256
 8205SOL    HW236249   0.565   0.610   4.102 -2.3569 -1.9819  0.7803
 8206SOL     OW36250   0.126   4.339   8.373  0.1315 -0.1582  0.8450
 8206SOL    HW136251   0.189   4.269   8.357  1.6088  1.1968  0.7542
 8206SOL    HW236252   0.076   4.327   8.293  2.9149 -1.3787 -0.7114
 8207SOL     OW36253   2.807   0.529   5.661  0.3554 -0.6467 -0.2720
 8207SOL    HW136254   2.777   0.456   5.607 -1.1529 -1.6361  1.9207
 8207SOL    HW236255   2.768   0.605   5.617 -0.2659 -0.0386  1.3043
 8208SOL     OW36256   0.207   4.559   2.379 -0.2113 -0.3260 -0.0172
 8208SOL    HW136257   0.184   4.606   2.459 -2.2952 -0.4233 -0.5493
 8208SOL    HW236258   0.205   4.468   2.409 -1.1706 -0.5158 -0.6522
 8209SOL     OW36259   2.144   1.407   5.039 -0.4321 -0.5039 -0.2824
 8209SOL    HW136260   2.112   1.317   5.036  0.7783 -0.8961 -1.4761
 8209SOL    HW236261   2.239   1.397   5.032 -0.4523 -0.8226 -0.1025
 8210SOL     OW36262   1.827   3.406  10.446  0.3703  0.0196  0.2263
 8210SOL    HW136263   1.861   3.475  10.502  0.0218 -1.2790  2.0289
 8210SOL    HW236264   1.874   3.423  10.364 -0.4796  3.1595  0.4134
 8211SOL     OW36265   3.680   2.742   2.262  0.4014 -0.1124 -0.4197
 8211SOL    HW136266   3.600   2.691   2.275  1.0614 -0.7541  1.2112
 8211SOL    HW236267   3.645   2.829   2.281 -4.2182 -1.9187 -0.7315
 8212SOL     OW36268   1.986   0.440   8.779  0.2148 -0.0720 -0.1183
 8212SOL    HW136269   2.045   0.496   8.830  1.1540  1.8341 -3.2472
 8212SOL    HW236270   2.049   0.417   8.711  0.4812 -1.2879  0.5449
 8213SOL     OW36271   3.298   4.579   4.668  0.3918 -0.1136 -0.0530
 8213SOL    HW136272   3.236   4.644   4.636 -0.0849  0.7215  2.6169
 8213SOL    HW236273   3.267   4.499   4.624  0.9215 -0.1226 -0.4159
 8214SOL     OW36274   2.683   4.651  10.742  0.0075 -0.3274 -0.2553
 8214SOL    HW136275   2.599   4.605  10.750  0.9394 -2.0948 -0.8197
 8214SOL    HW236276   2.663   4.710  10.670  2.3177  1.2015  0.3622
 8215SOL     OW36277   0.162   4.363  17.342 -0.0483  0.5302  1.3346
 8215SOL    HW136278   0.079   4.397  17.378 -0.3593 -0.7954  1.8699
 8215SOL    HW236279   0.196   4.341  17.429 -1.8078 -0.1439  1.8650
 8216SOL     OW36280   4.102   4.113   2.463  0.4990  0.1422 -0.2385
 8216SOL    HW136281   4.020   4.120   2.415  1.2242 -0.0730 -1.5033
 8216SOL    HW236282   4.165   4.104   2.391  3.0594  0.1472  1.9937
 8217SOL     OW36283   2.714   0.693   4.683  0.1513  0.5695  0.6594
 8217SOL    HW136284   2.759   0.658   4.606 -0.3156 -1.5897  1.3878
 8217SOL    HW236285   2.715   0.785   4.655  0.3036  0.3398 -0.0815
 8218SOL     OW36286   3.901   2.381   5.030 -0.0681 -0.2020 -0.2870
 8218SOL    HW136287   3.943   2.463   5.003  1.0666 -0.2637  1.2897
 8218SOL    HW236288   3.811   2.406   5.009 -0.6365 -1.7850  0.2474
 8219SOL     OW36289   3.409   3.038  17.615 -0.1530  0.4087 -0.3655
 8219SOL    HW136290   3.342   2.969  17.620  0.1373 -0.0859 -3.0378
 8219SOL    HW236291   3.398   3.075  17.702  0.1826 -0.3467  0.0035
 8220SOL     OW36292   0.455   0.498   6.130 -0.3104 -0.0075  0.0997
 8220SOL    HW136293   0.488   0.569   6.184 -1.6704 -0.4604  1.5254
 8220SOL    HW236294   0.533   0.501   6.075  1.0625  0.0954  2.0782
 8221SOL     OW36295   4.212   3.826   9.391  0.2835  0.4787 -0.3714
 8221SOL    HW136296   4.159   3.899   9.358 -1.5317 -0.5992  0.1062
 8221SOL    HW236297   4.284   3.874   9.431 -0.1137 -0.9541  2.0888
 8222SOL     OW36298   0.936   3.362  15.558  0.1620 -0.1167 -0.5020
 8222SOL    HW136299   1.019   3.315  15.555 -0.1574 -0.4470 -4.1595
 8222SOL    HW236300   0.951   3.406  15.642 -2.3158 -0.3804  0.0775
 8223SOL     OW36301   0.013   1.041   9.011 -0.2747 -0.2276 -0.0974
 8223SOL    HW136302   4.669   1.092   9.000  0.7467  1.1353 -1.1848
 8223SOL    HW236303   0.027   1.070   9.102  1.3183 -0.8954 -0.1247
 8224SOL     OW36304   1.313   4.437  10.369 -0.3068  0.2625 -0.6020
 8224SOL    HW136305   1.264   4.489  10.305 -0.3381  0.8903 -0.0663
 8224SOL    HW236306   1.367   4.500  10.417  0.3426 -1.2428  0.6593
 8225SOL     OW36307   2.957   1.765   1.847  0.7594  0.2383  0.6092
 8225SOL    HW136308   2.950   1.778   1.942 -1.5422 -1.5157  0.6955
 8225SOL    HW236309   2.866   1.746   1.825  0.9977 -0.0008 -0.1601
 8226SOL     OW36310   1.266   3.888   5.358 -0.0375  0.5509  0.0265
 8226SOL    HW136311   1.177   3.861   5.379  0.6791  0.8538  3.3554
 8226SOL    HW236312   1.267   3.863   5.265  0.3987  0.5474  0.0302
 8227SOL     OW36313   0.416   2.775   3.061 -0.2823  0.2976  0.3722
 8227SOL    HW136314   0.365   2.813   2.990 -2.1678  1.5086  2.3757
 8227SOL    HW236315   0.345   2.746   3.118  0.6642  6.2261  4.5212
 8228SOL     OW36316   1.159   2.050   9.764 -0.2139  0.1968 -0.0839
 8228SOL    HW136317   1.209   1.980   9.721  3.1296  1.0970  2.3510
 8228SOL    HW236318   1.194   2.039   9.852  0.5693  1.9485 -0.1771
 8229SOL     OW36319   2.767   2.740  15.727  0.4129 -0.3561  0.0903
 8229SOL    HW136320   2.711   2.671  15.762  0.6676  0.4567  2.1341
 8229SOL    HW236321   2.827   2.693  15.670  2.6295  2.0132  0.4832
 8230SOL     OW36322   3.841   2.423   8.827 -0.2388  0.5634  0.0580
 8230SOL    HW136323   3.767   2.480   8.807 -0.1824  0.6590  0.1208
 8230SOL    HW236324   3.801   2.352   8.878 -0.0851  0.1590 -0.3875
 8231SOL     OW36325   3.312   3.144  15.853 -0.0811  0.1313 -0.1712
 8231SOL    HW136326   3.287   3.075  15.913  1.0492  1.0766  1.4069
 8231SOL    HW236327   3.247   3.154  15.784  0.5579 -1.4866 -1.0039
 8232SOL     OW36328   2.171   3.834   5.492 -0.1681 -0.1640  0.1406
 8232SOL    HW136329   2.184   3.929   5.487  1.1555 -0.5228 -3.1091
 8232SOL    HW236330   2.154   3.816   5.400  0.7425 -2.6167  0.4537
 8233SOL     OW36331   2.705   2.858   6.625 -0.1483  0.5604  0.1104
 8233SOL    HW136332   2.771   2.856   6.555 -0.0932  0.9437  0.1521
 8233SOL    HW236333   2.635   2.826   6.569 -0.2023 -0.5540  0.8283
 8234SOL     OW36334   3.765   4.294  10.185  0.2087 -0.0938  0.6052
 8234SOL    HW136335   3.716   4.329  10.260  0.4715 -0.6376  1.0260
 8234SOL    HW236336   3.846   4.266  10.227 -0.2636  0.5526  1.9666
 8235SOL     OW36337   1.627   2.808   9.890  0.6082  0.3157  0.5670
 8235SOL    HW136338   1.721   2.788   9.888  0.7190  0.8929 -0.2902
 8235SOL    HW236339   1.600   2.796   9.799  2.8026 -0.2600 -0.0154
 8236SOL     OW36340   3.857   0.522  12.477  0.7365 -0.4267 -0.1353
 8236SOL    HW136341   3.937   0.561  12.514 -0.2978  0.1178  1.5423
 8236SOL    HW236342   3.811   0.602  12.452 -0.5162 -1.8506 -2.3834
 8237SOL     OW36343   2.031   3.729   4.513 -0.1569  0.3260 -0.5734
 8237SOL    HW136344   2.012   3.705   4.604 -2.7283  0.0908 -1.1634
 8237SOL    HW236345   2.123   3.754   4.517 -0.4015  1.0011  0.8850
 8238SOL     OW36346   2.482   1.524  14.428 -0.3125  0.7362 -0.0482
 8238SOL    HW136347   2.532   1.466  14.371 -0.4451  2.2376 -1.6933
 8238SOL    HW236348   2.481   1.473  14.509 -1.6298  1.2867  0.2793
 8239SOL     OW36349   3.995   0.900  13.514 -0.1279  0.5010  0.4992
 8239SOL    HW136350   4.011   0.914  13.420  0.7138  2.3551  0.9160
 8239SOL    HW236351   3.929   0.830  13.514  1.6536 -1.1765 -1.3403
 8240SOL     OW36352   3.813   2.446   9.174 -0.3125 -0.4753 -0.3166
 8240SOL    HW136353   3.891   2.405   9.209  0.3241  1.2747  0.3031
 8240SOL    HW236354   3.775   2.378   9.118  3.7403 -1.4424 -1.8372
 8241SOL     OW36355   0.966   3.155   8.261  0.0995 -0.0563 -0.2995
 8241SOL    HW136356   0.959   3.147   8.356 -0.3076  0.8505 -0.2511
 8241SOL    HW236357   0.968   3.061   8.242  0.7056 -0.0886 -0.0605
 8242SOL     OW36358   0.518   4.235   3.621 -0.6711 -0.5110  0.2363
 8242SOL    HW136359   0.448   4.204   3.563  0.7889  1.6733 -2.6683
 8242SOL    HW236360   0.540   4.156   3.670  1.3739 -2.1976 -3.3911
 8243SOL     OW36361   0.588   4.555   6.377 -0.5558 -0.1725 -0.2422
 8243SOL    HW136362   0.506   4.602   6.392 -1.2651 -1.2980 -0.5981
 8243SOL    HW236363   0.561   4.479   6.326  0.7210 -0.6973 -0.1433
 8244SOL     OW36364   4.218   2.283   7.537 -0.1078  0.1575  0.1660
 8244SOL    HW136365   4.227   2.378   7.538 -0.3695  0.1855 -0.1542
 8244SOL    HW236366   4.249   2.273   7.627 -0.5648 -0.9266  0.2001
 8245SOL     OW36367   1.915   1.058  15.561 -0.0688 -0.1598  0.3784
 8245SOL    HW136368   1.919   1.075  15.467  1.6021  0.3397  0.5436
 8245SOL    HW236369   1.979   1.125  15.585 -0.8786  1.0008 -0.6876
 8246SOL     OW36370   0.383   0.029   9.704 -0.1522  0.2303  0.2077
 8246SOL    HW136371   0.381   0.079   9.785 -1.2410  2.0303 -0.9188
 8246SOL    HW236372   0.471   4.729   9.708  0.7073  2.3626  0.3790
 8247SOL     OW36373   0.166   3.157   9.622 -0.4820  0.0022  0.4154
 8247SOL    HW136374   0.086   3.113   9.653 -1.4937  0.9954 -0.7828
 8247SOL    HW236375   0.150   3.153   9.528  0.9093 -1.8793  0.2686
 8248SOL     OW36376   3.888   3.371   5.008  0.3849 -0.1380  0.3257
 8248SOL    HW136377   3.925   3.283   5.013  0.6809 -0.0648 -0.5369
 8248SOL    HW236378   3.939   3.417   4.941  1.0089 -1.3478 -0.0215
 8249SOL     OW36379   3.844   0.732  13.780 -0.5735  0.4159 -0.3691
 8249SOL    HW136380   3.825   0.704  13.691 -1.1982 -1.9487  0.4988
 8249SOL    HW236381   3.855   0.827  13.772 -0.3229  0.3084 -1.2165
 8250SOL     OW36382   0.469   0.456   2.067 -0.2031  0.4147  0.8287
 8250SOL    HW136383   0.449   0.369   2.032  0.1551  1.7254 -2.6251
 8250SOL    HW236384   0.403   0.515   2.031 -0.9231 -1.1998 -0.4895
 8251SOL     OW36385   0.372   4.356  17.112 -0.0707  0.1694  0.5554
 8251SOL    HW136386   0.446   4.373  17.171 -0.2366 -0.6102  0.9838
 8251SOL    HW236387   0.297   4.368  17.169 -0.4527 -0.2089  0.1359
 8252SOL     OW36388   1.725   4.428   5.446 -0.0475 -0.3661  0.2413
 8252SOL    HW136389   1.713   4.484   5.369 -1.9786  2.8306  2.8393
 8252SOL    HW236390   1.635   4.397   5.455 -0.8275  1.3763 -1.3686
 8253SOL     OW36391   2.045   0.577   2.962  0.1648 -0.2796  0.1269
 8253SOL    HW136392   2.130   0.600   3.000 -0.1359  0.7089  0.1930
 8253SOL    HW236393   2.023   0.660   2.920 -0.8754 -1.9036 -2.5706
 8254SOL     OW36394   3.258   1.254   1.463 -0.6692 -0.1185 -0.0673
 8254SOL    HW136395   3.264   1.258   1.559  0.6470 -0.6158 -0.1307
 8254SOL    HW236396   3.346   1.233   1.432 -1.3177  0.8499 -2.5375
 8255SOL     OW36397   3.028   2.892   9.875  0.2326 -0.0835 -0.1721
 8255SOL    HW136398   3.011   2.841   9.954  0.7422 -2.8817 -1.9010
 8255SOL    HW236399   3.080   2.832   9.822 -0.4332 -1.4197  0.7131
 8256SOL     OW36400   4.097   2.904   1.264  0.0176 -0.3062  0.5881
 8256SOL    HW136401   4.002   2.903   1.272 -0.1629  3.5494 -1.1162
 8256SOL    HW236402   4.121   2.856   1.343  0.8781 -1.3265 -0.2840
 8257SOL     OW36403   0.383   1.470  14.369 -0.4635 -0.0073  0.2397
 8257SOL    HW136404   0.314   1.521  14.328  0.2761  0.8466  0.0551
 8257SOL    HW236405   0.441   1.545  14.379  1.6368 -1.8360  1.9236
 8258SOL     OW36406   3.599   2.474   4.894  0.6253  0.1706 -0.0997
 8258SOL    HW136407   3.585   2.420   4.816  1.7858  0.3112 -0.4067
 8258SOL    HW236408   3.608   2.562   4.857 -2.5486  0.0055 -1.2525
 8259SOL     OW36409   1.049   0.070  17.091 -0.1522 -0.6316  0.0135
 8259SOL    HW136410   0.954   0.071  17.099 -0.0167  2.3591  1.0372
 8259SOL    HW236411   1.054   0.005  17.021 -1.0441 -1.8090  1.0289
 8260SOL     OW36412   2.758   1.389   0.302  0.3512  0.2226 -0.6060
 8260SOL    HW136413   2.847   1.366   0.274  0.4800  0.7158 -0.5971
 8260SOL    HW236414   2.729   1.434   0.223  1.0608  0.4005 -0.7689
 8261SOL     OW36415   1.787   4.036   8.681  0.4341 -0.0530 -0.2619
 8261SOL    HW136416   1.751   4.035   8.769  1.6376  1.1537  0.2477
 8261SOL    HW236417   1.866   4.088   8.692  2.6186 -3.9640  2.3868
 8262SOL     OW36418   3.960   4.028   5.763  0.0952  0.3136 -0.3229
 8262SOL    HW136419   3.908   3.959   5.723 -0.7777  1.1189 -0.5811
 8262SOL    HW236420   4.012   3.992   5.836 -1.9682 -1.9247  0.0443
 8263SOL     OW36421   4.268   3.103  13.437  0.1195  0.0220 -0.1311
 8263SOL    HW136422   4.189   3.110  13.385 -0.4843 -1.9498  0.5246
 8263SOL    HW236423   4.309   3.031  13.389  0.6955  1.4270 -1.7616
 8264SOL     OW36424   0.204   1.233   8.222 -0.1212 -0.7304  0.1368
 8264SOL    HW136425   0.203   1.252   8.316  2.3320  0.9564 -0.1713
 8264SOL    HW236426   0.216   1.138   8.226  3.0943 -0.3940 -0.9501
 8265SOL     OW36427   3.655   2.604   1.684  0.1854 -0.4549 -0.6413
 8265SOL    HW136428   3.614   2.573   1.765  1.9350  0.8205  0.7465
 8265SOL    HW236429   3.715   2.672   1.717  0.6485 -0.3568 -1.6996
 8266SOL     OW36430   2.412   0.438  10.973 -0.2189 -0.3555 -0.4669
 8266SOL    HW136431   2.497   0.411  11.009 -0.9504  0.7368  2.0930
 8266SOL    HW236432   2.429   0.532  10.966  2.1570 -0.7732 -0.2541
 8267SOL     OW36433   3.063   2.019   4.847  0.1124 -0.4743 -0.0471
 8267SOL    HW136434   3.057   2.105   4.806 -2.7002 -0.3607  0.6472
 8267SOL    HW236435   2.973   1.991   4.830  0.1381 -2.1243  2.6238
 8268SOL     OW36436   0.051   4.719   8.641 -0.1141 -0.0399 -0.1127
 8268SOL    HW136437   0.047   4.624   8.640 -0.8123 -0.0153 -0.1262
 8268SOL    HW236438   4.691   4.728   8.646  0.0860  2.1796 -0.1355
 8269SOL     OW36439   1.016   3.561  11.702  0.1627 -0.1257 -0.2172
 8269SOL    HW136440   0.971   3.643  11.726  0.8749  0.2796 -0.2730
 8269SOL    HW236441   0.933   3.517  11.685 -1.2676  1.5706  2.2707
 8270SOL     OW36442   4.341   4.580   8.019  0.0203 -0.2931 -0.0707
 8270SOL    HW136443   4.311   4.661   8.062 -0.1264 -0.6746  0.5504
 8270SOL    HW236444   4.427   4.610   7.989  0.3180  0.1644  1.2162
 8271SOL     OW36445   4.002   3.853   8.790 -0.3459  0.1998 -0.3486
 8271SOL    HW136446   4.007   3.861   8.885  0.9444 -1.8581 -0.2200
 8271SOL    HW236447   3.966   3.939   8.770  0.3149  0.5743  0.0560
 8272SOL     OW36448   3.191   1.782  17.607  0.0720 -0.5476 -0.0144
 8272SOL    HW136449   3.287   1.774  17.604  0.2422  2.0231 -1.3146
 8272SOL    HW236450   3.174   1.846  17.538 -0.8935 -0.1579  0.5844
 8273SOL     OW36451   1.926   1.527  14.595  0.3833 -0.0643  0.3138
 8273SOL    HW136452   1.895   1.573  14.516  0.6665  1.3681  1.0286
 8273SOL    HW236453   1.894   1.589  14.660 -1.1193  1.5740 -1.9908
 8274SOL     OW36454   0.012   0.315   1.278  0.0447  0.2276 -0.2027
 8274SOL    HW136455   0.079   0.382   1.265  0.6413 -0.7568 -2.2592
 8274SOL    HW236456   0.047   0.250   1.339 -3.4846 -2.0245 -0.5269
 8275SOL     OW36457   3.441   3.049   5.099  0.3767  0.1835  0.1500
 8275SOL    HW136458   3.475   3.043   5.188  0.5370  1.1944  0.1576
 8275SOL    HW236459   3.494   3.119   5.061  1.0838 -0.6898 -0.4695
 8276SOL     OW36460   4.356   4.335   3.483  0.4429  0.1424 -0.1937
 8276SOL    HW136461   4.408   4.311   3.559  0.4580  0.5047 -0.0886
 8276SOL    HW236462   4.310   4.417   3.501 -0.2236 -0.3986  0.5329
 8277SOL     OW36463   2.103   3.795   1.728  0.2964  0.4356 -0.2943
 8277SOL    HW136464   2.049   3.838   1.794 -2.0726  0.2543 -2.1070
 8277SOL    HW236465   2.042   3.746   1.672 -0.2458  0.7218  0.0482
 8278SOL     OW36466   0.854   2.709   7.984 -0.2354  0.3740  0.1246
 8278SOL    HW136467   0.862   2.778   7.918 -0.9138 -0.5508 -0.9290
 8278SOL    HW236468   0.937   2.661   7.985 -0.2903  0.2790  0.1005
 8279SOL     OW36469   2.337   3.970   2.712 -0.3935 -0.3098 -0.5496
 8279SOL    HW136470   2.336   4.021   2.793  0.4684  0.6642 -1.1572
 8279SOL    HW236471   2.325   4.040   2.648  1.1876 -0.3193 -0.8614
 8280SOL     OW36472   3.132   4.575   9.882  0.1747 -0.0278 -0.2090
 8280SOL    HW136473   3.200   4.534   9.935  0.3584 -0.2683 -0.6319
 8280SOL    HW236474   3.082   4.623   9.948  0.7761  1.4847 -0.8584
 8281SOL     OW36475   0.856   0.137   6.395  0.0028 -0.2856 -0.4354
 8281SOL    HW136476   0.948   0.157   6.409 -0.4869  2.3045 -0.9147
 8281SOL    HW236477   0.851   0.042   6.387  3.3244 -0.4619 -0.2359
 8282SOL     OW36478   2.434   3.199   2.466  0.0458 -0.5463 -0.2032
 8282SOL    HW136479   2.388   3.150   2.398 -0.6135  0.2312 -0.3092
 8282SOL    HW236480   2.373   3.271   2.476 -2.9607 -3.0921 -0.2093
 8283SOL     OW36481   0.158   3.611   2.010 -0.5279  0.0322  0.3502
 8283SOL    HW136482   0.077   3.641   2.052  1.2697  4.2245  0.8225
 8283SOL    HW236483   0.139   3.650   1.925 -2.0911  0.3948  0.8556
 8284SOL     OW36484   3.144   2.782   3.742  0.3211  0.0477  1.0615
 8284SOL    HW136485   3.077   2.714   3.748  1.3763 -1.1045  0.0144
 8284SOL    HW236486   3.194   2.754   3.665  0.3224  0.4350  0.9193
 8285SOL     OW36487   1.661   3.552   4.010  0.3872  0.0311 -0.4220
 8285SOL    HW136488   1.700   3.603   3.939  0.0945  0.0857 -0.5475
 8285SOL    HW236489   1.574   3.586   4.032  0.1205 -1.3949  0.7209
 8286SOL     OW36490   3.263   1.160   4.839 -0.0267 -0.2639 -0.2143
 8286SOL    HW136491   3.235   1.219   4.769 -1.7323 -0.7034  0.0949
 8286SOL    HW236492   3.273   1.215   4.917  0.9531 -2.9481  1.5731
 8287SOL     OW36493   3.765   3.981   3.409  1.1161  0.0068 -0.0287
 8287SOL    HW136494   3.816   4.049   3.454 -1.4365 -0.1856  3.1340
 8287SOL    HW236495   3.747   3.929   3.487 -0.2073 -1.1363 -1.1205
 8288SOL     OW36496   3.215   2.736   7.447  0.0331  0.5493 -0.0250
 8288SOL    HW136497   3.260   2.754   7.529 -1.9092 -1.5609  1.4914
 8288SOL    HW236498   3.130   2.777   7.462  0.7044  1.4177  1.4318
 8289SOL     OW36499   0.388   3.969   8.866 -0.5998  0.0812 -0.5107
 8289SOL    HW136500   0.381   4.007   8.778 -0.8860  1.2481  0.0247
 8289SOL    HW236501   0.473   3.926   8.869  0.0751  1.3507 -1.6496
 8290SOL     OW36502   0.024   4.244  15.075 -0.1684 -0.4856 -0.0534
 8290SOL    HW136503   4.719   4.330  15.089 -0.9501 -0.4632 -2.4286
 8290SOL    HW236504   0.039   4.217  15.165  2.0516  0.9235  0.0014
 8291SOL     OW36505   3.493   2.429   8.959 -0.2510  0.2179  0.2947
 8291SOL    HW136506   3.497   2.346   8.911  0.6295 -1.5690  3.4357
 8291SOL    HW236507   3.401   2.424   8.985 -0.3081  0.5166  0.1467
 8292SOL     OW36508   4.371   1.360   6.378 -0.2539  0.2453  0.0130
 8292SOL    HW136509   4.330   1.446   6.370 -2.0410 -0.4284  2.0345
 8292SOL    HW236510   4.337   1.323   6.296  0.7683  3.8718 -2.0509
 8293SOL     OW36511   4.035   4.420   9.993 -0.1899 -0.3809  0.2158
 8293SOL    HW136512   4.049   4.360  10.065  1.7044  1.4356  1.3803
 8293SOL    HW236513   4.119   4.467   9.990 -0.1044 -0.5540 -0.1296
 8294SOL     OW36514   4.321   2.669   0.796 -0.1982  0.1726  0.2274
 8294SOL    HW136515   4.244   2.612   0.799 -2.2736  3.0944  2.1800
 8294SOL    HW236516   4.367   2.623   0.866  0.5196  0.9453  0.2650
 8295SOL     OW36517   4.579   0.269  13.352  0.3005 -0.4700 -0.5298
 8295SOL    HW136518   4.522   0.257  13.428  1.1261 -2.1602 -0.1665
 8295SOL    HW236519   4.655   0.224  13.389 -0.6055 -0.3143  1.5276
 8296SOL     OW36520   2.150   0.838   9.463 -0.0020  0.4700  0.1032
 8296SOL    HW136521   2.075   0.865   9.515 -1.0345 -1.0089 -0.6226
 8296SOL    HW236522   2.205   0.909   9.497 -0.0778  0.3892  0.3920
 8297SOL     OW36523   0.701   2.278   5.161 -0.4049 -0.2904 -0.1723
 8297SOL    HW136524   0.646   2.233   5.097 -1.2428  0.0296  0.3252
 8297SOL    HW236525   0.658   2.363   5.170 -0.5255 -0.1513 -2.1206
 8298SOL     OW36526   0.298   0.602   5.631 -0.4959 -0.1746  0.4365
 8298SOL    HW136527   0.289   0.507   5.632 -4.5923  0.1938  0.5073
 8298SOL    HW236528   0.319   0.618   5.539 -2.3890  0.1585  0.0529
 8299SOL     OW36529   1.114   3.070   6.532  0.4142 -0.6623  0.1135
 8299SOL    HW136530   1.085   3.122   6.607  0.8603  1.9966 -1.5848
 8299SOL    HW236531   1.040   3.083   6.473 -1.0202 -1.4323  1.7594
 8300SOL     OW36532   0.582   3.414   2.134 -0.4183  0.0538 -0.3122
 8300SOL    HW136533   0.536   3.495   2.112 -0.1531  0.4509  0.5814
 8300SOL    HW236534   0.573   3.361   2.055  1.3820  0.2539 -0.6517
 8301SOL     OW36535   1.467   1.407   3.930 -0.0075 -0.6068  0.7362
 8301SOL    HW136536   1.385   1.368   3.897 -0.3382  0.9780 -0.3157
 8301SOL    HW236537   1.528   1.354   3.878 -1.5068 -2.9410  1.3403
 8302SOL     OW36538   4.523   1.350   9.522  0.0640 -0.0474  0.4443
 8302SOL    HW136539   4.454   1.383   9.581 -0.2553 -0.9618  0.5932
 8302SOL    HW236540   4.476   1.355   9.439 -0.5458 -1.1658  0.7133
 8303SOL     OW36541   2.966   3.818   2.843  0.4398  0.5268 -0.3149
 8303SOL    HW136542   2.974   3.860   2.758 -1.6687 -0.6581 -1.0995
 8303SOL    HW236543   2.949   3.896   2.895  1.7453 -0.2703  1.3070
 8304SOL     OW36544   2.372   3.615   8.153 -0.0913  0.0323 -0.4557
 8304SOL    HW136545   2.467   3.612   8.149 -0.0591 -0.5165  0.6843
 8304SOL    HW236546   2.356   3.675   8.226 -0.9888  1.4910 -1.8588
 8305SOL     OW36547   0.676   1.617   7.977 -0.1102  0.3018 -0.0032
 8305SOL    HW136548   0.710   1.538   7.935 -2.4896 -0.1148 -1.1232
 8305SOL    HW236549   0.661   1.590   8.068 -0.4432  1.2409  0.2173
 8306SOL     OW36550   0.280   0.087  16.453  0.0634 -0.1438  0.0367
 8306SOL    HW136551   0.207   0.145  16.476 -0.0280 -0.6291  0.9753
 8306SOL    HW236552   0.297   0.118  16.364 -0.1000 -1.5888 -0.5155
 8307SOL     OW36553   0.071   1.523   7.630  0.2919 -0.5951  0.2435
 8307SOL    HW136554   0.034   1.517   7.719 -1.0639  1.6033 -0.1450
 8307SOL    HW236555   0.028   1.600   7.592  0.0631 -0.6880  0.3144
 8308SOL     OW36556   4.351   1.488   7.856  0.0424 -0.1156  0.1431
 8308SOL    HW136557   4.379   1.494   7.948  0.7793 -1.2076 -0.0045
 8308SOL    HW236558   4.285   1.558   7.857  1.1833  0.9408  3.1702
 8309SOL     OW36559   4.011   1.587   6.451  0.2169  0.1956 -0.8048
 8309SOL    HW136560   4.089   1.632   6.417  0.6452  0.3517  0.4014
 8309SOL    HW236561   3.952   1.598   6.376  0.8956  0.3560 -1.3212
 8310SOL     OW36562   2.273   1.293   3.291 -0.0985 -0.4121  0.1514
 8310SOL    HW136563   2.315   1.220   3.337  0.3696  0.8611  1.7544
 8310SOL    HW236564   2.216   1.247   3.229 -1.3883  2.4518 -0.7982
 8311SOL     OW36565   2.216   2.934  11.922  0.3790  0.2881  0.5071
 8311SOL    HW136566   2.228   2.845  11.956  2.0640 -0.2188 -1.3729
 8311SOL    HW236567   2.254   2.983  11.995 -1.9783 -1.4045  2.8715
 8312SOL     OW36568   2.998   2.551   7.580 -0.6472  0.7547 -1.1665
 8312SOL    HW136569   3.090   2.524   7.586 -1.3935 -1.3561  0.4852
 8312SOL    HW236570   2.963   2.465   7.561  1.4196 -0.2137 -0.6211
 8313SOL     OW36571   0.220   4.257   3.261 -0.4223  0.5853 -0.0995
 8313SOL    HW136572   0.228   4.325   3.328 -0.8257  0.5921 -0.0584
 8313SOL    HW236573   0.128   4.256   3.235 -0.7908 -0.1177  1.2158
 8314SOL     OW36574   1.220   4.289  11.129 -0.0094 -0.0171 -0.2913
 8314SOL    HW136575   1.308   4.319  11.103 -0.9517  0.9502 -2.3494
 8314SOL    HW236576   1.226   4.197  11.103 -0.1115 -0.3281  0.7765
 8315SOL     OW36577   3.182   0.776   1.351 -0.7833 -0.0947  0.5122
 8315SOL    HW136578   3.103   0.727   1.326 -1.2881  0.7280  0.4583
 8315SOL    HW236579   3.148   0.824   1.427  1.2386 -0.8272  1.8603
 8316SOL     OW36580   2.780   4.117   7.423 -0.3695 -0.2166  0.0864
 8316SOL    HW136581   2.745   4.057   7.490 -1.5722 -0.9563 -1.2003
 8316SOL    HW236582   2.853   4.061   7.397 -1.3397 -1.2001 -0.5274
 8317SOL     OW36583   1.173   0.228  11.384  0.3443  0.1250  0.0397
 8317SOL    HW136584   1.147   0.269  11.466 -1.5422  0.8310 -0.9235
 8317SOL    HW236585   1.131   0.143  11.394  0.2020  0.2003  0.0763
 8318SOL     OW36586   4.311   2.663   2.381  0.4010 -0.5608 -0.0095
 8318SOL    HW136587   4.301   2.711   2.463  0.2067  0.3046 -0.5380
 8318SOL    HW236588   4.264   2.725   2.326  0.5741  0.0300  0.5048
 8319SOL     OW36589   2.946   0.585   0.715 -0.4094 -0.3728 -0.2457
 8319SOL    HW136590   2.897   0.546   0.643  1.4690 -0.3613 -1.5310
 8319SOL    HW236591   2.988   0.660   0.672  0.5123 -1.0102 -0.4748
 8320SOL     OW36592   4.406   3.167   9.686 -0.2442 -0.0841  0.5519
 8320SOL    HW136593   4.356   3.188   9.765 -0.7732 -1.6208  0.6240
 8320SOL    HW236594   4.338   3.145   9.622  0.6612  0.3199 -0.5371
 8321SOL     OW36595   2.275   3.884  17.335 -0.2549 -0.1348 -0.0021
 8321SOL    HW136596   2.369   3.901  17.332 -0.1468 -0.8956 -1.1432
 8321SOL    HW236597   2.263   3.874  17.429 -1.8041 -1.2705 -0.3132
 8322SOL     OW36598   3.741   3.982   7.792 -0.6360 -0.5726  0.6346
 8322SOL    HW136599   3.716   3.920   7.724  0.8086 -1.0297  0.5112
 8322SOL    HW236600   3.797   4.047   7.749 -0.2052 -0.9154  0.6832
 8323SOL     OW36601   2.927   0.146   4.478 -0.6106  0.2887  0.2920
 8323SOL    HW136602   2.871   0.068   4.471 -2.1616  1.5214 -1.0645
 8323SOL    HW236603   2.954   0.145   4.570  2.1020  2.8709 -0.5096
 8324SOL     OW36604   0.359   1.267   7.755 -0.7210 -0.6262  0.3690
 8324SOL    HW136605   0.444   1.230   7.732  0.5732  2.2541  0.5854
 8324SOL    HW236606   0.299   1.194   7.740 -0.7217 -0.3204 -1.0989
 8325SOL     OW36607   0.637   0.813   9.167 -0.2522  0.7189  0.1168
 8325SOL    HW136608   0.662   0.783   9.254 -0.0124  0.4971 -0.0285
 8325SOL    HW236609   0.551   0.775   9.153 -0.9911  1.2353  3.2482
 8326SOL     OW36610   0.921   4.388   4.259 -0.1376  0.2966  0.5532
 8326SOL    HW136611   0.872   4.469   4.240  0.1710 -0.2446 -2.5565
 8326SOL    HW236612   0.918   4.394   4.354  0.6203 -0.7908  0.6392
 8327SOL     OW36613   0.546   1.463  16.598  0.2137  0.5332 -0.4330
 8327SOL    HW136614   0.619   1.401  16.595 -0.7310 -0.4807 -2.3929
 8327SOL    HW236615   0.574   1.523  16.667 -1.1438  1.4693 -0.6984
 8328SOL     OW36616   0.310   3.772   5.606  0.1581  0.4170  0.2558
 8328SOL    HW136617   0.218   3.763   5.581  0.2179  0.5058  0.0115
 8328SOL    HW236618   0.354   3.746   5.525  2.8346 -0.3143  1.9612
 8329SOL     OW36619   0.412   1.979  15.930 -0.6764  0.5321 -0.2256
 8329SOL    HW136620   0.507   1.977  15.927 -0.6757 -0.3045  0.1325
 8329SOL    HW236621   0.382   1.904  15.983 -0.3562  0.2880 -0.3902
 8330SOL     OW36622   2.207   0.191   7.181  0.4123  0.1402 -0.4308
 8330SOL    HW136623   2.167   0.253   7.242  1.0442 -1.1995  1.3544
 8330SOL    HW236624   2.187   0.105   7.217 -1.4880  0.2198 -1.3092
 8331SOL     OW36625   0.715   3.413   4.577  0.5607 -0.3583 -0.1461
 8331SOL    HW136626   0.721   3.370   4.663 -0.9149 -0.8802 -0.3194
 8331SOL    HW236627   0.787   3.476   4.590  0.2086 -0.2964  1.6026
 8332SOL     OW36628   2.985   3.033   5.680 -0.5204 -0.1893  0.3516
 8332SOL    HW136629   3.057   3.021   5.618 -0.1892  0.1581  0.6724
 8332SOL    HW236630   2.967   3.127   5.684  1.3754  0.2069 -0.3603
 8333SOL     OW36631   1.883   3.045   5.320 -0.5295 -0.2680 -0.5138
 8333SOL    HW136632   1.885   2.953   5.293 -1.1472  0.1378 -1.9320
 8333SOL    HW236633   1.789   3.045   5.340  0.1644  0.5587  2.7221
 8334SOL     OW36634   0.634   2.352   2.655 -0.2275 -0.1500 -0.3388
 8334SOL    HW136635   0.538   2.346   2.663 -0.3137  2.5796  0.5070
 8334SOL    HW236636   0.664   2.277   2.707 -0.4778 -0.7721 -1.0974
 8335SOL     OW36637   2.798   0.076  12.722  0.0040 -0.0810 -0.3723
 8335SOL    HW136638   2.884   0.044  12.695  0.1047 -2.0101  2.1518
 8335SOL    HW236639   2.827   0.154  12.769 -2.5755  0.5174  0.2326
 8336SOL     OW36640   2.750   3.461   5.152 -0.7649  0.4187  0.7930
 8336SOL    HW136641   2.842   3.435   5.163 -0.8089 -0.2578 -0.5079
 8336SOL    HW236642   2.751   3.556   5.162 -1.8360  0.4169  0.8724
 8337SOL     OW36643   4.061   0.159  17.731 -0.1967  0.5667  0.3433
 8337SOL    HW136644   4.135   0.152   0.050  1.3951  0.8272 -1.5563
 8337SOL    HW236645   3.989   0.190   0.044 -0.4724  0.5085  0.0094
 8338SOL     OW36646   2.087   0.299   1.741  0.6747 -0.5455 -0.0427
 8338SOL    HW136647   2.154   0.317   1.807  0.8954  0.0750 -0.4318
 8338SOL    HW236648   2.043   0.222   1.775  1.0994 -0.0271  1.7432
 8339SOL     OW36649   1.612   0.498   1.497  0.4598  0.3171 -0.0091
 8339SOL    HW136650   1.647   0.441   1.429 -0.7061 -0.2772 -0.0887
 8339SOL    HW236651   1.688   0.520   1.551 -0.9774  1.8805  1.3695
 8340SOL     OW36652   0.805   4.556   8.691  0.4100 -0.2766  0.9223
 8340SOL    HW136653   0.821   4.461   8.697  2.0734 -0.2701 -2.9276
 8340SOL    HW236654   0.853   4.581   8.612 -1.0485 -2.2017 -0.5841
 8341SOL     OW36655   2.670   3.843  15.375  0.3851  0.5133 -0.5216
 8341SOL    HW136656   2.695   3.914  15.316  0.6778 -0.6568 -1.8137
 8341SOL    HW236657   2.732   3.851  15.447 -0.0291 -3.8152  0.3306
 8342SOL     OW36658   0.700   2.773  17.330  0.0067 -0.4149 -0.1483
 8342SOL    HW136659   0.723   2.779  17.238 -2.5532  1.2563 -0.6887
 8342SOL    HW236660   0.728   2.685  17.354 -1.0479 -0.7713 -0.2168
 8343SOL     OW36661   0.394   4.581   1.697  0.4603 -0.1915 -0.7105
 8343SOL    HW136662   0.370   4.602   1.606 -1.7921 -2.4323 -0.6389
 8343SOL    HW236663   0.424   4.667   1.726  0.7190 -0.7456  0.6571
 8344SOL     OW36664   2.934   3.832  15.526  0.2733  0.1424 -0.3353
 8344SOL    HW136665   2.941   3.756  15.468  0.9808  0.1241 -0.2265
 8344SOL    HW236666   3.026   3.844  15.551  0.5451  1.1198 -1.7990
 8345SOL     OW36667   1.626   3.062   6.770  1.0312 -0.4826 -0.2483
 8345SOL    HW136668   1.544   3.092   6.810 -0.1460  0.0981 -3.1606
 8345SOL    HW236669   1.670   3.023   6.846  0.9177  1.7803  0.9866
 8346SOL     OW36670   3.428   2.857  15.585  0.3559 -0.3471 -0.0186
 8346SOL    HW136671   3.493   2.788  15.579  2.6449  1.6926  1.1726
 8346SOL    HW236672   3.387   2.831  15.667  2.2011  0.6655  1.2125
 8347SOL     OW36673   1.094   3.818   3.932 -0.3761  0.0950  0.2146
 8347SOL    HW136674   1.113   3.910   3.912 -0.5090 -0.1735 -1.1495
 8347SOL    HW236675   1.171   3.800   3.985  0.4584  0.0952 -0.9804
 8348SOL     OW36676   0.587   1.765   6.055  0.2650  0.0352  0.1371
 8348SOL    HW136677   0.658   1.822   6.026  0.4038 -0.5767 -0.7497
 8348SOL    HW236678   0.596   1.758   6.150 -0.5265 -0.0525  0.2053
 8349SOL     OW36679   4.057   3.873   4.729 -0.5598 -0.6584  0.3437
 8349SOL    HW136680   4.018   3.960   4.717 -0.9931 -0.8353  0.4805
 8349SOL    HW236681   4.109   3.885   4.808 -1.1988 -2.8334  1.1001
 8350SOL     OW36682   4.160   4.214   4.361 -0.5167  0.6241  0.1536
 8350SOL    HW136683   4.217   4.226   4.285 -0.3672 -0.5448  0.0858
 8350SOL    HW236684   4.125   4.130   4.330  0.2175 -0.2077  1.5704
 8351SOL     OW36685   2.388   1.916   3.989 -0.2308  0.6545 -0.1737
 8351SOL    HW136686   2.327   1.880   4.053  2.0414 -0.9978  1.0410
 8351SOL    HW236687   2.464   1.869   4.023 -0.2345  1.3007  0.7255
 8352SOL     OW36688   1.129   0.533   8.392 -0.3616 -0.0004 -0.7587
 8352SOL    HW136689   1.068   0.607   8.385 -0.1522  0.1138 -1.3611
 8352SOL    HW236690   1.067   0.470   8.428 -0.6621  0.4523 -0.4789
 8353SOL     OW36691   2.734   0.039   1.887 -0.7006 -0.0141  0.1555
 8353SOL    HW136692   2.763   0.032   1.796  0.5904  0.3413  0.5344
 8353SOL    HW236693   2.789   0.115   1.906 -0.8711  0.7644 -2.4129
 8354SOL     OW36694   0.723   0.176   2.096 -0.7880  0.0995  0.4217
 8354SOL    HW136695   0.770   0.183   2.013  1.5912  1.1802  1.8605
 8354SOL    HW236696   0.639   0.213   2.067 -1.4803 -0.2934  1.9238
 8355SOL     OW36697   1.635   1.097   8.752  0.5693  0.0071 -0.7410
 8355SOL    HW136698   1.600   1.145   8.677  2.2804  1.0659 -0.8658
 8355SOL    HW236699   1.556   1.056   8.786  0.7430  0.5820  0.3603
 8356SOL     OW36700   1.065   2.877   5.449 -0.3300  0.2562  0.1506
 8356SOL    HW136701   0.997   2.816   5.418  1.1057 -1.2141 -0.1088
 8356SOL    HW236702   1.133   2.819   5.484  0.6934  0.5367 -1.3866
 8357SOL     OW36703   3.085   3.716  15.227  0.2161  0.4479  0.5059
 8357SOL    HW136704   3.021   3.736  15.158  1.4564 -0.4337 -0.8986
 8357SOL    HW236705   3.039   3.653  15.282  1.8988 -0.0542  1.3298
 8358SOL     OW36706   3.679   2.233   4.352 -0.2965  0.4922 -0.2780
 8358SOL    HW136707   3.600   2.207   4.305 -0.4386 -1.3597  1.0059
 8358SOL    HW236708   3.735   2.244   4.274  1.5497  1.9227  1.2394
 8359SOL     OW36709   0.960   1.964   2.892  0.1118  0.5029  0.3110
 8359SOL    HW136710   1.029   1.903   2.865 -1.1227 -0.1758 -1.3695
 8359SOL    HW236711   0.983   2.037   2.835  1.8327 -0.8749 -0.7814
 8360SOL     OW36712   4.721   0.640   5.604  0.0116  0.0544  0.6042
 8360SOL    HW136713   0.047   0.637   5.676 -1.2185 -2.6238  1.5404
 8360SOL    HW236714   4.643   0.614   5.653 -0.0466  0.3590  0.6731
 8361SOL     OW36715   0.556   0.122   1.439 -0.2019  0.2505  0.3894
 8361SOL    HW136716   0.644   0.138   1.406  0.7510 -0.6176  2.5548
 8361SOL    HW236717   0.546   0.028   1.423 -1.5702  0.0987  2.1245
 8362SOL     OW36718   1.688   2.889   5.987  0.0248 -0.7945 -0.0696
 8362SOL    HW136719   1.695   2.973   6.031  1.0641 -0.6475 -0.4926
 8362SOL    HW236720   1.773   2.885   5.942 -0.5753  0.7740 -1.3307
 8363SOL     OW36721   4.417   2.354   6.267 -0.0886 -0.4622  0.3644
 8363SOL    HW136722   4.395   2.307   6.348  0.5655  0.0040  0.8133
 8363SOL    HW236723   4.403   2.447   6.286 -0.5390 -0.3291 -0.6174
 8364SOL     OW36724   0.515   0.150   3.770  0.0785  0.1107  0.1382
 8364SOL    HW136725   0.563   0.077   3.808  1.7607  1.5134  0.6800
 8364SOL    HW236726   0.586   0.208   3.744 -0.6436  0.6994 -0.5357
 8365SOL     OW36727   4.205   4.698   6.619 -0.1235 -0.4525  0.1738
 8365SOL    HW136728   4.181   4.607   6.640  1.6347 -0.6209  1.4870
 8365SOL    HW236729   4.282   4.712   6.674 -0.7118  1.7914  0.4014
 8366SOL     OW36730   1.923   0.813   6.223 -0.8336  0.6584 -0.0085
 8366SOL    HW136731   1.856   0.747   6.209 -0.3931  0.1607  0.2207
 8366SOL    HW236732   1.992   0.769   6.173  3.0183  3.4584  2.7769
 8367SOL     OW36733   0.476   0.796   8.855  0.1100 -0.5356 -0.0543
 8367SOL    HW136734   0.418   0.870   8.872  3.0204  1.1322  2.6384
 8367SOL    HW236735   0.450   0.730   8.919 -1.3876 -0.0227 -0.1381
 8368SOL     OW36736   0.890   4.124   2.180  0.1768 -0.1227  0.2170
 8368SOL    HW136737   0.952   4.192   2.152 -1.3265  0.6725 -1.1553
 8368SOL    HW236738   0.821   4.173   2.224 -1.1897  0.4416 -2.5789
 8369SOL     OW36739   0.280   3.690  11.029 -0.4506 -0.3247  0.3890
 8369SOL    HW136740   0.261   3.651  11.114  0.1230 -0.6662  0.3574
 8369SOL    HW236741   0.195   3.667  10.990  0.8476  1.1824 -3.3835
 8370SOL     OW36742   2.854   0.243   6.237 -0.0516  0.0601  0.3042
 8370SOL    HW136743   2.766   0.281   6.232 -1.5814 -3.4010  1.3756
 8370SOL    HW236744   2.896   0.284   6.161 -0.3399  1.8159  1.0816
 8371SOL     OW36745   4.285   1.936  17.085 -0.5055 -0.2280  0.0169
 8371SOL    HW136746   4.324   1.895  17.008  0.9354  2.5436 -0.7133
 8371SOL    HW236747   4.340   2.012  17.098 -0.5082 -0.5066  1.5949
 8372SOL     OW36748   0.850   1.650   2.824 -0.1003  0.0755  0.1200
 8372SOL    HW136749   0.905   1.572   2.817  0.1098  0.2195  0.1484
 8372SOL    HW236750   0.919   1.716   2.815 -1.9392  1.6829 -2.0382
 8373SOL     OW36751   0.618   2.624  17.634  0.0781  0.0504 -0.0616
 8373SOL    HW136752   0.694   2.679  17.617 -0.5321  1.2889  1.1941
 8373SOL    HW236753   0.630   2.619  17.728 -0.5665  1.0348  0.0846
 8374SOL     OW36754   2.405   2.198   2.223 -0.0038 -0.7736 -0.3088
 8374SOL    HW136755   2.461   2.185   2.300  0.9422  0.6530 -0.7525
 8374SOL    HW236756   2.327   2.239   2.260  0.4489 -0.7891  0.6524
 8375SOL     OW36757   3.661   1.560   9.306  0.4217 -0.5069 -0.5280
 8375SOL    HW136758   3.596   1.563   9.236 -0.8413  0.3881  0.6741
 8375SOL    HW236759   3.745   1.535   9.267  1.2030 -1.6614  1.8533
 8376SOL     OW36760   2.392   4.610   5.878 -0.8872 -0.0196 -0.4893
 8376SOL    HW136761   2.420   4.522   5.855 -0.1348  0.2507 -0.6129
 8376SOL    HW236762   2.299   4.601   5.858 -1.2302 -0.2371  1.1799
 8377SOL     OW36763   3.531   0.910   5.188  0.2023  0.2269 -0.1975
 8377SOL    HW136764   3.570   0.841   5.242  1.3194  0.3117 -0.9077
 8377SOL    HW236765   3.562   0.992   5.225 -1.9975  0.0797  1.9822
 8378SOL     OW36766   1.083   3.003   0.218 -0.1091  0.2529 -0.2575
 8378SOL    HW136767   1.163   2.984   0.170  1.3399  3.3670  0.9839
 8378SOL    HW236768   1.074   3.094   0.192  0.2080  0.7688  1.4645
 8379SOL     OW36769   3.829   4.465   0.415  0.4123 -0.2590 -0.0938
 8379SOL    HW136770   3.749   4.414   0.401 -0.3763  1.1774 -0.8425
 8379SOL    HW236771   3.880   4.386   0.430  1.4626  0.6374  1.0405
 8380SOL     OW36772   2.116   0.829  13.074 -0.3601 -0.1752  0.3260
 8380SOL    HW136773   2.100   0.755  13.132  0.1430 -1.1945 -0.8449
 8380SOL    HW236774   2.029   0.847  13.039  0.1084 -2.2169 -1.8420
 8381SOL     OW36775   2.447   0.192   2.503 -0.7106 -0.8659 -0.1572
 8381SOL    HW136776   2.477   0.202   2.593 -1.8262  1.3903 -0.0322
 8381SOL    HW236777   2.442   0.096   2.504 -0.7662 -0.8589  0.2821
 8382SOL     OW36778   3.005   2.431  12.831 -0.1247 -0.0473 -0.3256
 8382SOL    HW136779   3.043   2.513  12.864  0.0900  0.7963 -2.6832
 8382SOL    HW236780   3.055   2.427  12.750 -0.9084  0.1619 -0.8285
 8383SOL     OW36781   3.495   0.872   5.875 -0.4286 -0.5662  0.8012
 8383SOL    HW136782   3.448   0.796   5.840 -0.1495 -0.2340 -0.2614
 8383SOL    HW236783   3.458   0.894   5.961 -1.2779  1.3884 -0.0702
 8384SOL     OW36784   1.762   1.660   0.760 -0.1599  0.1729  0.7401
 8384SOL    HW136785   1.837   1.600   0.752 -0.6880 -0.3257 -0.4738
 8384SOL    HW236786   1.768   1.680   0.853 -1.4618 -0.0919  0.8704
 8385SOL     OW36787   2.847   1.476   1.931 -0.4234  0.2228  0.1800
 8385SOL    HW136788   2.774   1.526   1.895 -2.5575 -2.1585  1.1698
 8385SOL    HW236789   2.798   1.396   1.952 -2.0732  0.8520 -1.2870
 8386SOL     OW36790   4.306   3.404  11.338 -0.5984 -0.6272  0.1167
 8386SOL    HW136791   4.307   3.310  11.321 -0.0427 -0.9099  1.6785
 8386SOL    HW236792   4.211   3.418  11.342 -0.4826  0.3052 -0.6568
 8387SOL     OW36793   1.341   1.589   2.782  0.4377 -0.7633  0.5653
 8387SOL    HW136794   1.333   1.510   2.728  0.5820  0.7777 -1.6789
 8387SOL    HW236795   1.339   1.552   2.871  0.7457  0.2874  1.0008
 8388SOL     OW36796   4.261   4.516   5.415 -0.1751  0.0360 -0.2376
 8388SOL    HW136797   4.222   4.562   5.489  0.4302  1.4450 -0.7822
 8388SOL    HW236798   4.216   4.431   5.412 -1.0502  0.5040 -0.2673
 8389SOL     OW36799   3.858   2.959   2.024  0.4461  0.3617  0.5120
 8389SOL    HW136800   3.855   3.048   2.058 -1.2395  0.1126  1.0074
 8389SOL    HW236801   3.952   2.953   2.008  0.5849  0.1770  1.4421
 8390SOL     OW36802   4.330   4.518   9.324 -0.5003 -0.1435 -0.6774
 8390SOL    HW136803   4.403   4.567   9.363 -0.4814 -0.3632 -0.4286
 8390SOL    HW236804   4.315   4.575   9.249  0.2575 -1.0388 -1.5163
 8391SOL     OW36805   4.252   2.050  15.553 -0.0358  0.3146  0.1705
 8391SOL    HW136806   4.247   2.084  15.643  0.5522  0.0025  0.3247
 8391SOL    HW236807   4.214   1.964  15.575  0.7168  0.0694  0.5300
 8392SOL     OW36808   3.567   2.191   1.575 -0.9666  0.3307 -0.0502
 8392SOL    HW136809   3.580   2.241   1.495  4.6782  0.8418  1.2238
 8392SOL    HW236810   3.636   2.232   1.628  0.1162 -0.4031 -0.9016
 8393SOL     OW36811   1.212   4.310   4.456 -0.2372 -0.0278 -0.2087
 8393SOL    HW136812   1.294   4.359   4.451  0.2656 -0.7121  1.2308
 8393SOL    HW236813   1.172   4.363   4.525  0.9010 -0.8004  1.0786
 8394SOL     OW36814   3.158   1.745   4.461 -0.5939 -0.2461  0.4168
 8394SOL    HW136815   3.192   1.818   4.512  0.0177 -0.0747 -0.2270
 8394SOL    HW236816   3.231   1.685   4.454 -0.5923 -0.0927 -1.0911
 8395SOL     OW36817   0.225   1.322   7.066  0.3484 -0.1011  0.0024
 8395SOL    HW136818   0.235   1.357   7.155 -1.9667 -0.3316  0.3476
 8395SOL    HW236819   0.205   1.407   7.028 -1.7801 -0.5798  0.0350
 8396SOL     OW36820   2.546   0.644   3.588 -0.2747 -0.4141 -0.2467
 8396SOL    HW136821   2.567   0.737   3.585 -0.2727 -0.3546  1.4309
 8396SOL    HW236822   2.631   0.602   3.592 -0.0415  0.2230  1.5314
 8397SOL     OW36823   3.716   0.656  14.401 -0.2459 -0.0146  0.4096
 8397SOL    HW136824   3.629   0.670  14.438 -1.2802 -1.0391 -1.6493
 8397SOL    HW236825   3.690   0.596  14.331  0.6840  0.0575 -0.0017
 8398SOL     OW36826   0.415   2.188  10.389  0.1431 -0.5840  0.4342
 8398SOL    HW136827   0.332   2.165  10.431  0.4411 -0.9506  0.8211
 8398SOL    HW236828   0.447   2.100  10.368  1.9615  0.0555  0.5925
 8399SOL     OW36829   4.344   4.157   1.391  0.0082  0.8115  0.1254
 8399SOL    HW136830   4.395   4.083   1.424  1.4623  2.3668  1.3159
 8399SOL    HW236831   4.409   4.204   1.339  1.4485 -2.2057 -0.7919
 8400SOL     OW36832   3.977   0.011   9.086  0.3044  0.2291 -0.1009
 8400SOL    HW136833   3.977   0.088   9.144  0.9166  0.9384 -1.0594
 8400SOL    HW236834   3.989   4.679   9.152 -1.1713 -0.2506 -0.3183
 8401SOL     OW36835   3.478   3.512   8.869  0.4144 -0.7133  0.6716
 8401SOL    HW136836   3.470   3.582   8.804 -0.7263  0.8067  2.4344
 8401SOL    HW236837   3.557   3.527   8.922  0.5108  1.6243 -0.1341
 8402SOL     OW36838   4.589   3.499   1.971  0.0922  0.7672  0.2370
 8402SOL    HW136839   4.544   3.551   2.038  0.2298  0.5483  0.4954
 8402SOL    HW236840   4.604   3.420   2.022  1.3183 -0.5596 -2.1784
 8403SOL     OW36841   1.313   0.711   5.699  0.3919 -0.5882 -0.2253
 8403SOL    HW136842   1.308   0.784   5.760  0.0465 -0.6880 -0.1366
 8403SOL    HW236843   1.375   0.652   5.742  0.3237 -1.8961 -1.9272
 8404SOL     OW36844   3.581   4.397   9.756  0.3923 -0.1710  0.7709
 8404SOL    HW136845   3.624   4.410   9.841  1.2102  0.5696  0.2390
 8404SOL    HW236846   3.630   4.464   9.709 -0.6725  0.8153  1.0375
 8405SOL     OW36847   4.120   1.305   4.691 -0.3060  0.2083 -0.4656
 8405SOL    HW136848   4.189   1.271   4.747 -2.2591 -1.4981  0.8707
 8405SOL    HW236849   4.097   1.231   4.634 -1.3286  0.2364 -0.1031
 8406SOL     OW36850   3.135   2.045   5.428 -0.0121  0.0074  0.0007
 8406SOL    HW136851   3.125   2.080   5.339  0.3341 -3.0660 -1.2580
 8406SOL    HW236852   3.206   1.984   5.408 -0.3872 -0.3358 -0.2902
 8407SOL     OW36853   0.433   3.515  13.389  0.1501 -0.2299 -0.3663
 8407SOL    HW136854   0.494   3.552  13.325  0.9891  1.1247  1.2242
 8407SOL    HW236855   0.360   3.576  13.376 -0.8655 -1.2697  0.4803
 8408SOL     OW36856   4.697   3.963   4.649 -0.3394 -0.2576 -0.9660
 8408SOL    HW136857   4.619   3.951   4.596 -0.8495 -1.5649  0.1002
 8408SOL    HW236858   4.668   3.937   4.736 -1.5398  1.2609 -0.9090
 8409SOL     OW36859   0.501   1.179  12.904 -0.0825  0.6805  0.3001
 8409SOL    HW136860   0.559   1.254  12.918 -1.7589  2.5123 -2.6557
 8409SOL    HW236861   0.450   1.209  12.829 -3.1631  1.3544  2.6621
 8410SOL     OW36862   1.971   1.272   8.792 -0.1316 -0.6583 -0.1862
 8410SOL    HW136863   1.888   1.227   8.784  0.7260 -1.7742 -2.6287
 8410SOL    HW236864   2.011   1.227   8.867  2.8142 -0.4545 -1.6291
 8411SOL     OW36865   0.112   3.054   9.379  0.0525  0.0762 -0.3965
 8411SOL    HW136866   0.097   3.088   9.291 -1.5120  1.7970  0.5450
 8411SOL    HW236867   0.029   3.012   9.404 -0.5269  2.4771  1.7096
 8412SOL     OW36868   0.668   2.885   6.119  0.3132 -0.2154  0.0801
 8412SOL    HW136869   0.621   2.877   6.036 -0.2169  3.9564 -0.0123
 8412SOL    HW236870   0.762   2.898   6.103  0.0496 -0.7307 -1.9265
 8413SOL     OW36871   1.095   0.248   4.050  0.0812  0.4457 -0.3273
 8413SOL    HW136872   1.160   0.246   3.979 -1.1029  1.7780 -1.4564
 8413SOL    HW236873   1.123   0.178   4.108 -1.9298  0.7951  1.0495
 8414SOL     OW36874   3.138   3.341  15.369 -0.5441  0.1215 -0.0804
 8414SOL    HW136875   3.228   3.359  15.342 -0.3842 -1.7717 -0.8157
 8414SOL    HW236876   3.163   3.258  15.409 -1.2922  0.5633  1.3012
 8415SOL     OW36877   0.672   2.336   8.000  0.0931  0.4089 -0.2827
 8415SOL    HW136878   0.606   2.272   8.029  2.0090 -0.6346  1.7233
 8415SOL    HW236879   0.615   2.412   7.987 -2.6649 -1.7657 -0.8834
 8416SOL     OW36880   4.518   1.084   7.713 -0.5436 -0.4559  0.2884
 8416SOL    HW136881   4.449   1.031   7.752 -1.0820 -0.2730 -0.4217
 8416SOL    HW236882   4.528   1.049   7.624  1.2381 -1.2802  0.8073
 8417SOL     OW36883   3.365   2.097   7.038 -0.2349 -0.8017  0.6046
 8417SOL    HW136884   3.324   2.010   7.031 -1.8134 -0.1188  1.3592
 8417SOL    HW236885   3.451   2.082   7.000 -0.3573  2.9611 -1.2413
 8418SOL     OW36886   1.272   1.617   3.647  0.5348  0.5553 -0.3686
 8418SOL    HW136887   1.208   1.585   3.711 -0.0357 -0.4819 -1.4558
 8418SOL    HW236888   1.277   1.540   3.590  1.0526 -0.4228  1.0267
 8419SOL     OW36889   1.784   0.744   4.258  0.5945 -0.8193  0.2254
 8419SOL    HW136890   1.801   0.803   4.331  0.6871  2.4888 -2.4338
 8419SOL    HW236891   1.690   0.758   4.259  0.8147  0.4795  2.5288
 8420SOL     OW36892   4.511   0.206   8.449 -0.2535  1.1163  0.0225
 8420SOL    HW136893   4.589   0.249   8.485 -0.2467  0.6016  0.6322
 8420SOL    HW236894   4.466   0.181   8.530 -0.4333  2.5331  0.3751
 8421SOL     OW36895   0.105   4.448  15.921  0.2654 -0.2137 -0.1591
 8421SOL    HW136896   0.133   4.384  15.857  0.0072  0.8004 -1.2834
 8421SOL    HW236897   0.069   4.520  15.870 -0.9711 -0.2862  0.5875
 8422SOL     OW36898   3.893   4.689   6.644  0.1516 -0.6454 -0.3917
 8422SOL    HW136899   3.969   4.634   6.663  1.4045  1.0083 -0.6527
 8422SOL    HW236900   3.918   4.717   6.556 -3.7914  2.2284 -0.6052
 8423SOL     OW36901   1.811   0.035   5.247  0.3175 -0.1290 -0.0872
 8423SOL    HW136902   1.732   0.012   5.198 -0.2422  1.6551 -0.0318
 8423SOL    HW236903   1.875   4.703   5.226  0.7797  0.1295  0.4865
 8424SOL     OW36904   3.944   2.512  16.098 -0.0320  0.3970  0.1932
 8424SOL    HW136905   3.937   2.480  16.188  0.1252 -2.7570 -0.9170
 8424SOL    HW236906   4.016   2.572  16.118  0.4181 -0.5095  1.2709
 8425SOL     OW36907   3.602   2.450  13.661  0.0875  0.3587 -0.0955
 8425SOL    HW136908   3.609   2.535  13.618  2.1582 -0.0098 -0.5012
 8425SOL    HW236909   3.508   2.441  13.677  0.1356  3.3231  1.7024
 8426SOL     OW36910   1.551   3.011   2.873  0.1577  0.0374 -0.1154
 8426SOL    HW136911   1.493   2.935   2.877 -1.9318  1.7515  1.9999
 8426SOL    HW236912   1.507   3.074   2.929 -0.6539  0.6563 -1.4288
 8427SOL     OW36913   0.951   2.944   6.069 -0.1283 -0.3426  0.3180
 8427SOL    HW136914   0.978   2.894   5.992 -0.6705  0.7632 -0.5830
 8427SOL    HW236915   1.010   3.019   6.070 -2.1092  1.1937  1.0673
 8428SOL     OW36916   3.489   2.643   4.112 -0.1507 -0.3127  0.7642
 8428SOL    HW136917   3.415   2.634   4.052  1.5368 -1.4640 -1.1397
 8428SOL    HW236918   3.557   2.616   4.050 -1.1223  1.0417 -0.8921
 8429SOL     OW36919   1.921   0.342  10.825  0.6785 -0.4184 -0.2093
 8429SOL    HW136920   1.970   0.417  10.860  0.9747 -0.3953 -0.6664
 8429SOL    HW236921   1.829   0.347  10.851  0.1829  2.9568 -2.5482
 8430SOL     OW36922   1.383   3.320  17.153 -0.3496  0.1524  0.0131
 8430SOL    HW136923   1.472   3.334  17.185 -0.3639 -0.7232  0.4567
 8430SOL    HW236924   1.362   3.397  17.100 -0.3558 -0.9827 -1.6335
 8431SOL     OW36925   1.149   4.564   2.754  0.5305 -0.0338 -0.1397
 8431SOL    HW136926   1.106   4.643   2.787  0.2462 -1.3014  2.5148
 8431SOL    HW236927   1.176   4.597   2.668  2.2964 -0.6143  0.1946
 8432SOL     OW36928   4.364   0.040   9.585  0.7389  0.1255  0.3744
 8432SOL    HW136929   4.428   4.718   9.544  0.7615  0.6025 -0.2715
 8432SOL    HW236930   4.283   0.011   9.542 -0.6143  2.3409  1.4350
 8433SOL     OW36931   0.884   4.177   3.974  0.5007 -0.2566 -0.1421
 8433SOL    HW136932   0.841   4.111   4.028 -1.0998  1.0267  0.1407
 8433SOL    HW236933   0.821   4.248   3.982  3.1626  1.7264  3.2685
 8434SOL     OW36934   0.945   4.433   5.825  0.0151  0.3458 -0.3577
 8434SOL    HW136935   0.883   4.450   5.754 -0.7273 -3.6544 -0.6729
 8434SOL    HW236936   0.954   4.339   5.807  0.0646  0.4845 -1.0549
 8435SOL     OW36937   3.470   2.540   3.401 -0.0291  0.3547  0.3511
 8435SOL    HW136938   3.432   2.539   3.314  1.9430  0.2646 -0.5230
 8435SOL    HW236939   3.528   2.464   3.404 -1.6948 -0.9084  0.0308
 8436SOL     OW36940   2.578   2.080   5.004 -0.0662 -0.2562  0.4355
 8436SOL    HW136941   2.584   2.087   4.909 -0.4860  1.0027  0.4986
 8436SOL    HW236942   2.485   2.059   4.999  0.3976 -2.4228  0.6444
 8437SOL     OW36943   0.217   2.288   8.942 -0.2066 -0.3808  0.4748
 8437SOL    HW136944   0.283   2.329   8.886  0.3665 -0.5570  1.0217
 8437SOL    HW236945   0.273   2.226   8.990  0.2948 -2.0838 -2.3018
 8438SOL     OW36946   3.159   2.658   3.227  0.1121 -0.3998  1.0245
 8438SOL    HW136947   3.246   2.625   3.203 -0.8005 -2.2743  0.3331
 8438SOL    HW236948   3.158   2.725   3.159  0.3636 -1.7357 -0.2948
 8439SOL     OW36949   0.424   3.538   7.787 -0.2628  0.0319  0.0447
 8439SOL    HW136950   0.402   3.591   7.864  1.2031  1.1035 -0.2569
 8439SOL    HW236951   0.388   3.459   7.828 -1.0903  0.5818  0.3716
 8440SOL     OW36952   4.124   1.068   4.511 -0.8490  0.0726  0.4870
 8440SOL    HW136953   4.136   1.049   4.418 -1.4558  2.7200 -0.1320
 8440SOL    HW236954   4.062   0.997   4.528 -1.2999  0.0024 -1.4080
 8441SOL     OW36955   4.700   4.602   8.130  0.6613  0.0700  0.4684
 8441SOL    HW136956   4.627   4.663   8.117  0.5695  0.1272  1.2025
 8441SOL    HW236957   4.732   4.624   8.218  0.9137 -1.5691  0.7972
 8442SOL     OW36958   3.901   0.500   3.510  0.8356 -0.0263 -0.1900
 8442SOL    HW136959   3.857   0.481   3.427 -1.1733  2.4022  0.3040
 8442SOL    HW236960   3.911   0.595   3.521  1.3502  0.0882 -1.6346
 8443SOL     OW36961   2.716   4.533   1.475  0.4491  0.2500  0.1419
 8443SOL    HW136962   2.665   4.572   1.404  0.4379 -1.1322 -0.6122
 8443SOL    HW236963   2.740   4.448   1.439  0.4607 -0.2717  1.4047
 8444SOL     OW36964   3.335   3.795   1.427  0.4535  0.2954  0.4074
 8444SOL    HW136965   3.291   3.753   1.500  0.7871  1.0468  1.0379
 8444SOL    HW236966   3.318   3.729   1.360  0.0594 -0.2547  1.0474
 8445SOL     OW36967   3.149   3.201   7.269 -0.1665  0.4429  0.1695
 8445SOL    HW136968   3.156   3.127   7.209 -0.9433 -0.6227  1.3891
 8445SOL    HW236969   3.153   3.270   7.203 -0.4046 -2.3157 -2.7202
 8446SOL     OW36970   0.915   0.736   8.444  0.1756 -0.2498 -0.4168
 8446SOL    HW136971   0.837   0.696   8.406  1.0523 -0.2046 -2.2488
 8446SOL    HW236972   0.881   0.813   8.489 -0.1980  0.8250 -2.5327
 8447SOL     OW36973   2.950   2.889  15.925  0.3670  0.5499 -0.3934
 8447SOL    HW136974   2.882   2.912  15.989  1.7136 -1.4524  1.7435
 8447SOL    HW236975   2.893   2.835  15.870 -0.2132  0.1679  0.5854
 8448SOL     OW36976   2.377   2.963   2.281 -0.2433  0.4050  0.0191
 8448SOL    HW136977   2.346   3.022   2.212 -0.6048 -0.2418 -0.3718
 8448SOL    HW236978   2.463   2.945   2.243 -0.5895 -0.9700 -0.1084
 8449SOL     OW36979   4.241   1.737  10.710 -0.3540 -0.5926 -0.7582
 8449SOL    HW136980   4.325   1.768  10.743 -0.2574 -0.7511 -0.8515
 8449SOL    HW236981   4.247   1.659  10.766 -0.0527  0.4534  0.6539
 8450SOL     OW36982   3.322   3.470   5.700 -0.1745 -0.2437  0.3249
 8450SOL    HW136983   3.248   3.443   5.755 -0.2593 -1.0037 -0.1598
 8450SOL    HW236984   3.392   3.411   5.729  0.8434  0.0426 -1.5532
 8451SOL     OW36985   1.029   0.115  14.804 -0.3423 -0.1197 -0.0527
 8451SOL    HW136986   1.023   0.030  14.761 -1.3287  0.5471 -1.2214
 8451SOL    HW236987   1.033   0.166  14.724 -0.1136  0.0814  0.0898
 8452SOL     OW36988   1.975   4.350   5.472  0.6829  0.0491  0.6335
 8452SOL    HW136989   1.886   4.383   5.463  0.1510 -1.5845 -0.1679
 8452SOL    HW236990   1.950   4.292   5.545  0.9076 -0.8610 -0.0163
 8453SOL     OW36991   3.910   2.000   5.302  0.0396  0.0551 -0.3256
 8453SOL    HW136992   3.849   2.059   5.257 -0.6834 -1.3935 -1.2410
 8453SOL    HW236993   3.918   1.936   5.232  1.3785 -1.6024  1.3724
 8454SOL     OW36994   1.584   4.630   4.276  0.1485  0.0310 -0.3703
 8454SOL    HW136995   1.669   4.627   4.231 -0.0588  0.2126 -0.7735
 8454SOL    HW236996   1.575   4.723   4.297 -1.5037 -0.8381  2.7000
 8455SOL     OW36997   0.311   2.016  16.916  0.0887  0.2836  0.3893
 8455SOL    HW136998   0.347   2.009  17.005  0.2098 -2.4565  0.1246
 8455SOL    HW236999   0.222   2.004  16.948 -0.4502 -1.5151 -1.7855
 8456SOL     OW37000   1.491   4.424   4.434 -0.2441  0.3361 -0.1517
 8456SOL    HW137001   1.558   4.492   4.428  1.9829 -1.8147  0.2127
 8456SOL    HW237002   1.521   4.374   4.509 -1.7816  1.8776  1.4801
 8457SOL     OW37003   0.556   4.236   8.224  0.8565  0.0286 -0.1804
 8457SOL    HW137004   0.464   4.249   8.248  0.9931 -1.3642  1.1609
 8457SOL    HW237005   0.599   4.310   8.265 -0.3707  1.1420 -0.9172
 8458SOL     OW37006   0.382   2.624   9.380 -0.2115 -0.4226  0.2967
 8458SOL    HW137007   0.475   2.639   9.392 -0.2676  0.4462 -0.3864
 8458SOL    HW237008   0.336   2.690   9.431  0.3631 -0.8263  1.3268
 8459SOL     OW37009   4.198   3.168   3.681 -0.9826  0.1209  0.4794
 8459SOL    HW137010   4.141   3.095   3.659 -0.2383 -1.0289  2.3280
 8459SOL    HW237011   4.149   3.247   3.659 -0.3716  0.2750 -0.3379
 8460SOL     OW37012   4.102   4.629  16.532  0.1401  0.2213 -0.3769
 8460SOL    HW137013   4.081   4.627  16.439 -1.2529  1.8723 -0.0923
 8460SOL    HW237014   4.163   4.557  16.549 -1.6435 -0.8444  1.5846
 8461SOL     OW37015   1.806   0.647   2.785  0.2658  0.0570 -0.3326
 8461SOL    HW137016   1.860   0.568   2.780 -0.1706 -0.5370  4.0685
 8461SOL    HW237017   1.771   0.639   2.874 -0.9656 -1.0138 -0.9185
 8462SOL     OW37018   2.499   3.776  12.371 -0.1446 -0.5681  0.4784
 8462SOL    HW137019   2.577   3.815  12.411  0.0826 -2.6404  2.0515
 8462SOL    HW237020   2.474   3.839  12.304 -2.1888 -0.8338  0.9712
 8463SOL     OW37021   4.366   3.504  14.419  0.3874 -0.3964  0.2389
 8463SOL    HW137022   4.297   3.499  14.485  1.3037  2.2825  1.3790
 8463SOL    HW237023   4.422   3.438  14.460  0.6494  0.8464  1.8620
 8464SOL     OW37024   2.688   1.459   5.941 -0.3318 -0.1340  0.5564
 8464SOL    HW137025   2.749   1.418   6.003  1.6661 -1.2614 -2.1475
 8464SOL    HW237026   2.743   1.472   5.864 -0.6273  1.7943  0.6721
 8465SOL     OW37027   2.762   3.374   2.790  0.0104 -0.6739  0.3088
 8465SOL    HW137028   2.753   3.468   2.779 -1.7191 -0.7036  1.4449
 8465SOL    HW237029   2.683   3.343   2.745 -0.1789  1.7734 -1.0226
 8466SOL     OW37030   1.937   2.244  11.588  0.5385 -0.1062 -0.0772
 8466SOL    HW137031   1.935   2.298  11.667 -0.9548  1.3865 -1.1389
 8466SOL    HW237032   1.892   2.308  11.533 -0.3916 -0.0922  0.6924
 8467SOL     OW37033   2.628   0.419   2.472  0.0578  0.2068 -0.1978
 8467SOL    HW137034   2.564   0.473   2.518  0.0530 -0.4986  0.6196
 8467SOL    HW237035   2.566   0.350   2.450  0.1937 -0.9192  3.0041
 8468SOL     OW37036   3.907   0.891   4.471 -0.7348  0.3512  0.6826
 8468SOL    HW137037   3.890   0.858   4.382  0.6412 -2.9938  1.6964
 8468SOL    HW237038   3.830   0.946   4.488 -1.6576  0.5719 -4.1546
 8469SOL     OW37039   1.091   0.059   8.170 -0.0024  0.8665  0.2877
 8469SOL    HW137040   1.142   4.720   8.139 -0.0811  1.1818 -0.5927
 8469SOL    HW237041   1.133   0.077   8.255 -1.7069  0.1322  1.2724
 8470SOL     OW37042   0.092   1.574   6.207  0.3836 -0.2711  0.4354
 8470SOL    HW137043   0.147   1.527   6.269  0.5255 -0.7380 -0.0423
 8470SOL    HW237044   0.001   1.547   6.221  0.1819 -0.1611 -0.6685
 8471SOL     OW37045   4.311   0.431   9.237  0.2104 -0.1480  0.2776
 8471SOL    HW137046   4.262   0.462   9.313  0.2576 -1.6065  0.8899
 8471SOL    HW237047   4.332   0.341   9.263 -1.3323 -0.1189  1.6239
 8472SOL     OW37048   2.145   2.530   7.065  0.8174 -0.0783 -0.0294
 8472SOL    HW137049   2.135   2.439   7.035  1.5841 -0.0435 -0.4073
 8472SOL    HW237050   2.053   2.553   7.055  0.5012 -1.5264 -0.5202
 8473SOL     OW37051   0.592   1.144   9.287  0.4412 -0.2170 -0.0549
 8473SOL    HW137052   0.625   1.071   9.339 -0.7961 -0.8408 -0.1376
 8473SOL    HW237053   0.675   1.189   9.277 -0.1342  0.9659  0.4703
 8474SOL     OW37054   1.380   3.129   8.654 -1.0923 -0.2854  0.0331
 8474SOL    HW137055   1.361   3.053   8.599 -1.2675  0.1304 -0.4809
 8474SOL    HW237056   1.460   3.157   8.610 -0.2621 -0.1356  1.6654
 8475SOL     OW37057   1.509   2.461   1.347 -0.4346 -0.3172  0.0018
 8475SOL    HW137058   1.418   2.453   1.374 -0.4226 -1.0039 -0.1552
 8475SOL    HW237059   1.513   2.538   1.403 -1.2279  0.0751 -0.4876
 8476SOL     OW37060   1.430   1.313   1.459 -0.3753  0.2117  0.3226
 8476SOL    HW137061   1.409   1.310   1.366 -0.5710 -0.8311  0.3987
 8476SOL    HW237062   1.406   1.221   1.473  1.4192  0.1254  2.8873
 8477SOL     OW37063   4.537   0.803   8.500 -0.4097 -0.6724  0.5955
 8477SOL    HW137064   4.615   0.851   8.527 -0.9650 -0.3070  1.5147
 8477SOL    HW237065   4.566   0.711   8.504  0.3044 -0.6434 -3.9944
 8478SOL     OW37066   1.329   1.089  17.024  0.0498  0.4502 -0.3301
 8478SOL    HW137067   1.278   1.166  16.998  0.9422  1.3323  0.5367
 8478SOL    HW237068   1.412   1.126  16.996  0.0612 -0.4264 -1.4417
 8479SOL     OW37069   3.092   1.810   2.312 -0.0796  0.5069  0.0083
 8479SOL    HW137070   3.171   1.850   2.276  0.5869 -1.6327 -0.9293
 8479SOL    HW237071   3.126   1.723   2.334  2.8329  1.3321 -1.2194
 8480SOL     OW37072   1.427   4.545   0.694 -0.1749 -0.1043  0.5381
 8480SOL    HW137073   1.395   4.484   0.760  2.2066 -2.5086 -0.5366
 8480SOL    HW237074   1.410   4.624   0.745  0.3007  2.1272 -2.7065
 8481SOL     OW37075   2.028   1.090   7.451 -0.3338  0.0164  0.1905
 8481SOL    HW137076   2.068   1.157   7.506  0.5563 -0.1246 -0.2742
 8481SOL    HW237077   1.943   1.125   7.424 -0.4119 -1.8064 -1.9273
 8482SOL     OW37078   3.645   0.960   7.006  0.8100 -0.4902  0.3464
 8482SOL    HW137079   3.587   1.016   7.057  0.1475  0.1324 -1.1051
 8482SOL    HW237080   3.605   0.874   6.993  1.4646 -0.5588 -1.2295
 8483SOL     OW37081   2.241   1.272   9.718 -0.5549 -0.7451 -0.5445
 8483SOL    HW137082   2.148   1.279   9.699 -0.2291  0.4864 -1.6411
 8483SOL    HW237083   2.234   1.269   9.813 -0.2932 -0.2109 -0.5109
 8484SOL     OW37084   0.677   0.893   5.027 -0.0130 -0.7221  0.3863
 8484SOL    HW137085   0.674   0.981   4.990 -2.8180 -0.7801  0.4820
 8484SOL    HW237086   0.603   0.895   5.087  0.4332 -1.2610  0.9500
 8485SOL     OW37087   2.420   4.132   3.560  0.2825 -0.2197  0.3818
 8485SOL    HW137088   2.460   4.162   3.642 -0.0119  0.5200  0.2516
 8485SOL    HW237089   2.494   4.117   3.501 -1.9249 -2.0229 -1.9003
 8486SOL     OW37090   3.054   2.088   9.744 -0.2320 -0.0338  0.3216
 8486SOL    HW137091   3.142   2.122   9.729 -0.5437  0.8998  0.6344
 8486SOL    HW237092   2.993   2.148   9.701  0.5505 -0.6826 -1.6630
 8487SOL     OW37093   3.552   0.213  15.235  0.2078  0.2053 -0.4166
 8487SOL    HW137094   3.645   0.205  15.214  0.3096  0.2587  0.0221
 8487SOL    HW237095   3.553   0.204  15.330 -0.6237  1.8851 -0.2449
 8488SOL     OW37096   0.452   4.016   7.479  0.3515 -0.4520 -0.2828
 8488SOL    HW137097   0.370   3.982   7.515  1.6759 -1.1390  2.1253
 8488SOL    HW237098   0.451   4.103   7.519 -0.7458 -0.3158 -0.5964
 8489SOL     OW37099   0.412   2.837  12.225 -0.4761  0.5606 -0.3058
 8489SOL    HW137100   0.486   2.878  12.180  0.3698 -0.3125  0.2892
 8489SOL    HW237101   0.393   2.770  12.159 -0.2560 -0.5386  0.7462
 8490SOL     OW37102   0.535   4.636   5.934  0.1687  0.3229  0.0225
 8490SOL    HW137103   0.551   4.727   5.908  1.2077  0.1763  0.1731
 8490SOL    HW237104   0.605   4.612   5.994  1.2274  2.8212 -0.1889
 8491SOL     OW37105   3.003   2.035   1.135  0.2077  0.0331 -0.3070
 8491SOL    HW137106   2.920   1.990   1.124 -0.8920  2.6809 -3.0396
 8491SOL    HW237107   3.022   2.034   1.229 -0.6124  1.2954 -0.1248
 8492SOL     OW37108   0.055   4.542   6.404 -0.0313 -0.0084 -0.2315
 8492SOL    HW137109   0.099   4.624   6.425 -1.6374  1.0079 -0.8095
 8492SOL    HW237110   0.036   4.547   6.310 -3.7955  0.7196  0.5465
 8493SOL     OW37111   1.502   0.153   2.005 -0.1708  0.0731 -0.0317
 8493SOL    HW137112   1.574   0.213   2.023  0.9787 -1.8498  1.7987
 8493SOL    HW237113   1.438   0.213   1.968  0.8408  1.2660  0.1439
 8494SOL     OW37114   0.200   3.193   8.498 -0.4795 -0.4991  0.1159
 8494SOL    HW137115   0.163   3.105   8.492 -1.8074 -0.0038  1.0164
 8494SOL    HW237116   0.249   3.193   8.580 -1.3793 -0.9267  0.6555
 8495SOL     OW37117   3.468   0.084  10.646  0.0216 -0.2681  0.0818
 8495SOL    HW137118   3.396   0.075  10.584  0.5751 -1.6083 -0.3699
 8495SOL    HW237119   3.426   0.075  10.732 -0.8048 -1.3232 -0.4317
 8496SOL     OW37120   2.474   4.054  14.343 -0.2499 -0.2248  0.5589
 8496SOL    HW137121   2.530   4.131  14.354 -2.0947  1.2128 -0.1908
 8496SOL    HW237122   2.393   4.096  14.315  0.7314  2.3496  1.5256
 8497SOL     OW37123   4.155   1.261   7.153 -0.5462  0.2949 -0.3607
 8497SOL    HW137124   4.175   1.337   7.206  1.8224 -1.2964  1.0312
 8497SOL    HW237125   4.238   1.213   7.153 -1.1236 -0.7349 -1.0970
 8498SOL     OW37126   3.983   1.974   6.295 -0.3098 -0.1253  0.3804
 8498SOL    HW137127   3.905   1.939   6.339  0.0835 -0.4411  0.8300
 8498SOL    HW237128   4.029   2.009   6.371  0.7887 -0.9856  0.1151
 8499SOL     OW37129   0.620   2.815  10.311  0.1028 -0.2996 -0.3915
 8499SOL    HW137130   0.584   2.727  10.316  1.9175 -1.1121 -1.8622
 8499SOL    HW237131   0.682   2.808  10.384 -1.4365 -0.0272  0.9506
 8500SOL     OW37132   1.087   2.675   4.421  0.1797 -0.3884  0.1005
 8500SOL    HW137133   0.993   2.691   4.431  0.1891 -0.4400  0.2784
 8500SOL    HW237134   1.093   2.595   4.473  1.4334 -0.1335  0.3393
 8501SOL     OW37135   1.039   3.900   7.977 -0.4642 -0.0922  0.3624
 8501SOL    HW137136   1.066   3.990   7.958 -2.3940  0.3784 -0.1068
 8501SOL    HW237137   1.047   3.872   7.886  0.6728  0.9874  0.1326
 8502SOL     OW37138   0.298   1.849   3.153  0.5748 -0.0450 -0.0667
 8502SOL    HW137139   0.251   1.927   3.182 -1.8169 -0.2799 -3.3156
 8502SOL    HW237140   0.242   1.777   3.183  0.9364 -0.6562 -0.8506
 8503SOL     OW37141   4.110   0.747   1.696  0.1532  0.1492  0.1506
 8503SOL    HW137142   4.049   0.819   1.677  0.2840  0.4746  0.9694
 8503SOL    HW237143   4.062   0.696   1.760 -0.8560 -0.8944 -1.4253
 8504SOL     OW37144   0.530   2.982   6.916 -0.8399  0.3517  0.3322
 8504SOL    HW137145   0.625   2.976   6.924 -0.9534  0.6310  1.8891
 8504SOL    HW237146   0.523   3.065   6.868  0.2087 -0.2851 -0.9327
 8505SOL     OW37147   2.929   3.529  10.789 -0.3101 -0.3468  0.0880
 8505SOL    HW137148   2.846   3.481  10.787 -1.5941  1.8333  1.0867
 8505SOL    HW237149   2.950   3.533  10.882  1.9220 -0.8711 -0.3917
 8506SOL     OW37150   4.040   0.306   1.560 -0.1712 -0.8943 -0.0484
 8506SOL    HW137151   4.079   0.218   1.565 -0.0137 -0.8487 -0.4563
 8506SOL    HW237152   4.089   0.345   1.488 -1.7318  2.4621  0.7024
 8507SOL     OW37153   2.948   4.184  13.066  0.1511 -0.1511 -0.6137
 8507SOL    HW137154   3.002   4.222  13.135  0.4206  0.9220 -1.4130
 8507SOL    HW237155   2.866   4.230  13.081  0.7266  0.6135  0.1641
 8508SOL     OW37156   0.533   0.432  10.130  0.2559  0.6511  0.0254
 8508SOL    HW137157   0.453   0.389  10.102  0.6961 -0.0455 -0.1577
 8508SOL    HW237158   0.581   0.350  10.142  1.5426  1.8624  3.3174
 8509SOL     OW37159   2.577   1.264   2.129  0.6706 -0.1034  0.3529
 8509SOL    HW137160   2.557   1.298   2.042 -0.6074 -0.2044  0.6001
 8509SOL    HW237161   2.659   1.218   2.112  1.1249  0.5904  0.6855
 8510SOL     OW37162   0.040   3.878   6.985 -0.1759 -0.3271 -0.2362
 8510SOL    HW137163   0.029   3.971   7.005  0.4222 -0.0656 -1.1064
 8510SOL    HW237164   4.712   3.859   6.915 -0.3173 -1.0546  0.0881
 8511SOL     OW37165   0.539   4.170   5.051 -0.6630 -0.7767 -0.2306
 8511SOL    HW137166   0.480   4.097   5.032 -0.0405 -0.7634 -2.2220
 8511SOL    HW237167   0.472   4.236   5.070  0.8481  0.9739 -0.9488
 8512SOL     OW37168   0.536   0.331   6.824  0.4330 -0.2616  0.4172
 8512SOL    HW137169   0.543   0.405   6.885  2.3798 -2.0372  2.3913
 8512SOL    HW237170   0.611   0.342   6.766 -1.4260 -2.3637 -2.3704
 8513SOL     OW37171   3.518   4.733   5.859  0.2992  0.1508 -0.0370
 8513SOL    HW137172   3.477   4.647   5.847  0.2683  0.4441 -2.0138
 8513SOL    HW237173   3.504   0.011   5.953  2.6614 -0.8084  0.4578
 8514SOL     OW37174   0.429   1.881  10.397 -0.1314  0.1724 -0.7828
 8514SOL    HW137175   0.348   1.868  10.348 -0.4527 -0.0741 -0.1805
 8514SOL    HW237176   0.419   1.819  10.469  1.1427 -2.3410 -2.7394
 8515SOL     OW37177   2.439   3.764   6.673 -0.0479  0.5426 -0.0012
 8515SOL    HW137178   2.457   3.715   6.754 -0.0743 -0.7072 -0.7523
 8515SOL    HW237179   2.347   3.744   6.658 -0.9695  2.6054  2.9661
 8516SOL     OW37180   4.220   1.909   3.585  0.1176 -0.4416  0.5227
 8516SOL    HW137181   4.252   1.828   3.545  0.1724 -0.6801  1.0514
 8516SOL    HW237182   4.136   1.877   3.617  0.2664 -0.3021  1.0450
 8517SOL     OW37183   3.929   2.152   6.095 -0.7017 -0.4398  0.4081
 8517SOL    HW137184   3.981   2.120   6.168 -1.6581 -1.3542  0.6779
 8517SOL    HW237185   3.865   2.083   6.084 -0.7749 -0.4922  1.1964
 8518SOL     OW37186   3.253   3.402   4.808 -0.1890  0.1510 -0.2794
 8518SOL    HW137187   3.264   3.381   4.900 -2.6974 -0.9255 -0.2168
 8518SOL    HW237188   3.285   3.492   4.804  0.8629 -0.2990 -2.1190
 8519SOL     OW37189   4.538   4.179  16.314  0.2326 -0.1178 -1.2409
 8519SOL    HW137190   4.576   4.099  16.348 -1.2499  0.1485  1.0509
 8519SOL    HW237191   4.593   4.252  16.344 -0.5916 -0.0370  0.0722
 8520SOL     OW37192   4.221   3.677   2.764 -0.0961  0.8782 -0.1882
 8520SOL    HW137193   4.235   3.742   2.833  0.1538  0.4840  0.1317
 8520SOL    HW237194   4.236   3.733   2.688  3.4688 -0.9095 -0.7786
 8521SOL     OW37195   4.030   1.828   2.810 -0.4094  0.2966 -0.6706
 8521SOL    HW137196   3.994   1.740   2.803  0.9065 -0.0919 -2.4747
 8521SOL    HW237197   4.124   1.813   2.803 -0.6941 -0.8748 -1.7570
 8522SOL     OW37198   3.756   1.507   8.154  0.3549 -0.0497 -0.4267
 8522SOL    HW137199   3.782   1.420   8.185  1.3117 -0.2862 -1.8643
 8522SOL    HW237200   3.755   1.475   8.064  0.8707  1.7173 -1.0531
 8523SOL     OW37201   0.793   0.181   1.834  0.6264 -0.7673 -0.1377
 8523SOL    HW137202   0.754   0.119   1.773 -0.0677  0.5468 -1.0183
 8523SOL    HW237203   0.887   0.163   1.830  1.0125  1.0453  0.6528
 8524SOL     OW37204   0.144   2.143   5.724 -0.4713 -0.4383 -0.2560
 8524SOL    HW137205   0.121   2.161   5.632 -3.4332  3.1606  1.1994
 8524SOL    HW237206   0.070   2.102   5.767 -0.2315 -0.2592  0.3317
 8525SOL     OW37207   1.408   1.694   3.983 -0.5639  0.9291 -0.0377
 8525SOL    HW137208   1.391   1.600   3.979 -0.1100  0.7773  1.9717
 8525SOL    HW237209   1.330   1.731   3.941 -0.6575  0.4707 -0.2715
 8526SOL     OW37210   2.282   3.930   9.138 -0.1206  0.1129  0.4273
 8526SOL    HW137211   2.237   4.011   9.162 -1.7795 -0.0904 -1.9458
 8526SOL    HW237212   2.233   3.906   9.059 -0.8607 -1.5440  1.3931
 8527SOL     OW37213   2.515   4.305  17.082  0.1765  0.0633  0.1236
 8527SOL    HW137214   2.460   4.265  17.149  0.6792 -0.9832 -0.0902
 8527SOL    HW237215   2.487   4.253  17.007  1.5941 -0.8772  0.2494
 8528SOL     OW37216   1.837   0.684  11.914 -0.0042 -0.5907 -0.3020
 8528SOL    HW137217   1.835   0.714  12.005  0.3041 -1.1926 -0.0987
 8528SOL    HW237218   1.927   0.651  11.908 -0.3044 -1.3619 -0.5678
 8529SOL     OW37219   3.046   2.544   4.336  0.0227  0.3894  0.4714
 8529SOL    HW137220   3.046   2.586   4.422  3.2588  4.0230 -1.2884
 8529SOL    HW237221   3.081   2.615   4.282 -0.5287  0.3434  0.0539
 8530SOL     OW37222   2.686   4.328   6.526 -0.2458 -0.1734  0.7547
 8530SOL    HW137223   2.676   4.283   6.609  0.0514  0.7244  1.2735
 8530SOL    HW237224   2.689   4.422   6.544 -2.9459  0.1805 -0.6257
 8531SOL     OW37225   4.406   2.522   4.358 -0.3067  0.8158 -0.1287
 8531SOL    HW137226   4.397   2.477   4.442  0.8119 -0.4515 -0.6887
 8531SOL    HW237227   4.485   2.488   4.317 -0.5738  1.4449 -1.1534
 8532SOL     OW37228   3.444   4.474   2.281 -0.1921  0.1352 -0.0961
 8532SOL    HW137229   3.378   4.488   2.349 -0.5247  1.0141 -0.5924
 8532SOL    HW237230   3.531   4.496   2.313  0.0258  1.0709 -1.3213
 8533SOL     OW37231   2.959   3.047   0.334  0.1015  0.0285 -0.0930
 8533SOL    HW137232   3.048   3.012   0.335  0.5397  1.1463 -0.1947
 8533SOL    HW237233   2.942   3.069   0.426  2.1158  0.8314  0.0996
 8534SOL     OW37234   0.241   4.264   7.732 -0.2216 -0.4665 -0.3128
 8534SOL    HW137235   0.171   4.293   7.674  0.7354  0.0902 -1.2016
 8534SOL    HW237236   0.254   4.340   7.789 -1.9326 -1.2155  1.0832
 8535SOL     OW37237   3.681   0.304   6.107  0.0242 -0.0322 -0.6967
 8535SOL    HW137238   3.619   0.320   6.035  0.1804  0.0483 -0.8121
 8535SOL    HW237239   3.636   0.335   6.185  1.1355  0.0762 -0.1107
 8536SOL     OW37240   3.445   0.936   3.796 -0.2161  0.4502 -0.3595
 8536SOL    HW137241   3.404   0.873   3.737 -1.3839  1.9812 -1.2058
 8536SOL    HW237242   3.433   1.023   3.758  2.5188  0.7809 -0.4972
 8537SOL     OW37243   3.770   4.523   5.996 -0.2822 -0.7217  0.3505
 8537SOL    HW137244   3.681   4.499   5.970 -0.5409  1.5609 -0.8589
 8537SOL    HW237245   3.818   4.523   5.913 -1.3973 -0.5025 -0.2968
 8538SOL     OW37246   3.396   0.224   1.979  0.1647 -0.1221 -0.1097
 8538SOL    HW137247   3.409   0.129   1.981  0.1091 -0.0564  2.8806
 8538SOL    HW237248   3.445   0.247   2.058  1.4512 -2.5797 -0.1842
 8539SOL     OW37249   3.466   3.525  14.174 -0.3723  0.3627  0.2867
 8539SOL    HW137250   3.384   3.487  14.142  0.6192 -0.0156 -1.7555
 8539SOL    HW237251   3.502   3.555  14.091 -1.2727 -0.0911 -0.2695
 8540SOL     OW37252   3.849   3.671   9.744  0.0169  0.5572  0.8059
 8540SOL    HW137253   3.770   3.628   9.712  0.4134 -2.0145  3.2369
 8540SOL    HW237254   3.825   3.756   9.707 -0.6881  0.0773  0.1786
 8541SOL     OW37255   3.026   1.441   7.709  0.2769  0.0759 -0.2624
 8541SOL    HW137256   2.983   1.378   7.651 -0.8122  1.0770 -0.5401
 8541SOL    HW237257   3.111   1.401   7.728  1.9818  2.1863 -3.4609
 8542SOL     OW37258   2.689   3.374  11.665 -0.1285  0.8840 -1.0583
 8542SOL    HW137259   2.765   3.382  11.722 -0.4860 -0.9295 -0.3495
 8542SOL    HW237260   2.693   3.462  11.626 -0.9286  0.4947 -2.0350
 8543SOL     OW37261   2.952   3.291   5.257  0.0365 -0.3667  0.0310
 8543SOL    HW137262   3.036   3.315   5.294 -0.2710 -1.7679  1.6514
 8543SOL    HW237263   2.899   3.284   5.337  0.9008  1.8842  0.7905
 8544SOL     OW37264   0.551   3.379   7.138 -0.1175  0.2014  0.5216
 8544SOL    HW137265   0.564   3.368   7.232  3.4701  0.6239  0.0580
 8544SOL    HW237266   0.477   3.320   7.123  1.3383 -1.8587  1.4533
 8545SOL     OW37267   1.006   3.288   1.244 -0.2447 -0.3132  0.3082
 8545SOL    HW137268   0.959   3.223   1.192  0.0652 -0.8245  0.6723
 8545SOL    HW237269   1.068   3.227   1.283  0.1942 -0.3564 -0.4483
 8546SOL     OW37270   3.965   2.207   7.441 -0.1701 -0.0197 -0.1724
 8546SOL    HW137271   4.043   2.225   7.494 -2.0561 -0.9466  2.9113
 8546SOL    HW237272   3.896   2.225   7.504 -0.1024  1.7619 -0.6008
 8547SOL     OW37273   4.659   0.977  14.210  0.0471  0.6183  0.1166
 8547SOL    HW137274   4.718   1.051  14.227 -1.1534  1.4477  0.6764
 8547SOL    HW237275   4.723   0.906  14.211 -0.7123 -0.0980 -1.6151
 8548SOL     OW37276   2.695   1.903   5.338 -0.3208  0.2403  0.3347
 8548SOL    HW137277   2.625   1.967   5.350 -0.0079  0.4273  1.1797
 8548SOL    HW237278   2.647   1.824   5.313 -1.8646  1.7439 -1.4253
 8549SOL     OW37279   2.541   3.468   3.009  0.5346 -0.3941  0.2451
 8549SOL    HW137280   2.541   3.562   2.993  0.4470 -0.0412  2.3408
 8549SOL    HW237281   2.635   3.456   2.995  0.6442 -1.0715  1.6262
 8550SOL     OW37282   2.797   1.873   1.178 -0.0319 -0.2628  0.0032
 8550SOL    HW137283   2.714   1.825   1.173  0.3518 -0.6785 -2.5051
 8550SOL    HW237284   2.843   1.837   1.254 -1.3103 -1.5854  0.1407
 8551SOL     OW37285   4.010   2.540   7.528 -0.2401  0.2018  0.8373
 8551SOL    HW137286   4.016   2.634   7.510 -2.6264 -0.1974 -2.1238
 8551SOL    HW237287   3.992   2.513   7.439  0.6143  0.5188  0.5698
 8552SOL     OW37288   3.874   1.961   3.330 -0.3287  0.4171  0.1619
 8552SOL    HW137289   3.881   2.006   3.246  2.7016  0.1811  0.2849
 8552SOL    HW237290   3.930   1.885   3.313  1.0964  1.3159  0.8154
 8553SOL     OW37291   1.358   2.962   6.011 -0.0735 -0.2342  0.2708
 8553SOL    HW137292   1.274   2.958   6.057  1.3588 -0.7331  2.8885
 8553SOL    HW237293   1.401   3.039   6.048 -0.3074 -0.4304  0.9660
 8554SOL     OW37294   4.400   2.996   7.321 -0.8215  0.2948 -0.1179
 8554SOL    HW137295   4.483   2.951   7.337 -0.7641  0.0208 -1.1458
 8554SOL    HW237296   4.341   2.923   7.301 -1.9633  1.3313 -0.5141
 8555SOL     OW37297   3.537   0.265   8.126 -0.0660  0.1619  0.3704
 8555SOL    HW137298   3.586   0.206   8.069 -2.2841 -1.9711  0.6676
 8555SOL    HW237299   3.476   0.294   8.059 -0.7694 -0.8056  0.5976
 8556SOL     OW37300   0.862   2.678   5.384  0.8504  0.3805 -0.2004
 8556SOL    HW137301   0.817   2.605   5.428  2.2946 -1.0190 -1.0424
 8556SOL    HW237302   0.814   2.754   5.415  3.0010  2.0724 -1.0461
 8557SOL     OW37303   4.208   4.167   7.843  0.6200 -0.4895 -0.4328
 8557SOL    HW137304   4.133   4.213   7.805  0.0945 -1.0742 -0.0908
 8557SOL    HW237305   4.248   4.120   7.770  1.5463 -0.5463  0.1103
 8558SOL     OW37306   1.879   4.351  12.192 -0.3432 -0.4784  0.2689
 8558SOL    HW137307   1.917   4.419  12.136 -0.9462  0.9052  1.5319
 8558SOL    HW237308   1.886   4.385  12.281  0.8005 -1.0517  0.3950
 8559SOL     OW37309   0.213   1.366   5.662  0.6563 -0.3562 -0.7176
 8559SOL    HW137310   0.250   1.358   5.750  0.6955 -1.0330 -0.8018
 8559SOL    HW237311   0.192   1.459   5.653 -1.2372 -0.7160 -0.0526
 8560SOL     OW37312   0.855   2.995   0.038  1.0641  0.1809 -1.0611
 8560SOL    HW137313   0.875   3.087   0.017 -2.4637  0.8004 -1.6054
 8560SOL    HW237314   0.929   2.971   0.094  1.3841 -1.0219 -2.0069
 8561SOL     OW37315   3.389   2.914  14.077  0.4260 -0.4617 -0.9579
 8561SOL    HW137316   3.401   2.887  13.986  1.2628 -1.5927 -0.5122
 8561SOL    HW237317   3.330   2.987  14.058  0.1005 -1.1916 -2.6953
 8562SOL     OW37318   0.246   1.849   1.732 -0.7746 -0.0178  0.4028
 8562SOL    HW137319   0.295   1.921   1.773  1.5671 -0.8720 -0.9176
 8562SOL    HW237320   0.242   1.781   1.800 -3.0547 -2.5179 -2.2476
 8563SOL     OW37321   2.862   3.425  11.353 -0.1019  0.5586  0.2794
 8563SOL    HW137322   2.915   3.495  11.391 -0.3510  2.3256 -2.6430
 8563SOL    HW237323   2.919   3.402  11.280 -0.5501 -2.0046  0.7118
 8564SOL     OW37324   4.040   1.838   1.401  0.3402  0.7386  0.2300
 8564SOL    HW137325   4.013   1.906   1.464 -0.5913  1.1777 -0.6466
 8564SOL    HW237326   4.100   1.799   1.464 -1.3296 -1.4686  0.4339
 8565SOL     OW37327   4.012   0.653  11.601 -0.0157 -0.3584  0.1869
 8565SOL    HW137328   3.977   0.741  11.593  0.4993  0.1102  3.0586
 8565SOL    HW237329   4.078   0.650  11.531  0.7690 -2.6677  1.0152
 8566SOL     OW37330   1.311   1.686   0.995  0.2538 -0.5527  0.4306
 8566SOL    HW137331   1.363   1.686   0.915  1.3461  1.7864  1.1769
 8566SOL    HW237332   1.260   1.759   0.960  0.1129 -1.0795 -0.4633
 8567SOL     OW37333   1.644   3.692  16.941  0.7087 -0.0361  0.0306
 8567SOL    HW137334   1.586   3.716  17.012  2.1185 -0.0063  1.1718
 8567SOL    HW237335   1.725   3.738  16.965 -1.1873  2.1757  2.1031
 8568SOL     OW37336   0.385   4.278   6.016  0.0612 -0.2302 -0.9983
 8568SOL    HW137337   0.414   4.187   6.007  1.2386  0.2403 -1.9994
 8568SOL    HW237338   0.414   4.302   6.104 -2.0630 -3.7560  0.6467
 8569SOL     OW37339   1.789   4.163  11.066  0.0301  0.0878 -0.2927
 8569SOL    HW137340   1.728   4.127  11.131  1.8751 -2.2144  0.1659
 8569SOL    HW237341   1.874   4.134  11.099  1.4168  1.0071 -3.1419
 8570SOL     OW37342   0.053   4.568   9.133 -0.4932  0.1515 -0.6310
 8570SOL    HW137343   0.027   4.476   9.144  2.0078 -0.3536  1.0086
 8570SOL    HW237344   0.126   4.546   9.075  0.4351  1.5364  0.0329
 8571SOL     OW37345   0.027   1.817   5.789  0.2602 -0.3643  0.0948
 8571SOL    HW137346   4.719   1.731   5.786  0.0454 -0.2337 -0.5374
 8571SOL    HW237347   4.698   1.885   5.771 -0.6803 -1.3017 -0.1157
 8572SOL     OW37348   1.956   3.698   9.101 -0.1722  0.1850 -0.1934
 8572SOL    HW137349   1.907   3.617   9.116 -1.3033  1.0374  0.7425
 8572SOL    HW237350   2.035   3.656   9.068  1.4790  3.0424  0.1698
 8573SOL     OW37351   1.330   3.823   4.128 -0.0853 -0.5581  0.4227
 8573SOL    HW137352   1.251   3.822   4.181 -0.3492 -1.7463  0.0082
 8573SOL    HW237353   1.394   3.822   4.199 -0.8522  2.4593  1.1431
 8574SOL     OW37354   3.876   4.073   6.695 -0.0063 -0.0288  0.4725
 8574SOL    HW137355   3.916   4.109   6.617  2.0937 -0.8687  1.1669
 8574SOL    HW237356   3.934   4.095   6.768 -0.1866 -0.8910  0.8791
 8575SOL     OW37357   0.509   0.752   1.744  0.4561  0.3518 -0.1628
 8575SOL    HW137358   0.479   0.676   1.694 -3.0549  0.5525  1.6291
 8575SOL    HW237359   0.491   0.827   1.686  3.9419  1.6152  0.4131
 8576SOL     OW37360   4.391   2.542   6.584 -0.2836 -0.0692  0.1185
 8576SOL    HW137361   4.363   2.461   6.628 -0.2298 -1.8947 -3.1978
 8576SOL    HW237362   4.311   2.588   6.559  0.5217  1.3014  0.0738
 8577SOL     OW37363   2.504   3.671   5.492  0.2129  0.1595  0.6494
 8577SOL    HW137364   2.598   3.666   5.512 -0.2816 -1.6068  2.4242
 8577SOL    HW237365   2.499   3.724   5.412  0.6161  1.4782  1.4997
 8578SOL     OW37366   2.537   0.696   3.204 -0.4208 -0.0459  0.3149
 8578SOL    HW137367   2.472   0.761   3.229 -2.5487 -1.9557 -0.1626
 8578SOL    HW237368   2.612   0.724   3.256 -0.7260  1.0304  0.1671
 8579SOL     OW37369   0.813   2.032   7.511 -0.3611  0.4337 -0.2255
 8579SOL    HW137370   0.833   1.993   7.426 -1.1393  1.5639 -0.9262
 8579SOL    HW237371   0.902   2.037   7.545 -0.9099  0.2760  1.2261
 8580SOL     OW37372   2.369   1.665   6.718 -0.5080 -0.3620 -0.0708
 8580SOL    HW137373   2.409   1.635   6.637  1.5289 -0.0601  0.8270
 8580SOL    HW237374   2.414   1.622   6.791 -0.3104  1.9424  1.1643
 8581SOL     OW37375   1.949   0.427   2.715  0.0869  0.1174  0.7154
 8581SOL    HW137376   1.953   0.392   2.625  0.1741  0.2659  0.6621
 8581SOL    HW237377   2.044   0.444   2.718  0.7205 -3.5014  1.2712
 8582SOL     OW37378   3.815   1.536   6.937  0.3773 -0.4691 -0.7926
 8582SOL    HW137379   3.794   1.519   7.028  1.9266 -1.9349 -0.6865
 8582SOL    HW237380   3.892   1.479   6.938  1.1005  0.5875  1.9259
 8583SOL     OW37381   3.302   4.606   9.208 -0.0908  0.0839 -1.0496
 8583SOL    HW137382   3.275   4.514   9.212  1.0829 -0.1559  1.2407
 8583SOL    HW237383   3.237   4.638   9.146  1.0375  1.8126 -1.3294
 8584SOL     OW37384   2.739   1.353   7.046 -0.1837 -0.2854  0.4068
 8584SOL    HW137385   2.689   1.329   7.124 -0.2765 -0.8037  0.1854
 8584SOL    HW237386   2.719   1.447   7.048 -2.5797 -0.7912  0.5239
 8585SOL     OW37387   1.993   2.615   5.499 -0.1951 -0.3673 -0.1570
 8585SOL    HW137388   2.070   2.568   5.468  0.7004  1.0355 -0.0524
 8585SOL    HW237389   2.010   2.623   5.593 -2.2185  1.1146  0.0823
 8586SOL     OW37390   0.674   2.936   4.769 -0.2123  0.1621  0.0721
 8586SOL    HW137391   0.615   2.979   4.830  0.0777  0.4522  0.1488
 8586SOL    HW237392   0.609   2.884   4.722  0.9179 -0.1972 -1.0838
 8587SOL     OW37393   3.088   0.447   4.674  0.0373  0.0323 -0.0903
 8587SOL    HW137394   3.042   0.376   4.720  1.7635 -0.5156  0.7934
 8587SOL    HW237395   3.065   0.439   4.581  0.6904 -0.7304 -0.1919
 8588SOL     OW37396   1.705   2.781   7.493 -0.1561 -0.2336  0.0002
 8588SOL    HW137397   1.647   2.841   7.541  0.0259  0.8037 -1.0731
 8588SOL    HW237398   1.783   2.782   7.548  0.6954  2.6404 -1.2753
 8589SOL     OW37399   3.071   0.648   0.943  0.0738  0.1570 -0.4014
 8589SOL    HW137400   3.004   0.621   0.880  0.1224 -4.3281  1.4258
 8589SOL    HW237401   3.033   0.729   0.976 -2.6062 -1.0147 -0.6123
 8590SOL     OW37402   2.043   3.814   1.320 -0.2437 -0.2987  0.5087
 8590SOL    HW137403   2.049   3.909   1.313 -0.5997 -0.3219 -0.1435
 8590SOL    HW237404   2.133   3.790   1.341 -0.1698  2.6809  3.5961
 8591SOL     OW37405   0.785   1.929   6.023  0.4247  0.0972  0.1501
 8591SOL    HW137406   0.874   1.892   6.026 -0.5169 -2.1724 -0.4655
 8591SOL    HW237407   0.802   2.014   5.981  0.9394  0.5328  1.2302
 8592SOL     OW37408   0.279   2.370  12.023  0.3613 -0.0990 -0.1106
 8592SOL    HW137409   0.347   2.437  12.014  1.5551 -1.3760 -0.6077
 8592SOL    HW237410   0.206   2.410  11.976 -0.8490 -1.1368  0.9142
 8593SOL     OW37411   1.567   0.595   3.366  0.0033 -0.2436  0.6262
 8593SOL    HW137412   1.660   0.602   3.348 -0.2984  0.3420 -0.7171
 8593SOL    HW237413   1.545   0.689   3.362 -1.2465 -0.6497 -2.0483
 8594SOL     OW37414   4.006   0.319   3.229  0.0897 -0.2134 -0.3305
 8594SOL    HW137415   4.037   0.266   3.155 -0.9231  1.6600 -2.0884
 8594SOL    HW237416   3.915   0.327   3.199  0.3012  1.9601 -0.3441
 8595SOL     OW37417   3.468   3.174  17.160 -0.5726 -0.1917  0.2993
 8595SOL    HW137418   3.386   3.191  17.206  0.6001  0.0644  2.3522
 8595SOL    HW237419   3.528   3.185  17.235  2.2801 -1.8173 -1.7505
 8596SOL     OW37420   2.645   2.594   5.236  0.4720  0.0831 -0.1426
 8596SOL    HW137421   2.631   2.530   5.167  0.0864 -0.6370  0.6034
 8596SOL    HW237422   2.614   2.666   5.180  0.5653  1.3015  1.3638
 8597SOL     OW37423   1.163   0.462  15.319 -0.8019  0.2206 -0.0563
 8597SOL    HW137424   1.085   0.480  15.370 -2.1165 -2.5927 -1.1146
 8597SOL    HW237425   1.213   0.540  15.343 -1.7372  1.2659 -1.4326
 8598SOL     OW37426   0.092   3.117   2.493  0.0343  0.3917  0.7535
 8598SOL    HW137427   0.077   3.066   2.572  1.9981 -0.2980  0.6792
 8598SOL    HW237428   0.115   3.205   2.523 -3.6092  1.2358  1.0725
 8599SOL     OW37429   2.806   1.941   4.781  0.4983  0.1639 -0.1037
 8599SOL    HW137430   2.827   1.900   4.697 -0.5556 -1.5730  0.4737
 8599SOL    HW237431   2.713   1.954   4.762  1.0664  1.0755 -2.3071
 8600SOL     OW37432   1.793   3.649   5.295  0.4394  0.1557  0.5130
 8600SOL    HW137433   1.765   3.740   5.304 -0.1193  0.2442 -2.0394
 8600SOL    HW237434   1.886   3.647   5.274  0.0988 -0.8203 -0.8863
 8601SOL     OW37435   3.439   0.464   9.347  0.7849  0.3290 -0.3110
 8601SOL    HW137436   3.457   0.440   9.438  0.1178 -0.2043 -0.3253
 8601SOL    HW237437   3.423   0.385   9.296 -0.7242  0.7960 -0.5821
 8602SOL     OW37438   2.756   2.001   8.363 -0.0854  0.3450 -0.2986
 8602SOL    HW137439   2.745   1.906   8.368  0.0558  0.4042  1.1330
 8602SOL    HW237440   2.665   2.028   8.368 -0.5375 -1.3883  0.6679
 8603SOL     OW37441   2.035   3.563   5.932 -0.0069 -0.0979 -0.0158
 8603SOL    HW137442   2.087   3.487   5.958  3.1773  0.8546 -3.4362
 8603SOL    HW237443   1.999   3.588   6.017  0.4024  0.7143 -0.0730
 8604SOL     OW37444   3.327   0.533   8.303  0.3310 -0.3936 -0.0828
 8604SOL    HW137445   3.395   0.477   8.339  1.5089  0.0455 -1.6542
 8604SOL    HW237446   3.303   0.583   8.381 -0.3509  0.3815 -0.7772
 8605SOL     OW37447   1.236   4.511  10.071 -0.2673  0.0556  0.0252
 8605SOL    HW137448   1.329   4.502  10.050  0.0825 -0.7337  1.8762
 8605SOL    HW237449   1.231   4.606  10.082 -0.5789  0.3280 -2.4881
 8606SOL     OW37450   3.860   2.863   4.348  0.2644 -0.4277  0.0503
 8606SOL    HW137451   3.878   2.919   4.273 -0.8120 -0.2436 -0.0602
 8606SOL    HW237452   3.825   2.784   4.306 -0.2942 -1.2375  2.0470
 8607SOL     OW37453   3.879   0.090  13.054 -0.4229 -0.7904  0.2420
 8607SOL    HW137454   3.932   0.012  13.041  2.1327  0.6539  1.8224
 8607SOL    HW237455   3.914   0.133  13.132 -0.4879 -0.2406 -0.0268
 8608SOL     OW37456   0.682   0.374   3.493 -0.2018 -0.3624 -0.4398
 8608SOL    HW137457   0.747   0.385   3.563  0.6200 -0.8057 -1.1277
 8608SOL    HW237458   0.741   0.380   3.417 -0.9656 -2.4472 -1.1774
 8609SOL     OW37459   1.989   3.443   2.531 -0.2417 -0.0120  0.0308
 8609SOL    HW137460   1.958   3.382   2.598  0.1486 -1.7661 -1.3895
 8609SOL    HW237461   1.905   3.458   2.487  0.4379 -0.5562 -1.4404
 8610SOL     OW37462   1.277   4.054   8.739 -0.0252 -0.1138  0.3107
 8610SOL    HW137463   1.209   4.001   8.781 -0.5447 -1.3620 -2.1616
 8610SOL    HW237464   1.222   4.101   8.677  2.5089  1.6172 -0.6037
 8611SOL     OW37465   2.446   0.733   6.040  0.9122  0.1044 -0.4264
 8611SOL    HW137466   2.435   0.649   5.996 -0.0428 -0.3384  0.6775
 8611SOL    HW237467   2.482   0.702   6.122 -0.0630 -0.5559 -0.2458
 8612SOL     OW37468   0.427   3.611   2.006  0.6526  0.2434 -0.4341
 8612SOL    HW137469   0.331   3.613   2.003  0.6269 -0.5035 -0.0131
 8612SOL    HW237470   0.448   3.704   2.013 -1.5307  0.7800 -0.7900
 8613SOL     OW37471   2.910   3.374  12.483 -0.1453 -0.3571  0.9059
 8613SOL    HW137472   2.914   3.383  12.578  0.6942  1.3924  0.7008
 8613SOL    HW237473   2.821   3.407  12.481  0.3995  1.0756  0.5353
 8614SOL     OW37474   4.398   2.579   3.091  0.2827  0.3937  0.4323
 8614SOL    HW137475   4.308   2.589   3.060 -0.2865 -0.7354  1.7014
 8614SOL    HW237476   4.385   2.506   3.152  2.2865  0.2928  0.7281
 8615SOL     OW37477   2.875   3.424  11.927  0.3087  0.3058  0.0227
 8615SOL    HW137478   2.820   3.378  11.991 -1.8014  0.2022 -1.8471
 8615SOL    HW237479   2.952   3.367  11.931 -0.0144 -0.2610 -1.7130
 8616SOL     OW37480   0.822   1.885   3.107 -0.2570  0.4582  0.3686
 8616SOL    HW137481   0.748   1.842   3.063  1.1195  0.3467 -1.8158
 8616SOL    HW237482   0.867   1.926   3.033 -1.8831 -0.3952 -1.0966
 8617SOL     OW37483   1.992   0.369   9.761 -0.1277 -0.2989  0.1573
 8617SOL    HW137484   1.999   0.409   9.674 -0.7740 -2.0291 -0.6768
 8617SOL    HW237485   2.083   0.352   9.786 -0.2837  0.9865  1.6331
 8618SOL     OW37486   1.451   0.453  11.329  0.4021 -0.3776  0.2916
 8618SOL    HW137487   1.476   0.370  11.291 -0.9757 -0.4310 -0.4789
 8618SOL    HW237488   1.432   0.426  11.419  0.0387 -1.7355 -0.2065
 8619SOL     OW37489   1.133   1.903   4.738  0.3432 -0.5745 -0.3472
 8619SOL    HW137490   1.123   1.812   4.766  3.8403 -0.7926  0.1767
 8619SOL    HW237491   1.150   1.947   4.822  2.4898 -0.5938 -0.7841
 8620SOL     OW37492   4.571   2.603   3.511  0.4296  0.2415 -0.0681
 8620SOL    HW137493   4.479   2.577   3.511  0.2500  0.8751 -1.9063
 8620SOL    HW237494   4.608   2.585   3.598 -0.6017  1.4603  0.6085
 8621SOL     OW37495   3.788   2.065  12.179 -0.2941 -0.0316  0.1064
 8621SOL    HW137496   3.708   2.113  12.155 -0.0189 -0.4160 -1.6344
 8621SOL    HW237497   3.754   2.032  12.262 -1.0191  1.2225  0.3059
 8622SOL     OW37498   0.183   2.677   5.529  0.6845 -0.1925 -0.5701
 8622SOL    HW137499   0.135   2.597   5.504  1.5302 -1.2985  1.3804
 8622SOL    HW237500   0.226   2.644   5.607  1.0746  2.2050  0.2206
 8623SOL     OW37501   2.301   0.028   9.013  0.1678  0.3347  0.0122
 8623SOL    HW137502   2.303   0.024   9.108 -1.3213 -1.5219 -0.0462
 8623SOL    HW237503   2.343   0.114   9.007  2.0498 -0.5672  0.3154
 8624SOL     OW37504   3.567   1.270   4.320 -0.2082  0.2209  0.8288
 8624SOL    HW137505   3.662   1.261   4.315 -0.0840  1.7516  0.1562
 8624SOL    HW237506   3.568   1.325   4.399  2.6714  2.2514 -0.6069
 8625SOL     OW37507   0.656   0.289  13.612  0.2439 -0.0014 -0.4657
 8625SOL    HW137508   0.697   0.263  13.694  0.3567  2.2026  0.1830
 8625SOL    HW237509   0.694   0.377  13.602  0.4776 -0.0961 -0.4024
 8626SOL     OW37510   1.158   2.019   4.145  0.3043 -0.1750 -0.1296
 8626SOL    HW137511   1.096   2.073   4.193 -0.3633 -1.3639  0.3629
 8626SOL    HW237512   1.200   1.973   4.218 -0.1650 -0.1965  0.1266
 8627SOL     OW37513   0.867   0.230   7.885  0.3712 -0.5642 -0.1855
 8627SOL    HW137514   0.844   0.189   7.968  0.8502  1.6515  1.0470
 8627SOL    HW237515   0.790   0.286   7.876  0.6937  0.1819  1.6817
 8628SOL     OW37516   1.793   3.029   7.253 -0.2366 -0.4498 -0.5923
 8628SOL    HW137517   1.749   2.945   7.240 -1.2349 -0.3897  2.3518
 8628SOL    HW237518   1.873   3.010   7.302 -1.2680 -3.2371 -0.0121
 8629SOL     OW37519   4.019   3.034  14.603  0.5501  0.1331 -0.3040
 8629SOL    HW137520   4.033   2.993  14.518 -0.6964 -3.1736  1.0918
 8629SOL    HW237521   4.077   2.987  14.663  0.3923 -0.6852 -0.8003
 8630SOL     OW37522   0.952   4.594   5.339  0.5896 -0.2637 -0.1144
 8630SOL    HW137523   0.927   4.528   5.275  0.8649 -1.0722  0.6120
 8630SOL    HW237524   0.864   4.624   5.360  0.0848 -1.5505 -0.3742
 8631SOL     OW37525   1.704   2.004  11.732  0.1073 -0.3807 -0.6829
 8631SOL    HW137526   1.728   1.913  11.750  0.4260 -0.6148 -2.3300
 8631SOL    HW237527   1.677   2.000  11.641 -0.4749  0.7279 -0.5607
 8632SOL     OW37528   1.284   0.794   7.837  0.1025 -0.5418 -0.5215
 8632SOL    HW137529   1.226   0.718   7.834 -2.4763  1.4689 -1.2858
 8632SOL    HW237530   1.226   0.857   7.879 -0.4512  1.0493 -3.6871
 8633SOL     OW37531   1.730   1.528   5.116  0.1384 -1.0920  0.2899
 8633SOL    HW137532   1.770   1.487   5.193  1.2189  0.3229  0.4915
 8633SOL    HW237533   1.654   1.560   5.165  0.9838  2.0707 -0.4605
 8634SOL     OW37534   3.330   1.028  14.195  0.2434 -0.0085 -0.0325
 8634SOL    HW137535   3.253   1.014  14.139  0.8437  1.3922 -1.1854
 8634SOL    HW237536   3.407   1.012  14.141  0.6896 -2.1740  1.2379
 8635SOL     OW37537   0.324   3.509   7.536 -0.2374  0.1535  0.4234
 8635SOL    HW137538   0.231   3.523   7.554 -0.1279  2.2625 -0.6178
 8635SOL    HW237539   0.369   3.504   7.620 -0.7347 -2.6417  0.5237
 8636SOL     OW37540   2.656   3.445  12.761  0.2929  0.3877  0.0722
 8636SOL    HW137541   2.642   3.417  12.670 -2.0791 -0.8027  0.7944
 8636SOL    HW237542   2.747   3.417  12.776  0.3273  0.8254  0.6757
 8637SOL     OW37543   0.327   2.809   5.242  0.5395  0.1643 -0.2533
 8637SOL    HW137544   0.286   2.784   5.325 -1.0229  1.2983 -0.6820
 8637SOL    HW237545   0.421   2.804   5.258  0.3732 -0.6466  0.5006
 8638SOL     OW37546   3.356   1.498   3.560 -0.2475 -0.5321 -0.0879
 8638SOL    HW137547   3.350   1.544   3.476 -2.9640  0.2845  0.5474
 8638SOL    HW237548   3.262   1.489   3.578 -0.3597 -0.3934 -0.6105
 8639SOL     OW37549   1.116   1.521  10.981 -0.1435  0.4159 -0.4293
 8639SOL    HW137550   1.159   1.490  10.901 -1.4566  1.2129 -1.4423
 8639SOL    HW237551   1.167   1.600  10.998  1.3023 -0.6060 -0.0343
 8640SOL     OW37552   2.641   0.970  13.204  0.0561  0.1531  0.4564
 8640SOL    HW137553   2.662   1.063  13.203 -1.3265  0.4572 -2.5651
 8640SOL    HW237554   2.559   0.979  13.155  1.0989 -1.1017 -1.5340
 8641SOL     OW37555   4.545   4.189  16.696 -0.2585  0.4935 -0.2255
 8641SOL    HW137556   4.618   4.202  16.757 -1.2051 -0.4079  1.1038
 8641SOL    HW237557   4.516   4.278  16.674 -0.2429  0.1899 -1.4726
 8642SOL     OW37558   1.047   2.040   9.033 -0.4662 -0.2454  0.1359
 8642SOL    HW137559   0.954   2.024   9.024 -0.6504  1.0072 -0.2683
 8642SOL    HW237560   1.061   2.043   9.128 -1.0336 -2.6602  0.2804
 8643SOL     OW37561   3.898   1.062   2.885 -0.5312 -0.7740 -0.8287
 8643SOL    HW137562   3.969   0.997   2.884 -0.6520 -0.9532  2.3682
 8643SOL    HW237563   3.847   1.054   2.966  0.6091  1.3940  0.1139
 8644SOL     OW37564   3.413   4.394   3.942 -0.4332 -0.0518 -0.0277
 8644SOL    HW137565   3.338   4.342   3.970  0.1997 -0.0579  1.6325
 8644SOL    HW237566   3.447   4.424   4.026  0.4751 -0.5590 -0.2231
 8645SOL     OW37567   3.964   4.215   0.459  0.9481  0.0786 -0.1451
 8645SOL    HW137568   4.039   4.188   0.511  0.1500 -0.4609  0.7282
 8645SOL    HW237569   4.000   4.191   0.374  0.1368 -1.0067 -0.1866
 8646SOL     OW37570   2.915   1.079   8.873  0.0536  0.0875  0.4305
 8646SOL    HW137571   3.006   1.056   8.892 -0.9571 -3.6262  0.7668
 8646SOL    HW237572   2.928   1.174   8.883  0.7060 -0.0959  1.3607
 8647SOL     OW37573   0.077   4.047  17.487 -0.0842  0.3321  0.1307
 8647SOL    HW137574   0.015   4.117  17.466 -0.9753 -0.4921  0.0551
 8647SOL    HW237575   0.137   4.106  17.533  0.4213  1.2388 -1.6964
 8648SOL     OW37576   3.040   2.483   3.402 -0.4872 -0.3154  0.0595
 8648SOL    HW137577   3.074   2.550   3.342  2.4238 -0.0857  2.0091
 8648SOL    HW237578   3.015   2.537   3.477 -0.6462  0.9345 -0.8788
 8649SOL     OW37579   4.161   1.091   7.532  0.1880  0.3293  0.5317
 8649SOL    HW137580   4.176   0.997   7.526 -0.2608  0.3669 -1.2924
 8649SOL    HW237581   4.105   1.101   7.454  0.2593 -0.9205  0.3122
 8650SOL     OW37582   1.066   2.103   0.049 -0.2795  0.2398 -0.2099
 8650SOL    HW137583   1.007   2.076   0.119 -1.8640 -0.3874 -1.7926
 8650SOL    HW237584   1.119   2.024   0.042 -1.0993 -0.1715 -1.8797
 8651SOL     OW37585   1.425   3.010   8.192 -0.6971 -0.5897  0.0346
 8651SOL    HW137586   1.468   3.073   8.134 -0.4988  0.3324  1.1723
 8651SOL    HW237587   1.355   3.070   8.219  0.5242  0.5157  0.7747
 8652SOL     OW37588   1.929   0.329  10.571  0.3425 -0.4193  0.0974
 8652SOL    HW137589   1.835   0.311  10.560  0.2260  0.6205 -0.5377
 8652SOL    HW237590   1.924   0.329  10.666 -1.0894  0.6525  0.0281
 8653SOL     OW37591   4.530   0.887   2.162 -0.0401  0.9593 -0.3735
 8653SOL    HW137592   4.566   0.849   2.081  2.1100 -0.6186  1.3294
 8653SOL    HW237593   4.480   0.960   2.126  0.8704  0.9359 -1.7087
 8654SOL     OW37594   1.569   1.119   7.103 -0.2528 -0.3919 -0.0573
 8654SOL    HW137595   1.538   1.099   7.015  1.7623  0.7896 -1.0335
 8654SOL    HW237596   1.493   1.095   7.157 -0.4554 -1.9517 -1.0379
 8655SOL     OW37597   0.086   0.661   6.250  0.4052  0.2561  0.2707
 8655SOL    HW137598   0.145   0.616   6.190 -1.2064 -0.0304 -1.0834
 8655SOL    HW237599   4.735   0.642   6.214  0.1717  2.1972 -0.1985
 8656SOL     OW37600   3.902   2.589   2.166 -0.7975  0.0427  0.1318
 8656SOL    HW137601   3.837   2.651   2.199  0.3339 -0.5991  3.5409
 8656SOL    HW237602   3.961   2.648   2.119 -1.1944  0.2885 -0.0532
 8657SOL     OW37603   0.835   2.966   2.761  0.1259  0.1935 -0.7553
 8657SOL    HW137604   0.885   3.047   2.760 -1.4457  1.1786  0.3725
 8657SOL    HW237605   0.751   2.981   2.717  0.5678  2.0101 -0.9531
 8658SOL     OW37606   1.553   2.467   3.238 -0.0978 -0.4862 -0.8151
 8658SOL    HW137607   1.618   2.522   3.194  0.0863 -1.6066 -1.9383
 8658SOL    HW237608   1.501   2.446   3.160 -0.6660 -0.1941 -0.5061
 8659SOL     OW37609   0.350   2.891   4.522 -0.4744  0.0926 -0.6396
 8659SOL    HW137610   0.314   2.866   4.437 -0.0433 -1.1531 -0.4597
 8659SOL    HW237611   0.293   2.855   4.590  1.9197 -2.1767  0.2112
 8660SOL     OW37612   2.185   4.339   6.714 -0.4327 -0.4734  0.1851
 8660SOL    HW137613   2.195   4.367   6.806  0.5097 -2.3101  0.6377
 8660SOL    HW237614   2.272   4.307   6.692 -0.2971 -1.1609  1.6932
 8661SOL     OW37615   2.263   0.539   9.162  0.1811 -0.9228 -0.1550
 8661SOL    HW137616   2.213   0.458   9.166 -1.2157 -0.0390  0.4515
 8661SOL    HW237617   2.271   0.571   9.252  1.4663 -0.5637 -0.4004
 8662SOL     OW37618   1.938   1.246   6.429 -0.4175 -0.1674 -0.3750
 8662SOL    HW137619   2.022   1.263   6.471 -0.1753 -0.8833 -0.5687
 8662SOL    HW237620   1.940   1.151   6.427  1.1009 -0.1307 -1.0569
 8663SOL     OW37621   3.163   1.279   0.759 -0.1813  0.6602 -0.1470
 8663SOL    HW137622   3.163   1.184   0.754 -1.0697  0.5836  1.1678
 8663SOL    HW237623   3.244   1.299   0.806 -0.1295 -2.6336  1.1969
 8664SOL     OW37624   1.870   2.522  11.201  0.4089 -0.2192  0.0090
 8664SOL    HW137625   1.906   2.590  11.144 -0.5202  2.3878  2.5640
 8664SOL    HW237626   1.950   2.479  11.231  0.0865  1.3198  3.0246
 8665SOL     OW37627   1.553   0.737   6.824  0.1229 -0.1249  0.1096
 8665SOL    HW137628   1.593   0.686   6.895  2.2927  0.3130 -0.8353
 8665SOL    HW237629   1.482   0.675   6.806  0.0828 -0.0908  0.1481
 8666SOL     OW37630   1.912   0.845   7.379  0.6170 -0.6119 -0.7749
 8666SOL    HW137631   1.821   0.837   7.407  0.3645  2.8073 -0.6429
 8666SOL    HW237632   1.945   0.920   7.429  2.0005 -0.9620 -1.1342
 8667SOL     OW37633   3.315   0.174   2.485  0.5182  0.3571 -0.2328
 8667SOL    HW137634   3.302   0.170   2.579 -1.1845 -0.5745 -0.5037
 8667SOL    HW237635   3.403   0.207   2.465  0.3117  0.9324 -0.1728
 8668SOL     OW37636   0.565   0.711  15.730 -0.1239 -0.0008  0.6710
 8668SOL    HW137637   0.589   0.803  15.732  0.7514 -0.2402  1.3047
 8668SOL    HW237638   0.634   0.668  15.679  0.3532  0.1226  1.2118
 8669SOL     OW37639   3.722   1.817   9.542  0.2541 -0.4712 -0.0767
 8669SOL    HW137640   3.650   1.879   9.531  0.8829  0.3954  0.7085
 8669SOL    HW237641   3.676   1.746   9.585 -0.3133  0.2083  0.4369
 8670SOL     OW37642   0.770   4.529  12.226  0.0419  0.2394 -0.6131
 8670SOL    HW137643   0.732   4.600  12.277 -0.1907  0.8363 -1.6090
 8670SOL    HW237644   0.689   4.485  12.200 -0.9017  1.7765 -0.2054
 8671SOL     OW37645   0.356   2.427  13.633  0.0011 -0.4555  0.4079
 8671SOL    HW137646   0.305   2.477  13.698  1.2552  0.6012  0.5903
 8671SOL    HW237647   0.403   2.496  13.585  0.3664  0.1771  1.6612
 8672SOL     OW37648   1.297   1.302   0.999 -0.0473  0.3734 -0.0851
 8672SOL    HW137649   1.371   1.282   0.942  1.2424  2.4051  0.9256
 8672SOL    HW237650   1.316   1.245   1.074  1.8048  0.1955 -0.6858
 8673SOL     OW37651   2.765   1.203   1.889 -0.4910  0.1669  0.0807
 8673SOL    HW137652   2.730   1.118   1.865 -0.4822  0.4243 -0.8254
 8673SOL    HW237653   2.858   1.186   1.872 -0.0051  1.9382  0.8771
 8674SOL     OW37654   0.925   0.803  12.311 -0.5417 -0.3625  0.1047
 8674SOL    HW137655   0.941   0.896  12.302 -1.4448 -0.4979 -3.0191
 8674SOL    HW237656   0.967   0.763  12.235 -1.8451 -0.2568 -0.6705
 8675SOL     OW37657   3.321   1.430  12.056 -0.3215 -0.1063  0.4829
 8675SOL    HW137658   3.401   1.466  12.096 -0.1804  0.0182  0.0955
 8675SOL    HW237659   3.324   1.335  12.066 -0.6128  0.0095  1.6541
 8676SOL     OW37660   3.693   3.469  13.134 -0.2673  0.1125 -0.2845
 8676SOL    HW137661   3.726   3.526  13.203  0.7907 -2.2992  1.1976
 8676SOL    HW237662   3.612   3.436  13.174  0.4548  0.4995  1.4708
 8677SOL     OW37663   1.424   3.759   6.583 -0.1482  0.1827 -0.4848
 8677SOL    HW137664   1.426   3.699   6.658 -1.6679  2.7494  1.5985
 8677SOL    HW237665   1.334   3.775   6.554 -0.1448  0.2427 -0.4622
 8678SOL     OW37666   4.684   3.389   8.077 -0.0058  0.4437  0.0675
 8678SOL    HW137667   4.661   3.371   8.168 -2.0222  2.5601 -0.0419
 8678SOL    HW237668   4.725   3.306   8.052 -0.3538  0.5040 -0.7189
 8679SOL     OW37669   3.344   1.633   3.298 -0.4702 -0.4873 -0.2359
 8679SOL    HW137670   3.319   1.668   3.213  1.5247  1.1128 -0.1679
 8679SOL    HW237671   3.330   1.706   3.359  0.5364  0.3158 -0.9601
 8680SOL     OW37672   3.211   3.432   0.785  0.7265 -0.4742  0.3770
 8680SOL    HW137673   3.196   3.493   0.857  0.6726  0.2758 -0.2781
 8680SOL    HW237674   3.171   3.483   0.715  1.7043  1.5935  1.3239
 8681SOL     OW37675   3.124   3.728   2.058  0.1831 -0.0124 -0.0762
 8681SOL    HW137676   3.161   3.792   1.998  0.8596  1.4528  1.8794
 8681SOL    HW237677   3.179   3.652   2.039  0.9515  0.4114  0.4691
 8682SOL     OW37678   2.928   2.734  14.497  0.3698 -0.1220 -0.8998
 8682SOL    HW137679   3.021   2.745  14.515  0.1465  1.8203 -0.8615
 8682SOL    HW237680   2.902   2.668  14.560  1.4153  1.1540  0.8619
 8683SOL     OW37681   3.472   2.875   2.780  0.1040 -0.1680 -0.1563
 8683SOL    HW137682   3.564   2.895   2.796 -0.3615  1.1131  0.9370
 8683SOL    HW237683   3.476   2.791   2.734  1.5172  0.1596 -0.6258
 8684SOL     OW37684   1.597   1.031   8.076  0.2096 -0.4754  0.4077
 8684SOL    HW137685   1.638   0.970   8.138  0.8365  0.3439  0.7864
 8684SOL    HW237686   1.507   1.002   8.063  0.0007  0.9590 -1.2253
 8685SOL     OW37687   1.396   3.022   5.550 -0.0679 -0.2692 -0.2251
 8685SOL    HW137688   1.412   2.967   5.626 -0.1790 -1.0830 -0.7879
 8685SOL    HW237689   1.355   3.098   5.592  0.5421 -0.5174  0.8194
 8686SOL     OW37690   4.592   0.371  17.484 -0.4642 -0.1952  0.1626
 8686SOL    HW137691   4.605   0.445  17.543  0.2646 -0.6321  0.5605
 8686SOL    HW237692   4.498   0.375  17.468 -0.4730 -1.9360 -0.2814
 8687SOL     OW37693   4.023   3.592  13.306 -0.0831 -0.0279 -0.2712
 8687SOL    HW137694   4.087   3.635  13.363  1.6512 -1.0114 -1.4735
 8687SOL    HW237695   4.025   3.649  13.230  0.0399  0.1755 -0.1143
 8688SOL     OW37696   1.264   0.038   6.901  0.2851  0.3138  0.1517
 8688SOL    HW137697   1.176   0.003   6.906  0.1935  0.7586  1.6321
 8688SOL    HW237698   1.288   0.046   6.809 -0.2583 -0.2117 -0.0336
 8689SOL     OW37699   0.386   2.447   3.930  0.3201 -0.0590 -0.4840
 8689SOL    HW137700   0.367   2.428   3.838 -1.6675  0.7374 -0.2385
 8689SOL    HW237701   0.455   2.382   3.941 -0.3065 -0.7869 -0.8179
 8690SOL     OW37702   3.189   0.610   3.341  0.5371  0.3026 -0.8684
 8690SOL    HW137703   3.204   0.602   3.247  0.4487  0.8571 -0.9313
 8690SOL    HW237704   3.252   0.558   3.391  0.9489 -0.7234 -2.4770
 8691SOL     OW37705   0.542   3.448   9.190 -0.2498 -1.1758  0.0450
 8691SOL    HW137706   0.542   3.371   9.246 -1.5917  0.6132  2.4939
 8691SOL    HW237707   0.622   3.432   9.139  1.0403  1.8461  1.0883
 8692SOL     OW37708   2.789   2.118   6.876  0.3568  0.1133  0.3544
 8692SOL    HW137709   2.847   2.096   6.949  0.7329 -0.7782 -0.2180
 8692SOL    HW237710   2.742   2.036   6.860  1.8885 -0.5992 -0.3987
 8693SOL     OW37711   0.565   0.254   5.633 -0.3777  0.3935 -0.0363
 8693SOL    HW137712   0.578   0.346   5.612  0.3660 -0.7043 -4.3927
 8693SOL    HW237713   0.545   0.217   5.547  1.0058 -2.8887  1.0278
 8694SOL     OW37714   4.351   3.322   3.143 -0.1729 -0.7959  0.2756
 8694SOL    HW137715   4.437   3.352   3.111  0.5233 -1.7420  1.2554
 8694SOL    HW237716   4.339   3.373   3.223 -1.4758 -4.4262  2.4032
 8695SOL     OW37717   4.707   1.670   4.260 -0.5544 -0.0976  0.1014
 8695SOL    HW137718   4.689   1.580   4.288 -0.9460  0.1634  0.6927
 8695SOL    HW237719   4.641   1.715   4.314  0.9161  0.7928  1.1590
 8696SOL     OW37720   3.111   3.254  14.279  0.0551  0.3804 -0.2286
 8696SOL    HW137721   3.021   3.232  14.255  0.5119  1.2577 -2.7673
 8696SOL    HW237722   3.093   3.303  14.359 -0.1178 -1.7081  1.0067
 8697SOL     OW37723   4.256   2.457  17.038 -0.3372  0.5538 -0.2620
 8697SOL    HW137724   4.284   2.424  17.124 -2.1785 -0.0204  0.1114
 8697SOL    HW237725   4.173   2.501  17.057 -0.6341 -0.1097 -0.0134
 8698SOL     OW37726   3.475   1.663  13.687 -0.7767  0.1777 -0.0154
 8698SOL    HW137727   3.401   1.657  13.749 -0.8809  0.3044 -0.1277
 8698SOL    HW237728   3.484   1.568  13.678  0.9758  0.3412  0.1731
 8699SOL     OW37729   0.455   0.256   6.298  0.1744 -0.4068  0.0488
 8699SOL    HW137730   0.521   0.275   6.365 -0.4898 -2.3954  1.2424
 8699SOL    HW237731   0.429   0.345   6.274 -0.2216 -0.9440 -1.4564
 8700SOL     OW37732   0.660   0.505  10.352  0.3444  0.0905  0.1476
 8700SOL    HW137733   0.709   0.577  10.312 -0.8610  1.1474  0.5857
 8700SOL    HW237734   0.616   0.477  10.272  1.1239 -2.5288  0.6526
 8701SOL     OW37735   2.525   2.710  12.722 -0.1367 -0.4396 -0.0592
 8701SOL    HW137736   2.523   2.732  12.815  0.7346 -1.6635  0.2400
 8701SOL    HW237737   2.592   2.642  12.720 -0.3594 -0.6265 -1.7914
 8702SOL     OW37738   4.572   3.449   2.761 -0.7627 -0.5021 -0.0438
 8702SOL    HW137739   4.617   3.514   2.814 -2.6774  0.3300  0.5703
 8702SOL    HW237740   4.553   3.518   2.696 -1.4586 -0.2622  0.4154
 8703SOL     OW37741   1.506   4.563   9.062  0.3303 -0.0912 -0.0471
 8703SOL    HW137742   1.601   4.550   9.066 -0.0525 -2.7396  0.4654
 8703SOL    HW237743   1.492   4.594   9.151  0.1622 -1.2410  0.3360
 8704SOL     OW37744   1.914   3.664   5.571  0.2414 -0.0556 -0.0888
 8704SOL    HW137745   1.874   3.726   5.510 -0.7007  0.1855  0.7675
 8704SOL    HW237746   1.983   3.625   5.517  1.9915  3.5799 -0.5353
 8705SOL     OW37747   4.531   0.993   5.588 -0.2096 -0.1007 -0.4867
 8705SOL    HW137748   4.489   1.006   5.503  0.1963  1.4739 -0.4502
 8705SOL    HW237749   4.617   1.031   5.568 -0.3605 -0.0838 -1.0887
 8706SOL     OW37750   3.025   1.881  10.521  0.1684  0.2601  0.1017
 8706SOL    HW137751   3.021   1.857  10.613  0.0248 -0.3362 -0.0606
 8706SOL    HW237752   3.057   1.802  10.477  0.7839  0.2127  0.6361
 8707SOL     OW37753   1.589   2.512   3.512  0.0747 -0.2525  0.0420
 8707SOL    HW137754   1.596   2.512   3.417  0.6898  2.7709  0.0664
 8707SOL    HW237755   1.680   2.490   3.529 -0.1464 -1.6795 -0.6561
 8708SOL     OW37756   3.493   3.327   2.035 -0.3329  0.0391 -0.3354
 8708SOL    HW137757   3.526   3.264   1.972 -0.6963 -1.4514  0.9645
 8708SOL    HW237758   3.523   3.292   2.118 -0.4362 -0.6571 -0.5906
 8709SOL     OW37759   2.065   0.130   8.465 -0.0523 -0.1409  0.1805
 8709SOL    HW137760   2.058   0.166   8.376  2.9149  0.7176  0.2878
 8709SOL    HW237761   2.110   0.204   8.507 -1.2659 -1.0017  2.9617
 8710SOL     OW37762   0.068   0.336   6.694  0.0097 -0.2181 -0.2190
 8710SOL    HW137763   0.101   0.421   6.721 -0.5221  0.2023 -0.8747
 8710SOL    HW237764   4.724   0.332   6.748  1.4015  0.7252  1.8776
 8711SOL     OW37765   1.681   2.989   5.086  0.2860  0.1405  0.5344
 8711SOL    HW137766   1.666   2.924   5.017  1.1111 -2.5601  2.8700
 8711SOL    HW237767   1.755   3.040   5.053 -0.1988 -0.1566 -1.0104
 8712SOL     OW37768   1.602   1.561   8.039 -0.4978  0.2823  0.5689
 8712SOL    HW137769   1.582   1.559   7.945  1.8568 -0.9905  0.0825
 8712SOL    HW237770   1.627   1.469   8.048  1.6978  1.0076  1.9432
 8713SOL     OW37771   2.932   3.796   3.334  0.2566  0.3229 -0.3333
 8713SOL    HW137772   2.968   3.794   3.246 -0.5718  1.1775 -0.6906
 8713SOL    HW237773   2.883   3.878   3.344  0.4314  0.2771  0.9429
 8714SOL     OW37774   1.962   3.990  12.719  0.0113 -0.1621  0.1880
 8714SOL    HW137775   1.955   3.912  12.774  1.3332  0.5226  1.3035
 8714SOL    HW237776   2.037   3.966  12.665  0.3770 -0.6139  0.9066
 8715SOL     OW37777   4.390   2.902   1.943 -0.5788  0.3377  0.1129
 8715SOL    HW137778   4.447   2.826   1.958 -0.8250  0.5126  1.9338
 8715SOL    HW237779   4.361   2.880   1.855 -0.0999  0.7541 -0.1504
 8716SOL     OW37780   3.066   2.018   8.100 -0.5760  0.8625 -0.1610
 8716SOL    HW137781   3.160   2.014   8.118 -0.6861 -1.2455 -0.1013
 8716SOL    HW237782   3.032   2.082   8.163  0.5815  1.4514 -0.1270
 8717SOL     OW37783   0.495   0.033   2.412  0.0628 -0.5030  0.2201
 8717SOL    HW137784   0.499   4.714   2.334 -0.2118  1.5370 -1.2437
 8717SOL    HW237785   0.508   4.700   2.477  1.0029  0.0796  0.6410
 8718SOL     OW37786   0.685   4.130   2.557 -0.0938 -0.0615  0.3027
 8718SOL    HW137787   0.633   4.207   2.533  0.1978 -0.2623 -0.9575
 8718SOL    HW237788   0.760   4.177   2.594 -0.9250  0.0591  1.8387
 8719SOL     OW37789   1.873   3.862  11.937  1.2719 -0.1543  0.3737
 8719SOL    HW137790   1.845   3.946  11.900 -0.2565 -1.2881 -1.0054
 8719SOL    HW237791   1.819   3.807  11.881  0.4586 -0.9399  1.9529
 8720SOL     OW37792   3.089   3.778   6.725  0.3113  0.5772 -0.1458
 8720SOL    HW137793   3.031   3.714   6.767  1.0986  0.9494  1.5277
 8720SOL    HW237794   3.108   3.744   6.638  0.3636 -0.2187  0.1746
 8721SOL     OW37795   0.261   1.216   2.818  0.0589  0.0489 -0.1820
 8721SOL    HW137796   0.241   1.308   2.835  0.2779  0.1884 -0.6579
 8721SOL    HW237797   0.218   1.195   2.735 -0.3018 -1.5443  0.4116
 8722SOL     OW37798   2.763   3.597  10.322  0.1794  0.9755  0.0474
 8722SOL    HW137799   2.819   3.582  10.397 -1.6096  1.8037  1.5431
 8722SOL    HW237800   2.828   3.612  10.254 -0.2300  0.8251 -0.3803
 8723SOL     OW37801   0.559   1.235   5.714  0.3874  0.0978  0.5368
 8723SOL    HW137802   0.478   1.254   5.666  0.8785  0.9140  0.0430
 8723SOL    HW237803   0.612   1.297   5.664 -0.8687  0.6780 -0.0701
 8724SOL     OW37804   3.171   0.589   6.298 -0.8334 -0.3193 -0.0419
 8724SOL    HW137805   3.229   0.598   6.222 -1.2173 -0.7292 -0.3826
 8724SOL    HW237806   3.108   0.658   6.279 -2.4967 -1.3870  1.6893
 8725SOL     OW37807   0.885   3.065  11.353  0.5051 -0.3085 -0.1201
 8725SOL    HW137808   0.953   3.020  11.304  0.7167  0.5244 -0.5928
 8725SOL    HW237809   0.939   3.089  11.428  2.4412 -0.8036 -1.3603
 8726SOL     OW37810   3.068   3.197   4.240 -0.3401 -0.2740  0.3207
 8726SOL    HW137811   3.016   3.135   4.291 -2.6953  0.8644 -0.7388
 8726SOL    HW237812   3.008   3.213   4.167 -0.3915 -2.1609 -0.0455
 8727SOL     OW37813   2.685   3.110   5.685  0.3158 -0.0058 -0.1809
 8727SOL    HW137814   2.763   3.069   5.723 -1.1998 -0.6896  2.2143
 8727SOL    HW237815   2.609   3.061   5.716  1.8856 -2.0531  0.4892
 8728SOL     OW37816   0.312   4.177   3.850 -0.5927  0.0529  0.5591
 8728SOL    HW137817   0.371   4.140   3.916 -0.7539  1.1539  1.3294
 8728SOL    HW237818   0.350   4.265   3.851  0.0309 -0.2147 -0.4976
 8729SOL     OW37819   2.607   4.706  13.849  0.3790 -0.2103  0.1187
 8729SOL    HW137820   2.665   4.631  13.856 -2.8702 -2.7517 -0.3087
 8729SOL    HW237821   2.656   0.033  13.796 -0.8291  1.0874  0.5407
 8730SOL     OW37822   4.026   3.160  16.517 -0.1860 -0.4047 -0.6495
 8730SOL    HW137823   4.093   3.170  16.584 -1.5376 -0.3461  0.6911
 8730SOL    HW237824   3.944   3.143  16.563 -1.2465  2.5836 -1.4464
 8731SOL     OW37825   3.023   4.420   4.353 -0.0403 -0.4855 -0.5544
 8731SOL    HW137826   2.956   4.477   4.391  0.2164 -1.3372  1.1990
 8731SOL    HW237827   2.983   4.382   4.275  0.3922  0.2718 -1.1395
 8732SOL     OW37828   2.322   2.290   1.957  0.2254  0.5685  0.1242
 8732SOL    HW137829   2.354   2.242   2.034  1.5425  3.2701  1.2611
 8732SOL    HW237830   2.315   2.379   1.992  0.6977  1.0100 -0.9116
 8733SOL     OW37831   2.646   2.175  12.212 -0.1773  0.1459 -0.6172
 8733SOL    HW137832   2.709   2.131  12.156 -0.3321 -1.3693  0.4052
 8733SOL    HW237833   2.634   2.258  12.166  0.1757  0.3546 -0.3358
 8734SOL     OW37834   0.875   2.261  17.647 -0.3290  0.2977  1.0158
 8734SOL    HW137835   0.823   2.248  17.726 -0.2264  2.1001  1.4020
 8734SOL    HW237836   0.956   2.218  17.675  0.5115  1.6488  0.6825
 8735SOL     OW37837   3.014   1.645   3.253  0.3482  0.1273  0.5069
 8735SOL    HW137838   2.963   1.723   3.276 -2.2118 -1.1855 -0.7333
 8735SOL    HW237839   2.951   1.584   3.292 -0.0969  1.0215  1.2199
 8736SOL     OW37840   1.405   3.355  13.029  0.0595 -0.2942  0.2792
 8736SOL    HW137841   1.367   3.427  13.081  0.2278  0.0269 -0.0467
 8736SOL    HW237842   1.495   3.388  13.031  0.1246 -0.5116  0.9737
 8737SOL     OW37843   3.495   0.054   6.125 -0.1325 -0.2158  0.1114
 8737SOL    HW137844   3.552   4.723   6.164 -0.7030  0.5110  2.1694
 8737SOL    HW237845   3.554   0.130   6.128 -0.5585  0.1437 -0.8026
 8738SOL     OW37846   2.972   4.531   9.617  0.2029  0.6100 -0.3448
 8738SOL    HW137847   3.033   4.559   9.685  0.2264 -3.2814  1.2477
 8738SOL    HW237848   3.013   4.454   9.578  1.3727  0.8113  0.4994
 8739SOL     OW37849   1.819   3.998   2.970 -0.1939  0.4303  0.2091
 8739SOL    HW137850   1.852   3.914   3.001 -0.6015  0.6474  1.2413
 8739SOL    HW237851   1.727   3.973   2.978 -0.5344  1.7858  0.5266
 8740SOL     OW37852   0.946   4.663  14.517  0.2913  0.8590 -0.2303
 8740SOL    HW137853   0.921   4.647  14.426 -1.3689 -1.0101  0.5580
 8740SOL    HW237854   0.994   4.582  14.534  0.0347  0.6040 -0.7435
 8741SOL     OW37855   3.112   0.168  14.707 -0.3921  0.2876  0.0437
 8741SOL    HW137856   3.117   0.222  14.786 -4.6459  1.9294 -0.7767
 8741SOL    HW237857   3.047   0.101  14.731 -2.3835  1.8615 -0.9340
 8742SOL     OW37858   1.927   0.930   2.177  0.6587 -0.6220 -0.2088
 8742SOL    HW137859   1.895   0.857   2.230 -0.4225 -0.7843 -1.0903
 8742SOL    HW237860   2.020   0.906   2.182  0.1996 -2.3013  0.4028
 8743SOL     OW37861   4.202   2.674   5.450  0.0482 -0.5818  0.5273
 8743SOL    HW137862   4.156   2.721   5.380  0.6823  0.9124  1.1244
 8743SOL    HW237863   4.260   2.613   5.403  0.2712  0.4287 -0.4967
 8744SOL     OW37864   3.054   0.845   9.304 -0.3289  0.3203 -0.4699
 8744SOL    HW137865   3.115   0.785   9.261 -0.7878 -1.3457  1.2145
 8744SOL    HW237866   2.969   0.812   9.274  0.3801 -1.1409 -0.8636
 8745SOL     OW37867   0.856   2.283  12.712  0.7591  0.0287  0.1298
 8745SOL    HW137868   0.855   2.307  12.805  1.9987  2.8306 -0.5882
 8745SOL    HW237869   0.879   2.191  12.724 -1.3710 -0.3247  1.4930
 8746SOL     OW37870   3.295   3.791   7.149 -0.4921  0.1629 -0.5302
 8746SOL    HW137871   3.261   3.872   7.186 -0.0529 -0.0936  0.4367
 8746SOL    HW237872   3.369   3.775   7.208 -0.6051  2.0336  0.1076
 8747SOL     OW37873   3.105   4.640  10.841  0.3088  0.2070  0.0744
 8747SOL    HW137874   3.169   4.705  10.869 -0.9079  1.9980 -1.2945
 8747SOL    HW237875   3.022   4.674  10.874  1.2846  1.5900  1.0882
 8748SOL     OW37876   1.864   3.683  10.318 -0.5191 -0.4945  0.4781
 8748SOL    HW137877   1.778   3.663  10.280  0.5142  1.5558 -3.0298
 8748SOL    HW237878   1.880   3.593  10.344 -2.2662 -0.3656  1.9809
 8749SOL     OW37879   4.459   1.040  14.483 -0.4091  0.0646  0.1502
 8749SOL    HW137880   4.534   0.984  14.506  0.7072  0.4473 -2.5668
 8749SOL    HW237881   4.500   1.125  14.468 -0.1422 -0.1338 -0.2456
 8750SOL     OW37882   3.343   0.998  11.729  0.0153  0.0966 -0.6447
 8750SOL    HW137883   3.427   1.030  11.761 -0.9099  0.5659  1.2812
 8750SOL    HW237884   3.280   1.019  11.798  1.2123  0.0240  0.4688
 8751SOL     OW37885   4.262   2.134   9.185  0.2738 -0.2811  0.2416
 8751SOL    HW137886   4.276   2.200   9.253  1.4517  0.1426 -0.4350
 8751SOL    HW237887   4.351   2.103   9.170  0.3962  0.4008 -0.3864
 8752SOL     OW37888   0.427   1.451   8.325 -0.1651 -0.1103  0.2311
 8752SOL    HW137889   0.383   1.528   8.291 -0.8132 -1.3856 -1.7967
 8752SOL    HW237890   0.410   1.389   8.254 -1.0379 -0.7108  0.9444
 8753SOL     OW37891   2.700   3.987   7.634 -0.4025 -0.3298  0.5623
 8753SOL    HW137892   2.702   3.896   7.664  1.1128 -0.0455  1.3063
 8753SOL    HW237893   2.626   4.023   7.683 -0.4967 -0.3961  0.4713
 8754SOL     OW37894   3.068   2.629   9.439 -0.0820  0.3672 -0.2678
 8754SOL    HW137895   2.977   2.649   9.461 -0.8280 -3.1186 -0.2071
 8754SOL    HW237896   3.076   2.667   9.351 -0.2468 -1.3542 -1.0371
 8755SOL     OW37897   4.672   1.363   2.090  0.8380 -0.9412  0.2257
 8755SOL    HW137898   4.655   1.371   1.996  0.9675  1.9043  0.4397
 8755SOL    HW237899   4.704   1.451   2.112  2.0229 -1.2490 -0.2379
 8756SOL     OW37900   3.607   3.336   3.938  0.3028  0.4218 -0.1981
 8756SOL    HW137901   3.535   3.279   3.967 -0.3874  1.4841  0.1955
 8756SOL    HW237902   3.672   3.271   3.912  0.9036  0.0492  2.1739
 8757SOL     OW37903   2.747   2.524   7.386 -0.1305 -0.2935 -0.8449
 8757SOL    HW137904   2.794   2.448   7.421  0.6253  1.6531  2.3125
 8757SOL    HW237905   2.659   2.488   7.375 -0.7873  0.4563  2.0130
 8758SOL     OW37906   2.712   3.878   5.877 -0.4765  0.0191  0.3120
 8758SOL    HW137907   2.642   3.818   5.901 -0.5817  0.0006 -0.0467
 8758SOL    HW237908   2.744   3.830   5.801  0.3498  0.1361  0.5882
 8759SOL     OW37909   3.314   3.424   4.546 -0.1984  0.3134  0.4134
 8759SOL    HW137910   3.285   3.391   4.631  0.3996  0.6245  0.7391
 8759SOL    HW237911   3.235   3.427   4.493 -1.7015  3.8096  2.8405
 8760SOL     OW37912   2.873   0.791  15.119  0.5633 -0.7254  0.0587
 8760SOL    HW137913   2.900   0.809  15.029  2.3103  0.7852  0.8849
 8760SOL    HW237914   2.779   0.803  15.105  0.4652 -2.5260 -0.7925
 8761SOL     OW37915   0.998   0.224   7.058  0.0176  0.1322 -0.5844
 8761SOL    HW137916   1.000   0.291   6.989  1.8595 -0.3554 -1.0050
 8761SOL    HW237917   1.083   0.184   7.039 -0.7596 -1.3679 -0.8873
 8762SOL     OW37918   4.024   3.565   9.370  0.3629  0.6740 -0.7719
 8762SOL    HW137919   4.028   3.530   9.281  1.4398  1.2482 -0.9485
 8762SOL    HW237920   4.083   3.640   9.364  1.6394 -0.2391  0.2415
 8763SOL     OW37921   0.468   1.826  16.162 -0.0319  0.1198  0.2653
 8763SOL    HW137922   0.509   1.895  16.214  1.4565 -0.1226 -0.5806
 8763SOL    HW237923   0.505   1.747  16.202  0.5642  0.6173  0.6998
 8764SOL     OW37924   3.536   1.452  10.432 -0.0209 -0.0986  0.0602
 8764SOL    HW137925   3.627   1.434  10.454 -0.4828 -1.1807  1.0994
 8764SOL    HW237926   3.492   1.376  10.471  1.8365 -1.2839 -0.1435
 8765SOL     OW37927   2.553   0.467  13.400  0.4555 -0.5389 -0.1365
 8765SOL    HW137928   2.620   0.517  13.446  0.6970  0.3518 -1.4619
 8765SOL    HW237929   2.603   0.386  13.394  2.7726  0.8833  0.1540
 8766SOL     OW37930   0.994   1.816   0.610 -0.2060  0.4460 -0.3186
 8766SOL    HW137931   0.903   1.796   0.588 -0.5169 -0.8431  2.0623
 8766SOL    HW237932   0.988   1.901   0.652 -0.7993 -0.3585  1.2247
 8767SOL     OW37933   0.976   0.689   5.283  0.2026  0.2046 -0.3506
 8767SOL    HW137934   1.021   0.730   5.357  3.0260 -0.1523 -1.8793
 8767SOL    HW237935   1.008   0.599   5.285  0.8410  0.4220 -0.7080
 8768SOL     OW37936   0.175   0.346   5.706 -0.3056 -0.5720 -0.8167
 8768SOL    HW137937   0.180   0.277   5.640 -0.0202 -2.3748  1.0976
 8768SOL    HW237938   0.102   0.326   5.765  0.7763 -1.1981  0.3102
 8769SOL     OW37939   2.097   0.142   9.443 -0.2391 -0.2465  0.3704
 8769SOL    HW137940   2.141   0.117   9.362 -2.7007  0.0146 -1.0623
 8769SOL    HW237941   2.165   0.171   9.503  0.1506  0.8598 -0.6130
 8770SOL     OW37942   3.515   1.829   4.446  0.0845 -0.1085  0.5997
 8770SOL    HW137943   3.439   1.872   4.487 -0.7720 -0.2816 -0.8263
 8770SOL    HW237944   3.583   1.884   4.486 -0.2829  0.3885  0.5484
 8771SOL     OW37945   1.273   4.141   6.433 -1.1367 -0.3302  0.0366
 8771SOL    HW137946   1.346   4.120   6.492  0.6103  0.8352 -1.7384
 8771SOL    HW237947   1.292   4.233   6.415  1.5415 -1.6777 -4.0417
 8772SOL     OW37948   2.315   1.671   7.849  0.3133 -0.4111  0.0329
 8772SOL    HW137949   2.267   1.640   7.772 -1.0414  1.3448  0.1708
 8772SOL    HW237950   2.271   1.626   7.921 -0.1972 -0.2396 -0.1698
 8773SOL     OW37951   4.309   0.382   2.750  0.2639  0.1427  0.0145
 8773SOL    HW137952   4.220   0.368   2.719  0.7162 -0.5393 -0.9641
 8773SOL    HW237953   4.312   0.477   2.740  2.6538  0.3015  2.2266
 8774SOL     OW37954   1.072   0.158   1.532  0.2549  0.2656  0.4561
 8774SOL    HW137955   1.056   0.071   1.567  0.7162  0.0177  0.0369
 8774SOL    HW237956   1.122   0.149   1.451  0.4088  0.5279  0.5194
 8775SOL     OW37957   2.900   3.693   1.500  0.3135 -1.2261  0.1297
 8775SOL    HW137958   2.820   3.658   1.460  1.1678 -0.1815 -2.5045
 8775SOL    HW237959   2.867   3.760   1.559 -0.3871 -0.6743 -0.8896
 8776SOL     OW37960   1.520   1.428  11.584  0.2782 -0.2347 -1.0125
 8776SOL    HW137961   1.512   1.489  11.657 -1.3682 -1.2842 -0.3055
 8776SOL    HW237962   1.607   1.388  11.589  0.6173  0.3559 -2.3747
 8777SOL     OW37963   1.450   0.441   2.578 -0.1676  0.0655 -0.2710
 8777SOL    HW137964   1.409   0.372   2.525  0.7540 -0.9400  0.3262
 8777SOL    HW237965   1.383   0.509   2.575  1.1956  1.3951 -0.1712
 8778SOL     OW37966   1.016   1.059   8.373 -0.1397  0.4248 -0.4611
 8778SOL    HW137967   1.099   1.051   8.420  0.4308  1.3165 -1.3201
 8778SOL    HW237968   0.968   1.009   8.440 -2.5083  0.6237 -1.9975
 8779SOL     OW37969   4.736   1.570   9.242 -0.0224 -0.1241 -0.8079
 8779SOL    HW137970   0.071   1.510   9.263  1.4463  1.3590 -1.4948
 8779SOL    HW237971   4.706   1.590   9.331 -0.3706 -0.5261 -0.8362
 8780SOL     OW37972   3.080   1.504   3.559 -0.7724 -0.2716 -0.5109
 8780SOL    HW137973   3.087   1.479   3.467  0.4754  2.2381 -1.0901
 8780SOL    HW237974   2.987   1.514   3.581 -0.8332  0.7034 -1.1922
 8781SOL     OW37975   4.108   4.676   5.207 -0.0430 -0.2947  0.0779
 8781SOL    HW137976   4.071   4.630   5.282  0.7034 -2.8675 -1.1483
 8781SOL    HW237977   4.146   4.602   5.161 -1.5391  0.3351 -2.1547
 8782SOL     OW37978   2.927   0.783  16.824 -1.3353  0.1292  0.4548
 8782SOL    HW137979   2.833   0.799  16.827 -1.6699 -2.0259  1.3584
 8782SOL    HW237980   2.949   0.774  16.917 -1.0125 -1.0374  0.2680
 8783SOL     OW37981   0.911   3.546   8.594  0.0676  0.8083 -0.5089
 8783SOL    HW137982   0.844   3.520   8.531 -0.6538  1.6766 -0.0949
 8783SOL    HW237983   0.856   3.547   8.672  1.0462  1.9339  0.1719
 8784SOL     OW37984   2.418   3.792   7.068 -0.2542 -0.0314 -0.1662
 8784SOL    HW137985   2.410   3.832   7.155  2.9317 -2.7203  1.3549
 8784SOL    HW237986   2.326   3.772   7.050 -0.1607 -1.1566  0.5956
 8785SOL     OW37987   2.162   1.545   1.958 -0.2696 -0.1312 -0.8003
 8785SOL    HW137988   2.227   1.614   1.946  0.2975 -0.4886  0.1989
 8785SOL    HW237989   2.202   1.464   1.990 -0.5003  1.0251  2.3700
 8786SOL     OW37990   0.675   1.933   1.881 -0.7023 -0.1906  0.3891
 8786SOL    HW137991   0.749   1.872   1.869  0.0368  0.2525  2.6366
 8786SOL    HW237992   0.606   1.867   1.885 -1.1109  0.3632  2.1229
 8787SOL     OW37993   3.978   0.487   3.997  0.0751  0.4123  0.5189
 8787SOL    HW137994   3.969   0.465   3.905  3.7148 -0.9173  0.4568
 8787SOL    HW237995   3.887   0.490   4.026  0.0746 -2.6522  0.8962
 8788SOL     OW37996   1.245   1.592   2.072  0.1363  0.0144  0.3497
 8788SOL    HW137997   1.314   1.534   2.105  0.4413  1.3039  1.9577
 8788SOL    HW237998   1.172   1.536   2.045  1.0262 -1.3147  0.6566
 8789SOL     OW37999   1.682   3.299   6.208 -0.3769 -0.0420 -0.1009
 8789SOL    HW138000   1.654   3.390   6.215  0.6810  0.0602  2.6774
 8789SOL    HW238001   1.600   3.251   6.199 -0.5019  0.0661  0.4248
 8790SOL     OW38002   4.560   2.451  14.045 -0.0500  0.0856 -0.0234
 8790SOL    HW138003   4.648   2.417  14.058 -0.2885 -0.7535 -0.6752
 8790SOL    HW238004   4.558   2.528  14.102  1.7893  0.6164 -0.6897
 8791SOL     OW38005   2.305   2.671  14.360 -0.2042 -0.2802 -0.5367
 8791SOL    HW138006   2.213   2.670  14.386  0.8959  0.9772  3.2934
 8791SOL    HW238007   2.308   2.755  14.313 -0.3002 -0.2709 -0.5271
 8792SOL     OW38008   1.814   3.977   4.093  0.0155  0.5870  0.1185
 8792SOL    HW138009   1.861   3.955   4.173  0.4183  1.8142  0.2127
 8792SOL    HW238010   1.722   3.952   4.101  0.0271 -0.3873 -2.7473
 8793SOL     OW38011   3.293   0.961   7.380  0.4300  0.7825 -0.4276
 8793SOL    HW138012   3.358   0.893   7.361 -1.6489 -1.9078  2.2254
 8793SOL    HW238013   3.212   0.911   7.390  1.1521 -0.8655 -3.1020
 8794SOL     OW38014   0.924   4.092  15.114 -0.2602 -0.0017 -0.4066
 8794SOL    HW138015   0.881   4.149  15.050 -0.6185  2.0007  1.6235
 8794SOL    HW238016   0.859   4.022  15.119  0.0240 -0.0720  2.2524
 8795SOL     OW38017   1.957   1.223   2.759  0.7903  0.4232  0.1122
 8795SOL    HW138018   1.930   1.314   2.773 -1.9099 -0.0201 -2.2474
 8795SOL    HW238019   2.030   1.232   2.698  0.9987  0.2328  0.3315
 8796SOL     OW38020   0.152   3.986   8.059  0.3332  0.2390  0.1293
 8796SOL    HW138021   0.060   4.004   8.037 -0.0994 -1.8952  0.2409
 8796SOL    HW238022   0.184   3.950   7.977 -0.6953 -0.0014 -0.1706
 8797SOL     OW38023   4.155   1.546   9.522  0.0825 -0.0417  0.4246
 8797SOL    HW138024   4.221   1.553   9.592  1.2181 -0.3545 -0.6097
 8797SOL    HW238025   4.083   1.592   9.565 -0.6521  0.3273 -1.2135
 8798SOL     OW38026   4.183   0.107   3.401  0.6831  0.0332 -0.0582
 8798SOL    HW138027   4.257   0.163   3.422 -1.1450  2.6914 -0.6776
 8798SOL    HW238028   4.161   0.141   3.314  0.9223  1.2619  0.3783
 8799SOL     OW38029   1.163   1.199  13.430 -0.2281  0.5514 -0.5466
 8799SOL    HW138030   1.185   1.139  13.502 -4.6596  0.4042  0.6690
 8799SOL    HW238031   1.068   1.190  13.427 -0.2805 -0.1079  2.4996
 8800SOL     OW38032   1.187   1.873   0.098  0.0279 -0.5546 -0.2276
 8800SOL    HW138033   1.158   1.844   0.185  0.6118 -0.4117  0.0135
 8800SOL    HW238034   1.269   1.825   0.087 -0.1452 -0.1272 -3.3314
 8801SOL     OW38035   1.214   4.505  16.648 -0.1034 -0.1830 -0.0999
 8801SOL    HW138036   1.186   4.533  16.735  2.6632 -0.6994  0.9686
 8801SOL    HW238037   1.138   4.512  16.591  2.4197  0.3396 -3.4137
 8802SOL     OW38038   2.272   3.373   4.006 -0.0339  0.3750 -0.8004
 8802SOL    HW138039   2.229   3.384   3.922  0.2727 -2.3076 -1.2966
 8802SOL    HW238040   2.326   3.295   3.993 -1.0586 -0.4738 -0.0427
 8803SOL     OW38041   4.426   1.772   4.974  0.3999 -0.4331  0.1957
 8803SOL    HW138042   4.437   1.687   5.017  2.8294 -0.1588  0.1142
 8803SOL    HW238043   4.437   1.824   5.054  0.9142  0.3081 -0.3652
 8804SOL     OW38044   4.640   3.940   6.135  0.0915 -0.0081  0.9323
 8804SOL    HW138045   4.552   3.914   6.106  0.1915  0.0304  0.5936
 8804SOL    HW238046   4.694   3.937   6.056 -0.2313  1.1371  0.6695
 8805SOL     OW38047   0.312   4.646   4.779  0.0966  0.5375 -0.7994
 8805SOL    HW138048   0.367   4.578   4.819  1.4591  1.6362 -0.7911
 8805SOL    HW238049   0.378   4.693   4.728 -0.1677  1.3336 -0.4154
 8806SOL     OW38050   2.263   3.504   7.521  0.3672 -0.1698 -0.3616
 8806SOL    HW138051   2.198   3.477   7.456  2.5707 -1.0964 -2.1921
 8806SOL    HW238052   2.206   3.555   7.579 -0.9091 -1.2800 -0.6271
 8807SOL     OW38053   2.413   1.382   6.166 -0.1913 -0.2553 -0.1246
 8807SOL    HW138054   2.498   1.392   6.208  0.1245  1.7769 -1.2580
 8807SOL    HW238055   2.418   1.289   6.146 -0.3701 -0.5104  1.0159
 8808SOL     OW38056   1.290   2.021   6.104  0.6500 -0.3424  0.3152
 8808SOL    HW138057   1.379   2.013   6.138  1.6218  3.1422 -1.4643
 8808SOL    HW238058   1.252   1.933   6.112 -0.0513 -0.0822 -0.1374
 8809SOL     OW38059   3.016   4.036   3.020  0.2021  0.5805  0.3939
 8809SOL    HW138060   3.038   4.110   3.077  0.4978 -1.0962  2.4735
 8809SOL    HW238061   3.101   3.994   3.026 -0.3601 -0.8233 -1.6544
 8810SOL     OW38062   0.154   1.341   6.618 -0.2732  0.2191 -0.2920
 8810SOL    HW138063   0.091   1.274   6.592 -1.3170  0.5787  1.2945
 8810SOL    HW238064   0.171   1.381   6.532 -0.4172 -2.4952 -1.5657
 8811SOL     OW38065   4.558   4.187   4.789 -0.2220 -0.0904  0.5529
 8811SOL    HW138066   4.612   4.135   4.729  0.8340  2.1615 -0.4658
 8811SOL    HW238067   4.525   4.258   4.733 -0.3223 -0.8066 -0.3102
 8812SOL     OW38068   1.354   0.169  11.590  0.0819 -0.2485  0.0946
 8812SOL    HW138069   1.300   0.239  11.627 -1.3329 -1.8851  1.1196
 8812SOL    HW238070   1.308   0.091  11.619  0.7196 -1.2696 -1.6033
 8813SOL     OW38071   3.267   2.501   1.849 -0.1692  0.1594  0.3171
 8813SOL    HW138072   3.246   2.583   1.893 -2.1375  1.2528 -2.6550
 8813SOL    HW238073   3.228   2.519   1.764 -1.1649 -0.1751  0.7084
 8814SOL     OW38074   0.076   2.797   3.473  0.8538  0.0598 -0.4324
 8814SOL    HW138075   0.077   2.890   3.494  0.4285 -0.1485  0.5130
 8814SOL    HW238076   4.734   2.798   3.417 -1.1174  1.0193  2.3232
 8815SOL     OW38077   3.769   3.860   8.192 -0.2415  0.4741  0.3968
 8815SOL    HW138078   3.675   3.850   8.178 -0.2191  1.1363 -0.2180
 8815SOL    HW238079   3.785   3.954   8.179  0.7143  0.0861 -1.1410
 8816SOL     OW38080   1.173   1.042   0.766  0.0147 -0.5408 -0.2388
 8816SOL    HW138081   1.164   1.097   0.688  1.3651 -0.9159 -0.6567
 8816SOL    HW238082   1.251   1.083   0.803 -1.0078 -0.0436  1.3516
 8817SOL     OW38083   1.966   0.432   3.748  0.4673  0.2293  0.3737
 8817SOL    HW138084   2.003   0.360   3.697 -2.3092 -0.2177 -1.0143
 8817SOL    HW238085   1.924   0.381   3.817 -0.1721  0.8208  0.4282
 8818SOL     OW38086   3.868   1.775   8.135  0.5309  0.0736 -0.2402
 8818SOL    HW138087   3.917   1.795   8.215 -0.6149 -1.4902  0.8429
 8818SOL    HW238088   3.818   1.699   8.164 -1.5630  1.1289 -1.0718
 8819SOL     OW38089   0.205   0.940  11.337 -0.1403 -0.2829 -0.2621
 8819SOL    HW138090   0.269   0.870  11.326 -0.6968 -1.0741  1.4877
 8819SOL    HW238091   0.133   0.902  11.286  1.1826 -1.6139 -1.1263
 8820SOL     OW38092   1.244   0.638   1.710  0.0857 -0.5098 -0.3606
 8820SOL    HW138093   1.221   0.731   1.699  0.7588 -0.5480 -1.9795
 8820SOL    HW238094   1.189   0.608   1.638  1.1691  0.2001 -1.4656
 8821SOL     OW38095   2.011   3.586   6.867  0.2229  0.2709 -0.1420
 8821SOL    HW138096   1.961   3.566   6.947  0.6988  1.9331  0.5812
 8821SOL    HW238097   1.936   3.566   6.811  1.1417 -3.1131 -0.1626
 8822SOL     OW38098   4.687   0.266   1.872  0.0224 -0.0406 -0.2979
 8822SOL    HW138099   4.693   0.352   1.913  0.6776 -0.3790  0.3245
 8822SOL    HW238100   0.018   0.274   1.803 -0.2317 -0.2662 -0.5696
 8823SOL     OW38101   4.036   0.002  17.498  0.4187 -0.3291  0.2760
 8823SOL    HW138102   4.102   4.687  17.546 -0.2102 -0.3889  1.0645
 8823SOL    HW238103   4.061   0.081  17.547  0.1075 -0.5122  0.7254
 8824SOL     OW38104   4.401   2.242  14.754  0.6705 -0.1452 -0.4193
 8824SOL    HW138105   4.458   2.309  14.714  1.1716  0.3660  1.1748
 8824SOL    HW238106   4.319   2.292  14.760  0.9461  0.3003 -0.3064
 8825SOL     OW38107   3.792   3.901   3.005  0.1740 -0.1781 -0.8871
 8825SOL    HW138108   3.748   3.826   2.965 -0.9699 -0.5048  0.9814
 8825SOL    HW238109   3.749   3.898   3.091 -2.1139  0.2864 -2.0024
 8826SOL     OW38110   0.728   0.694   3.540  0.1389 -0.2030  0.6938
 8826SOL    HW138111   0.774   0.701   3.456 -3.3729 -0.9537 -1.2873
 8826SOL    HW238112   0.698   0.784   3.555 -0.3425 -0.1119 -0.7814
 8827SOL     OW38113   3.573   0.779  16.916  0.0923 -0.2393 -0.3824
 8827SOL    HW138114   3.625   0.735  16.850 -0.7547 -1.8792  0.0290
 8827SOL    HW238115   3.630   0.856  16.910  0.3468 -0.5836 -2.4062
 8828SOL     OW38116   3.715   0.164   7.946 -0.1388 -0.4796  0.1762
 8828SOL    HW138117   3.759   0.246   7.968 -0.7108  0.5031 -2.3457
 8828SOL    HW238118   3.751   0.158   7.857  5.2194  0.2932  2.2702
 8829SOL     OW38119   0.041   2.107   9.635 -0.5520 -0.1235 -0.2964
 8829SOL    HW138120   4.731   2.125   9.717  1.0613  0.0582  0.5577
 8829SOL    HW238121   4.710   2.130   9.570  0.9036  1.1297 -1.3575
 8830SOL     OW38122   0.575   1.618   3.740  0.6571 -0.2387 -0.2522
 8830SOL    HW138123   0.602   1.674   3.667 -0.5035  0.4928 -0.1167
 8830SOL    HW238124   0.662   1.589   3.768  0.3910  0.0288  0.8307
 8831SOL     OW38125   2.286   1.299   5.650  0.6371  0.3557  0.1037
 8831SOL    HW138126   2.274   1.374   5.592  1.9281 -0.2271 -0.8998
 8831SOL    HW238127   2.370   1.325   5.688  0.0501  1.6169  0.5542
 8832SOL     OW38128   4.531   0.023   8.710 -0.0612 -0.4656 -0.6257
 8832SOL    HW138129   4.489   4.696   8.768  1.5479  0.7606  1.8611
 8832SOL    HW238130   4.529   0.105   8.760  0.4970 -0.8364  0.0086
 8833SOL     OW38131   1.420   0.344   6.269 -0.2901 -0.2535  0.1210
 8833SOL    HW138132   1.501   0.387   6.241  1.6678 -3.1250  1.3499
 8833SOL    HW238133   1.378   0.324   6.186  2.0549 -1.8791 -0.6719
 8834SOL     OW38134   1.839   1.987   3.415  0.3270  0.0173  0.3024
 8834SOL    HW138135   1.812   1.927   3.345 -0.1952  0.0044  0.5158
 8834SOL    HW238136   1.754   1.985   3.459  0.0280 -4.1757 -0.4815
 8835SOL     OW38137   3.685   0.287   4.990 -0.0435  0.3082 -0.4473
 8835SOL    HW138138   3.647   0.218   4.935  2.8276  0.6438 -2.7966
 8835SOL    HW238139   3.624   0.358   4.971 -1.1000 -0.2734  0.6885
 8836SOL     OW38140   2.408   2.043   2.762 -0.4183 -0.0957  0.2713
 8836SOL    HW138141   2.367   2.034   2.848  2.2198 -2.8276  1.2281
 8836SOL    HW238142   2.344   2.087   2.706 -0.6166 -0.1798  0.4327
 8837SOL     OW38143   4.365   0.275   3.476 -0.3213 -0.2823 -0.1637
 8837SOL    HW138144   4.416   0.249   3.552  0.6523 -1.3553 -1.1782
 8837SOL    HW238145   4.352   0.367   3.499 -0.5252 -0.4870  0.5306
 8838SOL     OW38146   3.195   3.224   3.161  0.0559 -0.6620 -0.2000
 8838SOL    HW138147   3.222   3.169   3.087  2.3082  0.1419  0.0219
 8838SOL    HW238148   3.101   3.208   3.173  0.0302  0.1801  0.6540
 8839SOL     OW38149   2.960   0.453   6.431 -0.1369  0.2174 -0.4575
 8839SOL    HW138150   3.033   0.513   6.413 -1.1793  1.0563 -1.9238
 8839SOL    HW238151   2.945   0.410   6.347  3.4672 -0.0786 -0.9466
 8840SOL     OW38152   2.169   2.559  16.314 -0.1035  0.6715 -0.5179
 8840SOL    HW138153   2.126   2.605  16.242 -0.1694  0.0740 -0.8588
 8840SOL    HW238154   2.235   2.505  16.270 -2.9223 -2.3169 -1.0812
 8841SOL     OW38155   2.742   3.946  10.095  0.2385 -0.2493 -0.0565
 8841SOL    HW138156   2.815   3.929  10.036 -0.0601 -1.3828 -0.0931
 8841SOL    HW238157   2.785   3.948  10.180 -0.1432 -0.7098  0.1489
 8842SOL     OW38158   1.252   2.778   2.314  0.2979  0.0856  0.1146
 8842SOL    HW138159   1.299   2.856   2.285  1.5797 -0.1897  1.4760
 8842SOL    HW238160   1.247   2.798   2.407 -5.9618  0.3139 -0.2969
 8843SOL     OW38161   0.410   0.674   5.394 -0.6381 -1.3279  0.1183
 8843SOL    HW138162   0.474   0.722   5.446  0.4693  0.7671 -3.1416
 8843SOL    HW238163   0.395   0.744   5.330  0.6292 -1.2992 -0.1524
 8844SOL     OW38164   4.385   3.956   7.932  0.3666  0.7385 -0.2000
 8844SOL    HW138165   4.309   4.015   7.931  0.0362  0.3043 -0.7336
 8844SOL    HW238166   4.368   3.916   8.017  0.4836  0.2278 -0.4174
 8845SOL     OW38167   3.250   3.132  14.072 -0.4611  0.2637 -0.2129
 8845SOL    HW138168   3.165   3.156  14.036 -1.5173 -1.1107  1.3810
 8845SOL    HW238169   3.245   3.174  14.158 -0.5068  0.0468 -0.1099
 8846SOL     OW38170   2.538   3.495   9.876 -0.1529  0.4121  0.4749
 8846SOL    HW138171   2.595   3.512   9.800 -1.1114 -0.7996 -0.5035
 8846SOL    HW238172   2.557   3.576   9.924  0.5970 -0.0053  0.8771
 8847SOL     OW38173   3.084   3.704   5.215  0.0175  0.8170  0.1526
 8847SOL    HW138174   3.099   3.721   5.308 -0.8232  1.3517  0.1864
 8847SOL    HW238175   3.162   3.743   5.174  0.7366 -0.2290  0.5153
 8848SOL     OW38176   2.236   1.635  12.163 -0.5830 -0.5056  0.1387
 8848SOL    HW138177   2.289   1.566  12.123  0.7498  0.4463  0.2796
 8848SOL    HW238178   2.266   1.715  12.119 -2.2288 -0.4547 -0.9189
 8849SOL     OW38179   2.596   0.781   1.730 -0.5048 -0.2382 -0.3025
 8849SOL    HW138180   2.614   0.788   1.824  0.4771 -0.2516 -0.4912
 8849SOL    HW238181   2.539   0.704   1.730 -1.0920  0.1972  0.2845
 8850SOL     OW38182   4.692   1.786   6.077  0.3277 -0.0093  0.4783
 8850SOL    HW138183   4.734   1.803   5.993  0.9249 -0.7871  0.6179
 8850SOL    HW238184   0.012   1.715   6.109 -1.1959 -0.6898  1.6231
 8851SOL     OW38185   1.374   0.453   8.825 -0.4627 -0.5061 -0.2244
 8851SOL    HW138186   1.384   0.520   8.758  2.6970 -0.4483  0.3160
 8851SOL    HW238187   1.447   0.477   8.882 -1.9489  1.5673  0.8002
 8852SOL     OW38188   1.833   3.741   3.098 -0.2480 -0.2424  0.1771
 8852SOL    HW138189   1.892   3.667   3.102 -0.4029 -0.2808  1.5900
 8852SOL    HW238190   1.771   3.710   3.164 -1.5446 -0.8745 -1.3510
 8853SOL     OW38191   0.561   4.000   5.990  0.0852 -0.1971 -0.7417
 8853SOL    HW138192   0.590   3.909   5.999  2.0711  0.5165 -0.1224
 8853SOL    HW238193   0.507   3.987   5.912 -1.1201  0.1736  0.0341
 8854SOL     OW38194   2.891   4.336  17.711  0.4375  0.6747 -0.2738
 8854SOL    HW138195   2.805   4.304  17.685  0.9305 -0.9731  0.1211
 8854SOL    HW238196   2.894   4.325   0.065  0.6501  0.9651 -0.2468
 8855SOL     OW38197   2.073   3.179  11.241 -0.2515  1.0822 -0.0140
 8855SOL    HW138198   2.109   3.137  11.319  1.6001  0.4484 -1.1988
 8855SOL    HW238199   2.148   3.178  11.180  0.1551 -1.4650  0.5348
 8856SOL     OW38200   0.667   1.648   8.551  0.0129 -0.0117  0.6746
 8856SOL    HW138201   0.679   1.711   8.479  0.8820 -1.1755 -0.2038
 8856SOL    HW238202   0.752   1.644   8.595  0.8081  1.3929 -0.7090
 8857SOL     OW38203   1.515   1.487   9.283 -0.8609  0.2553  0.3836
 8857SOL    HW138204   1.574   1.478   9.358 -0.7813  1.9963  0.5303
 8857SOL    HW238205   1.474   1.570   9.308 -0.3252  0.3818  0.8491
 8858SOL     OW38206   1.535   0.684   0.563  0.0287 -0.5307 -0.7805
 8858SOL    HW138207   1.615   0.642   0.595  1.1225  1.4207 -0.9925
 8858SOL    HW238208   1.564   0.725   0.482  0.2168  2.7937  0.9599
 8859SOL     OW38209   0.505   4.055   4.563 -0.0621  0.0099  0.1148
 8859SOL    HW138210   0.511   4.059   4.658 -1.0989  0.8530  0.1420
 8859SOL    HW238211   0.439   3.987   4.549 -2.1617  2.0155  0.2806
 8860SOL     OW38212   3.964   3.919   3.664  0.3749  0.4352 -0.0660
 8860SOL    HW138213   3.940   4.011   3.654 -0.6605 -0.1630 -2.9149
 8860SOL    HW238214   4.008   3.920   3.749  0.7885  1.2162 -0.2939
 8861SOL     OW38215   3.958   0.876   7.251 -0.1492  0.2058  0.5357
 8861SOL    HW138216   4.038   0.827   7.275 -0.7856 -1.4605 -0.7479
 8861SOL    HW238217   3.891   0.808   7.254 -0.4830  0.5560  0.9009
 8862SOL     OW38218   3.687   1.559  12.653 -0.0707 -0.1735 -0.2419
 8862SOL    HW138219   3.729   1.518  12.577 -0.1688 -1.8969  0.6355
 8862SOL    HW238220   3.657   1.481  12.699  2.2337 -0.7708  0.1965
 8863SOL     OW38221   3.169   2.979   7.146 -0.1345  0.3026  0.3111
 8863SOL    HW138222   3.252   2.961   7.191 -0.9423 -0.7945  1.3784
 8863SOL    HW238223   3.176   2.912   7.078 -1.1611 -1.5277  1.9671
 8864SOL     OW38224   4.542   3.769  16.496 -0.5496  0.0751 -0.5114
 8864SOL    HW138225   4.450   3.796  16.502  0.1768  1.9987  2.0591
 8864SOL    HW238226   4.559   3.750  16.588 -2.8750 -1.5832 -0.3938
 8865SOL     OW38227   2.430   1.263   4.268 -0.1896  0.2010  0.4526
 8865SOL    HW138228   2.415   1.168   4.278  1.9660 -0.2557 -0.6980
 8865SOL    HW238229   2.524   1.274   4.280 -0.3123  0.5378  1.0708
 8866SOL     OW38230   4.467   3.629   8.366 -0.3286 -0.0026 -0.2656
 8866SOL    HW138231   4.423   3.573   8.302 -0.3294 -0.6873  0.3332
 8866SOL    HW238232   4.494   3.574   8.439  1.0419  1.7489  0.5446
 8867SOL     OW38233   3.464   4.694   4.461  0.1120  0.2358  0.1939
 8867SOL    HW138234   3.391   4.646   4.423  0.5890 -0.6868  0.4644
 8867SOL    HW238235   3.398   0.009   4.509 -0.7514  0.7331 -1.4930
 8868SOL     OW38236   3.918   0.017   1.453  0.1242 -0.5083 -0.4018
 8868SOL    HW138237   3.907   4.728   1.544 -0.9340  0.0427 -0.3784
 8868SOL    HW238238   3.999   0.068   1.456 -1.0991  1.4351 -0.4871
 8869SOL     OW38239   3.039   3.469   2.773  0.1646  0.3614 -0.0583
 8869SOL    HW138240   3.010   3.555   2.743 -2.7004 -0.8647 -0.7963
 8869SOL    HW238241   2.951   3.433   2.789 -0.3002  1.9163  0.8577
 8870SOL     OW38242   3.526   3.374   9.192 -0.3175 -0.0420 -0.1348
 8870SOL    HW138243   3.570   3.296   9.158 -0.3458  0.9594 -2.4662
 8870SOL    HW238244   3.443   3.332   9.213 -1.4519  1.8430 -0.8686
 8871SOL     OW38245   2.604   2.075   1.191  0.2338  0.0826 -0.4156
 8871SOL    HW138246   2.689   2.034   1.181  0.4210  0.2816  0.3617
 8871SOL    HW238247   2.584   2.120   1.109  0.4160  0.1722 -0.4096
 8872SOL     OW38248   1.739   0.798   9.260  0.0691 -0.1333 -0.0529
 8872SOL    HW138249   1.774   0.709   9.260  0.6751  0.1099  1.5946
 8872SOL    HW238250   1.748   0.822   9.168 -1.2187  0.8955  0.0970
 8873SOL     OW38251   1.870   0.138   7.867 -1.0418 -0.1681  0.1659
 8873SOL    HW138252   1.866   0.078   7.941 -0.3893  0.7902  0.9636
 8873SOL    HW238253   1.930   0.203   7.903 -0.0609 -1.2257  0.4302
 8874SOL     OW38254   1.871   3.316  11.106 -0.4600  0.5460 -0.1493
 8874SOL    HW138255   1.919   3.254  11.162 -1.0815  0.0265 -0.1803
 8874SOL    HW238256   1.818   3.260  11.049  2.0752 -0.9387 -1.0089
 8875SOL     OW38257   0.060   3.932   3.800 -0.2914  0.0156  0.0587
 8875SOL    HW138258   0.118   3.953   3.726  1.6032  0.7012  1.7314
 8875SOL    HW238259   0.118   3.875   3.850 -0.8715 -0.5399  0.0943
 8876SOL     OW38260   2.536   4.544  10.464  0.0295  0.0500  0.2734
 8876SOL    HW138261   2.548   4.459  10.422  1.7273  1.2547 -1.6837
 8876SOL    HW238262   2.481   4.509  10.534 -0.5630  0.9572  0.2601
 8877SOL     OW38263   3.709   4.531   2.354  0.2140  0.2769  0.1717
 8877SOL    HW138264   3.779   4.475   2.320  2.1921  2.7175  0.1722
 8877SOL    HW238265   3.736   4.541   2.445 -1.0223 -3.2585  0.9059
 8878SOL     OW38266   0.345   2.923   3.749  0.1114  0.4871  0.0677
 8878SOL    HW138267   0.255   2.950   3.735  0.4800  0.8088 -1.6112
 8878SOL    HW238268   0.389   3.006   3.730  1.9410 -0.3504  0.5837
 8879SOL     OW38269   4.217   3.269   1.881  0.6843 -0.9175 -0.1900
 8879SOL    HW138270   4.206   3.312   1.797  0.8881 -0.2588  0.1221
 8879SOL    HW238271   4.304   3.232   1.867  1.0827  0.9293 -2.4741
 8880SOL     OW38272   1.307   4.565   3.117  0.0004  0.0073  0.1757
 8880SOL    HW138273   1.320   4.621   3.193 -1.6856  0.3655  0.1996
 8880SOL    HW238274   1.372   4.607   3.060  0.5502  0.1003  0.8847
 8881SOL     OW38275   0.142   2.659   9.232 -0.6279  0.2258 -0.7270
 8881SOL    HW138276   0.223   2.616   9.259 -0.2938  0.3214 -1.5709
 8881SOL    HW238277   0.176   2.739   9.191 -0.7363 -0.3065 -1.8713
 8882SOL     OW38278   2.556   2.169   2.426 -0.1088 -0.7637 -0.0421
 8882SOL    HW138279   2.582   2.253   2.462 -1.7725  0.7607 -2.3995
 8882SOL    HW238280   2.577   2.115   2.502 -0.6866  0.9480  1.3178
 8883SOL     OW38281   2.557   1.586  10.218  0.4698 -0.5570  0.0701
 8883SOL    HW138282   2.628   1.553  10.273  0.8366 -0.4386 -0.3335
 8883SOL    HW238283   2.489   1.536  10.264  1.0435 -0.2718  1.2468
 8884SOL     OW38284   4.607   3.376   3.914 -0.0734 -0.6546  0.1586
 8884SOL    HW138285   4.595   3.295   3.963  1.4120 -0.1149  1.4229
 8884SOL    HW238286   4.579   3.355   3.825  0.8657  0.8672 -0.4932
 8885SOL     OW38287   1.052   3.412  11.925  0.1071  0.1427 -0.6751
 8885SOL    HW138288   1.053   3.463  11.844  0.9700  2.6175  0.9204
 8885SOL    HW238289   1.135   3.364  11.933 -0.4214 -0.8694 -1.1408
 8886SOL     OW38290   1.591   0.248   7.521 -0.1207 -0.2111 -0.9248
 8886SOL    HW138291   1.620   0.179   7.461  0.3069 -0.2327 -0.6988
 8886SOL    HW238292   1.678   0.270   7.555 -0.0639 -1.3807 -0.3439
 8887SOL     OW38293   0.172   3.596  17.016  0.2624 -0.3931  0.1966
 8887SOL    HW138294   0.251   3.628  17.060 -0.9532  1.4256  1.0572
 8887SOL    HW238295   0.145   3.529  17.079 -1.1260  1.3365  1.4319
 8888SOL     OW38296   2.535   0.936  13.763 -0.7125 -0.1104  0.8535
 8888SOL    HW138297   2.485   1.016  13.746  0.9566  0.4987 -1.2111
 8888SOL    HW238298   2.488   0.898  13.837 -1.9924 -1.2391 -0.5332
 8889SOL     OW38299   3.138   0.985   8.633  0.1310 -0.0821 -0.2305
 8889SOL    HW138300   3.224   1.017   8.605  1.8693 -3.9508  0.7306
 8889SOL    HW238301   3.106   0.975   8.543 -0.6035 -0.8542  0.1227
 8890SOL     OW38302   2.175   0.957  13.913  0.1327 -0.4992 -0.4384
 8890SOL    HW138303   2.178   0.978  14.006 -2.1893  0.0507 -0.4936
 8890SOL    HW238304   2.244   0.892  13.899 -0.9686 -1.3536 -1.9184
 8891SOL     OW38305   3.670   0.075   8.578 -0.1480 -0.5086  0.0521
 8891SOL    HW138306   3.633   0.098   8.493 -0.9585  1.3144  0.8797
 8891SOL    HW238307   3.707   0.160   8.603 -0.6605 -0.4342  0.5609
 8892SOL     OW38308   2.403   2.880   4.105 -0.1066 -0.0010  0.0619
 8892SOL    HW138309   2.440   2.828   4.033 -0.1521 -1.2149  0.9107
 8892SOL    HW238310   2.356   2.809   4.149 -0.7453  0.0711 -0.4944
 8893SOL     OW38311   3.078   2.910   2.648 -0.2779  0.0392 -0.2480
 8893SOL    HW138312   3.007   2.974   2.644 -0.7321 -0.5560 -1.7208
 8893SOL    HW238313   3.155   2.959   2.618 -0.7509  3.3964  4.1044
 8894SOL     OW38314   0.995   3.944  16.744  0.8045  0.1303  0.1630
 8894SOL    HW138315   0.933   4.001  16.699 -1.1627 -0.6882  1.8888
 8894SOL    HW238316   1.076   3.994  16.756  0.4767  0.4751  0.9237
 8895SOL     OW38317   4.158   1.950   8.906  0.3756  0.2206  0.1397
 8895SOL    HW138318   4.067   1.979   8.912 -0.1334 -1.5301  0.9288
 8895SOL    HW238319   4.166   1.912   8.994 -0.1748 -0.0083  0.0906
 8896SOL     OW38320   2.270   1.067   6.337  1.1597 -0.1034 -0.5180
 8896SOL    HW138321   2.190   1.100   6.296  2.1653  0.5657 -1.9397
 8896SOL    HW238322   2.230   1.017   6.408  1.0164 -1.8321 -1.8007
 8897SOL     OW38323   2.278   1.780   0.227 -0.2067 -0.4706 -0.2158
 8897SOL    HW138324   2.333   1.704   0.206 -0.4375 -1.0570  1.2993
 8897SOL    HW238325   2.287   1.796   0.320 -1.1307 -0.7562 -0.0757
 8898SOL     OW38326   3.248   3.964   8.634  0.0200  0.5568 -0.5399
 8898SOL    HW138327   3.343   3.975   8.635 -0.1544  1.5716  2.8760
 8898SOL    HW238328   3.219   4.012   8.712 -0.7890 -1.7368  0.5545
 8899SOL     OW38329   2.138   3.481   1.970 -0.4092  0.4727 -0.2475
 8899SOL    HW138330   2.089   3.399   1.961  0.1166 -0.0121  1.3891
 8899SOL    HW238331   2.068   3.538   2.001 -0.3364 -0.8249  2.3170
 8900SOL     OW38332   3.242   4.032   6.705 -0.2324 -0.2324  0.0800
 8900SOL    HW138333   3.262   4.081   6.626  0.9186 -1.8281 -0.6126
 8900SOL    HW238334   3.199   3.948   6.686 -1.7220  0.4948  0.2775
 8901SOL     OW38335   1.943   1.755   8.885 -0.5992  0.3052  0.4955
 8901SOL    HW138336   1.940   1.704   8.804 -0.2087 -0.2068  0.8021
 8901SOL    HW238337   1.855   1.725   8.909 -0.7272  0.4534  0.2163
 8902SOL     OW38338   4.717   2.745  10.775  0.3233 -0.0575 -0.2450
 8902SOL    HW138339   4.681   2.677  10.832 -0.5056 -0.3462 -1.1040
 8902SOL    HW238340   0.057   2.704  10.734  1.0616  0.5794  0.4947
 8903SOL     OW38341   0.317   3.979   7.028  0.0948 -0.5676  0.4959
 8903SOL    HW138342   0.246   3.956   6.967 -0.1557  0.8910  0.2437
 8903SOL    HW238343   0.378   3.905   7.026  1.6044  0.6654  2.3010
 8904SOL     OW38344   0.626   0.472   8.991  0.5980 -0.5856  0.3712
 8904SOL    HW138345   0.645   0.379   9.001 -0.9322 -0.9970 -0.5320
 8904SOL    HW238346   0.700   0.519   9.031  0.9091 -0.9725  0.2481
 8905SOL     OW38347   4.575   0.165   3.136  0.1168 -0.1486 -0.2966
 8905SOL    HW138348   4.487   0.189   3.107  0.2426  1.6778  0.8311
 8905SOL    HW238349   4.604   0.102   3.071  2.1599 -1.9587  2.3976
 8906SOL     OW38350   3.114   2.371   5.070  0.2164 -0.2230 -0.2758
 8906SOL    HW138351   3.165   2.446   5.099  0.4036 -0.2359 -0.5734
 8906SOL    HW238352   3.088   2.396   4.981  0.1142  0.5921 -0.0136
 8907SOL     OW38353   1.837   2.586  11.999 -0.1888  0.6011 -0.7807
 8907SOL    HW138354   1.886   2.622  12.072 -3.5945  0.9732  1.2786
 8907SOL    HW238355   1.772   2.532  12.044  0.3305 -0.5816 -1.4465
 8908SOL     OW38356   4.619   2.924   4.174 -0.0439  0.1772  0.0459
 8908SOL    HW138357   4.595   2.870   4.250  0.5339  0.1135  0.1811
 8908SOL    HW238358   4.608   2.859   4.104  0.5515  0.4381 -0.2937
 8909SOL     OW38359   1.240   0.631   1.973  0.0801  0.0013  1.2845
 8909SOL    HW138360   1.247   0.620   1.878 -1.9580 -0.6951  1.2293
 8909SOL    HW238361   1.156   0.590   1.990 -0.5538 -0.4261 -2.8705
 8910SOL     OW38362   3.662   1.493   5.100 -0.2427  0.4699  0.0487
 8910SOL    HW138363   3.601   1.538   5.040 -0.9359  1.3692  1.4340
 8910SOL    HW238364   3.619   1.499   5.185 -0.8987 -0.1010 -0.2447
 8911SOL     OW38365   2.070   1.254   7.093 -0.2793 -0.3068  0.1998
 8911SOL    HW138366   2.121   1.176   7.071 -0.8378 -0.8684  0.8744
 8911SOL    HW238367   2.120   1.310   7.153 -2.9432  0.3833  1.7518
 8912SOL     OW38368   2.764   1.667   8.421 -0.1662  0.2415 -0.0711
 8912SOL    HW138369   2.821   1.653   8.346  0.7085 -3.3930  1.2666
 8912SOL    HW238370   2.809   1.628   8.496 -1.9419 -1.0204  0.3166
 8913SOL     OW38371   4.478   1.359   7.630 -0.1186 -0.3455 -0.7677
 8913SOL    HW138372   4.476   1.401   7.716  0.4441 -0.2578 -0.8024
 8913SOL    HW238373   4.492   1.265   7.641  1.3324  0.0807  0.9754
 8914SOL     OW38374   2.688   3.339  10.757  0.3270  0.2726  0.0438
 8914SOL    HW138375   2.606   3.388  10.761  0.6481  0.6756  1.7123
 8914SOL    HW238376   2.696   3.290  10.839  1.4843  2.4797  1.2487
 8915SOL     OW38377   4.260   3.608  11.969  0.7432  0.4874  0.3777
 8915SOL    HW138378   4.322   3.680  11.977  1.6068 -0.2864  0.7684
 8915SOL    HW238379   4.266   3.579  12.060  1.0411 -1.1155 -0.1512
 8916SOL     OW38380   2.268   4.132   8.671 -0.4805  0.1665  0.0789
 8916SOL    HW138381   2.307   4.199   8.615  0.6241  0.7275  1.5401
 8916SOL    HW238382   2.324   4.140   8.748  0.8171 -0.5644 -0.7953
 8917SOL     OW38383   0.944   3.406   9.536 -0.1796  0.3071  0.4238
 8917SOL    HW138384   1.000   3.384   9.611 -0.7511 -2.2594  0.1116
 8917SOL    HW238385   0.900   3.479   9.579 -1.6853 -1.4485  1.9115
 8918SOL     OW38386   3.269   3.558   1.295  0.0083  0.1795 -0.3120
 8918SOL    HW138387   3.239   3.486   1.240 -1.2464 -0.5860  1.3725
 8918SOL    HW238388   3.359   3.528   1.309  0.3278  0.9676 -0.6858
 8919SOL     OW38389   0.061   2.532   5.107  0.1776 -0.2344 -0.3656
 8919SOL    HW138390   4.702   2.528   5.114  0.3144 -0.0935  1.4342
 8919SOL    HW238391   0.062   2.504   5.015  1.3833  2.2995 -1.1243
 8920SOL     OW38392   3.075   2.076   1.943  0.3649  0.0459  0.2867
 8920SOL    HW138393   3.073   2.172   1.945  2.0921  0.0677  1.1131
 8920SOL    HW238394   3.165   2.056   1.969  1.2709  2.1050 -1.3056
 8921SOL     OW38395   3.779   2.435   5.684  0.0770  0.3185  0.0161
 8921SOL    HW138396   3.724   2.384   5.744  0.2154  0.2169  0.0576
 8921SOL    HW238397   3.863   2.395   5.708  0.0101 -0.5606 -1.2261
 8922SOL     OW38398   2.837   0.085   3.144 -0.4260 -0.4954 -0.1729
 8922SOL    HW138399   2.911   0.138   3.114  0.3599 -0.7355  1.3637
 8922SOL    HW238400   2.833   0.019   3.075  1.1031 -1.3830  0.5756
 8923SOL     OW38401   2.540   4.058  13.128 -0.2133 -0.1325  0.4591
 8923SOL    HW138402   2.459   4.014  13.105  0.7606 -2.2358  1.0433
 8923SOL    HW238403   2.512   4.149  13.128  1.9261  0.5406 -0.2050
 8924SOL     OW38404   1.870   4.165  16.397  0.2143  0.9428 -0.0215
 8924SOL    HW138405   1.886   4.099  16.330  1.5076  2.3770 -1.1144
 8924SOL    HW238406   1.890   4.116  16.477 -1.4517 -0.0728 -0.2374
 8925SOL     OW38407   2.949   4.384   6.058  0.2651 -0.2807  0.0212
 8925SOL    HW138408   2.930   4.359   6.149 -0.6666 -0.2016 -0.1514
 8925SOL    HW238409   2.892   4.461   6.047  0.6567 -0.0211 -0.1901
 8926SOL     OW38410   3.856   1.731   5.594 -0.4512 -0.0105  0.2219
 8926SOL    HW138411   3.858   1.803   5.531  0.6704 -1.6720 -1.6318
 8926SOL    HW238412   3.861   1.786   5.672  4.4297  1.5581 -1.2417
 8927SOL     OW38413   0.303   1.487   3.159 -0.3312  0.1334  0.3035
 8927SOL    HW138414   0.235   1.537   3.204  0.6769  0.4091  1.5140
 8927SOL    HW238415   0.278   1.497   3.067 -0.9088 -2.9731  0.1223
 8928SOL     OW38416   4.290   3.494  13.166 -0.1094 -0.0544  0.0501
 8928SOL    HW138417   4.243   3.535  13.094  0.3356 -1.9409 -1.3221
 8928SOL    HW238418   4.223   3.505  13.233 -1.1129  0.5580 -1.0701
 8929SOL     OW38419   4.634   2.199   3.743  0.1863  0.5527 -0.3673
 8929SOL    HW138420   4.565   2.134   3.726  2.2559 -1.5304 -0.8619
 8929SOL    HW238421   4.681   2.170   3.821 -1.1864  0.1735  0.3189
 8930SOL     OW38422   3.247   2.251   7.551  0.4779  0.5748 -0.1334
 8930SOL    HW138423   3.301   2.223   7.478 -2.8877 -1.1484 -1.9657
 8930SOL    HW238424   3.172   2.192   7.547  1.4281 -0.6299  0.1470
 8931SOL     OW38425   3.679   0.928   1.862  0.3488  0.2992  0.2056
 8931SOL    HW138426   3.594   0.905   1.899  0.2163 -0.5312 -0.6159
 8931SOL    HW238427   3.698   0.835   1.851  0.8054  0.5579 -1.1313
 8932SOL     OW38428   3.725   2.698   5.732 -0.5449  0.0727 -0.0834
 8932SOL    HW138429   3.765   2.768   5.680  0.0010 -1.9547 -2.4026
 8932SOL    HW238430   3.762   2.617   5.697 -0.9772 -0.9532  1.8038
 8933SOL     OW38431   0.646   4.462   7.911  0.4384  0.4214 -0.1258
 8933SOL    HW138432   0.617   4.553   7.920  0.1325  0.1871  1.3631
 8933SOL    HW238433   0.715   4.456   7.977 -1.6678  0.7870  2.1449
 8934SOL     OW38434   4.601   1.117   6.432  0.0942  0.4907 -0.2567
 8934SOL    HW138435   4.674   1.103   6.371  0.9607  0.4029  0.8008
 8934SOL    HW238436   4.528   1.081   6.381 -0.9135  0.5488  1.1321
 8935SOL     OW38437   4.053   2.677   5.669  0.4585  0.5545 -0.1491
 8935SOL    HW138438   4.058   2.588   5.703  2.3168  0.3663 -0.8989
 8935SOL    HW238439   4.118   2.675   5.599 -0.3355 -0.9583 -0.8281
 8936SOL     OW38440   0.923   1.380  16.076  1.0401  0.3137  0.2170
 8936SOL    HW138441   0.833   1.357  16.051  1.8839 -3.1039  0.3106
 8936SOL    HW238442   0.922   1.390  16.171  1.6421 -0.4396  0.3005
 8937SOL     OW38443   2.352   0.413   7.362 -0.0014  0.3258  0.6031
 8937SOL    HW138444   2.277   0.470   7.345  0.3055  0.3215 -0.8152
 8937SOL    HW238445   2.363   0.418   7.456 -1.3409 -0.1225  0.7877
 8938SOL     OW38446   2.292   0.120   8.217  0.4770 -0.1810  0.2488
 8938SOL    HW138447   2.376   0.145   8.180 -0.0721  0.2188 -0.7381
 8938SOL    HW238448   2.325   0.073   8.293  0.3396  1.5391  1.3839
 8939SOL     OW38449   1.737   1.801   8.109 -0.0399 -0.0281  0.3012
 8939SOL    HW138450   1.682   1.729   8.079  0.5167 -0.4806  0.3648
 8939SOL    HW238451   1.690   1.870   8.062  1.9397  2.0897  1.4694
 8940SOL     OW38452   4.115   0.251   9.999 -0.2898 -0.1525 -0.2570
 8940SOL    HW138453   4.045   0.185  10.000 -0.6600  0.2711  1.1994
 8940SOL    HW238454   4.171   0.221   9.927  1.3898  1.1805  0.5149
 8941SOL     OW38455   0.072   0.112   4.564  0.3407 -0.0073 -0.2477
 8941SOL    HW138456   0.159   0.125   4.602  1.2490 -0.1517 -2.2637
 8941SOL    HW238457   0.067   0.183   4.499  4.2174  0.7255  0.2278
 8942SOL     OW38458   4.710   0.171   2.124 -0.1135  0.3205 -0.2974
 8942SOL    HW138459   4.615   0.183   2.133 -0.6601 -2.5680 -2.2013
 8942SOL    HW238460   4.725   0.193   2.033  1.6784 -2.0019 -0.5440
 8943SOL     OW38461   4.230   4.657   7.388  0.3582  0.4562 -0.2821
 8943SOL    HW138462   4.305   4.608   7.355  0.1259  0.0474 -0.2134
 8943SOL    HW238463   4.189   4.604   7.457  2.4228  0.5153  0.9848
 8944SOL     OW38464   0.273   0.327   4.397  0.2036  0.0073  0.0037
 8944SOL    HW138465   0.274   0.421   4.416 -0.3882 -0.4735  2.5038
 8944SOL    HW238466   0.181   0.309   4.380 -0.0475  0.0450  1.2925
 8945SOL     OW38467   1.504   0.830   6.479  0.2214  0.0910 -0.2936
 8945SOL    HW138468   1.514   0.765   6.409 -0.5069  0.5693 -0.8320
 8945SOL    HW238469   1.424   0.800   6.523 -0.4732  1.9658 -0.3058
 8946SOL     OW38470   3.668   3.569   1.969 -0.1558 -0.5272  0.0896
 8946SOL    HW138471   3.707   3.512   2.035 -2.5342 -0.8893  1.1836
 8946SOL    HW238472   3.576   3.553   1.987  0.2807 -1.4859  1.4977
 8947SOL     OW38473   3.295   4.559   8.425 -0.4062  0.0508 -0.6860
 8947SOL    HW138474   3.357   4.539   8.355  1.4056  0.0464  0.8951
 8947SOL    HW238475   3.235   4.620   8.383 -1.6121 -1.5541 -1.2943
 8948SOL     OW38476   2.468   1.648   4.783  0.0753  0.1986  0.4246
 8948SOL    HW138477   2.407   1.627   4.854  0.9425 -0.1785  1.0572
 8948SOL    HW238478   2.547   1.661   4.836  2.0643 -2.1275 -1.9738
 8949SOL     OW38479   1.741   1.414   5.411 -0.5243  0.2367  0.2890
 8949SOL    HW138480   1.653   1.375   5.410  0.9129 -3.0473  2.4581
 8949SOL    HW238481   1.799   1.361   5.466 -2.3842 -2.1526 -0.0359
 8950SOL     OW38482   0.247   0.685   5.879  0.3372 -0.1581 -0.2174
 8950SOL    HW138483   0.205   0.607   5.915 -0.3031  1.0360  1.5692
 8950SOL    HW238484   0.281   0.649   5.797  1.0881  2.0728 -0.8739
 8951SOL     OW38485   1.831   3.636   4.365  0.0547 -0.5361 -0.7442
 8951SOL    HW138486   1.912   3.654   4.413  0.7415  1.0030 -2.4773
 8951SOL    HW238487   1.864   3.579   4.296 -0.0681  0.1357 -1.3634
 8952SOL     OW38488   2.439   1.099   6.111 -0.2843  0.2096 -0.4510
 8952SOL    HW138489   2.362   1.090   6.167 -1.4268  5.6025 -1.1247
 8952SOL    HW238490   2.514   1.087   6.169 -0.1340  0.3919 -0.6087
 8953SOL     OW38491   1.367   2.279   4.677  0.5073  0.1795 -0.3291
 8953SOL    HW138492   1.382   2.353   4.618 -1.5118  0.5473 -0.3929
 8953SOL    HW238493   1.454   2.267   4.714 -0.4953 -1.0351  1.6756
 8954SOL     OW38494   3.345   2.675  17.213  0.4243 -0.4664  0.1535
 8954SOL    HW138495   3.362   2.633  17.129 -0.9481 -1.4971  0.3840
 8954SOL    HW238496   3.417   2.736  17.228 -0.5366  1.1390 -1.7498
 8955SOL     OW38497   2.522   3.062  11.306  0.6664  0.4117 -0.3994
 8955SOL    HW138498   2.585   3.130  11.331  0.4791  0.1993  0.6741
 8955SOL    HW238499   2.544   3.046  11.215  2.2897 -1.1807  0.2727
 8956SOL     OW38500   2.420   1.337  14.996  0.0282  0.3223 -0.7186
 8956SOL    HW138501   2.352   1.305  14.938 -1.7865  1.9822  0.5118
 8956SOL    HW238502   2.422   1.429  14.967  0.9517  0.2439 -0.9253
 8957SOL     OW38503   3.234   2.257  13.019 -0.0638 -0.2751  0.3061
 8957SOL    HW138504   3.232   2.331  12.958 -1.7690 -1.7974 -1.4770
 8957SOL    HW238505   3.233   2.301  13.105  0.2859  0.7733 -0.2230
 8958SOL     OW38506   2.199   4.530  11.757 -0.0867  0.1232 -0.1457
 8958SOL    HW138507   2.161   4.450  11.793  0.1596 -0.4414 -1.1285
 8958SOL    HW238508   2.185   4.506  11.665 -2.1409 -1.4331  0.5803
 8959SOL     OW38509   3.940   3.282   8.052 -0.0364 -0.3561  0.7412
 8959SOL    HW138510   3.874   3.326   7.998  0.6304 -0.8383 -0.4553
 8959SOL    HW238511   3.876   3.233   8.103 -1.8769 -1.0771 -2.2352
 8960SOL     OW38512   2.817   4.279   7.646 -0.4506 -0.4541 -0.4726
 8960SOL    HW138513   2.833   4.232   7.564  0.7542  1.5943 -1.4245
 8960SOL    HW238514   2.724   4.303   7.643 -1.3126 -3.6331  1.8220
 8961SOL     OW38515   2.607   4.152   3.345  0.0163  0.8632 -0.2678
 8961SOL    HW138516   2.632   4.244   3.358  1.1371  0.6709 -1.0109
 8961SOL    HW238517   2.622   4.141   3.251  0.6422 -2.1000  0.1706
 8962SOL     OW38518   4.154   0.623   9.121 -0.0689 -0.6968 -0.5003
 8962SOL    HW138519   4.138   0.667   9.205 -2.0624 -2.1340 -0.1209
 8962SOL    HW238520   4.227   0.568   9.152 -0.1179 -1.0941 -1.0951
 8963SOL     OW38521   4.420   1.802   7.502  0.6424  0.4529 -0.7272
 8963SOL    HW138522   4.337   1.755   7.509  0.0185  1.6183 -0.4522
 8963SOL    HW238523   4.400   1.880   7.553  1.3858 -1.1044  1.9636
 8964SOL     OW38524   3.778   2.093   3.796  0.6185 -0.5900 -0.0376
 8964SOL    HW138525   3.789   2.002   3.823  1.5833  0.1818  2.1295
 8964SOL    HW238526   3.743   2.133   3.875  0.3393  0.6416 -0.7701
 8965SOL     OW38527   2.058   3.329   2.969 -0.2107 -0.4582  0.2634
 8965SOL    HW138528   2.145   3.366   2.955 -0.1040 -1.1256 -0.7965
 8965SOL    HW238529   2.011   3.400   3.013  0.0518 -0.7472  1.0125
 8966SOL     OW38530   3.395   4.093   4.658  0.1065  0.2949 -0.2253
 8966SOL    HW138531   3.413   4.185   4.638  0.1580  0.0474 -1.3618
 8966SOL    HW238532   3.375   4.047   4.576 -2.6710 -0.1690  0.7435
 8967SOL     OW38533   1.171   3.308   6.261 -0.3008 -0.1192 -0.0321
 8967SOL    HW138534   1.148   3.330   6.351  0.3596 -2.4331  0.7114
 8967SOL    HW238535   1.180   3.398   6.230  1.2177 -0.2277  0.0954
 8968SOL     OW38536   1.938   3.760  14.792 -0.0622  0.1999 -0.4181
 8968SOL    HW138537   1.921   3.836  14.847  2.2787  0.1543  0.3435
 8968SOL    HW238538   1.881   3.765  14.715 -1.5308 -0.9280  0.5959
 8969SOL     OW38539   3.154   1.419   9.573  0.2659 -0.1315 -0.1982
 8969SOL    HW138540   3.110   1.426   9.488  2.5244  0.7366 -1.2853
 8969SOL    HW238541   3.166   1.325   9.584 -1.3213 -0.4781 -1.4583
 8970SOL     OW38542   2.964   3.393   1.953 -0.4117  0.5716  0.2371
 8970SOL    HW138543   3.057   3.380   1.934 -0.3720  2.6226 -0.9371
 8970SOL    HW238544   2.951   3.334   2.028 -0.7809 -1.1947 -1.2129
 8971SOL     OW38545   0.702   0.350  16.928  0.0957  0.1667  0.2050
 8971SOL    HW138546   0.683   0.304  17.010 -1.7713 -2.0930 -1.5193
 8971SOL    HW238547   0.782   0.393  16.960 -0.2068  1.3610 -0.6607
 8972SOL     OW38548   3.331   1.152   3.259 -0.6112 -0.0599  0.8158
 8972SOL    HW138549   3.297   1.078   3.310 -1.6601 -0.4975 -0.5135
 8972SOL    HW238550   3.392   1.109   3.199 -2.6021  1.3743 -2.2231
 8973SOL     OW38551   1.194   0.522   3.371 -0.1344 -0.7376 -0.0927
 8973SOL    HW138552   1.158   0.478   3.294 -0.9176 -1.6226  0.7830
 8973SOL    HW238553   1.254   0.582   3.327 -2.0771  1.4657  0.2763
 8974SOL     OW38554   2.386   3.649   4.371  0.3891 -0.1421 -0.2783
 8974SOL    HW138555   2.369   3.564   4.412 -0.8461  0.6291  0.8015
 8974SOL    HW238556   2.327   3.714   4.408  1.2017  1.0816 -1.1685
 8975SOL     OW38557   2.561   2.107   7.243  0.4597 -0.1526 -0.4804
 8975SOL    HW138558   2.537   2.177   7.304  1.5085  0.6498 -0.9890
 8975SOL    HW238559   2.508   2.136   7.169 -1.7391 -2.0886  0.3543
 8976SOL     OW38560   2.563   0.245  10.802  0.1079 -0.5382 -0.1034
 8976SOL    HW138561   2.551   0.170  10.860  0.0736 -1.3083 -1.1077
 8976SOL    HW238562   2.615   0.304  10.856  1.8625 -0.3903 -1.9352
 8977SOL     OW38563   0.037   4.504   9.563 -0.1978  0.6463  0.0889
 8977SOL    HW138564   0.067   4.556   9.639 -2.9905  0.0417  1.5965
 8977SOL    HW238565   0.119   4.510   9.514  0.0321 -1.5329  0.2189
 8978SOL     OW38566   0.327   3.642  15.941  0.3056 -0.2534  0.0300
 8978SOL    HW138567   0.345   3.584  15.867 -0.5703  1.9598 -1.9123
 8978SOL    HW238568   0.238   3.619  15.969  0.0909  0.5333 -0.0260
 8979SOL     OW38569   0.625   3.693   6.763  0.1693 -0.1472 -0.5333
 8979SOL    HW138570   0.596   3.741   6.685  0.9550 -0.4229 -0.9864
 8979SOL    HW238571   0.619   3.603   6.732 -0.2477  0.2950 -1.7581
 8980SOL     OW38572   0.474   3.403   6.375  0.0534 -0.3946 -0.2036
 8980SOL    HW138573   0.495   3.384   6.466 -1.8416 -1.9082 -0.0761
 8980SOL    HW238574   0.387   3.364   6.373 -0.3482  0.3989  1.5408
 8981SOL     OW38575   0.363   4.378   7.291  0.2567 -0.4295  0.0960
 8981SOL    HW138576   0.401   4.303   7.244 -1.3171 -0.1756 -1.5756
 8981SOL    HW238577   0.273   4.348   7.302 -0.6182  1.0379 -2.9885
 8982SOL     OW38578   2.702   3.190   3.051  0.6215 -0.8950 -0.2266
 8982SOL    HW138579   2.744   3.269   3.084 -0.2290  0.5752 -2.6786
 8982SOL    HW238580   2.626   3.228   3.006  2.7557 -0.6337 -3.5678
 8983SOL     OW38581   1.190   0.234   2.124  0.0716  0.2654 -0.3078
 8983SOL    HW138582   1.147   0.173   2.064  1.7533 -0.1691 -1.0622
 8983SOL    HW238583   1.113   0.277   2.161 -0.0882  1.1102 -1.6125
 8984SOL     OW38584   4.532   4.231   8.249 -0.4570 -0.4769  0.0405
 8984SOL    HW138585   4.499   4.155   8.297  1.7077 -2.0135 -0.8820
 8984SOL    HW238586   4.476   4.227   8.172 -1.2036  1.5848  0.4588
 8985SOL     OW38587   3.159   0.614  17.277  0.7400  0.0473  0.4763
 8985SOL    HW138588   3.133   0.523  17.262 -4.2146  1.5661 -0.2778
 8985SOL    HW238589   3.120   0.625  17.364 -0.6691 -0.1712 -0.1291
 8986SOL     OW38590   0.700   1.797   5.298  0.0623  0.3766  0.0181
 8986SOL    HW138591   0.606   1.785   5.306 -0.1402  2.2236  0.3916
 8986SOL    HW238592   0.714   1.861   5.229  3.3004 -0.7298 -0.3663
 8987SOL     OW38593   0.006   1.375  15.339  0.0853 -0.0468  0.0947
 8987SOL    HW138594   0.083   1.343  15.387 -1.1057  0.5458  2.3543
 8987SOL    HW238595   4.670   1.374  15.402 -0.2787  0.5694 -0.3074
 8988SOL     OW38596   4.403   0.019  13.098 -0.1017 -0.0287  0.0061
 8988SOL    HW138597   4.454   0.063  13.166 -1.9230  1.8215  0.1340
 8988SOL    HW238598   4.318   0.016  13.141  0.9540 -0.1180  2.1084
 8989SOL     OW38599   1.193   4.451  15.678 -0.1062  0.0048  0.7596
 8989SOL    HW138600   1.233   4.429  15.594  0.0927 -0.1672  0.9019
 8989SOL    HW238601   1.214   4.544  15.681 -0.2639  0.0565  0.2735
 8990SOL     OW38602   3.296   3.986   2.653  0.0686  0.0743  0.1176
 8990SOL    HW138603   3.301   4.061   2.594  3.5596 -0.6529 -0.5435
 8990SOL    HW238604   3.339   4.005   2.737  0.3012 -0.9463  0.2306
 8991SOL     OW38605   1.857   0.779   3.817  0.1622 -0.1669  0.4596
 8991SOL    HW138606   1.914   0.765   3.893 -1.1964  1.6919  1.8226
 8991SOL    HW238607   1.902   0.859   3.788  2.0508 -1.7921 -1.0568
 8992SOL     OW38608   0.185   0.173  11.755 -0.6876 -0.3758  0.0330
 8992SOL    HW138609   0.109   0.115  11.745 -1.0043 -0.1849  1.3614
 8992SOL    HW238610   0.204   0.158  11.847 -0.4151  2.0175  0.3826
 8993SOL     OW38611   1.003   1.402  11.492 -0.1157  0.6123 -0.1200
 8993SOL    HW138612   1.093   1.424  11.515  0.9133 -1.9918 -1.7150
 8993SOL    HW238613   0.988   1.438  11.405 -2.3089 -1.5070 -0.6199
 8994SOL     OW38614   4.679   1.718   9.741  0.1916 -0.4167  0.1620
 8994SOL    HW138615   4.603   1.774   9.724  1.0989  0.4644 -1.0019
 8994SOL    HW238616   4.659   1.683   9.828 -0.6449  1.3030  0.6633
 8995SOL     OW38617   0.623   1.785   3.514 -0.5282  0.4773  0.6491
 8995SOL    HW138618   0.641   1.804   3.422 -0.6742  0.9976  0.7272
 8995SOL    HW238619   0.531   1.758   3.504  0.1431 -0.7446 -2.0115
 8996SOL     OW38620   1.349   2.625   6.746  0.7854 -0.2159 -0.3479
 8996SOL    HW138621   1.386   2.586   6.825 -1.3479 -1.5684 -0.0266
 8996SOL    HW238622   1.429   2.675   6.728  0.7932  1.0183  3.0534
 8997SOL     OW38623   0.198   3.310   6.838  0.1339  0.2041  0.3001
 8997SOL    HW138624   0.231   3.257   6.910  1.1227 -0.3271 -0.5465
 8997SOL    HW238625   0.204   3.394   6.884  1.9034  0.2171  0.0499
 8998SOL     OW38626   2.828   0.025   1.631 -0.1286  0.5321 -0.3551
 8998SOL    HW138627   2.807   4.681   1.583  2.2851  0.4236 -1.2123
 8998SOL    HW238628   2.922   0.036   1.623  0.0601 -0.5840  0.3504
 8999SOL     OW38629   2.037   2.890   8.537 -0.1603 -0.0670  0.3005
 8999SOL    HW138630   2.101   2.949   8.577  1.9247 -1.7329 -0.5767
 8999SOL    HW238631   2.046   2.910   8.444  0.2417  1.6289  0.6949
 9000SOL     OW38632   2.536   2.614  11.976  0.0507  0.6688  0.3161
 9000SOL    HW138633   2.624   2.614  11.938  0.8207  0.7882  2.0536
 9000SOL    HW238634   2.556   2.663  12.056 -0.3923 -1.0138  1.4625
 9001SOL     OW38635   4.665   3.013  14.975  0.4150  0.1282 -0.0279
 9001SOL    HW138636   4.672   3.029  15.069 -1.3682  0.3964  0.0731
 9001SOL    HW238637   0.011   2.968  14.956  0.6643  0.3582  0.4702
 9002SOL     OW38638   1.189   1.219   6.801 -1.1808  0.2695 -0.3485
 9002SOL    HW138639   1.212   1.257   6.717  1.0183 -2.5214 -1.0019
 9002SOL    HW238640   1.169   1.297   6.854 -1.7748  0.1378 -0.3818
 9003SOL     OW38641   1.616   3.840  13.584  0.0275 -0.0164  0.8424
 9003SOL    HW138642   1.646   3.753  13.555 -1.0401 -0.3236  0.6723
 9003SOL    HW238643   1.689   3.882  13.630 -0.3888  1.2517  0.3259
 9004SOL     OW38644   3.173   3.390   5.910 -0.5811 -0.5372  0.1717
 9004SOL    HW138645   3.077   3.389   5.917 -0.6133  1.1857  0.1418
 9004SOL    HW238646   3.195   3.321   5.972 -2.6452 -0.8861  0.5202
 9005SOL     OW38647   1.880   1.666   1.008  0.1255 -0.1058  0.0108
 9005SOL    HW138648   1.874   1.574   0.983 -0.5302  0.1709 -0.8486
 9005SOL    HW238649   1.929   1.662   1.091  2.1258 -0.2257 -1.1728
 9006SOL     OW38650   0.283   1.778   3.869 -0.3804 -0.4261  0.0245
 9006SOL    HW138651   0.235   1.789   3.951  1.6148  2.5947  0.7779
 9006SOL    HW238652   0.334   1.701   3.894 -0.9905  0.3308  3.6184
 9007SOL     OW38653   3.573   1.880  16.097  0.5993  0.0151  0.2766
 9007SOL    HW138654   3.526   1.944  16.151 -0.1905  1.4313 -2.1020
 9007SOL    HW238655   3.530   1.887  16.012  0.4835  1.3132  0.4384
 9008SOL     OW38656   0.783   4.512  16.990 -0.6998 -0.0924 -0.6229
 9008SOL    HW138657   0.800   4.594  16.943 -0.6352  0.4792  0.3872
 9008SOL    HW238658   0.692   4.499  16.965 -0.8656  1.9811 -1.1405
 9009SOL     OW38659   0.483   1.428   7.503  0.0992 -0.2940  0.5549
 9009SOL    HW138660   0.451   1.405   7.590 -0.4574 -2.3936 -0.1992
 9009SOL    HW238661   0.551   1.487   7.536 -1.6397  2.2079 -0.3067
 9010SOL     OW38662   2.415   2.834   1.444  0.4111 -0.2872 -0.4176
 9010SOL    HW138663   2.362   2.783   1.506 -0.3479  0.4686 -0.4506
 9010SOL    HW238664   2.473   2.770   1.403  0.7493  0.8393 -1.6659
 9011SOL     OW38665   3.021   2.003  16.410 -0.2750 -0.3553 -0.0829
 9011SOL    HW138666   3.058   2.012  16.323 -0.7133 -0.2496 -0.2606
 9011SOL    HW238667   2.940   1.956  16.390  0.0319 -0.9382  0.0523
 9012SOL     OW38668   3.221   3.616   1.623  0.0811 -0.2665 -0.0955
 9012SOL    HW138669   3.182   3.594   1.538  1.9076  1.7093 -1.4749
 9012SOL    HW238670   3.277   3.543   1.648 -0.4558 -0.4249  0.6059
 9013SOL     OW38671   2.892   4.710  14.044 -0.2245 -0.8072  0.1169
 9013SOL    HW138672   2.882   4.687  13.951 -0.1958  0.6050 -0.2272
 9013SOL    HW238673   2.981   4.678  14.062  0.1606 -0.0235 -0.3721
 9014SOL     OW38674   3.535   2.771   6.900  0.2886 -0.0266  0.2689
 9014SOL    HW138675   3.578   2.764   6.986 -1.2177 -1.4198  0.9114
 9014SOL    HW238676   3.527   2.867   6.895 -1.2079 -0.1787 -0.4354
 9015SOL     OW38677   1.005   2.410  15.211  0.1625  0.4306  0.3793
 9015SOL    HW138678   0.989   2.382  15.302  0.0203 -1.4366 -0.2096
 9015SOL    HW238679   1.098   2.393  15.197  0.1501 -0.1604  0.9843
 9016SOL     OW38680   3.195   4.203   0.214 -0.1509 -0.3142 -0.4814
 9016SOL    HW138681   3.211   4.284   0.165 -0.9870  0.3475  0.3403
 9016SOL    HW238682   3.155   4.141   0.153  0.4569 -1.3373  0.1627
 9017SOL     OW38683   2.554   4.560   3.463 -0.5183 -0.2934 -0.0378
 9017SOL    HW138684   2.570   4.553   3.369 -1.0127  0.9069 -0.2185
 9017SOL    HW238685   2.460   4.544   3.472  0.1332 -2.8304  2.2803
 9018SOL     OW38686   1.712   2.746   2.522 -0.0989 -0.1344 -0.1895
 9018SOL    HW138687   1.709   2.727   2.616  1.2497  1.6902  0.2270
 9018SOL    HW238688   1.795   2.707   2.496  0.5275  0.1684  1.3314
 9019SOL     OW38689   2.990   3.526  14.546 -0.6293  0.5945  0.0647
 9019SOL    HW138690   2.937   3.562  14.474 -1.5093  0.8071  0.8174
 9019SOL    HW238691   2.922   3.503  14.609  1.4924  0.1340  2.1692
 9020SOL     OW38692   4.063   3.379   3.587 -0.1270  0.3586 -0.1196
 9020SOL    HW138693   4.072   3.474   3.573  1.9357 -0.0936 -1.9900
 9020SOL    HW238694   4.008   3.359   3.512  0.5584  0.8360 -0.7562
 9021SOL     OW38695   4.119   0.279   8.440 -0.0376  0.6089 -0.7370
 9021SOL    HW138696   4.191   0.240   8.489  0.8027  1.1482 -1.5419
 9021SOL    HW238697   4.159   0.320   8.363  1.0684 -0.9590 -0.9955
 9022SOL     OW38698   3.381   4.204   6.017  0.2124  0.2597  0.3138
 9022SOL    HW138699   3.437   4.161   6.081  0.5628 -0.1396 -0.2588
 9022SOL    HW238700   3.298   4.172   6.053 -0.7987  2.1847 -0.2938
 9023SOL     OW38701   0.233   3.282  12.352  0.4678  0.3609 -1.0007
 9023SOL    HW138702   0.214   3.273  12.445  4.0875  0.7235 -0.2039
 9023SOL    HW238703   0.199   3.371  12.340 -0.5831  0.1894  0.6639
 9024SOL     OW38704   1.863   4.313   4.529  0.6543  0.1152  0.5730
 9024SOL    HW138705   1.864   4.391   4.474 -1.1757  0.6281  1.2601
 9024SOL    HW238706   1.882   4.349   4.616  2.2532  0.5554  0.0424
 9025SOL     OW38707   3.349   3.731   1.837  0.4225 -0.4722  0.3677
 9025SOL    HW138708   3.341   3.824   1.815 -1.1390 -0.3960  1.2362
 9025SOL    HW238709   3.310   3.692   1.758  0.5408 -1.7182  0.9209
 9026SOL     OW38710   2.064   4.372   4.942  0.1563  0.5353  0.3249
 9026SOL    HW138711   2.157   4.368   4.920  0.0494 -0.2250  0.0060
 9026SOL    HW238712   2.034   4.284   4.917  1.1215 -0.0307  1.1794
 9027SOL     OW38713   0.722   3.015   3.631  0.1575  0.2239 -0.0041
 9027SOL    HW138714   0.657   3.071   3.588 -0.5213 -1.3278 -0.9949
 9027SOL    HW238715   0.802   3.026   3.580  1.1676 -1.5820  1.1789
 9028SOL     OW38716   3.281   1.886   2.569  0.3130 -0.2874  0.1569
 9028SOL    HW138717   3.188   1.865   2.581 -0.1066  1.5490  0.0068
 9028SOL    HW238718   3.286   1.907   2.476 -3.5440 -1.1617 -0.2584
 9029SOL     OW38719   3.660   4.379   8.368 -0.4858 -0.6764  0.2384
 9029SOL    HW138720   3.743   4.397   8.414  0.3311 -0.2982 -1.3691
 9029SOL    HW238721   3.602   4.432   8.423  0.5175  0.0983  0.5683
 9030SOL     OW38722   4.106   1.444   5.013  0.1637 -0.5243 -0.2813
 9030SOL    HW138723   4.045   1.385   4.968 -0.4627 -0.5474  0.5999
 9030SOL    HW238724   4.055   1.447   5.093  2.2245 -3.4900  1.1271
 9031SOL     OW38725   3.369   2.166   5.072  0.5937 -0.7764  0.0213
 9031SOL    HW138726   3.283   2.172   5.114  1.4885  0.4362  1.6683
 9031SOL    HW238727   3.415   2.239   5.113 -1.7171 -0.6449  2.3420
 9032SOL     OW38728   4.482   1.989  12.170  0.2614  0.7856 -0.2067
 9032SOL    HW138729   4.514   1.938  12.096  0.4086  1.6989 -0.7768
 9032SOL    HW238730   4.391   1.958  12.172  0.9113 -1.0837  0.6198
 9033SOL     OW38731   2.167   4.576   8.369 -0.0815 -0.5677  0.6101
 9033SOL    HW138732   2.080   4.545   8.393 -0.5216  0.6607  0.6339
 9033SOL    HW238733   2.148   4.663   8.405 -0.5657 -0.2010 -0.5452
 9034SOL     OW38734   1.386   1.252   7.816  0.9629  0.0291 -0.1262
 9034SOL    HW138735   1.364   1.190   7.746  2.2353  0.1524 -0.6477
 9034SOL    HW238736   1.304   1.271   7.862  0.9482  3.6442 -1.6464
 9035SOL     OW38737   4.384   3.819   3.999  0.1654 -0.0931 -0.0695
 9035SOL    HW138738   4.410   3.729   4.017  3.2937  1.2829  2.3457
 9035SOL    HW238739   4.438   3.842   3.923 -0.7737 -2.0060 -1.3390
 9036SOL     OW38740   1.248   3.296   0.344 -0.1964  0.9125 -0.5837
 9036SOL    HW138741   1.244   3.354   0.268 -1.9648  0.6915 -0.6535
 9036SOL    HW238742   1.248   3.360   0.415 -0.1284 -1.3409  1.4140
 9037SOL     OW38743   3.757   0.959   8.763  0.2587  0.2010  0.2361
 9037SOL    HW138744   3.757   0.864   8.767 -0.2697  0.1939 -0.0338
 9037SOL    HW238745   3.667   0.977   8.789  0.2268  0.5129 -0.0955
 9038SOL     OW38746   1.329   3.800   2.679 -0.5792  0.5622  0.5364
 9038SOL    HW138747   1.394   3.772   2.613 -2.0627  0.3942 -0.8628
 9038SOL    HW238748   1.357   3.889   2.699  2.5159  0.6894 -4.2684
 9039SOL     OW38749   1.548   1.327  10.156  0.7970  0.0674  0.2413
 9039SOL    HW138750   1.498   1.296  10.081  0.2907 -1.6194  1.2801
 9039SOL    HW238751   1.484   1.347  10.224  2.2314  2.2506  0.9351
 9040SOL     OW38752   3.637   1.991   7.118  0.7119 -0.3069  0.7004
 9040SOL    HW138753   3.710   2.053   7.115  0.6437 -0.4322 -3.2886
 9040SOL    HW238754   3.629   1.955   7.207 -0.7830  0.1308  0.7439
 9041SOL     OW38755   2.453   0.970   7.291  0.2572  0.0586  0.4042
 9041SOL    HW138756   2.360   0.992   7.296  0.9065  2.8304  0.2622
 9041SOL    HW238757   2.462   0.897   7.229 -0.5887 -0.0722  0.4391
 9042SOL     OW38758   4.350   4.130   1.960  0.3230  0.3135 -1.2347
 9042SOL    HW138759   4.434   4.111   1.919  0.9551 -3.6857  1.9942
 9042SOL    HW238760   4.287   4.084   1.905  0.6215 -1.7152  0.1436
 9043SOL     OW38761   1.680   2.071   3.122  0.1390  0.5416  0.3464
 9043SOL    HW138762   1.614   2.008   3.093 -0.4949  1.1619  0.4290
 9043SOL    HW238763   1.620   2.108   3.188  0.6923  0.8983  0.6478
 9044SOL     OW38764   3.216   2.453   9.140 -0.0863 -0.3188  0.3126
 9044SOL    HW138765   3.162   2.475   9.065  0.4050 -2.4634 -0.6587
 9044SOL    HW238766   3.174   2.376   9.178 -0.4747  0.1618  0.8601
 9045SOL     OW38767   3.017   3.573   5.713 -0.5179 -0.4033 -0.0053
 9045SOL    HW138768   2.937   3.625   5.704 -0.0622 -0.2381 -3.1818
 9045SOL    HW238769   3.077   3.647   5.712 -4.3264  2.6855 -0.0784
 9046SOL     OW38770   1.676   0.857   4.775  0.4220  0.3935 -0.3797
 9046SOL    HW138771   1.703   0.775   4.733 -0.9974 -0.5663  0.5795
 9046SOL    HW238772   1.644   0.824   4.859  0.6551 -0.1088 -0.4869
 9047SOL     OW38773   3.046   0.190  13.624 -0.3925  0.5947  0.7718
 9047SOL    HW138774   3.107   0.144  13.682  0.1637 -0.7421 -0.8780
 9047SOL    HW238775   2.994   0.117  13.588  0.9116  0.6828 -1.2810
 9048SOL     OW38776   0.813   4.480  15.898 -0.4572 -0.2683 -0.4389
 9048SOL    HW138777   0.840   4.490  15.807  1.3426  1.3772  0.2710
 9048SOL    HW238778   0.851   4.396  15.922 -0.1237 -0.1570 -0.5777
 9049SOL     OW38779   1.187   4.542   1.971  0.1341  0.5824 -0.3084
 9049SOL    HW138780   1.097   4.571   1.982 -0.5340 -0.3756 -3.1213
 9049SOL    HW238781   1.240   4.602   2.023  0.1222 -0.3697  0.8085
 9050SOL     OW38782   3.351   3.249  15.185 -0.0715 -0.5719  0.2832
 9050SOL    HW138783   3.393   3.244  15.099 -0.0411 -0.5540  0.2971
 9050SOL    HW238784   3.261   3.225  15.161 -0.6441 -0.0148  1.8916
 9051SOL     OW38785   3.089   4.498   7.280 -0.5155 -0.3562  0.4650
 9051SOL    HW138786   3.036   4.426   7.245  2.0819 -1.6563 -0.8443
 9051SOL    HW238787   3.066   4.499   7.373  0.5278  0.5451  0.7122
 9052SOL     OW38788   2.661   0.555   8.592 -0.1745 -0.1692 -0.5191
 9052SOL    HW138789   2.707   0.604   8.660  0.9033  0.0844 -1.4274
 9052SOL    HW238790   2.733   0.506   8.552 -0.0727  0.9276 -1.6781
 9053SOL     OW38791   0.825   0.629   2.735  0.6953 -1.0523  0.0754
 9053SOL    HW138792   0.810   0.627   2.641  2.1510 -2.3930 -0.1232
 9053SOL    HW238793   0.778   0.712   2.744  0.6872 -0.9573 -0.8899
 9054SOL     OW38794   1.716   0.332   8.115  0.3970  0.1458  0.0200
 9054SOL    HW138795   1.691   0.274   8.043  0.0177 -1.0132  1.0920
 9054SOL    HW238796   1.664   0.404   8.079 -0.9453 -1.4169 -1.1459
 9055SOL     OW38797   3.469   0.305  16.056  0.8883  0.0048 -0.0768
 9055SOL    HW138798   3.526   0.373  16.091 -0.2672  2.0038 -2.1336
 9055SOL    HW238799   3.534   0.236  16.042  2.4519  1.1567  1.4849
 9056SOL     OW38800   1.700   3.935   7.846 -0.7917  0.6855  0.3443
 9056SOL    HW138801   1.733   3.996   7.912  0.4705 -0.6488  0.9422
 9056SOL    HW238802   1.675   3.993   7.774  1.0600 -0.3838 -1.1436
 9057SOL     OW38803   4.191   1.482   0.854 -0.3512  0.5149 -0.2260
 9057SOL    HW138804   4.159   1.523   0.935 -0.3512  0.1683 -0.0499
 9057SOL    HW238805   4.237   1.561   0.825 -0.2947 -0.0768 -1.7188
 9058SOL     OW38806   3.259   0.377   6.465  0.3881 -0.5221  0.4481
 9058SOL    HW138807   3.229   0.448   6.409  1.6548  1.6631  2.5219
 9058SOL    HW238808   3.328   0.428   6.508  0.9779 -0.0601 -1.0510
 9059SOL     OW38809   4.031   2.805   8.510 -0.2891 -0.1943  0.0168
 9059SOL    HW138810   3.977   2.729   8.487 -0.0393 -0.4605  0.3115
 9059SOL    HW238811   4.090   2.813   8.434  1.1516 -0.9042  1.0701
 9060SOL     OW38812   0.431   3.957   5.775 -0.2711  0.0745  0.1758
 9060SOL    HW138813   0.363   3.898   5.743 -0.6305  1.4352 -1.5870
 9060SOL    HW238814   0.446   3.998   5.690 -0.2100  1.3214  0.7971
 9061SOL     OW38815   1.995   0.363  14.372  0.1468  0.9003  0.2841
 9061SOL    HW138816   1.967   0.417  14.299 -0.5835  0.3849  0.1938
 9061SOL    HW238817   2.085   0.333  14.354  0.6777  0.7345  3.1817
 9062SOL     OW38818   0.477   2.222   0.705  0.1219  0.1678  0.0976
 9062SOL    HW138819   0.502   2.306   0.742  1.4785 -0.4168  0.5029
 9062SOL    HW238820   0.461   2.247   0.614  0.8651  0.5841  0.0859
 9063SOL     OW38821   2.331   4.107   6.185  0.1795 -0.7180 -0.2115
 9063SOL    HW138822   2.295   4.098   6.273  0.1453 -0.8645 -0.2414
 9063SOL    HW238823   2.250   4.094   6.135 -0.6166 -0.2924  0.9721
 9064SOL     OW38824   3.581   1.746   4.191  0.2678 -0.0781 -0.6488
 9064SOL    HW138825   3.646   1.679   4.211  2.4365  2.2242 -0.0409
 9064SOL    HW238826   3.561   1.786   4.275  0.2356  1.8596 -1.5771
 9065SOL     OW38827   4.563   0.969   9.891  0.4346 -0.2315  0.0022
 9065SOL    HW138828   4.546   0.985   9.798  0.8831  1.2306  0.1662
 9065SOL    HW238829   4.657   0.951   9.887  0.4775 -0.5252  2.0911
 9066SOL     OW38830   2.509   3.230  16.219  0.0709  0.1895  0.6237
 9066SOL    HW138831   2.504   3.318  16.257  4.5356 -0.2059  2.0613
 9066SOL    HW238832   2.430   3.228  16.164  1.4756  0.3171 -1.4016
 9067SOL     OW38833   4.013   4.014  10.876 -0.3602 -0.1579 -0.3160
 9067SOL    HW138834   3.981   4.104  10.884 -0.5547 -0.4404  2.0213
 9067SOL    HW238835   4.108   4.021  10.885 -0.4867  0.9200  0.1525
 9068SOL     OW38836   1.014   3.702   6.269  0.0855  0.0539 -0.3010
 9068SOL    HW138837   0.960   3.781   6.259  1.3021  1.0816  1.1691
 9068SOL    HW238838   0.985   3.654   6.192  1.2127 -0.3987 -0.4334
 9069SOL     OW38839   0.643   3.963  11.660 -0.4277 -0.2520 -0.1090
 9069SOL    HW138840   0.713   4.026  11.671 -1.1425  0.5280 -0.0053
 9069SOL    HW238841   0.581   3.991  11.727 -0.4917  0.3336 -0.4142
 9070SOL     OW38842   2.145   2.249   2.345 -0.4036 -0.3076  0.1142
 9070SOL    HW138843   2.112   2.182   2.285 -2.0998  1.2179 -0.6847
 9070SOL    HW238844   2.084   2.322   2.336  0.4209  0.5333  1.2654
 9071SOL     OW38845   4.170   0.738   8.286 -0.6429  0.0939  0.0843
 9071SOL    HW138846   4.220   0.801   8.233  0.7917  0.1663  1.4879
 9071SOL    HW238847   4.209   0.761   8.371  1.8007 -0.3157 -0.9068
 9072SOL     OW38848   1.901   2.161   6.258 -0.1367 -0.6776  0.0638
 9072SOL    HW138849   1.892   2.122   6.171 -0.7769  1.3238 -0.7541
 9072SOL    HW238850   1.807   2.154   6.275 -0.2034 -1.8544 -0.7586
 9073SOL     OW38851   2.550   4.288   5.439  0.1567  0.3406  0.1154
 9073SOL    HW138852   2.547   4.355   5.508 -0.6454 -1.3666  1.7441
 9073SOL    HW238853   2.514   4.346   5.372 -0.7695 -0.6319 -0.2438
 9074SOL     OW38854   0.184   3.514  16.595 -0.3584 -0.1100  0.0674
 9074SOL    HW138855   0.271   3.552  16.611  0.6449 -1.7596 -1.4013
 9074SOL    HW238856   0.150   3.569  16.526  0.9342  1.0409  0.3442
 9075SOL     OW38857   3.309   3.562  15.348  0.5336  0.0370  0.5750
 9075SOL    HW138858   3.313   3.588  15.440 -1.6300  2.5639 -0.0397
 9075SOL    HW238859   3.232   3.604  15.309 -0.1409  0.5594  2.4898
 9076SOL     OW38860   2.520   4.189   2.302 -0.1764  0.1961 -0.2065
 9076SOL    HW138861   2.489   4.106   2.264  1.0666  0.5868 -2.0720
 9076SOL    HW238862   2.558   4.240   2.231  1.8942 -1.6789 -0.4562
 9077SOL     OW38863   0.225   2.951   5.454 -0.0522 -0.2259 -0.1572
 9077SOL    HW138864   0.172   2.964   5.375 -2.5034 -0.8648  1.4170
 9077SOL    HW238865   0.203   2.863   5.485  3.1001 -0.9312  0.0749
 9078SOL     OW38866   0.415   0.823  11.506 -0.6056  0.5145 -0.6470
 9078SOL    HW138867   0.372   0.905  11.532 -0.1240  0.9591 -1.2685
 9078SOL    HW238868   0.499   0.863  11.484  0.0236  0.3083  1.3302
 9079SOL     OW38869   3.814   1.472   7.872  0.7081  0.4664  0.1617
 9079SOL    HW138870   3.859   1.557   7.875 -0.2296  0.9481  0.4788
 9079SOL    HW238871   3.893   1.418   7.883 -0.6910 -1.9118 -1.3833
 9080SOL     OW38872   3.536   1.477   4.505  0.1012 -0.3894 -0.0458
 9080SOL    HW138873   3.441   1.481   4.492  0.1666 -0.2494 -0.4984
 9080SOL    HW238874   3.575   1.551   4.457  2.4397 -1.9824 -0.6040
 9081SOL     OW38875   0.687   2.609   0.150  0.5091 -0.0007  0.1339
 9081SOL    HW138876   0.775   2.624   0.116  0.9205 -2.4763  0.1523
 9081SOL    HW238877   0.704   2.590   0.243  0.2304 -0.1295  0.1579
 9082SOL     OW38878   0.443   2.816   2.527  0.2916 -0.6186  0.3438
 9082SOL    HW138879   0.439   2.788   2.435  0.8009  3.0180 -0.7817
 9082SOL    HW238880   0.528   2.777   2.547 -0.2480 -1.0316  1.8080
 9083SOL     OW38881   3.292   1.241   2.323  0.5830  0.1167  0.3501
 9083SOL    HW138882   3.233   1.168   2.343 -0.6166  1.4229  1.5087
 9083SOL    HW238883   3.235   1.303   2.280  2.6061  1.8184  0.1309
 9084SOL     OW38884   1.117   3.816   2.141  0.0833  0.6560  0.5023
 9084SOL    HW138885   1.060   3.873   2.089 -1.5296 -0.7130  0.7739
 9084SOL    HW238886   1.104   3.732   2.098 -1.0319  0.6814  0.7845
 9085SOL     OW38887   2.884   4.166  16.088 -0.3860  0.4162  0.0470
 9085SOL    HW138888   2.873   4.223  16.164 -1.4304  1.3653 -0.8233
 9085SOL    HW238889   2.795   4.175  16.055  0.2613  0.3690 -1.7001
 9086SOL     OW38890   1.686   0.793   5.821  0.0882 -0.5035  0.0891
 9086SOL    HW138891   1.777   0.783   5.792  0.7374  1.5962  1.3868
 9086SOL    HW238892   1.653   0.705   5.803 -1.3942  0.5900 -2.4873
 9087SOL     OW38893   2.707   2.966   7.653  0.0037  0.2499  0.2286
 9087SOL    HW138894   2.716   2.991   7.745  1.4016 -0.4873  0.2819
 9087SOL    HW238895   2.738   2.876   7.665 -0.9540 -0.1359 -0.2028
 9088SOL     OW38896   1.648   3.624  13.456  0.7665 -0.1272 -0.2139
 9088SOL    HW138897   1.725   3.574  13.428 -0.9487 -1.4940 -2.4949
 9088SOL    HW238898   1.592   3.568  13.403  2.1221 -0.9889 -0.7474
 9089SOL     OW38899   2.250   1.934   3.669 -0.1942 -0.1614 -0.2646
 9089SOL    HW138900   2.245   1.965   3.759 -1.5279 -2.9570  0.6422
 9089SOL    HW238901   2.285   1.845   3.676 -1.2857 -0.6149 -0.4992
 9090SOL     OW38902   3.814   3.303   2.750 -0.5611 -0.1816 -0.2662
 9090SOL    HW138903   3.849   3.316   2.662  0.2092 -0.2987  0.0208
 9090SOL    HW238904   3.824   3.388   2.793  1.4683 -1.4077  1.6498
 9091SOL     OW38905   0.458   1.849   5.409 -0.2199 -0.5362 -0.3619
 9091SOL    HW138906   0.370   1.882   5.429  0.5573  0.8474  0.8303
 9091SOL    HW238907   0.507   1.932   5.406  2.5457 -2.1012  2.0270
 9092SOL     OW38908   3.241   3.358   1.948 -0.4943  0.4315  0.5616
 9092SOL    HW138909   3.323   3.383   1.991  0.1381 -0.8846  0.1134
 9092SOL    HW238910   3.272   3.360   1.857 -1.1047  0.9115  0.3636
 9093SOL     OW38911   4.715   4.248  17.105 -0.4695 -0.1186 -0.5729
 9093SOL    HW138912   0.050   4.276  17.162 -2.7199  2.3847  0.9606
 9093SOL    HW238913   0.028   4.225  17.026  0.7018  1.1015 -0.1973
 9094SOL     OW38914   0.817   2.140   7.246 -0.4827  0.5035  0.2401
 9094SOL    HW138915   0.792   2.229   7.271  1.0426  0.9980 -0.0315
 9094SOL    HW238916   0.728   2.105   7.236 -0.1364 -1.1781  2.9305
 9095SOL     OW38917   0.099   0.734   8.653 -0.2657 -0.0866  0.4352
 9095SOL    HW138918   0.151   0.704   8.728  0.6637 -0.6582 -0.4469
 9095SOL    HW238919   0.152   0.806   8.621 -2.0801  1.8606  1.8055
 9096SOL     OW38920   3.904   0.792   3.583 -0.2145  0.0706  0.2833
 9096SOL    HW138921   3.881   0.797   3.491  1.2521  1.9842  0.0083
 9096SOL    HW238922   3.955   0.874   3.580 -1.5609  0.7742 -2.5652
 9097SOL     OW38923   4.444   4.147  11.429  0.4839 -0.3047 -0.2448
 9097SOL    HW138924   4.418   4.080  11.366 -0.0083 -1.4114  1.1199
 9097SOL    HW238925   4.427   4.103  11.513  0.0691  0.3619  0.0143
 9098SOL     OW38926   0.106   2.030   4.309 -0.1303 -0.0133 -0.0772
 9098SOL    HW138927   0.077   2.078   4.386 -0.4403 -0.7044  0.2334
 9098SOL    HW238928   0.197   2.059   4.313 -0.0824 -0.1664 -0.0817
 9099SOL     OW38929   0.955   3.840  12.047 -0.7750  0.2718  0.1327
 9099SOL    HW138930   0.886   3.810  12.107  1.3531 -0.5365  2.1764
 9099SOL    HW238931   1.028   3.781  12.066  0.7280  1.7477 -1.1325
 9100SOL     OW38932   3.493   4.273   7.113  0.0544  0.4540 -0.0287
 9100SOL    HW138933   3.460   4.215   7.044  0.9063  1.1137 -0.9815
 9100SOL    HW238934   3.428   4.265   7.183 -0.8549 -0.6056 -0.9983
 9101SOL     OW38935   3.588   4.484   9.251  0.5871 -0.1428 -0.2642
 9101SOL    HW138936   3.641   4.552   9.292 -0.1999 -0.0781  0.6474
 9101SOL    HW238937   3.519   4.472   9.316  1.4711 -4.5497 -0.1554
 9102SOL     OW38938   4.509   4.190  10.778  0.1639  0.2168 -0.5265
 9102SOL    HW138939   4.461   4.260  10.824  1.6016  1.4302 -0.8791
 9102SOL    HW238940   4.593   4.174  10.821 -0.7790  1.1955  1.7280
 9103SOL     OW38941   3.178   0.499   7.001 -0.7557  0.3607  0.6507
 9103SOL    HW138942   3.199   0.460   6.916 -0.9529  0.9768  0.3220
 9103SOL    HW238943   3.087   0.529   6.991 -1.5357 -2.0293  0.5126
 9104SOL     OW38944   2.887   2.400   6.631 -0.0997 -0.3502 -0.2529
 9104SOL    HW138945   2.964   2.425   6.683 -0.8092  0.3921  0.4475
 9104SOL    HW238946   2.921   2.328   6.579 -0.7921 -0.9450  0.1178
 9105SOL     OW38947   3.221   3.643   3.065  0.3264 -0.1719  0.2525
 9105SOL    HW138948   3.268   3.629   2.983  0.1592  1.5584 -0.1365
 9105SOL    HW238949   3.224   3.555   3.103  3.4481  0.2316  0.8710
 9106SOL     OW38950   2.189   1.782   8.299 -0.5432 -0.1966 -0.2651
 9106SOL    HW138951   2.278   1.748   8.295 -1.0486 -1.3624 -1.7993
 9106SOL    HW238952   2.192   1.869   8.260  0.0483  0.2013  0.6589
 9107SOL     OW38953   0.880   4.638   6.652 -0.0488 -0.3400  1.2171
 9107SOL    HW138954   0.829   4.575   6.704 -0.4349 -0.5166  0.6230
 9107SOL    HW238955   0.868   4.615   6.560  0.0377 -0.3026  1.1964
 9108SOL     OW38956   2.089   1.516  12.388 -0.2019  0.6355 -0.6132
 9108SOL    HW138957   2.004   1.546  12.357 -1.1902  1.4922  2.9149
 9108SOL    HW238958   2.151   1.563  12.331  0.6342  1.0496  0.6203
 9109SOL     OW38959   3.967   2.998   2.695 -0.1233  0.0622  0.2131
 9109SOL    HW138960   3.955   2.991   2.601 -0.5932  1.0229  0.2001
 9109SOL    HW238961   4.024   3.075   2.698  1.0048 -0.7617  0.1599
 9110SOL     OW38962   4.162   4.301   8.641  0.0969 -0.7427  0.2124
 9110SOL    HW138963   4.255   4.287   8.659  0.4064  0.6216 -0.3707
 9110SOL    HW238964   4.133   4.320   8.730  0.6488  0.2133  0.1865
 9111SOL     OW38965   3.904   1.718   7.126  0.5539  0.0691 -0.4839
 9111SOL    HW138966   3.889   1.627   7.152  2.0183 -0.1936 -0.5939
 9111SOL    HW238967   3.856   1.726   7.043  0.8678  1.1164 -0.5659
 9112SOL     OW38968   3.669   3.437  17.262  0.1718 -0.1703 -0.4280
 9112SOL    HW138969   3.700   3.474  17.179  1.0406  0.1366  0.0354
 9112SOL    HW238970   3.577   3.460  17.270  0.8822  1.2043  3.5262
 9113SOL     OW38971   0.203   0.281   3.102  0.0486  0.0804  0.1878
 9113SOL    HW138972   0.216   0.358   3.046  0.4990 -0.5003 -0.5070
 9113SOL    HW238973   0.182   0.328   3.183  1.0498 -1.8991  1.5782
 9114SOL     OW38974   2.186   0.870  16.466  0.6740  0.2897  0.0590
 9114SOL    HW138975   2.106   0.890  16.417  0.4294 -0.1162  0.2855
 9114SOL    HW238976   2.158   0.904  16.551 -2.4843  1.7576 -1.5933
 9115SOL     OW38977   3.479   3.459   2.997  0.0553 -0.1973  0.7794
 9115SOL    HW138978   3.405   3.496   2.949  0.7251  0.8128  0.5132
 9115SOL    HW238979   3.518   3.400   2.933 -1.8184 -0.6268  0.0354
 9116SOL     OW38980   4.302   1.073   9.694  0.2335 -0.1008  0.2095
 9116SOL    HW138981   4.270   1.076   9.604 -0.6753  0.0149  0.5332
 9116SOL    HW238982   4.396   1.085   9.682 -0.2887  1.7238 -2.1254
 9117SOL     OW38983   2.081   0.650   5.126 -0.0642  0.2896  0.0283
 9117SOL    HW138984   2.049   0.643   5.036  2.1693 -0.6410 -0.6815
 9117SOL    HW238985   2.166   0.693   5.119  1.3494 -2.6005 -0.4390
 9118SOL     OW38986   0.026   4.108   4.020 -0.5147 -0.0628  0.2424
 9118SOL    HW138987   0.079   4.187   4.009 -3.0553  1.4347 -1.1173
 9118SOL    HW238988   0.058   4.054   3.947 -0.2216  0.4554 -0.0111
 9119SOL     OW38989   1.429   2.427  10.344 -0.0564  0.1393  0.6038
 9119SOL    HW138990   1.371   2.400  10.414  1.5446 -2.1265  1.0646
 9119SOL    HW238991   1.369   2.477  10.290 -0.1005 -1.0969 -0.5070
 9120SOL     OW38992   3.158   3.053  15.491 -0.8867 -0.6585 -0.3906
 9120SOL    HW138993   3.113   3.103  15.559 -0.7697  0.6628 -1.2996
 9120SOL    HW238994   3.122   2.965  15.506  1.1761 -1.3808  0.3072
 9121SOL     OW38995   0.595   3.057   8.077 -0.0027  0.0925  0.0858
 9121SOL    HW138996   0.515   3.108   8.065  0.1938  0.6755  1.2183
 9121SOL    HW238997   0.656   3.106   8.022  0.9358 -3.7796 -2.2677
 9122SOL     OW38998   4.487   2.350  15.093 -0.3250 -0.1496  0.0742
 9122SOL    HW138999   4.562   2.315  15.044 -0.8160 -1.1235  0.0057
 9122SOL    HW239000   4.424   2.320  15.027 -0.6641 -1.1696  0.8640
 9123SOL     OW39001   1.065   3.300   9.757 -0.0801  0.0955 -0.1887
 9123SOL    HW139002   1.001   3.302   9.827 -0.0073  0.1559 -0.1237
 9123SOL    HW239003   1.104   3.387   9.769  1.6086 -0.5404 -0.9389
 9124SOL     OW39004   4.081   2.691  16.273  0.5408  0.0337 -0.0669
 9124SOL    HW139005   4.105   2.730  16.189  0.9700 -2.3984 -1.0688
 9124SOL    HW239006   4.135   2.742  16.335 -0.3992  1.9284 -0.8184
 9125SOL     OW39007   4.456   3.706   6.382 -0.8325 -0.3812  0.1292
 9125SOL    HW139008   4.410   3.784   6.412 -0.8805 -0.6532  0.7707
 9125SOL    HW239009   4.385   3.642   6.390  0.3718 -1.4929  2.1553
 9126SOL     OW39010   4.475   0.058   8.210 -0.7083 -0.2132 -0.2810
 9126SOL    HW139011   4.480   0.108   8.292  3.0216  2.1061 -1.9265
 9126SOL    HW239012   4.395   0.093   8.172 -0.0008  1.6600 -0.0741
 9127SOL     OW39013   3.609   2.579  15.704 -0.0319  0.1945 -0.4143
 9127SOL    HW139014   3.619   2.550  15.794  1.6494  1.4521 -0.1727
 9127SOL    HW239015   3.689   2.532  15.681 -0.4753  0.1196 -1.7957
 9128SOL     OW39016   0.183   1.147  13.149 -0.3858 -0.6733 -0.6945
 9128SOL    HW139017   0.188   1.156  13.244  0.2691 -1.2710 -0.6751
 9128SOL    HW239018   0.118   1.211  13.121  0.7626  1.3016  1.1690
 9129SOL     OW39019   4.252   3.938   3.314 -0.4761 -0.3451 -0.1473
 9129SOL    HW139020   4.173   3.966   3.361  1.1959 -0.5409  2.7873
 9129SOL    HW239021   4.229   3.934   3.221  0.3800  1.4325 -0.4339
 9130SOL     OW39022   2.739   2.395  12.893  0.4044 -0.1532 -0.6315
 9130SOL    HW139023   2.833   2.388  12.875  0.4702 -0.3046 -0.2315
 9130SOL    HW239024   2.709   2.433  12.810 -2.0595  0.2941  0.4703
 9131SOL     OW39025   2.400   1.582  15.408 -0.1472 -0.2421  0.4429
 9131SOL    HW139026   2.363   1.572  15.320  0.5035 -3.4022  0.5497
 9131SOL    HW239027   2.487   1.543  15.398 -1.6784 -3.1867 -1.0632
 9132SOL     OW39028   1.646   2.873  13.163 -0.2767  0.3821  0.6576
 9132SOL    HW139029   1.655   2.938  13.233  1.5195  1.9105 -0.9836
 9132SOL    HW239030   1.717   2.811  13.173 -0.4883 -0.2584 -1.7063
 9133SOL     OW39031   3.264   1.222   9.863  0.2454  0.1058 -0.3949
 9133SOL    HW139032   3.358   1.235   9.866  0.0383  1.2625  0.9753
 9133SOL    HW239033   3.262   1.173   9.780  1.3319  2.1948 -1.6491
 9134SOL     OW39034   2.924   3.250   4.936  0.2494  0.4838 -0.5915
 9134SOL    HW139035   2.862   3.278   5.003 -0.6580  2.6748 -2.3671
 9134SOL    HW239036   2.984   3.323   4.921  2.6907 -0.5928  4.0226
 9135SOL     OW39037   2.089   1.283  16.617 -0.3691 -0.2521 -0.5787
 9135SOL    HW139038   2.074   1.275  16.523 -0.5917  0.5180 -0.6121
 9135SOL    HW239039   2.058   1.197  16.643  1.4990 -0.4186  1.0837
 9136SOL     OW39040   1.112   0.805   8.194  0.2194 -0.2127  0.0853
 9136SOL    HW139041   1.054   0.862   8.244  0.7639  1.9396 -1.7530
 9136SOL    HW239042   1.050   0.735   8.176  0.7154 -0.2106 -1.5862
 9137SOL     OW39043   0.071   1.338   5.372  0.2741 -0.5387  0.6494
 9137SOL    HW139044   4.714   1.314   5.374  0.3284 -0.9169 -1.6165
 9137SOL    HW239045   0.084   1.400   5.444  1.9747 -0.2208  0.0638
 9138SOL     OW39046   0.877   4.595   3.201  0.0589 -0.2394 -0.0319
 9138SOL    HW139047   0.944   4.551   3.252  0.4846  0.0618 -0.3273
 9138SOL    HW239048   0.838   4.640   3.276 -0.8118  0.8633 -1.1326
 9139SOL     OW39049   3.382   2.214  14.602  0.6466  0.1835 -0.3852
 9139SOL    HW139050   3.450   2.152  14.576  0.0415 -1.4599  1.9366
 9139SOL    HW239051   3.438   2.288  14.627 -1.5187  1.3664  0.9500
 9140SOL     OW39052   2.668   4.657   6.480 -0.2649  0.5691  0.3522
 9140SOL    HW139053   2.752   4.702   6.484  0.1553 -0.2673  0.8129
 9140SOL    HW239054   2.661   4.629   6.571 -0.6310 -1.0454 -0.1765
 9141SOL     OW39055   1.614   3.385   1.052 -0.0874  0.1719 -0.3276
 9141SOL    HW139056   1.674   3.403   0.980  0.1451 -1.4663 -0.5322
 9141SOL    HW239057   1.580   3.302   1.018  0.0039 -0.6084  1.5023
 9142SOL     OW39058   3.884   3.309   2.473  0.2553 -0.3112 -0.2671
 9142SOL    HW139059   3.832   3.235   2.444  2.6591 -1.9635 -0.3237
 9142SOL    HW239060   3.822   3.383   2.471 -0.0580 -0.5496  0.5083
 9143SOL     OW39061   0.462   3.911   3.499 -0.0020 -0.3339 -0.1599
 9143SOL    HW139062   0.496   3.922   3.588 -1.6345  0.5712  0.3406
 9143SOL    HW239063   0.535   3.951   3.452 -0.1681 -0.9590 -0.9462
 9144SOL     OW39064   3.292   1.824   3.473  0.5743 -0.0750  0.2546
 9144SOL    HW139065   3.213   1.795   3.518 -0.1575 -0.4948 -1.2935
 9144SOL    HW239066   3.356   1.824   3.544  0.4985 -4.7688  0.3350
 9145SOL     OW39067   3.924   1.492   2.041  0.0618 -0.0379  0.0521
 9145SOL    HW139068   3.844   1.546   2.036 -0.3274 -0.5572  0.7705
 9145SOL    HW239069   3.923   1.449   1.955 -1.1196 -1.0045  0.5470
 9146SOL     OW39070   0.902   1.270   4.952 -1.0648 -0.6569 -0.1363
 9146SOL    HW139071   0.910   1.348   5.008 -0.2002 -0.5909 -0.3502
 9146SOL    HW239072   0.869   1.210   5.019 -0.8808 -1.9095 -1.1704
 9147SOL     OW39073   1.116   4.666   3.464 -0.0353 -0.2863  0.1066
 9147SOL    HW139074   1.092   4.615   3.541 -0.8582 -1.4371 -0.9066
 9147SOL    HW239075   1.122   4.592   3.403 -0.9163 -0.7101  0.5294
 9148SOL     OW39076   0.345   1.622  12.323 -0.2480 -0.1202  0.4594
 9148SOL    HW139077   0.263   1.572  12.315  1.4263 -2.7713 -0.1407
 9148SOL    HW239078   0.345   1.655  12.234  0.3155 -0.8766  0.1779
 9149SOL     OW39079   0.344   1.300   8.930  0.6423  0.0037  0.7374
 9149SOL    HW139080   0.374   1.246   9.003  0.7492  1.4833  1.7857
 9149SOL    HW239081   0.251   1.313   8.946  0.3193  0.8563 -1.8762
 9150SOL     OW39082   4.044   2.545   3.449  0.1524  0.5219 -0.2919
 9150SOL    HW139083   3.959   2.544   3.492 -0.6682  1.4204 -1.9307
 9150SOL    HW239084   4.032   2.581   3.362 -0.6906 -0.8591 -0.7440
 9151SOL     OW39085   4.413   2.970   5.419  0.4269 -0.4482 -0.6519
 9151SOL    HW139086   4.325   2.952   5.453 -0.1740  2.4199 -0.7371
 9151SOL    HW239087   4.415   3.065   5.420  1.7352 -0.4747 -1.2470
 9152SOL     OW39088   4.298   2.582   5.953 -0.7224  0.0183  0.1547
 9152SOL    HW139089   4.230   2.517   5.974  1.4455 -1.9358  1.0545
 9152SOL    HW239090   4.248   2.649   5.906  1.1049  0.7365 -0.7417
 9153SOL     OW39091   0.183   3.218  12.613  0.3158 -0.0011  0.2939
 9153SOL    HW139092   0.126   3.255  12.682 -0.1031  0.7888 -0.4728
 9153SOL    HW239093   0.266   3.213  12.659 -0.8085 -2.2890  2.0804
 9154SOL     OW39094   1.276   3.904  11.314 -0.7285 -0.5568  0.2361
 9154SOL    HW139095   1.280   3.834  11.248  1.2159 -0.3100  0.0871
 9154SOL    HW239096   1.241   3.979  11.265  0.4129 -0.4336 -0.4058
 9155SOL     OW39097   1.644   0.097  10.744  0.2044 -0.4629  0.4413
 9155SOL    HW139098   1.648   0.185  10.707  0.2820 -1.4818 -1.9790
 9155SOL    HW239099   1.558   0.093  10.786 -1.3267 -1.6210 -2.8153
 9156SOL     OW39100   2.415   4.175   7.043 -0.0550 -0.0059 -0.5873
 9156SOL    HW139101   2.394   4.156   7.134  3.1979  1.2340  0.4138
 9156SOL    HW239102   2.362   4.115   6.990 -0.0257  0.4786 -1.1711
 9157SOL     OW39103   0.279   4.528   6.944 -0.1064 -0.1890  0.3302
 9157SOL    HW139104   0.290   4.563   6.855 -0.4204 -0.8689  0.0265
 9157SOL    HW239105   0.275   4.602   7.005 -1.6596  0.0351 -0.0522
 9158SOL     OW39106   1.549   3.554   6.506 -0.7059 -0.2246 -0.3574
 9158SOL    HW139107   1.526   3.647   6.508  1.8506  0.4127 -0.5488
 9158SOL    HW239108   1.575   3.550   6.413 -2.1595  1.3541 -0.8358
 9159SOL     OW39109   2.501   1.567   4.529 -0.0895 -0.1556 -0.4357
 9159SOL    HW139110   2.491   1.594   4.620  2.2103 -3.0792  0.7284
 9159SOL    HW239111   2.409   1.571   4.504 -0.1267 -0.6415 -0.3770
 9160SOL     OW39112   3.935   2.997  13.551 -0.0393  0.0646  0.1483
 9160SOL    HW139113   3.991   3.021  13.626  0.0084  0.3870  0.0120
 9160SOL    HW239114   3.849   2.975  13.586 -0.8293  0.3417 -1.6242
 9161SOL     OW39115   4.594   1.716   3.943  0.4155 -0.4243  0.1407
 9161SOL    HW139116   4.655   1.721   4.016  1.6854  0.1846 -0.9611
 9161SOL    HW239117   4.642   1.756   3.871 -1.3130  1.5859  0.0926
 9162SOL     OW39118   1.333   3.262  15.339  0.6961 -0.1210 -0.3385
 9162SOL    HW139119   1.262   3.245  15.278 -0.5423  3.4859  0.1437
 9162SOL    HW239120   1.376   3.340  15.304  0.7328  1.1349  2.5128
 9163SOL     OW39121   3.018   2.111   8.366  0.0666  0.0967  0.5634
 9163SOL    HW139122   2.978   2.197   8.359  0.8287  0.4499  0.6647
 9163SOL    HW239123   2.951   2.042   8.367  0.1941 -0.0349 -0.3773
 9164SOL     OW39124   2.483   2.012   9.024  1.0706 -0.2950 -0.1850
 9164SOL    HW139125   2.390   2.026   9.011  1.0547 -1.0891 -0.9229
 9164SOL    HW239126   2.531   2.084   8.984  0.0470  0.7161  0.4220
 9165SOL     OW39127   1.097   4.452   0.169 -0.2126  0.5665 -0.4907
 9165SOL    HW139128   1.155   4.528   0.167  2.3177 -1.3586  0.5701
 9165SOL    HW239129   1.018   4.475   0.120 -0.1474  1.0013 -0.3995
 9166SOL     OW39130   4.282   0.475   9.550 -0.0523  0.0199 -0.2348
 9166SOL    HW139131   4.268   0.568   9.568 -0.5059 -0.1181  0.1350
 9166SOL    HW239132   4.233   0.436   9.623 -0.5082 -1.5523 -1.3865
 9167SOL     OW39133   3.687   3.349  12.008  0.3886  0.4902 -0.1157
 9167SOL    HW139134   3.774   3.331  12.042  0.2808  1.0910  0.4752
 9167SOL    HW239135   3.711   3.346  11.915  2.5561 -0.4232  0.4745
 9168SOL     OW39136   3.935   0.509   7.237 -0.6407  0.3387 -0.3691
 9168SOL    HW139137   4.029   0.518   7.222 -0.1875 -0.4835  1.9445
 9168SOL    HW239138   3.920   0.421   7.202 -0.3614  0.2979 -0.3869
 9169SOL     OW39139   3.559   1.834   1.436  0.1006 -0.5140  0.4252
 9169SOL    HW139140   3.497   1.763   1.451 -0.7419 -0.0172 -0.6903
 9169SOL    HW239141   3.623   1.796   1.376 -0.1091 -1.1073  0.5791
 9170SOL     OW39142   3.218   0.210   7.460 -0.1454 -0.1426 -0.0719
 9170SOL    HW139143   3.244   0.214   7.552 -2.0728 -0.1939  0.4715
 9170SOL    HW239144   3.128   0.180   7.470  0.0262 -0.4103  0.6532
 9171SOL     OW39145   2.577   3.608   4.870  0.4860 -0.1489 -0.4836
 9171SOL    HW139146   2.622   3.538   4.824 -0.2983 -1.9692  1.5516
 9171SOL    HW239147   2.624   3.601   4.953 -0.5957  0.3085  0.1618
 9172SOL     OW39148   3.626   2.017   8.736  0.2172 -0.0585  0.0093
 9172SOL    HW139149   3.646   1.969   8.655  1.7031  0.8372 -0.1548
 9172SOL    HW239150   3.636   1.945   8.798  1.2737  0.8572  0.8921
 9173SOL     OW39151   3.737   1.599   5.410 -0.0941  0.5893 -0.2189
 9173SOL    HW139152   3.796   1.634   5.476 -0.5911  0.2086  0.4213
 9173SOL    HW239153   3.680   1.541   5.460  1.0822  0.8761  1.4354
 9174SOL     OW39154   4.520   3.960   1.545 -0.4641 -0.1813  0.2049
 9174SOL    HW139155   4.604   4.005   1.558 -1.2803  0.6851  2.5133
 9174SOL    HW239156   4.493   3.940   1.634  0.7271 -0.3854  0.5214
 9175SOL     OW39157   1.493   2.454  11.923 -0.1656  0.0223  0.1565
 9175SOL    HW139158   1.526   2.445  11.834  1.4490 -2.6966  1.0014
 9175SOL    HW239159   1.564   2.435  11.984 -0.3342 -1.5886 -0.1310
 9176SOL     OW39160   1.618   3.243   8.518  0.0569  0.3532  0.3345
 9176SOL    HW139161   1.629   3.150   8.539 -0.5676  0.6822  2.1024
 9176SOL    HW239162   1.623   3.242   8.422 -0.0723 -3.5552  0.3619
 9177SOL     OW39163   4.273   1.710   2.816 -0.3934 -0.0123 -0.0145
 9177SOL    HW139164   4.337   1.766   2.772  0.3262 -0.3081  0.6722
 9177SOL    HW239165   4.291   1.627   2.771 -1.6499  0.6369 -1.7620
 9178SOL     OW39166   4.565   2.292   4.820  0.1713  0.0410  0.2717
 9178SOL    HW139167   4.519   2.260   4.898  3.1745 -1.2261  1.5127
 9178SOL    HW239168   4.489   2.308   4.765  1.0298 -0.0641 -0.9362
 9179SOL     OW39169   0.620   4.005  12.171 -0.0778  0.1973  0.1026
 9179SOL    HW139170   0.557   3.955  12.119  0.1741 -0.4770  0.4483
 9179SOL    HW239171   0.672   3.933  12.207 -1.2051  0.0497  1.4169
 9180SOL     OW39172   2.284   3.272  15.428  0.1304  0.3209 -0.1538
 9180SOL    HW139173   2.332   3.196  15.461  0.3626  0.2206 -0.7177
 9180SOL    HW239174   2.204   3.264  15.481 -1.0844  0.0376 -2.0193
 9181SOL     OW39175   2.640   4.133   5.924 -0.1130  0.1219  0.3211
 9181SOL    HW139176   2.648   4.065   5.857  0.4818 -0.7594  1.2946
 9181SOL    HW239177   2.672   4.090   6.003  2.3160  0.0024 -0.7379
 9182SOL     OW39178   1.825   2.411   3.576  0.0601  0.9655  0.2568
 9182SOL    HW139179   1.845   2.343   3.512  1.1804  0.6089  0.9935
 9182SOL    HW239180   1.800   2.357   3.652  1.0052 -0.0224 -0.1382
 9183SOL     OW39181   3.256   2.694   3.510 -0.2582  0.1086 -0.3314
 9183SOL    HW139182   3.240   2.719   3.419  1.4001 -1.9818 -1.1944
 9183SOL    HW239183   3.243   2.600   3.513 -1.0382  0.2232  0.0545
 9184SOL     OW39184   2.061   1.548   3.875  0.7113  0.0388 -0.1062
 9184SOL    HW139185   2.095   1.579   3.959  0.3531  3.5034 -1.2496
 9184SOL    HW239186   2.006   1.624   3.855  0.2324 -0.0513  0.8472
 9185SOL     OW39187   2.381   4.716   3.892  0.1634 -0.4774  0.1958
 9185SOL    HW139188   2.298   0.015   3.858  0.3001 -1.3807 -1.0474
 9185SOL    HW239189   2.442   4.735   3.821  0.1800 -0.8274  0.1157
 9186SOL     OW39190   2.924   0.361   0.881  0.2940 -0.5759 -0.1232
 9186SOL    HW139191   2.979   0.416   0.936  1.5628 -0.6743 -1.2795
 9186SOL    HW239192   2.906   0.424   0.810 -0.4939  0.7397  1.2471
 9187SOL     OW39193   0.370   2.097  16.489  0.3740 -0.0136  0.1789
 9187SOL    HW139194   0.342   2.146  16.412 -1.2610  1.7056  1.8442
 9187SOL    HW239195   0.427   2.026  16.459  0.7666 -0.1793  1.3101
 9188SOL     OW39196   1.638   2.263   7.931  0.5029 -0.6034  0.1209
 9188SOL    HW139197   1.661   2.331   7.994  1.1959 -0.0315 -0.7552
 9188SOL    HW239198   1.543   2.252   7.936  0.4168  0.2878  0.5423
 9189SOL     OW39199   3.049   0.845   6.518 -0.0529  0.1331 -0.0585
 9189SOL    HW139200   2.977   0.884   6.567 -1.2198 -0.9354 -0.9088
 9189SOL    HW239201   3.007   0.822   6.435  1.4918 -2.0944 -0.2322
 9190SOL     OW39202   1.062   2.681   3.904 -0.3027  0.1330  0.8548
 9190SOL    HW139203   1.097   2.716   3.986  1.3198 -1.5548  0.8640
 9190SOL    HW239204   1.013   2.607   3.941  2.0723 -1.2943  1.0958
 9191SOL     OW39205   2.098   2.092   6.426  0.0942  0.0627  0.2141
 9191SOL    HW139206   2.124   2.010   6.383 -0.9831  0.3108 -0.8996
 9191SOL    HW239207   2.032   2.112   6.360 -0.2516  1.3587  0.9648
 9192SOL     OW39208   3.157   4.327   4.580 -0.3576 -0.3830 -0.1029
 9192SOL    HW139209   3.109   4.366   4.507  0.8230  1.1806 -0.0387
 9192SOL    HW239210   3.087   4.278   4.623 -1.0436  0.3927 -0.3327
 9193SOL     OW39211   4.322   4.617   2.762  0.0900  0.2048 -0.2770
 9193SOL    HW139212   4.348   4.707   2.744  1.8183 -0.1361  0.4822
 9193SOL    HW239213   4.398   4.567   2.730 -0.1689 -0.6573  0.4621
 9194SOL     OW39214   3.309   4.223  14.551  0.2266  0.4133  0.3709
 9194SOL    HW139215   3.317   4.268  14.635  1.7334  0.6766  0.1031
 9194SOL    HW239216   3.295   4.133  14.581 -0.7361  0.9720  1.5707
 9195SOL     OW39217   4.389   1.023   0.698  0.1990 -0.0775  0.2652
 9195SOL    HW139218   4.395   1.115   0.724 -0.0389 -0.1576  0.6033
 9195SOL    HW239219   4.303   1.016   0.658 -0.5360  1.6173  1.5236
 9196SOL     OW39220   1.339   3.897  13.622  0.0212  0.0902 -0.7716
 9196SOL    HW139221   1.423   3.893  13.576  1.0741  2.5614  0.8988
 9196SOL    HW239222   1.291   3.972  13.586  1.4882  0.3802 -2.1515
 9197SOL     OW39223   3.652   0.960   3.518  0.6285 -0.0989 -0.1641
 9197SOL    HW139224   3.702   0.905   3.578  2.4913  1.5578 -0.1745
 9197SOL    HW239225   3.565   0.949   3.556  0.9929  0.6293  0.8607
 9198SOL     OW39226   2.633   4.361   2.126 -0.2314 -0.8304  0.1881
 9198SOL    HW139227   2.624   4.310   2.046  1.5025  0.8405 -1.0714
 9198SOL    HW239228   2.681   4.435   2.087 -0.5435 -0.0643  1.2673
 9199SOL     OW39229   3.953   1.072   8.910 -0.0759 -0.0787 -0.1913
 9199SOL    HW139230   3.884   1.013   8.880  0.0476 -0.3596  0.0773
 9199SOL    HW239231   4.025   1.010   8.918 -0.6770 -0.4929  1.8446
 9200SOL     OW39232   3.930   3.835  10.669 -0.2616  0.3076 -0.2360
 9200SOL    HW139233   3.947   3.873  10.755 -0.2741  2.4396 -1.1819
 9200SOL    HW239234   3.935   3.743  10.694 -0.2807  0.1484 -0.8126
 9201SOL     OW39235   4.708   3.786   8.260  0.3546 -0.3492 -0.9049
 9201SOL    HW139236   4.632   3.787   8.319 -0.7029  1.4733 -2.3036
 9201SOL    HW239237   4.670   3.820   8.180 -0.0955  1.2975 -0.0058
 9202SOL     OW39238   1.963   0.250   5.128  0.3448  0.0418 -0.4621
 9202SOL    HW139239   2.055   0.223   5.130  0.4042  0.1363 -2.0576
 9202SOL    HW239240   1.930   0.203   5.205  0.9606  0.9972  0.3837
 9203SOL     OW39241   0.144   0.981   1.644 -0.3156 -0.5071  0.1095
 9203SOL    HW139242   0.236   0.958   1.651 -1.3390 -3.5220  3.7378
 9203SOL    HW239243   0.137   1.061   1.696 -2.9893  0.8866 -2.3615
 9204SOL     OW39244   2.209   1.395   4.332  0.4058 -0.1024 -0.2300
 9204SOL    HW139245   2.287   1.343   4.312 -0.9631 -2.0950 -0.4017
 9204SOL    HW239246   2.199   1.384   4.426 -0.4962 -0.6898 -0.3935
 9205SOL     OW39247   3.903   0.384   5.960  0.0259 -0.7699 -0.2842
 9205SOL    HW139248   3.850   0.330   6.018 -1.8084  1.0640 -0.2784
 9205SOL    HW239249   3.987   0.347   5.988  1.9000  1.0365 -3.4499
 9206SOL     OW39250   3.063   2.419   7.909 -0.2265  0.0945  0.1367
 9206SOL    HW139251   3.034   2.510   7.906  0.4886  0.2566 -1.7143
 9206SOL    HW239252   3.131   2.414   7.842  0.1211  3.1637  0.2715
 9207SOL     OW39253   4.260   2.028  15.290  0.0381  0.3262  0.0559
 9207SOL    HW139254   4.166   2.016  15.277  0.1576  0.2001 -0.7092
 9207SOL    HW239255   4.263   2.049  15.383  1.6971  0.0448  0.0664
 9208SOL     OW39256   0.296   0.870  16.496 -0.1778 -0.7086  0.4406
 9208SOL    HW139257   0.237   0.795  16.493 -0.9213 -0.1792  1.9265
 9208SOL    HW239258   0.228   0.934  16.479 -0.9001 -1.8684 -1.0975
 9209SOL     OW39259   3.761   0.880   5.917 -0.2294  0.0653 -0.4696
 9209SOL    HW139260   3.791   0.852   5.831 -2.2211 -2.4341 -0.3662
 9209SOL    HW239261   3.666   0.875   5.902 -0.2984  1.2497 -0.4627
 9210SOL     OW39262   0.056   1.188  12.732 -0.0471  0.3855  0.0254
 9210SOL    HW139263   0.056   1.109  12.786 -1.9940 -0.3306 -1.0119
 9210SOL    HW239264   0.147   1.208  12.709  0.0443 -0.3452 -0.2577
 9211SOL     OW39265   1.118   4.460   6.547 -0.1595 -0.4761 -0.2268
 9211SOL    HW139266   1.083   4.536   6.594  1.5048 -0.0336  0.3080
 9211SOL    HW239267   1.046   4.399   6.533  1.1773 -1.9790 -0.4358
 9212SOL     OW39268   2.057   0.272   6.848  0.8138  0.3201 -0.2488
 9212SOL    HW139269   2.043   0.327   6.926  0.2600 -0.5288  0.2497
 9212SOL    HW239270   2.142   0.305   6.818  0.5669 -0.6465 -1.9952
 9213SOL     OW39271   0.779   0.602   9.655 -0.8026  0.0279 -0.0479
 9213SOL    HW139272   0.765   0.573   9.746  0.8246  2.7092  1.0267
 9213SOL    HW239273   0.863   0.557   9.648 -2.1182 -2.5260  0.1835
 9214SOL     OW39274   1.953   0.608   5.392  0.0357  0.7291 -0.4012
 9214SOL    HW139275   1.894   0.684   5.391  2.1319  2.3449 -1.4670
 9214SOL    HW239276   2.012   0.634   5.321  2.2782 -1.4437  0.6915
 9215SOL     OW39277   1.286   4.394   7.901  0.2742  0.3930  0.5287
 9215SOL    HW139278   1.223   4.346   7.848 -1.1841  1.3966  1.3490
 9215SOL    HW239279   1.342   4.439   7.839  0.3083  0.6871  0.7734
 9216SOL     OW39280   3.334   1.541   7.962 -0.1616  0.0635  0.4481
 9216SOL    HW139281   3.359   1.602   7.892  1.9922 -1.0951  0.2250
 9216SOL    HW239282   3.403   1.475   7.961  0.8361  1.0854  1.5680
 9217SOL     OW39283   0.989   4.710   4.236  0.1775  0.7077  0.0909
 9217SOL    HW139284   0.911   4.707   4.291 -0.2800 -0.5402 -0.6241
 9217SOL    HW239285   0.948   4.677   4.156  3.3030 -2.5404 -0.1500
 9218SOL     OW39286   3.797   0.986   9.291  0.6575 -0.6547  0.6162
 9218SOL    HW139287   3.821   0.922   9.225 -1.0805  0.5487 -1.2004
 9218SOL    HW239288   3.872   1.046   9.295 -0.3638  0.6446  0.6042
 9219SOL     OW39289   4.205   4.335   4.085  0.3257  0.1480  0.5530
 9219SOL    HW139290   4.277   4.390   4.118  0.1558  0.4165  0.4794
 9219SOL    HW239291   4.247   4.296   4.008 -0.4380 -0.5141  0.4721
 9220SOL     OW39292   2.351   3.547   5.112 -0.1568  0.8418  0.2056
 9220SOL    HW139293   2.353   3.486   5.185  2.3228  0.4084 -0.2005
 9220SOL    HW239294   2.403   3.619   5.148  0.5133  0.2844  0.3480
 9221SOL     OW39295   3.264   0.218   2.756 -0.3255  0.0257  0.3956
 9221SOL    HW139296   3.175   0.242   2.782 -0.6607 -0.1628 -0.5940
 9221SOL    HW239297   3.316   0.263   2.822  1.5228  0.7739 -1.5793
 9222SOL     OW39298   2.625   4.574   2.735  0.0528  0.0221 -0.1639
 9222SOL    HW139299   2.571   4.505   2.697  2.3075 -1.3382 -0.9084
 9222SOL    HW239300   2.562   4.618   2.792 -0.4010  1.3340 -1.6906
 9223SOL     OW39301   3.621   4.017   5.511 -0.9911  0.1970  0.4328
 9223SOL    HW139302   3.581   3.936   5.481 -0.0359  0.1975 -0.8475
 9223SOL    HW239303   3.563   4.048   5.581  1.2392  0.2290  2.2935
 9224SOL     OW39304   3.435   4.401   7.439 -0.3697 -0.3355 -0.1099
 9224SOL    HW139305   3.497   4.371   7.505 -0.8211 -0.3932  0.2882
 9224SOL    HW239306   3.496   4.440   7.376 -1.8782  0.6479 -0.9724
 9225SOL     OW39307   3.942   3.277   9.944  0.4213  0.2674 -0.4005
 9225SOL    HW139308   3.893   3.196   9.959 -0.8649  0.9049 -1.1656
 9225SOL    HW239309   3.876   3.340   9.973  0.0181 -0.5413  0.4504
 9226SOL     OW39310   3.287   1.282   7.068  1.2342  0.7082 -0.3291
 9226SOL    HW139311   3.225   1.281   7.141 -0.2302 -2.0865 -1.6554
 9226SOL    HW239312   3.270   1.371   7.037 -0.1281  0.5040 -0.1759
 9227SOL     OW39313   0.620   1.506  15.171  1.2430 -0.0788 -0.0572
 9227SOL    HW139314   0.617   1.524  15.077 -1.0240 -0.5951 -0.0954
 9227SOL    HW239315   0.569   1.578  15.210  1.5097 -0.4010  0.8711
 9228SOL     OW39316   0.757   0.638   2.073 -0.1343 -1.0023  0.2961
 9228SOL    HW139317   0.738   0.725   2.038  1.3857 -0.5105  0.6544
 9228SOL    HW239318   0.710   0.641   2.156 -1.9371  0.6703 -0.7959
 9229SOL     OW39319   1.254   0.294   6.019  0.8367 -0.1561  0.5119
 9229SOL    HW139320   1.174   0.243   6.013  0.2523  0.9102 -0.8555
 9229SOL    HW239321   1.251   0.342   5.936 -0.1687 -0.0516  0.6174
 9230SOL     OW39322   3.854   2.305   8.434  0.0722  0.2980 -0.4038
 9230SOL    HW139323   3.799   2.378   8.408 -0.5054  0.8149  2.3418
 9230SOL    HW239324   3.791   2.235   8.452  1.0068 -0.3483  0.3303
 9231SOL     OW39325   3.172   1.967   5.703 -0.5473  0.0727 -0.1954
 9231SOL    HW139326   3.190   1.987   5.611  0.7399  0.6184  0.1760
 9231SOL    HW239327   3.143   1.876   5.695  0.4260 -0.0980 -1.9092
 9232SOL     OW39328   1.190   2.487   1.973 -0.1399 -0.0103 -0.2718
 9232SOL    HW139329   1.172   2.547   2.045 -0.7522 -0.9124  0.3249
 9232SOL    HW239330   1.102   2.454   1.959 -0.4503 -0.9006  3.8422
 9233SOL     OW39331   4.519   1.249   7.269 -0.2165 -0.0392  0.0071
 9233SOL    HW139332   4.544   1.269   7.179 -0.1046  2.2437  0.5172
 9233SOL    HW239333   4.528   1.331   7.319 -0.1570 -0.9526  1.4857
 9234SOL     OW39334   0.041   3.147  10.852 -0.3390 -0.1985 -0.1832
 9234SOL    HW139335   0.065   3.194  10.932 -0.3052  0.9714 -0.8859
 9234SOL    HW239336   0.115   3.179  10.799  1.0312 -0.6787  1.4413
 9235SOL     OW39337   0.410   2.736   9.707 -0.0353  0.3860  0.1659
 9235SOL    HW139338   0.475   2.799   9.736  1.2954 -0.0650 -1.8071
 9235SOL    HW239339   0.369   2.773   9.628 -1.4950 -0.6162  0.4536
 9236SOL     OW39340   2.685   2.080   4.113 -0.3744  0.0359  0.1334
 9236SOL    HW139341   2.697   2.166   4.073 -2.2503 -0.9871 -2.6516
 9236SOL    HW239342   2.713   2.097   4.203  1.8286  2.8525 -1.0988
 9237SOL     OW39343   3.191   3.772  16.833  0.1734  0.4928 -0.0763
 9237SOL    HW139344   3.157   3.691  16.869  0.8237  0.3178  0.1376
 9237SOL    HW239345   3.157   3.778  16.744  1.6889 -0.2680 -0.7156
 9238SOL     OW39346   0.183   0.052   1.974  0.2093 -0.0320 -0.2588
 9238SOL    HW139347   0.140   0.032   2.057 -0.5310 -2.6186 -1.2640
 9238SOL    HW239348   0.224   4.703   1.955 -0.4090 -0.2789 -0.5008
 9239SOL     OW39349   1.553   4.441   1.996  0.2241 -0.3976  0.2289
 9239SOL    HW139350   1.478   4.497   2.017 -1.0730 -2.4088  1.0515
 9239SOL    HW239351   1.533   4.419   1.905 -1.8644 -1.3495  0.8966
 9240SOL     OW39352   4.149   2.651   2.965  0.3932 -0.1234  0.0663
 9240SOL    HW139353   4.061   2.645   2.928  0.6708 -1.5043 -0.3543
 9240SOL    HW239354   4.196   2.709   2.906  0.9436 -1.1093 -0.4660
 9241SOL     OW39355   2.989   2.942   3.924 -0.0144 -0.2710  0.0620
 9241SOL    HW139356   3.045   2.915   3.851  0.8636  1.6394  0.0057
 9241SOL    HW239357   2.933   2.865   3.928 -1.6799  0.8841 -0.9130
 9242SOL     OW39358   3.185   2.375  17.164 -0.0254 -0.1607 -0.4452
 9242SOL    HW139359   3.125   2.300  17.167  0.0843 -0.2297  0.0359
 9242SOL    HW239360   3.121   2.442  17.189 -1.0011 -1.7472  1.2921
 9243SOL     OW39361   2.392   1.081  11.508 -0.3498  0.4907 -0.0547
 9243SOL    HW139362   2.342   1.005  11.540 -0.6391  1.8283  2.7471
 9243SOL    HW239363   2.415   1.116  11.595  0.7237  2.2517 -1.0569
 9244SOL     OW39364   4.001   4.534   3.994 -0.1003 -0.6302 -0.3959
 9244SOL    HW139365   4.088   4.503   3.967  0.3261  0.1816  0.0570
 9244SOL    HW239366   3.989   4.493   4.080 -0.6634 -0.7002 -0.5063
 9245SOL     OW39367   2.477   2.133   3.778  0.2485 -0.4054  0.4979
 9245SOL    HW139368   2.453   2.061   3.835 -0.2534  0.1881  1.0385
 9245SOL    HW239369   2.459   2.201   3.844 -1.8562 -1.2011  0.7247
 9246SOL     OW39370   3.569   0.154   2.803  0.6627 -0.0445  0.0199
 9246SOL    HW139371   3.564   0.128   2.711  0.1204  1.4214 -0.3653
 9246SOL    HW239372   3.572   0.067   2.841  0.0920  1.2268  2.9508
 9247SOL     OW39373   2.182   1.552  14.668 -0.4210  0.9542 -0.3153
 9247SOL    HW139374   2.101   1.523  14.626 -0.2100 -0.2914  0.1611
 9247SOL    HW239375   2.184   1.646  14.651 -1.8875  0.8903 -0.9200
 9248SOL     OW39376   2.521   3.421  11.966 -0.0571  0.0042 -0.2750
 9248SOL    HW139377   2.521   3.334  11.927 -1.3311 -1.0860  2.2268
 9248SOL    HW239378   2.515   3.475  11.887 -0.9780 -2.0319 -1.5794
 9249SOL     OW39379   2.494   0.943   8.781 -0.5516  0.1877  0.3172
 9249SOL    HW139380   2.586   0.933   8.806  0.1078 -0.1224 -2.1878
 9249SOL    HW239381   2.501   0.901   8.695  1.3026 -0.4645  0.7778
 9250SOL     OW39382   0.750   4.221  13.854 -0.3015  0.3775  0.2998
 9250SOL    HW139383   0.707   4.138  13.835  0.4771 -0.3322  1.7093
 9250SOL    HW239384   0.728   4.227  13.947 -1.3492 -0.3883  0.1105
 9251SOL     OW39385   2.880   2.660   7.122  0.0194 -0.4979  0.3060
 9251SOL    HW139386   2.813   2.622   7.065  0.8135 -0.0769 -0.9281
 9251SOL    HW239387   2.828   2.654   7.202  1.1440  1.0182  1.1457
 9252SOL     OW39388   4.302   1.778  15.447  0.8091  0.0066  0.0384
 9252SOL    HW139389   4.278   1.726  15.370  0.0041 -1.7183  1.4495
 9252SOL    HW239390   4.290   1.870  15.421  0.8187 -0.1620 -0.5412
 9253SOL     OW39391   2.679   0.918   8.017  0.7603  0.3961  0.3595
 9253SOL    HW139392   2.731   0.905   7.938  0.6195  0.0635  0.3220
 9253SOL    HW239393   2.594   0.890   7.984 -0.5753  1.1376  3.1419
 9254SOL     OW39394   1.121   1.277   4.080  0.2347 -0.2545 -0.0932
 9254SOL    HW139395   1.127   1.287   3.985 -0.0973 -0.1526 -0.1064
 9254SOL    HW239396   1.203   1.323   4.096  0.4790 -0.0836 -1.7676
 9255SOL     OW39397   0.396   3.634   3.169 -0.0171 -0.9272 -0.4845
 9255SOL    HW139398   0.372   3.717   3.211  0.7350 -0.2822 -1.3151
 9255SOL    HW239399   0.409   3.569   3.237  1.1894 -0.5229 -0.3281
 9256SOL     OW39400   2.601   2.806  12.189 -0.3910  0.4719  0.0399
 9256SOL    HW139401   2.582   2.805  12.283  1.6069  0.8972  0.4519
 9256SOL    HW239402   2.589   2.899  12.171 -3.6789 -0.2843 -1.6379
 9257SOL     OW39403   1.675   1.196   0.346 -0.3303 -0.0966  0.2031
 9257SOL    HW139404   1.674   1.291   0.352  2.5655  0.0634 -1.4320
 9257SOL    HW239405   1.592   1.173   0.305  0.0793 -0.6360 -0.3342
 9258SOL     OW39406   2.481   3.573   7.346  1.1054  0.0307 -0.0340
 9258SOL    HW139407   2.402   3.605   7.389  1.0407  1.3292 -1.1109
 9258SOL    HW239408   2.440   3.499   7.302  2.4026  0.1051 -1.3830
 9259SOL     OW39409   1.598   0.600   8.977  0.4699 -0.5418  0.3441
 9259SOL    HW139410   1.667   0.663   8.959 -1.0427  0.6731 -1.2240
 9259SOL    HW239411   1.644   0.524   9.012  0.6284 -0.6102 -0.0099
 9260SOL     OW39412   3.779   3.391   7.751 -0.4024 -0.3629 -0.3011
 9260SOL    HW139413   3.834   3.465   7.775  1.8849 -1.9407 -0.6456
 9260SOL    HW239414   3.708   3.392   7.815  0.1429  0.2791  0.2946
 9261SOL     OW39415   0.635   1.715  17.001 -0.8124 -0.5126 -0.2748
 9261SOL    HW139416   0.643   1.631  16.956  0.3756 -0.1832 -0.6789
 9261SOL    HW239417   0.598   1.764  16.927  0.7506  0.1051 -0.6384
 9262SOL     OW39418   2.764   4.023   4.804 -0.6640 -0.0374 -0.4343
 9262SOL    HW139419   2.833   3.960   4.786  0.6437  1.2621  0.0774
 9262SOL    HW239420   2.692   3.966   4.831  0.3259 -1.0487  0.0616
 9263SOL     OW39421   1.436   2.540  16.276  0.5133 -0.3908 -0.1893
 9263SOL    HW139422   1.435   2.600  16.351  1.5817 -1.4503  0.6911
 9263SOL    HW239423   1.359   2.561  16.224  1.3206 -0.8366 -1.5799
 9264SOL     OW39424   2.357   2.627   3.094 -0.0884  0.3124  0.0753
 9264SOL    HW139425   2.292   2.688   3.129 -2.9587 -1.3401 -2.4248
 9264SOL    HW239426   2.365   2.654   3.003 -2.0577 -1.3411 -0.5797
 9265SOL     OW39427   2.729   4.580   0.465 -0.6436  0.0929  0.3990
 9265SOL    HW139428   2.652   4.550   0.511 -0.7996  0.4375  0.3626
 9265SOL    HW239429   2.773   4.621   0.540 -1.2908  1.9158 -0.2110
 9266SOL     OW39430   2.935   4.179   2.077  0.2052  0.5650  0.0327
 9266SOL    HW139431   2.985   4.219   2.005  1.7043 -0.0890  0.6970
 9266SOL    HW239432   2.845   4.205   2.058  0.5145  1.1984 -0.6159
 9267SOL     OW39433   1.346   3.299   5.895  0.6674 -0.0684 -0.1093
 9267SOL    HW139434   1.432   3.341   5.890  1.7701 -2.1236  1.3441
 9267SOL    HW239435   1.285   3.373   5.890  1.3825  0.3329 -2.4839
 9268SOL     OW39436   0.405   2.409   3.644 -0.5668 -0.5295  0.0589
 9268SOL    HW139437   0.482   2.421   3.588  0.2797  0.6095  1.4607
 9268SOL    HW239438   0.346   2.464   3.593  1.5332  0.2737 -1.5111
 9269SOL     OW39439   3.059   1.722   5.624  0.2318 -0.3384  0.0708
 9269SOL    HW139440   2.985   1.691   5.571 -0.0193  1.6064 -0.6896
 9269SOL    HW239441   3.107   1.639   5.632  1.2919  0.6152  3.6042
 9270SOL     OW39442   0.766   2.390   7.332 -0.1678 -0.1340  0.1400
 9270SOL    HW139443   0.782   2.395   7.426  0.6113 -0.9531  0.0521
 9270SOL    HW239444   0.763   2.480   7.301 -1.3386  0.1068  0.9315
 9271SOL     OW39445   3.841   1.402   4.900  0.9335  0.0748 -0.0932
 9271SOL    HW139446   3.812   1.444   4.981  1.3547  0.3074 -0.0619
 9271SOL    HW239447   3.797   1.447   4.828  1.3192 -2.0265 -1.6529
 9272SOL     OW39448   2.671   2.987   0.311 -0.3423 -0.0151  0.4626
 9272SOL    HW139449   2.748   3.036   0.340 -0.4224  1.0583 -1.1360
 9272SOL    HW239450   2.596   3.038   0.340 -0.1947 -0.2581  1.2690
 9273SOL     OW39451   0.525   1.119   3.468 -0.2319 -0.0492  0.4384
 9273SOL    HW139452   0.535   1.185   3.537  1.7521 -1.5173  1.5475
 9273SOL    HW239453   0.535   1.043   3.525 -0.3292  0.2589  0.8681
 9274SOL     OW39454   3.418   3.171  16.453 -0.4328  0.7686 -0.0026
 9274SOL    HW139455   3.405   3.120  16.372  2.2559  1.6101 -0.9730
 9274SOL    HW239456   3.432   3.261  16.424 -0.9728  0.4560 -1.2670
 9275SOL     OW39457   1.968   3.166   7.622  0.5184  0.0335 -0.1151
 9275SOL    HW139458   2.021   3.131   7.552  1.4626  1.5692 -0.1671
 9275SOL    HW239459   1.952   3.251   7.581  1.0089  0.4398  0.5316
 9276SOL     OW39460   1.311   2.092   3.670 -0.2155 -0.9305 -0.0181
 9276SOL    HW139461   1.257   2.017   3.643  0.4674 -1.0835 -0.9626
 9276SOL    HW239462   1.346   2.124   3.587 -0.6782  0.3085  0.2758
 9277SOL     OW39463   3.609   1.378  10.059  0.1349  0.1239 -0.0702
 9277SOL    HW139464   3.563   1.459  10.037  0.3214  0.3181  0.2469
 9277SOL    HW239465   3.596   1.321   9.984 -1.3456 -0.1845  0.4228
 9278SOL     OW39466   2.950   1.097  17.052  0.4205  0.1456 -0.0990
 9278SOL    HW139467   3.040   1.088  17.022 -0.6694 -0.7311 -3.1112
 9278SOL    HW239468   2.957   1.183  17.095  0.4429  0.4433 -0.6988
 9279SOL     OW39469   2.915   4.319   4.765  0.3444 -0.1432 -0.2009
 9279SOL    HW139470   2.854   4.301   4.694 -0.1418  1.9384 -0.2945
 9279SOL    HW239471   2.913   4.415   4.764  3.6767 -0.0834  0.1371
 9280SOL     OW39472   1.123   2.925  11.705  0.1823 -0.3275 -0.2407
 9280SOL    HW139473   1.113   3.015  11.673  0.0605 -0.6584 -1.1167
 9280SOL    HW239474   1.217   2.917  11.720  0.4252  0.4906 -1.3201
 9281SOL     OW39475   2.449   3.315   4.969  0.0143 -0.3742  0.2015
 9281SOL    HW139476   2.453   3.409   4.988  0.4213  0.2202 -2.8160
 9281SOL    HW239477   2.507   3.274   5.033  0.6595  3.0680  1.8264
 9282SOL     OW39478   3.044   3.426   4.530 -0.4191  0.2246 -0.7548
 9282SOL    HW139479   2.964   3.406   4.481 -0.3497  0.6106 -1.0295
 9282SOL    HW239480   3.071   3.340   4.561 -0.3023  0.3829 -0.4260
 9283SOL     OW39481   2.899   2.096  12.127  0.4268 -0.1269  0.9867
 9283SOL    HW139482   2.959   2.074  12.056  1.5136  2.4120  1.0855
 9283SOL    HW239483   2.968   2.144  12.174 -0.0989  2.2329 -0.6407
 9284SOL     OW39484   3.110   1.444   3.111  0.1147 -0.2524  0.1535
 9284SOL    HW139485   3.049   1.457   3.039 -1.2423  2.0166  1.7047
 9284SOL    HW239486   3.097   1.520   3.167 -2.5377  0.1987 -1.0672
 9285SOL     OW39487   2.213   0.651   7.617  0.2039 -0.2101 -0.0125
 9285SOL    HW139488   2.119   0.655   7.634 -0.2223 -0.1230 -2.4308
 9285SOL    HW239489   2.207   0.636   7.523 -1.3378 -2.4924  0.4431
 9286SOL     OW39490   2.660   2.611   7.862 -0.2062  0.0310  0.1288
 9286SOL    HW139491   2.709   2.650   7.789 -0.9782  0.2915 -0.2554
 9286SOL    HW239492   2.693   2.522   7.852 -1.3011 -0.2443 -1.0526
 9287SOL     OW39493   0.961   1.588   4.601 -0.5839 -0.7467 -0.4190
 9287SOL    HW139494   0.899   1.594   4.527  0.2627 -1.3527 -1.1782
 9287SOL    HW239495   0.899   1.566   4.671 -1.1603 -2.5950 -1.4854
 9288SOL     OW39496   1.081   4.302  10.371  0.5147 -0.3105  0.1204
 9288SOL    HW139497   1.068   4.284  10.464 -0.0504  1.3838  0.3706
 9288SOL    HW239498   1.171   4.335  10.371 -0.1237  1.4468  0.1070
 9289SOL     OW39499   0.095   3.404   4.471 -0.0417  0.2476 -0.0291
 9289SOL    HW139500   0.133   3.448   4.396 -0.2962 -0.4056 -0.5391
 9289SOL    HW239501   0.042   3.336   4.430  2.6943 -0.8097 -1.8050
 9290SOL     OW39502   4.467   4.122   5.138 -0.0238 -0.1626 -0.3819
 9290SOL    HW139503   4.386   4.159   5.175 -0.9316 -0.6943 -1.8247
 9290SOL    HW239504   4.476   4.043   5.191  0.2917 -1.2610 -2.0656
 9291SOL     OW39505   0.451   4.143   0.653 -0.4942 -0.3901  0.5659
 9291SOL    HW139506   0.392   4.167   0.581  0.3241  4.0124  1.3901
 9291SOL    HW239507   0.408   4.067   0.694 -0.6558 -0.4795  0.2297
 9292SOL     OW39508   4.264   2.015   9.754 -0.6795  0.3800 -0.8452
 9292SOL    HW139509   4.211   1.992   9.831 -1.7200  2.8834 -0.7848
 9292SOL    HW239510   4.244   2.108   9.742 -1.4438  0.0462 -2.1349
 9293SOL     OW39511   3.956   0.507   5.716  0.3338 -0.0570 -0.0772
 9293SOL    HW139512   3.990   0.433   5.665 -1.0820 -1.9083  1.6759
 9293SOL    HW239513   3.928   0.460   5.794 -0.9680 -0.6402 -0.8816
 9294SOL     OW39514   3.839   4.146   2.354  0.3049  0.1078  0.3289
 9294SOL    HW139515   3.764   4.151   2.412  1.8871  2.8149  2.1230
 9294SOL    HW239516   3.854   4.239   2.338  1.1703  0.2100  1.7299
 9295SOL     OW39517   0.003   2.084   5.488 -0.0274  0.1557 -0.7172
 9295SOL    HW139518   0.015   2.122   5.401  2.0871 -1.4577 -1.1474
 9295SOL    HW239519   4.668   2.021   5.475 -0.2956  0.9681 -3.1585
 9296SOL     OW39520   3.621   1.559  15.883  0.5821  0.2223  0.5543
 9296SOL    HW139521   3.665   1.491  15.833 -2.0903 -2.3360  1.6569
 9296SOL    HW239522   3.691   1.623  15.893  0.6919 -0.0379  1.4228
 9297SOL     OW39523   2.380   4.638  16.494  0.4745 -0.6557  0.7258
 9297SOL    HW139524   2.328   4.713  16.467 -2.3709 -3.1698 -0.8341
 9297SOL    HW239525   2.438   4.671  16.563  1.8643  1.6774 -1.5524
 9298SOL     OW39526   0.680   3.146  12.194 -0.5245 -0.1782 -0.4623
 9298SOL    HW139527   0.735   3.188  12.129  0.0107 -1.4732 -0.8389
 9298SOL    HW239528   0.675   3.214  12.261  1.9383  2.1917 -2.7267
 9299SOL     OW39529   2.248   4.668   4.262  0.1581 -0.0350 -0.1070
 9299SOL    HW139530   2.329   4.692   4.217  0.4346 -0.3333  0.2382
 9299SOL    HW239531   2.181   4.706   4.205  1.1993  0.5284 -0.9672
 9300SOL     OW39532   4.254   3.077   4.613  0.4023 -0.2272 -0.1437
 9300SOL    HW139533   4.220   3.151   4.563 -0.7719 -1.6697 -1.4553
 9300SOL    HW239534   4.202   3.006   4.577  2.1898 -1.6389  0.0234
 9301SOL     OW39535   0.957   3.446   7.032 -0.2627 -0.2485  0.1231
 9301SOL    HW139536   0.886   3.511   7.040 -1.2538 -1.3246  0.0830
 9301SOL    HW239537   0.899   3.376   7.003 -2.1170  1.6591 -0.7625
 9302SOL     OW39538   2.150   4.376   7.866 -0.7204  0.0887  0.4640
 9302SOL    HW139539   2.112   4.288   7.870 -1.2928  0.3146  0.0638
 9302SOL    HW239540   2.068   4.425   7.858  0.1455  1.5246  0.2706
 9303SOL     OW39541   4.661   2.145   3.469 -0.0998  0.1821  0.1271
 9303SOL    HW139542   4.654   2.128   3.563 -1.6471  1.8881  0.3247
 9303SOL    HW239543   4.576   2.186   3.452  1.3064  2.7823 -0.5955
 9304SOL     OW39544   2.172   0.340   8.579 -0.1649  0.4983  0.0651
 9304SOL    HW139545   2.167   0.382   8.493  2.6291  0.2750 -0.2070
 9304SOL    HW239546   2.253   0.375   8.615  1.8305 -3.0846 -0.8809
 9305SOL     OW39547   1.010   3.294   0.819 -0.0283  0.4271  0.1978
 9305SOL    HW139548   0.988   3.242   0.741  0.7908  1.9702 -1.0735
 9305SOL    HW239549   1.084   3.244   0.854  0.8108  0.5655 -1.3794
 9306SOL     OW39550   1.290   2.823  10.512 -0.3064 -0.2575  0.0974
 9306SOL    HW139551   1.373   2.780  10.492 -0.0675 -0.1531  0.8501
 9306SOL    HW239552   1.274   2.880  10.437  0.6062  1.3675  1.1273
 9307SOL     OW39553   3.176   1.474  11.836 -0.4625 -0.2054  0.3825
 9307SOL    HW139554   3.128   1.551  11.867 -2.2278 -1.2921  0.3576
 9307SOL    HW239555   3.226   1.447  11.913 -0.2023 -1.5327 -0.2574
 9308SOL     OW39556   2.493   3.021   4.330 -0.0495  0.1401  0.3871
 9308SOL    HW139557   2.528   3.102   4.292  1.2058 -0.1677  0.8810
 9308SOL    HW239558   2.463   2.981   4.249 -1.4136  1.0206  0.4688
 9309SOL     OW39559   0.039   3.680   2.494 -0.1751 -0.3878  0.2040
 9309SOL    HW139560   0.093   3.726   2.559  1.7435 -4.0015  1.1724
 9309SOL    HW239561   4.705   3.639   2.545  0.5891 -0.3580  1.2766
 9310SOL     OW39562   1.340   2.684   7.214  0.1809  0.0811  0.1238
 9310SOL    HW139563   1.295   2.628   7.277  0.3455  0.0051  0.1742
 9310SOL    HW239564   1.380   2.757   7.261  0.4774 -0.1397  0.2178
 9311SOL     OW39565   3.121   4.392  14.167 -0.0664 -0.0195 -0.2126
 9311SOL    HW139566   3.107   4.437  14.250 -0.2494 -0.6182  0.0773
 9311SOL    HW239567   3.058   4.321  14.173  1.3353 -1.2911 -0.7466
 9312SOL     OW39568   4.229   4.152   2.866 -0.1392 -0.3886  0.2661
 9312SOL    HW139569   4.216   4.222   2.801 -0.4213 -1.3454 -0.7059
 9312SOL    HW239570   4.235   4.070   2.817 -0.2497 -0.3431  0.1757
 9313SOL     OW39571   1.999   3.824   8.728 -0.6877 -0.0865  0.2855
 9313SOL    HW139572   1.975   3.760   8.661  0.4018 -1.7286  1.4627
 9313SOL    HW239573   1.930   3.889   8.715 -0.4973  0.0246 -0.1542
 9314SOL     OW39574   1.676   3.576  14.462 -0.2253 -0.4818  0.2377
 9314SOL    HW139575   1.712   3.588  14.374 -1.9015 -2.6773 -0.7287
 9314SOL    HW239576   1.597   3.523  14.452  0.8062 -1.9530 -0.2593
 9315SOL     OW39577   3.372   0.747  17.121 -0.3044 -0.2200  0.4599
 9315SOL    HW139578   3.320   0.724  17.044  1.9181  0.5676 -1.2620
 9315SOL    HW239579   3.456   0.774  17.085 -0.1589  1.9321  2.4280
 9316SOL     OW39580   0.976   3.985   1.993 -0.4934 -0.1360  0.0541
 9316SOL    HW139581   1.032   4.057   1.964 -0.2070 -0.4001 -0.0457
 9316SOL    HW239582   0.934   4.025   2.069 -1.2165  0.1442 -0.4933
 9317SOL     OW39583   3.045   2.545   5.609 -0.2324  0.2694  0.0448
 9317SOL    HW139584   2.988   2.622   5.615  0.3424  0.7512 -0.7275
 9317SOL    HW239585   2.978   2.477   5.620 -0.0073 -0.4975 -3.2147
 9318SOL     OW39586   2.876   2.290   4.660  0.9605  0.1977 -0.1541
 9318SOL    HW139587   2.800   2.345   4.642  1.2710  0.9172  0.7095
 9318SOL    HW239588   2.833   2.208   4.639 -0.6980  1.0140  0.0289
 9319SOL     OW39589   2.810   1.959  14.899 -0.5193 -0.2572 -0.0919
 9319SOL    HW139590   2.740   1.970  14.834 -0.1404 -0.8492 -0.6027
 9319SOL    HW239591   2.867   1.909  14.840 -0.3361 -0.2288  0.0648
 9320SOL     OW39592   2.743   0.826  13.637  0.3941 -0.7583  0.0214
 9320SOL    HW139593   2.785   0.797  13.717 -0.2411  0.4296  0.7997
 9320SOL    HW239594   2.674   0.879  13.679  1.1869  0.5585 -0.3290
 9321SOL     OW39595   3.493   0.478   7.688  0.3263 -0.2292 -0.3314
 9321SOL    HW139596   3.428   0.453   7.622  1.0834 -0.1658 -1.0976
 9321SOL    HW239597   3.571   0.461   7.635 -0.1351  2.8613 -1.9456
 9322SOL     OW39598   4.108   2.387   1.702  0.0826  0.0937 -0.3109
 9322SOL    HW139599   4.137   2.296   1.709  1.2456  0.6596  1.9774
 9322SOL    HW239600   4.193   2.427   1.685 -0.0566  0.2783 -0.5676
 9323SOL     OW39601   1.455   4.027   3.978  0.5407  0.2296 -0.2196
 9323SOL    HW139602   1.391   3.966   4.015  0.7216 -0.5770 -1.2522
 9323SOL    HW239603   1.482   4.083   4.051  0.0855 -1.6792  1.3868
 9324SOL     OW39604   3.605   0.059   2.303  0.1382  0.5169 -0.5581
 9324SOL    HW139605   3.622   4.701   2.299  0.9132  0.5263  2.1617
 9324SOL    HW239606   3.600   0.065   2.399 -0.0599 -1.6412 -0.4379
 9325SOL     OW39607   2.632   0.625  17.522  0.4733  0.8030 -0.0055
 9325SOL    HW139608   2.548   0.609  17.479 -0.0371 -0.6331  1.5163
 9325SOL    HW239609   2.610   0.707  17.566 -1.9580  0.3763 -0.4684
 9326SOL     OW39610   0.322   1.630   4.872  0.2522 -0.6877  0.0907
 9326SOL    HW139611   0.317   1.557   4.809  0.2203  2.0275 -3.0554
 9326SOL    HW239612   0.410   1.618   4.908  0.5907  1.5819  0.0234
 9327SOL     OW39613   2.392   2.582   7.826 -0.1075 -0.1614  0.1467
 9327SOL    HW139614   2.487   2.595   7.814 -0.4555 -0.9480 -3.4917
 9327SOL    HW239615   2.381   2.630   7.908  0.5715  0.6636 -0.2368
 9328SOL     OW39616   2.716   0.321   4.501  0.4167  0.2837  0.6311
 9328SOL    HW139617   2.642   0.278   4.459  0.6311 -0.7961  1.3625
 9328SOL    HW239618   2.789   0.282   4.453 -1.0705  0.9643 -2.1875
 9329SOL     OW39619   0.607   2.084   2.310 -0.4169 -0.1908 -0.3170
 9329SOL    HW139620   0.636   2.088   2.219 -3.8686  0.8653 -1.3720
 9329SOL    HW239621   0.681   2.037   2.346 -1.2358 -0.4017  1.0776
 9330SOL     OW39622   0.310   3.371   3.538 -0.3510  0.5798  0.0012
 9330SOL    HW139623   0.391   3.412   3.506  0.7557 -0.2398  1.7571
 9330SOL    HW239624   0.262   3.377   3.456 -1.9192  0.0770  0.8947
 9331SOL     OW39625   1.326   2.554  10.630 -0.7038 -0.1679 -0.1337
 9331SOL    HW139626   1.333   2.536  10.724 -1.2183 -1.9204 -0.4342
 9331SOL    HW239627   1.408   2.604  10.626  0.3540 -1.8271  0.7474
 9332SOL     OW39628   0.104   3.823   8.876 -0.1000 -0.0356 -0.2055
 9332SOL    HW139629   0.102   3.918   8.863 -1.4573 -0.3364 -2.0583
 9332SOL    HW239630   0.141   3.822   8.965 -1.5799  1.8676  0.4406
 9333SOL     OW39631   0.139   3.407   2.402  0.7852  0.4429 -0.0339
 9333SOL    HW139632   0.179   3.377   2.483  0.0935 -1.7092 -0.4989
 9333SOL    HW239633   0.096   3.488   2.429  0.8906  1.0124 -1.5872
 9334SOL     OW39634   1.773   2.215   4.873  0.4332  0.7295  0.0000
 9334SOL    HW139635   1.773   2.120   4.888  1.7629  0.4893 -1.5993
 9334SOL    HW239636   1.692   2.227   4.923  0.0988  1.8173 -0.7880
 9335SOL     OW39637   2.605   4.265   7.910 -0.6143 -0.0786  0.3250
 9335SOL    HW139638   2.601   4.316   7.828 -0.4018  1.3540  1.1991
 9335SOL    HW239639   2.685   4.303   7.948 -1.4068  0.0598  1.8524
 9336SOL     OW39640   4.084   4.710   2.656 -0.1820 -0.1591  0.6246
 9336SOL    HW139641   4.157   4.651   2.674 -0.0423  0.1041  0.9167
 9336SOL    HW239642   4.079   0.023   2.738  0.5796  0.1137  0.5095
 9337SOL     OW39643   1.201   3.644  15.258  0.6355 -0.2274  0.1371
 9337SOL    HW139644   1.121   3.670  15.212  0.3010  0.1966  0.9675
 9337SOL    HW239645   1.214   3.703  15.332 -1.4833  1.4567 -0.8395
 9338SOL     OW39646   1.993   2.049  13.807  0.6400  0.0636 -0.4673
 9338SOL    HW139647   2.075   2.098  13.803  0.0079  1.1701  0.2190
 9338SOL    HW239648   1.988   2.006  13.722  2.4190  0.8581 -0.9712
 9339SOL     OW39649   0.081   0.155   1.507 -0.0026  0.2485  0.3454
 9339SOL    HW139650   0.111   0.193   1.589 -1.1077 -0.4182  1.0600
 9339SOL    HW239651   0.002   0.105   1.530  0.0737  0.3401  0.8108
 9340SOL     OW39652   4.286   0.942   3.932 -0.2544  0.3093 -0.4306
 9340SOL    HW139653   4.257   0.858   3.968 -1.1553  1.0810  0.6638
 9340SOL    HW239654   4.205   0.984   3.903 -1.1470 -0.4648  0.9745
 9341SOL     OW39655   2.750   4.100   4.335  0.6515 -0.2861  0.0284
 9341SOL    HW139656   2.713   4.031   4.281  0.7556  1.4193 -2.2035
 9341SOL    HW239657   2.708   4.179   4.300 -1.0594 -1.4265 -0.4412
 9342SOL     OW39658   2.536   1.459   7.323 -0.8523 -0.6545 -0.4285
 9342SOL    HW139659   2.486   1.525   7.275 -0.6651 -2.5239 -3.2092
 9342SOL    HW239660   2.506   1.486   7.409  1.3109  1.1289 -0.2241
 9343SOL     OW39661   1.948   0.982   6.442 -0.4735  0.3498 -0.1607
 9343SOL    HW139662   1.882   0.949   6.502 -1.2236 -0.5399 -1.4719
 9343SOL    HW239663   1.960   0.905   6.386 -1.2986  0.3607 -0.3399
 9344SOL     OW39664   3.272   4.293   7.269  0.7407 -0.5909  0.1440
 9344SOL    HW139665   3.318   4.344   7.335 -0.2565 -1.4955  1.5249
 9344SOL    HW239666   3.196   4.350   7.255  1.0026 -0.3736 -0.4083
 9345SOL     OW39667   1.437   3.001   4.561 -0.2899  0.3472 -0.2993
 9345SOL    HW139668   1.377   2.929   4.541  1.6538 -1.6423  1.1031
 9345SOL    HW239669   1.484   3.007   4.478 -2.6112  0.8048 -1.5702
 9346SOL     OW39670   1.009   4.178   5.588  0.8359  0.3424 -0.7977
 9346SOL    HW139671   0.938   4.115   5.595  0.2733  1.1390  0.7566
 9346SOL    HW239672   1.037   4.174   5.680  1.3087  0.6557 -0.9274
 9347SOL     OW39673   0.520   4.021   5.500 -0.0594 -0.3063  0.3996
 9347SOL    HW139674   0.440   4.058   5.463 -1.9340 -3.3732  1.3817
 9347SOL    HW239675   0.586   4.035   5.433  0.3342 -0.6024  0.7227
 9348SOL     OW39676   0.498   4.232   3.235 -0.0645  0.7275  0.1994
 9348SOL    HW139677   0.406   4.208   3.245 -0.1507  1.2514  0.6600
 9348SOL    HW239678   0.507   4.327   3.241  1.0327  0.6286  0.1980
 9349SOL     OW39679   0.684   1.732  11.119 -0.3025 -0.3262  0.0441
 9349SOL    HW139680   0.693   1.698  11.030  2.0701 -0.0947  0.2053
 9349SOL    HW239681   0.589   1.740  11.110 -0.2407 -0.8450 -1.0771
 9350SOL     OW39682   2.982   0.236   2.806 -0.2981 -0.4865 -0.4492
 9350SOL    HW139683   2.935   0.300   2.752 -0.0062  0.1018 -0.0075
 9350SOL    HW239684   2.923   0.161   2.797  0.2604 -0.7129 -2.2360
 9351SOL     OW39685   2.521   4.672   4.171 -0.2471 -0.1854  0.3887
 9351SOL    HW139686   2.485   4.671   4.082  3.3358  1.7963 -1.0655
 9351SOL    HW239687   2.585   0.006   4.159  2.9090 -3.2880 -1.0634
 9352SOL     OW39688   2.796   0.605  14.795 -0.5171 -0.2419 -0.1344
 9352SOL    HW139689   2.880   0.649  14.794 -0.2394 -0.7634  0.0076
 9352SOL    HW239690   2.826   0.514  14.797  1.8269  0.5675  0.7784
 9353SOL     OW39691   4.297   3.817   2.548 -0.4885 -0.6584  0.1294
 9353SOL    HW139692   4.271   3.758   2.477  1.2058 -3.0398  1.4554
 9353SOL    HW239693   4.247   3.895   2.527 -1.3381 -2.0718 -3.0755
 9354SOL     OW39694   2.844   0.553   4.462 -0.0989 -0.1049  0.4816
 9354SOL    HW139695   2.830   0.571   4.369 -1.7966 -0.4937  0.6733
 9354SOL    HW239696   2.780   0.483   4.475  0.7538 -0.3754  3.2926
 9355SOL     OW39697   1.971   1.250  13.328 -0.2883 -0.2176 -0.3098
 9355SOL    HW139698   1.937   1.243  13.417 -2.3590  2.9708 -0.8218
 9355SOL    HW239699   1.945   1.337  13.297 -1.0169 -0.8204 -1.4021
 9356SOL     OW39700   2.140   2.752   5.920  0.0335  0.2208 -0.0284
 9356SOL    HW139701   2.107   2.731   6.007  0.6334  0.9477  0.3737
 9356SOL    HW239702   2.225   2.708   5.919  0.0792  0.2621  1.5678
 9357SOL     OW39703   3.094   0.556   5.383  0.4986  0.1159  0.2741
 9357SOL    HW139704   3.029   0.613   5.424 -2.5038 -1.1777 -2.7697
 9357SOL    HW239705   3.128   0.603   5.307  1.1122 -1.4117 -0.3988
 9358SOL     OW39706   0.708   3.821  13.977 -0.1862  0.4205 -0.1268
 9358SOL    HW139707   0.670   3.749  13.926 -0.2557 -0.0045  0.5223
 9358SOL    HW239708   0.672   3.895  13.928 -0.9551 -1.0395 -1.7753
 9359SOL     OW39709   0.443   1.586   5.590 -0.5294 -0.4647  0.0756
 9359SOL    HW139710   0.432   1.648   5.518  1.0576 -0.9170 -0.5444
 9359SOL    HW239711   0.454   1.643   5.667 -0.0022 -1.3989  0.6897
 9360SOL     OW39712   3.151   2.854   5.163  0.3551  0.0245  0.4645
 9360SOL    HW139713   3.175   2.916   5.233  0.6221  0.4346  0.0098
 9360SOL    HW239714   3.114   2.914   5.098  1.1926 -0.0588 -0.0854
 9361SOL     OW39715   0.661   3.509  12.020  0.0710  0.2941  0.0230
 9361SOL    HW139716   0.719   3.502  12.096 -0.4053  0.9908  0.4539
 9361SOL    HW239717   0.577   3.486  12.062 -0.5271  0.0313 -1.3304
 9362SOL     OW39718   4.107   1.180  12.631  0.2407  0.0345  0.0744
 9362SOL    HW139719   4.182   1.138  12.675  0.9233 -0.1102 -1.2191
 9362SOL    HW239720   4.137   1.183  12.540  0.7568 -1.5748  0.1823
 9363SOL     OW39721   0.804   0.529   6.725  0.0590  0.3836  0.5185
 9363SOL    HW139722   0.867   0.513   6.796 -0.2145 -4.3777 -0.2782
 9363SOL    HW239723   0.756   0.596   6.772  1.5878  0.0743  2.5344
 9364SOL     OW39724   3.563   4.199   7.853 -0.8131 -0.0341 -0.0264
 9364SOL    HW139725   3.540   4.212   7.945 -0.6532  0.5846 -0.0756
 9364SOL    HW239726   3.630   4.131   7.864 -1.9159 -1.4658 -2.1833
 9365SOL     OW39727   4.568   1.392   7.014  0.5655 -0.2811 -0.4112
 9365SOL    HW139728   4.609   1.442   6.942  0.5015 -2.3370 -1.8749
 9365SOL    HW239729   4.551   1.466   7.073  1.1850 -0.6160  0.1905
 9366SOL     OW39730   3.267   0.702   7.542 -0.0488  0.1847  0.3135
 9366SOL    HW139731   3.266   0.607   7.551 -0.1462  0.3221  1.8192
 9366SOL    HW239732   3.322   0.712   7.465  2.5498  1.1217  2.2918
 9367SOL     OW39733   1.970   0.807   5.836 -0.0689  0.5283  0.5763
 9367SOL    HW139734   2.013   0.892   5.846  2.4298 -0.5372 -1.0220
 9367SOL    HW239735   2.025   0.771   5.767 -1.1334 -1.8064  0.9482
 9368SOL     OW39736   0.350   4.722   3.139 -0.0524 -0.2245 -0.2396
 9368SOL    HW139737   0.257   4.702   3.154 -0.3743  0.7617 -0.8763
 9368SOL    HW239738   0.360   0.072   3.181  0.6156 -1.3803  1.9296
 9369SOL     OW39739   4.152   4.188   5.549 -0.0085 -0.4951 -0.1379
 9369SOL    HW139740   4.117   4.243   5.620 -2.4441 -0.9757 -0.9543
 9369SOL    HW239741   4.110   4.103   5.559  0.5489 -0.8655 -0.9743
 9370SOL     OW39742   0.657   1.881   7.673  0.1453  0.3140 -0.0336
 9370SOL    HW139743   0.712   1.929   7.610 -2.0143  1.8975 -0.7267
 9370SOL    HW239744   0.571   1.904   7.638 -0.2725 -0.8032  0.2478
 9371SOL     OW39745   4.363   3.264   8.390 -0.2963 -0.3073  0.0793
 9371SOL    HW139746   4.335   3.347   8.429 -2.4384 -0.6134 -0.8425
 9371SOL    HW239747   4.292   3.250   8.328  0.6020 -1.3651 -0.7145
 9372SOL     OW39748   1.180   1.345   7.062 -0.2910  0.1979 -0.3919
 9372SOL    HW139749   1.097   1.297   7.070  0.4690 -1.2004 -0.9366
 9372SOL    HW239750   1.155   1.419   7.117  0.5096 -0.2754  0.6135
 9373SOL     OW39751   2.801   4.465   3.825  0.2565  0.4735 -0.1264
 9373SOL    HW139752   2.837   4.377   3.826  0.2803  0.4623 -1.4106
 9373SOL    HW239753   2.875   4.506   3.781  0.9273 -1.0071 -0.3828
 9374SOL     OW39754   0.851   1.921   4.718 -0.1051  0.1316 -0.3584
 9374SOL    HW139755   0.942   1.920   4.687 -0.3509  1.7286 -1.0871
 9374SOL    HW239756   0.864   2.013   4.742 -1.3046 -0.2319  1.6974
 9375SOL     OW39757   2.384   2.113   7.010  0.0565  0.2852 -0.2045
 9375SOL    HW139758   2.365   2.201   6.980  1.8055  0.3888 -1.0422
 9375SOL    HW239759   2.306   2.071   6.975 -0.0463  0.6325 -0.3860
 9376SOL     OW39760   1.826   0.580   2.333 -0.2764 -0.4063 -0.7987
 9376SOL    HW139761   1.754   0.637   2.361 -0.1222 -0.1356 -0.9533
 9376SOL    HW239762   1.815   0.570   2.238 -0.2917 -0.6652 -0.7686
 9377SOL     OW39763   0.203   2.699   7.812  0.3141 -0.1917 -0.3185
 9377SOL    HW139764   0.222   2.605   7.815 -2.5573 -0.6813  3.3096
 9377SOL    HW239765   0.269   2.733   7.872  0.6778  1.6042 -1.7653
 9378SOL     OW39766   0.516   2.475   2.970 -0.0170 -0.2331 -0.6108
 9378SOL    HW139767   0.509   2.562   3.009  2.1029 -0.2526 -0.1977
 9378SOL    HW239768   0.444   2.484   2.906  0.0037  0.1769 -0.5758
 9379SOL     OW39769   3.576   2.487  10.641  0.4119  0.4503 -0.4498
 9379SOL    HW139770   3.589   2.430  10.565  0.0419  0.8653 -0.8265
 9379SOL    HW239771   3.494   2.530  10.615 -0.5310  0.7171  2.9230
 9380SOL     OW39772   2.535   4.509   5.614  0.4438  0.0409  0.5680
 9380SOL    HW139773   2.522   4.603   5.602 -2.2401 -0.6514 -2.0289
 9380SOL    HW239774   2.575   4.506   5.701 -0.4344  0.9201  1.0101
 9381SOL     OW39775   2.209   4.116   6.415  0.0689 -0.1257  0.0542
 9381SOL    HW139776   2.257   4.069   6.482 -0.9017 -0.9475  0.1725
 9381SOL    HW239777   2.124   4.073   6.424  0.5063 -0.9147  0.4428
 9382SOL     OW39778   2.370   2.415   1.440  0.4638  0.1626 -0.2850
 9382SOL    HW139779   2.433   2.357   1.398  1.3529  0.1643  1.0507
 9382SOL    HW239780   2.377   2.379   1.529 -1.8749 -1.6186 -0.8346
 9383SOL     OW39781   2.661   2.898   3.660  0.3184 -0.4968 -0.0764
 9383SOL    HW139782   2.715   2.823   3.636 -0.1112 -0.5931 -0.7214
 9383SOL    HW239783   2.609   2.905   3.581 -0.8354  1.9166  0.9043
 9384SOL     OW39784   2.941   4.726   7.231  0.3578 -0.3779  0.6241
 9384SOL    HW139785   2.981   4.644   7.261 -2.1638 -3.0845 -3.3974
 9384SOL    HW239786   2.883   4.690   7.164 -0.0355 -0.0750  0.8034
 9385SOL     OW39787   4.100   3.024   5.457 -0.3433  0.0869 -0.2078
 9385SOL    HW139788   4.052   3.097   5.418  1.7248  0.0445 -2.8690
 9385SOL    HW239789   4.080   2.971   5.380  0.3837 -0.5730  0.0506
 9386SOL     OW39790   0.895   2.025   0.233 -0.2107 -0.0374  0.1981
 9386SOL    HW139791   0.836   2.090   0.196  0.6685 -0.1922 -1.4800
 9386SOL    HW239792   0.836   1.958   0.269 -1.9514 -0.3423 -3.2296
 9387SOL     OW39793   1.675   1.608  15.817 -0.3560  0.4275 -0.0921
 9387SOL    HW139794   1.690   1.579  15.727 -1.5948  0.1245 -0.2042
 9387SOL    HW239795   1.644   1.697  15.805 -1.1887  0.1539  0.0409
 9388SOL     OW39796   1.669   0.215   3.445  0.0694 -0.5408 -0.0357
 9388SOL    HW139797   1.755   0.216   3.404 -0.4983 -0.6971 -1.2475
 9388SOL    HW239798   1.614   0.236   3.370  0.5954  0.8040 -0.0367
 9389SOL     OW39799   0.142   1.976   7.604  0.2564  0.3480  0.5584
 9389SOL    HW139800   0.098   1.894   7.579  1.6481 -0.5133  0.9586
 9389SOL    HW239801   0.067   2.029   7.633  0.3005  0.7983 -0.1536
 9390SOL     OW39802   0.919   2.143  14.958 -0.4210 -0.4012  0.2004
 9390SOL    HW139803   0.876   2.207  15.014  1.7504  0.7678  0.5440
 9390SOL    HW239804   0.902   2.061  15.005  0.5755 -0.8136 -0.1429
 9391SOL     OW39805   0.529   1.604   9.510 -0.3276  0.0116 -0.0016
 9391SOL    HW139806   0.465   1.648   9.455  1.7020  1.3575 -1.2503
 9391SOL    HW239807   0.499   1.642   9.593  0.9046  0.4481  0.2367
 9392SOL     OW39808   2.495   2.422  12.216  0.2875  0.3154  0.1939
 9392SOL    HW139809   2.451   2.344  12.182  0.6101 -1.2398  3.3495
 9392SOL    HW239810   2.486   2.488  12.147  0.7512  2.3825  2.0962
 9393SOL     OW39811   1.965   0.595   4.644  0.5772  0.2203  0.0255
 9393SOL    HW139812   1.871   0.595   4.628  0.5285  1.2937  0.2904
 9393SOL    HW239813   1.994   0.570   4.556 -0.3170 -1.0687  0.1036
 9394SOL     OW39814   4.591   2.366   0.771 -0.2716  0.5866 -0.3729
 9394SOL    HW139815   4.650   2.301   0.733 -1.5593 -1.4350  1.0375
 9394SOL    HW239816   4.508   2.321   0.757 -0.3560  0.7604 -0.4295
 9395SOL     OW39817   3.093   0.123  15.642 -0.4432 -0.2289 -0.6757
 9395SOL    HW139818   3.144   0.138  15.563 -0.4529  0.2598 -0.5854
 9395SOL    HW239819   3.015   0.086  15.601 -0.4227 -0.0361 -0.8876
 9396SOL     OW39820   3.837   3.958   9.675  0.0290  0.2234  0.3990
 9396SOL    HW139821   3.767   4.012   9.712 -0.3204 -0.1678  0.3232
 9396SOL    HW239822   3.823   3.963   9.580 -0.3224  0.1009  0.4420
 9397SOL     OW39823   1.278   2.952   8.471 -0.0383 -0.1716  0.1157
 9397SOL    HW139824   1.284   3.008   8.394 -2.6044 -2.5952 -1.8549
 9397SOL    HW239825   1.229   2.879   8.432  0.4493  0.0719 -0.9472
 9398SOL     OW39826   0.800   3.806   3.881 -0.4844 -0.2028 -0.9273
 9398SOL    HW139827   0.892   3.817   3.905 -1.8457  1.8183  3.4530
 9398SOL    HW239828   0.802   3.711   3.880  1.1478 -0.1963  1.3629
 9399SOL     OW39829   4.597   1.702   2.684  0.2664  0.3459 -0.1086
 9399SOL    HW139830   4.538   1.774   2.706  0.6169 -0.7103  4.1765
 9399SOL    HW239831   4.544   1.630   2.648 -0.8198  0.4137  1.3539
 9400SOL     OW39832   2.922   1.603   2.498 -0.0643  0.5136 -0.6592
 9400SOL    HW139833   2.848   1.664   2.496  0.6840  1.4107 -1.3087
 9400SOL    HW239834   2.888   1.524   2.456  0.6596 -0.3966  0.4731
 9401SOL     OW39835   2.202   4.219  12.617 -0.4180  0.2394 -0.1923
 9401SOL    HW139836   2.202   4.217  12.713 -1.6507  0.0589 -0.1996
 9401SOL    HW239837   2.235   4.137  12.582  0.2319  0.5887 -0.3918
 9402SOL     OW39838   3.266   3.737   5.718  1.2021 -0.1606 -0.0279
 9402SOL    HW139839   3.341   3.790   5.745 -0.9117  2.0985  1.4737
 9402SOL    HW239840   3.290   3.646   5.736  2.3747  0.4277  1.3926
 9403SOL     OW39841   0.718   1.661   6.589  0.0322  0.2142  0.1204
 9403SOL    HW139842   0.759   1.734   6.637 -0.5673  0.6970 -0.0927
 9403SOL    HW239843   0.629   1.695   6.582  0.3870  0.8686 -1.1900
 9404SOL     OW39844   2.946   0.490  12.370  0.0215 -0.1364 -0.0620
 9404SOL    HW139845   2.885   0.466  12.439  0.7928 -0.4384  0.5014
 9404SOL    HW239846   3.023   0.435  12.383 -0.3434 -0.5464  0.3496
 9405SOL     OW39847   2.002   3.506  17.726 -0.5237  0.2081 -0.5278
 9405SOL    HW139848   1.914   3.541  17.714  0.0254  2.5285  2.1538
 9405SOL    HW239849   1.985   3.428   0.037 -3.3564  1.2822  0.1622
 9406SOL     OW39850   3.360   4.078   4.008  0.5051 -0.2311 -0.2460
 9406SOL    HW139851   3.380   3.987   3.990  0.2269 -0.1221 -1.0799
 9406SOL    HW239852   3.357   4.115   3.920 -0.3040  0.7536  0.1790
 9407SOL     OW39853   3.913   2.435  10.435 -0.1417  0.2171 -0.3565
 9407SOL    HW139854   3.899   2.529  10.439  1.3005  0.4559 -1.1293
 9407SOL    HW239855   3.828   2.402  10.405 -1.3833  0.4001  2.9023
 9408SOL     OW39856   3.826   4.612   2.596  0.0049 -1.3870  0.0608
 9408SOL    HW139857   3.847   4.561   2.674  1.0760 -0.9193  0.0742
 9408SOL    HW239858   3.903   4.669   2.598  0.8700 -2.6279  1.9353
 9409SOL     OW39859   4.422   3.448  15.530  0.1354 -0.2280  0.8838
 9409SOL    HW139860   4.488   3.394  15.573 -0.1920 -0.7532  0.7172
 9409SOL    HW239861   4.381   3.484  15.609  0.1447 -1.0256  1.2473
 9410SOL     OW39862   1.346   3.671  13.784  0.1428 -0.1074 -0.4650
 9410SOL    HW139863   1.330   3.716  13.701 -0.0565  1.0926  0.2231
 9410SOL    HW239864   1.301   3.588  13.768 -0.6081 -0.0968  1.6009
 9411SOL     OW39865   4.530   0.999   1.592  0.4856  0.1385 -0.0929
 9411SOL    HW139866   4.485   0.918   1.616  1.6946 -0.1481  1.2490
 9411SOL    HW239867   4.560   1.031   1.677  2.1901 -1.5803 -0.0408
 9412SOL     OW39868   1.196   3.457   8.447  0.4284 -0.2992  0.4426
 9412SOL    HW139869   1.142   3.447   8.368  1.6323 -3.0626 -0.0195
 9412SOL    HW239870   1.138   3.490   8.515  1.6191  2.1462  0.2789
 9413SOL     OW39871   4.594   1.838   2.337  0.3243 -0.2515 -0.5090
 9413SOL    HW139872   4.510   1.873   2.307  0.0940  0.3685  0.8187
 9413SOL    HW239873   4.575   1.836   2.431  1.1169  0.9697 -0.3307
 9414SOL     OW39874   0.967   2.682  15.309 -0.6348  0.1158  0.6812
 9414SOL    HW139875   0.967   2.586  15.310 -0.7902  0.0911 -2.0331
 9414SOL    HW239876   0.999   2.697  15.220 -1.7918  0.0636  0.2523
 9415SOL     OW39877   3.692   3.409   5.204 -0.3775  0.4121 -0.5074
 9415SOL    HW139878   3.634   3.366   5.141 -0.4863  1.2918 -1.0007
 9415SOL    HW239879   3.757   3.426   5.136 -0.3984 -1.8418 -1.1108
 9416SOL     OW39880   4.626   2.071   5.812 -0.0067  0.6094  0.1712
 9416SOL    HW139881   4.602   2.153   5.769  1.3800  0.2655 -1.2488
 9416SOL    HW239882   4.568   2.078   5.888 -0.6023  0.8278 -0.3074
 9417SOL     OW39883   2.075   2.994   5.559 -0.0794  0.3896 -0.1469
 9417SOL    HW139884   2.145   2.943   5.519  0.7503  0.7392  0.8302
 9417SOL    HW239885   2.024   3.000   5.479 -1.4731 -1.4508  0.6248
 9418SOL     OW39886   3.250   3.611   8.976 -0.2518  0.1984  0.3268
 9418SOL    HW139887   3.324   3.588   8.919  0.4467  1.4428  0.7199
 9418SOL    HW239888   3.300   3.662   9.040  0.3201  0.5271 -0.3781
 9419SOL     OW39889   1.572   3.157   7.376 -0.3546 -0.3818 -0.1411
 9419SOL    HW139890   1.567   3.204   7.293  2.9083  2.1428  1.0954
 9419SOL    HW239891   1.621   3.077   7.356 -2.1432 -1.5851  0.3191
 9420SOL     OW39892   3.087   2.355   7.157  0.0473  0.5155  0.5554
 9420SOL    HW139893   3.068   2.445   7.184 -1.2268  0.1110  0.9854
 9420SOL    HW239894   3.144   2.317   7.224 -0.6983  0.8908  1.3860
 9421SOL     OW39895   0.813   0.318   9.174 -0.7629  0.4026  0.1768
 9421SOL    HW139896   0.826   0.413   9.163  3.2880 -0.0539  1.1806
 9421SOL    HW239897   0.868   0.306   9.097 -1.4186  4.1900 -0.9127
 9422SOL     OW39898   1.814   4.656   2.112  0.1272  0.2316 -0.1962
 9422SOL    HW139899   1.839   4.577   2.065  0.3456  1.0143 -1.4017
 9422SOL    HW239900   1.777   4.712   2.044 -0.4435  0.9704  0.7106
 9423SOL     OW39901   3.425   3.002   9.141 -0.4073 -0.4684  0.8385
 9423SOL    HW139902   3.400   2.911   9.125 -0.4370 -0.6552  1.9302
 9423SOL    HW239903   3.452   3.024   9.052  0.7259  0.1762  1.3336
 9424SOL     OW39904   1.936   2.436   6.233 -0.6239 -0.0014  0.1042
 9424SOL    HW139905   1.926   2.350   6.274  2.6814 -0.7823 -0.7319
 9424SOL    HW239906   1.897   2.417   6.148  2.8907  2.3661 -2.0365
 9425SOL     OW39907   2.838   0.299   9.812  0.0200 -0.5924 -0.0767
 9425SOL    HW139908   2.831   0.386   9.773 -1.9408 -0.8363 -0.2263
 9425SOL    HW239909   2.873   0.247   9.739 -0.5620 -1.7440  0.4626
 9426SOL     OW39910   0.743   2.410   8.342  0.5464  0.2418  0.0342
 9426SOL    HW139911   0.828   2.398   8.298  0.4955  2.3359 -0.6232
 9426SOL    HW239912   0.707   2.471   8.278  0.5661  0.8659  0.6253
 9427SOL     OW39913   0.897   3.076   1.103 -0.0353  0.0243 -0.3405
 9427SOL    HW139914   0.813   3.107   1.137 -0.1427  1.9271 -2.3036
 9427SOL    HW239915   0.883   2.982   1.107  1.0235 -0.0929  0.4863
 9428SOL     OW39916   4.157   4.492   8.932  0.8437 -0.2171  0.4053
 9428SOL    HW139917   4.140   4.468   9.023  0.7302 -1.6433  0.0053
 9428SOL    HW239918   4.069   4.512   8.902  0.7294 -2.2352 -0.6221
 9429SOL     OW39919   0.434   2.592   8.352 -0.1940 -0.3776  0.1151
 9429SOL    HW139920   0.507   2.636   8.308 -0.1170 -2.8220 -2.1768
 9429SOL    HW239921   0.470   2.562   8.436  0.4402  0.0226 -0.0093
 9430SOL     OW39922   2.862   3.805   1.254  0.1690  0.0102 -0.4889
 9430SOL    HW139923   2.925   3.745   1.295 -0.3788 -1.9104 -2.4511
 9430SOL    HW239924   2.903   3.804   1.167  1.3054  0.8942  0.0335
 9431SOL     OW39925   3.465   1.546   9.102 -0.5094  0.0357  0.3061
 9431SOL    HW139926   3.390   1.501   9.063 -0.4287  0.0150  0.1737
 9431SOL    HW239927   3.463   1.630   9.056  1.1983 -1.2268 -2.0597
 9432SOL     OW39928   1.654   0.077   8.860  0.3512 -0.4013 -0.0350
 9432SOL    HW139929   1.683   0.073   8.951 -0.5885 -0.9787  0.2348
 9432SOL    HW239930   1.678   0.164   8.830 -2.0132  0.7468  1.4299
 9433SOL     OW39931   0.674   0.981   8.945  0.5096 -0.3690  0.4710
 9433SOL    HW139932   0.610   0.936   8.890 -0.6491  3.0786 -1.0251
 9433SOL    HW239933   0.672   0.927   9.024  0.7165 -1.0474  0.0126
 9434SOL     OW39934   3.320   1.974   4.571  0.6613  0.7079  0.2999
 9434SOL    HW139935   3.284   2.049   4.522 -0.3755 -0.6731 -1.0444
 9434SOL    HW239936   3.315   2.019   4.656 -0.3073  1.6650 -0.2584
 9435SOL     OW39937   1.250   3.191   8.294  0.1823 -0.0236  0.0146
 9435SOL    HW139938   1.249   3.251   8.369 -0.8601 -1.9168  1.5039
 9435SOL    HW239939   1.169   3.228   8.259  1.8409  1.4584 -2.3101
 9436SOL     OW39940   3.302   1.067   7.845 -0.3289 -0.3563  0.1209
 9436SOL    HW139941   3.341   1.048   7.931  2.5894 -4.3786 -2.0716
 9436SOL    HW239942   3.312   0.977   7.813  1.0379 -0.5575  1.0772
 9437SOL     OW39943   4.257   3.276   2.303  0.1758 -0.2914 -0.1570
 9437SOL    HW139944   4.284   3.328   2.228 -1.9499 -0.2382 -0.8658
 9437SOL    HW239945   4.317   3.303   2.373  0.3844  0.3040 -0.5716
 9438SOL     OW39946   4.497   1.743   4.471  0.4035  0.4160  0.1996
 9438SOL    HW139947   4.427   1.771   4.411  1.5060 -1.0309 -1.7582
 9438SOL    HW239948   4.459   1.783   4.549 -1.4728 -0.1945 -0.3808
 9439SOL     OW39949   3.500   3.999   9.870 -0.2854  0.1289 -0.3653
 9439SOL    HW139950   3.557   3.924   9.887 -1.4880 -0.6140  0.4317
 9439SOL    HW239951   3.465   3.978   9.783  1.0113 -2.4245 -0.2855
 9440SOL     OW39952   1.207   2.654  16.149 -0.3549 -0.2858 -0.2002
 9440SOL    HW139953   1.238   2.738  16.117 -0.0521 -0.1284  0.4985
 9440SOL    HW239954   1.114   2.678  16.152 -0.5185 -1.0598  1.1668
 9441SOL     OW39955   0.244   4.655   4.167 -0.2881 -0.5653 -0.0046
 9441SOL    HW139956   0.159   4.611   4.161  2.1839 -4.6758 -5.1583
 9441SOL    HW239957   0.205   0.007   4.164 -1.1071 -0.9243  0.1594
 9442SOL     OW39958   3.287   0.918  14.767 -0.2318 -0.2241  0.0359
 9442SOL    HW139959   3.274   0.859  14.841 -2.2851  1.1732  0.7739
 9442SOL    HW239960   3.251   0.869  14.693  2.8575 -0.0719 -1.5928
 9443SOL     OW39961   0.023   2.430   2.319  0.6786  0.2551  0.6643
 9443SOL    HW139962   4.721   2.518   2.322 -0.3924 -0.1905  0.2257
 9443SOL    HW239963   0.118   2.441   2.317  0.7862 -0.6104  0.8608
 9444SOL     OW39964   1.843   1.400   0.895 -0.0865  0.1568  0.7124
 9444SOL    HW139965   1.931   1.362   0.902  0.1299  0.2595 -1.3969
 9444SOL    HW239966   1.806   1.392   0.983  0.6978  0.9888  1.1131
 9445SOL     OW39967   4.032   1.839   6.045 -0.2594 -0.1020 -0.0261
 9445SOL    HW139968   3.972   1.773   6.080 -0.4548 -0.2573 -0.6592
 9445SOL    HW239969   4.059   1.877   6.129  1.9225 -0.3725 -0.6078
 9446SOL     OW39970   1.516   3.363  13.399  0.0839  0.1682  0.6045
 9446SOL    HW139971   1.442   3.353  13.339  0.7518 -0.1996 -0.1525
 9446SOL    HW239972   1.589   3.380  13.339  0.3588 -0.6394  0.7062
 9447SOL     OW39973   4.641   3.823   7.245 -0.0346  0.2290  0.0389
 9447SOL    HW139974   4.601   3.777   7.319  1.1710 -0.2751  0.3782
 9447SOL    HW239975   4.734   3.830   7.267 -0.0314 -0.0171  0.1066
 9448SOL     OW39976   1.441   2.740  11.013  0.1350  0.0039  0.5517
 9448SOL    HW139977   1.444   2.657  10.966 -0.1174  0.5372 -0.4000
 9448SOL    HW239978   1.512   2.790  10.974  0.5645 -0.6309  0.5199
 9449SOL     OW39979   3.988   2.040   2.654  0.0171  0.3894 -0.0256
 9449SOL    HW139980   4.016   1.970   2.713 -0.4212 -0.4498 -0.8102
 9449SOL    HW239981   4.002   2.114   2.713  1.0588 -1.2724  1.8481
 9450SOL     OW39982   0.309   2.277   6.327  0.5070 -0.1827 -0.0863
 9450SOL    HW139983   0.288   2.370   6.322  1.6170  0.0296 -0.7005
 9450SOL    HW239984   0.232   2.231   6.295 -1.2089  0.7031  2.6857
 9451SOL     OW39985   4.167   0.114   3.858  0.3580 -0.1987 -0.4343
 9451SOL    HW139986   4.145   0.074   3.773  0.4335 -0.4111 -0.3541
 9451SOL    HW239987   4.082   0.101   3.899 -0.0124 -0.6624 -1.3546
 9452SOL     OW39988   3.077   0.518   2.438  0.1908  0.0193  0.1393
 9452SOL    HW139989   3.145   0.544   2.500 -0.6332 -0.6023  1.3059
 9452SOL    HW239990   2.994   0.511   2.486  0.4706  0.0818  0.6338
 9453SOL     OW39991   0.056   0.013   6.797  0.2054 -0.0734 -0.3878
 9453SOL    HW139992   0.068   0.030   6.703 -1.0626 -2.1655 -0.9298
 9453SOL    HW239993   0.143   0.038   6.825 -0.6101  1.8825  0.3796
 9454SOL     OW39994   3.950   1.026   4.046 -0.3769 -0.1567  0.1889
 9454SOL    HW139995   3.943   0.986   3.959  0.3789  2.4821 -1.0909
 9454SOL    HW239996   3.862   1.055   4.071 -1.4136 -4.6961  1.7722
 9455SOL     OW39997   0.646   2.631   4.998 -0.1971  0.1130  0.2033
 9455SOL    HW139998   0.729   2.678   5.004 -0.1943 -0.1688  2.0956
 9455SOL    HW239999   0.621   2.607   5.087  0.8333 -2.0588 -0.0955
 9456SOL     OW40000   2.827   2.427   3.818  0.3847  0.2621 -0.0806
 9456SOL    HW140001   2.745   2.417   3.865  0.8799  0.7874  0.8932
 9456SOL    HW240002   2.811   2.355   3.756 -0.1763 -0.2412  0.6549
 9457SOL     OW40003   2.268   4.160   2.469  0.3286  0.4751  0.5285
 9457SOL    HW140004   2.355   4.170   2.431  0.3600  1.4688  0.8459
 9457SOL    HW240005   2.244   4.250   2.490  0.2559  1.1445 -2.4401
 9458SOL     OW40006   0.385   3.219   3.742  0.0413 -0.1197 -0.1103
 9458SOL    HW140007   0.459   3.200   3.684  0.8835 -0.1310  0.9801
 9458SOL    HW240008   0.333   3.257   3.671 -0.4823  1.1623  0.9560
 9459SOL     OW40009   3.501   1.049  11.093  0.0823 -0.4145  0.4248
 9459SOL    HW140010   3.463   0.975  11.140  1.1829 -1.2832 -0.0601
 9459SOL    HW240011   3.535   1.102  11.165  1.6711 -0.8480 -0.0199
 9460SOL     OW40012   2.878   0.840   2.218  0.4968  0.1722  0.2469
 9460SOL    HW140013   2.946   0.776   2.196  1.3068  0.9095  0.6043
 9460SOL    HW240014   2.828   0.839   2.137 -0.1484 -0.9034  0.6497
 9461SOL     OW40015   3.194   4.648   8.118 -0.2527  0.0387  0.3576
 9461SOL    HW140016   3.279   4.606   8.105 -0.5510  0.2462 -2.4179
 9461SOL    HW240017   3.148   4.564   8.126  0.7334 -0.3720  1.7198
 9462SOL     OW40018   2.744   4.620   7.845 -0.5298 -0.8219 -0.5415
 9462SOL    HW140019   2.739   4.707   7.807  3.2340 -0.3804 -0.0520
 9462SOL    HW240020   2.766   4.647   7.934  1.0928  2.1152 -1.8356
 9463SOL     OW40021   3.716   2.664   2.955  0.1605 -0.0740 -0.1819
 9463SOL    HW140022   3.806   2.695   2.955  0.4940 -1.0471  1.5254
 9463SOL    HW240023   3.692   2.663   3.048 -0.3362 -3.2645 -0.3391
 9464SOL     OW40024   1.607   2.487   6.596 -1.0189  0.1611  0.2225
 9464SOL    HW140025   1.640   2.575   6.613 -0.5237 -0.3231  1.6965
 9464SOL    HW240026   1.524   2.510   6.554  0.1495 -0.5494 -2.5081
 9465SOL     OW40027   3.478   0.704   3.385  0.0974  0.3995 -0.8000
 9465SOL    HW140028   3.560   0.725   3.341  0.3832  1.8027  0.3782
 9465SOL    HW240029   3.463   0.613   3.361 -0.6542  0.6428 -1.2431
 9466SOL     OW40030   2.080   3.898   2.759  0.2749  0.2560 -0.6693
 9466SOL    HW140031   2.081   3.993   2.762 -0.4727  0.2649 -0.8205
 9466SOL    HW240032   2.172   3.888   2.734  0.8000  1.2426  0.9113
 9467SOL     OW40033   1.391   1.355   7.249  0.1560  0.3737 -0.0310
 9467SOL    HW140034   1.328   1.353   7.177 -0.4491 -0.1834  0.5174
 9467SOL    HW240035   1.475   1.375   7.207  0.4162  0.1379  0.3864
 9468SOL     OW40036   2.062   1.063   6.149  0.5244 -0.6974  0.4518
 9468SOL    HW140037   2.079   1.059   6.055 -0.4434  0.0915  0.2279
 9468SOL    HW240038   2.023   0.981   6.178  1.1802 -0.6902  1.3255
 9469SOL     OW40039   0.400   3.856  17.464  0.1474  0.6039 -0.5646
 9469SOL    HW140040   0.345   3.908  17.406  1.4629  1.0222 -1.4344
 9469SOL    HW240041   0.340   3.781  17.468  0.8095  0.0763 -0.4201
 9470SOL     OW40042   4.525   3.012   8.104  0.1364  0.3055  0.0321
 9470SOL    HW140043   4.543   3.009   8.198 -1.4238  0.6051  0.3366
 9470SOL    HW240044   4.603   2.966   8.071 -0.6376 -0.6868 -0.4267
 9471SOL     OW40045   1.164   0.129  10.776  0.0128  0.1962 -0.1925
 9471SOL    HW140046   1.154   0.045  10.731  0.9219 -0.5905  1.0565
 9471SOL    HW240047   1.099   0.129  10.847 -0.1408  1.5371 -0.3356
 9472SOL     OW40048   2.649   0.464   0.828 -0.4955  0.0898 -0.0723
 9472SOL    HW140049   2.610   0.525   0.765 -1.8743  1.0827  1.7537
 9472SOL    HW240050   2.699   0.529   0.877 -0.4522 -1.2334  1.6058
 9473SOL     OW40051   0.518   4.698   8.419  0.0677  0.0749 -0.7066
 9473SOL    HW140052   0.504   4.618   8.470 -0.0094  0.3970 -0.2205
 9473SOL    HW240053   0.463   0.018   8.474  0.5277  1.6683 -1.8474
 9474SOL     OW40054   1.225   0.001  15.632 -0.1569  1.1705  0.0826
 9474SOL    HW140055   1.161   0.071  15.618 -0.9387  0.6736  1.1653
 9474SOL    HW240056   1.278   0.008  15.553 -0.2787 -3.6797 -0.4279
 9475SOL     OW40057   2.483   1.986  11.175 -0.4824 -0.1241  0.4091
 9475SOL    HW140058   2.539   1.936  11.115 -1.0800 -0.2750 -0.0168
 9475SOL    HW240059   2.395   1.949  11.167 -0.1231 -1.2035  1.4805
 9476SOL     OW40060   2.103   4.432  11.532 -0.1252  0.0033  0.3906
 9476SOL    HW140061   2.029   4.378  11.561 -0.2659  0.2361  0.4660
 9476SOL    HW240062   2.147   4.356  11.496  0.3235  0.5601 -0.2170
 9477SOL     OW40063   0.975   2.180   2.346  0.7030  0.2244  0.4580
 9477SOL    HW140064   1.040   2.147   2.408  0.7596 -0.6722 -0.0697
 9477SOL    HW240065   0.936   2.253   2.394 -0.5639  0.1888 -0.5082
 9478SOL     OW40066   1.995   3.648   8.210 -0.2235 -0.1829  0.1036
 9478SOL    HW140067   2.065   3.675   8.149 -3.5880  0.2456 -3.5673
 9478SOL    HW240068   1.918   3.680   8.163  0.4080  0.1127 -0.7329
 9479SOL     OW40069   2.843   1.662   6.131 -0.0861 -0.0196  0.1229
 9479SOL    HW140070   2.864   1.641   6.040 -2.8073 -0.7759 -0.3150
 9479SOL    HW240071   2.901   1.610   6.187 -0.5512  0.5996  1.1804
 9480SOL     OW40072   1.957   2.209   2.799 -0.0576 -0.5317 -0.3884
 9480SOL    HW140073   2.013   2.169   2.866 -1.0380 -0.4031  0.5063
 9480SOL    HW240074   1.893   2.252   2.855  0.7831  0.1560  0.0419
 9481SOL     OW40075   1.299   3.880   1.414 -0.4298  0.3904 -0.0707
 9481SOL    HW140076   1.273   3.807   1.470  0.1111  0.5401  0.3808
 9481SOL    HW240077   1.294   3.826   1.335 -1.4670 -0.5498  0.6420
 9482SOL     OW40078   2.532   3.373   5.930 -0.0937 -0.5810  0.1160
 9482SOL    HW140079   2.520   3.279   5.944 -1.4411 -0.2773  0.9892
 9482SOL    HW240080   2.526   3.411   6.018  2.4351  0.8361 -0.3218
 9483SOL     OW40081   1.946   3.735  12.845 -0.5194  0.2909  0.0593
 9483SOL    HW140082   2.022   3.717  12.789 -0.5936  3.5596 -1.1303
 9483SOL    HW240083   1.888   3.670  12.806 -1.7908  0.8310  1.0411
 9484SOL     OW40084   3.077   0.647  14.859  0.1897  0.0563 -0.4147
 9484SOL    HW140085   3.172   0.644  14.852  0.1413 -3.2549  0.5715
 9484SOL    HW240086   3.062   0.705  14.784 -2.7661  2.1436  1.8236
 9485SOL     OW40087   2.944   1.130   2.726  0.2295  0.2330 -0.0903
 9485SOL    HW140088   2.963   1.221   2.749 -1.4026  0.5488  0.0320
 9485SOL    HW240089   2.949   1.089   2.812  0.3745 -0.2023 -0.3051
 9486SOL     OW40090   3.917   4.707   4.640 -0.0742 -0.3890  0.3902
 9486SOL    HW140091   3.886   0.050   4.595  0.2143  0.5435  1.8181
 9486SOL    HW240092   3.835   4.681   4.681 -0.2097 -0.6132 -0.0245
 9487SOL     OW40093   0.271   0.707   1.003  0.4266  0.0808  0.3412
 9487SOL    HW140094   0.222   0.754   0.936  1.5811 -1.0251 -1.2800
 9487SOL    HW240095   0.347   0.765   1.007  0.5575 -0.1302  1.1060
 9488SOL     OW40096   0.271   2.397  13.333 -0.3484 -0.1151  0.5147
 9488SOL    HW140097   0.261   2.468  13.270  0.6016 -0.7944 -0.3904
 9488SOL    HW240098   0.217   2.428  13.406  0.5959 -0.3267  1.3032
 9489SOL     OW40099   0.485   3.845  16.073  0.8036 -0.8492  0.0996
 9489SOL    HW140100   0.429   3.783  16.026 -0.4603 -0.4381  1.0374
 9489SOL    HW240101   0.416   3.911  16.080  1.0900 -0.5335 -0.0847
 9490SOL     OW40102   2.307   1.156  17.613  0.4956  0.1604 -0.6415
 9490SOL    HW140103   2.327   1.155  17.519  2.5496  1.1751 -0.2236
 9490SOL    HW240104   2.277   1.246  17.622  0.6810  0.3042 -1.4386
 9491SOL     OW40105   3.071   0.835   7.134  0.4165  0.0785 -0.3333
 9491SOL    HW140106   3.064   0.827   7.039 -2.2318 -1.0410 -0.0509
 9491SOL    HW240107   3.117   0.918   7.131  1.4339 -0.5161 -1.2781
 9492SOL     OW40108   0.365   4.486   8.239 -0.4190 -1.0447 -0.2165
 9492SOL    HW140109   0.282   4.519   8.272  0.4099  0.1636  0.6684
 9492SOL    HW240110   0.431   4.522   8.299 -2.6704 -0.3902  1.8688
 9493SOL     OW40111   0.438   3.425   5.664 -0.0442 -0.2989  0.1871
 9493SOL    HW140112   0.362   3.451   5.715 -0.5922  0.2262 -0.8993
 9493SOL    HW240113   0.454   3.333   5.682 -0.6394 -0.5440 -0.5050
 9494SOL     OW40114   3.843   0.548   7.615  0.1445  0.7162 -0.6118
 9494SOL    HW140115   3.820   0.550   7.708 -0.3236  0.5937 -0.7236
 9494SOL    HW240116   3.936   0.526   7.623  0.1480 -0.0110 -2.6336
 9495SOL     OW40117   2.206   3.711   0.004  0.4101 -0.7197 -0.1787
 9495SOL    HW140118   2.131   3.651   0.003 -0.0466 -0.1703  1.5246
 9495SOL    HW240119   2.253   3.687  17.666  0.6303 -0.0727 -0.2416
 9496SOL     OW40120   4.122   2.812   7.529  0.2939  0.4718 -0.0402
 9496SOL    HW140121   4.083   2.892   7.493  0.0030  0.2858 -0.1324
 9496SOL    HW240122   4.182   2.855   7.591 -0.4385  0.3835  0.7317
 9497SOL     OW40123   2.124   2.048  17.535  0.3326 -0.3256 -0.1064
 9497SOL    HW140124   2.121   2.132  17.489 -2.0500  0.4163  1.4400
 9497SOL    HW240125   2.211   2.052  17.574 -0.4640 -0.4406  1.6810
 9498SOL     OW40126   0.188   1.136   1.879  0.2853  0.1664  0.5121
 9498SOL    HW140127   0.230   1.223   1.880 -1.4885  1.0306  0.0112
 9498SOL    HW240128   0.234   1.086   1.947  1.9324  0.5311 -0.3157
 9499SOL     OW40129   3.349   3.441  14.432 -0.4186 -0.1526  0.0339
 9499SOL    HW140130   3.349   3.458  14.338  1.2096  0.1003  0.0843
 9499SOL    HW240131   3.443   3.429  14.443 -0.3871  1.9367  2.1743
 9500SOL     OW40132   4.162   1.693   5.515 -0.0579  0.1919 -0.5717
 9500SOL    HW140133   4.190   1.755   5.583  0.9868 -0.3980 -0.4558
 9500SOL    HW240134   4.190   1.737   5.435 -0.6278  2.4307  0.4520
 9501SOL     OW40135   1.504   0.585   4.060 -0.0142 -0.3247  0.6815
 9501SOL    HW140136   1.462   0.508   4.022  1.7929 -1.6817  1.4739
 9501SOL    HW240137   1.546   0.623   3.983  0.2181 -1.2795  0.3454
 9502SOL     OW40138   3.065   2.383   8.297  0.0735  0.1306  0.4712
 9502SOL    HW140139   3.067   2.405   8.390  0.5081  1.6769  0.0929
 9502SOL    HW240140   3.159   2.385   8.281  0.2046 -1.5040  1.0728
 9503SOL     OW40141   0.433   4.215   6.290 -0.4192 -0.5207  0.1502
 9503SOL    HW140142   0.348   4.186   6.254 -0.0720 -0.1985 -0.9119
 9503SOL    HW240143   0.402   4.302   6.312  0.7388 -0.6043  2.1603
 9504SOL     OW40144   3.093   0.127   5.153 -0.1581  0.0358 -0.1040
 9504SOL    HW140145   3.055   0.214   5.165  1.7741  1.0828 -1.5368
 9504SOL    HW240146   3.175   0.147   5.199 -0.6510  0.9743  0.3750
 9505SOL     OW40147   4.523   0.588   9.647  0.2997  0.2018 -0.0850
 9505SOL    HW140148   4.443   0.633   9.620 -0.7545 -0.5179  1.8650
 9505SOL    HW240149   4.558   0.658   9.703  2.1886  0.7430 -1.9288
 9506SOL     OW40150   4.409   2.763   8.408  0.1508 -0.0545 -0.2472
 9506SOL    HW140151   4.336   2.749   8.348  1.0991  1.5489 -1.7677
 9506SOL    HW240152   4.429   2.674   8.438  2.0251  1.3903  2.7688
 9507SOL     OW40153   1.419   0.166  10.893  0.0714 -0.4528  0.1150
 9507SOL    HW140154   1.431   0.106  10.967  2.4348 -1.7699 -1.3379
 9507SOL    HW240155   1.330   0.146  10.864  0.5824 -1.4734 -0.7495
 9508SOL     OW40156   3.809   2.338   6.819  0.0044  0.3488 -0.0190
 9508SOL    HW140157   3.853   2.389   6.751 -0.0274 -0.2458 -0.4843
 9508SOL    HW240158   3.881   2.280   6.844 -1.8712 -1.3840  1.3659
 9509SOL     OW40159   4.452   3.609  10.411  0.0039  0.0797 -0.3449
 9509SOL    HW140160   4.387   3.585  10.344 -0.1076 -1.2539  0.2419
 9509SOL    HW240161   4.388   3.608  10.482 -2.5481 -0.3019 -2.6147
 9510SOL     OW40162   3.402   3.086  11.231  0.7322  0.2797  0.5501
 9510SOL    HW140163   3.313   3.061  11.205  0.4360  2.1179 -0.2061
 9510SOL    HW240164   3.443   3.002  11.250 -0.2451  0.4512  3.4200
 9511SOL     OW40165   1.181   3.368   6.521  0.1515 -0.3477  0.2796
 9511SOL    HW140166   1.175   3.422   6.600 -0.4951 -1.2582  0.8547
 9511SOL    HW240167   1.256   3.314   6.545  0.1865 -1.0976 -1.5232
 9512SOL     OW40168   3.485   1.462   5.291  0.5767  0.4512  0.4553
 9512SOL    HW140169   3.524   1.414   5.364 -0.4937  2.0961  2.1011
 9512SOL    HW240170   3.428   1.518   5.344 -0.8919 -0.6275  0.0245
 9513SOL     OW40171   4.138   1.403  11.217  0.1166 -0.0387  0.8770
 9513SOL    HW140172   4.045   1.405  11.196  0.3951 -0.0030 -0.3569
 9513SOL    HW240173   4.133   1.453  11.298  1.4376  0.2964  0.7610
 9514SOL     OW40174   4.445   3.559  15.285 -0.2863  0.3480  0.4239
 9514SOL    HW140175   4.525   3.507  15.283  0.6314  1.7989 -0.1079
 9514SOL    HW240176   4.410   3.528  15.369  1.6926 -1.3523  0.6206
 9515SOL     OW40177   1.117   0.404   6.348 -0.7083 -0.2645 -0.1315
 9515SOL    HW140178   1.127   0.330   6.409 -0.8988  0.5585  0.9052
 9515SOL    HW240179   1.203   0.408   6.307 -1.2528 -1.6464 -1.4043
 9516SOL     OW40180   1.235   4.070   3.282  0.3713 -0.6156  0.0424
 9516SOL    HW140181   1.217   3.978   3.305  0.1355 -1.2699 -2.6828
 9516SOL    HW240182   1.154   4.115   3.306  0.4802 -0.4002  0.0042
 9517SOL     OW40183   0.628   4.411   5.298 -0.0339 -0.2347 -0.3285
 9517SOL    HW140184   0.560   4.361   5.252  2.1742 -1.2768 -2.4027
 9517SOL    HW240185   0.578   4.487   5.328 -1.0340 -0.9891 -0.0686
 9518SOL     OW40186   3.307   0.839   4.718  0.3413  0.6707  0.2203
 9518SOL    HW140187   3.258   0.770   4.762  0.6077  1.1652  1.2994
 9518SOL    HW240188   3.329   0.797   4.635  1.5898 -2.6564  2.2535
 9519SOL     OW40189   1.060   1.011   4.197  0.1302  0.2193  0.3274
 9519SOL    HW140190   0.984   1.024   4.255  0.1994 -1.8871  0.8805
 9519SOL    HW240191   1.075   1.100   4.166 -0.8571 -0.1704 -1.2605
 9520SOL     OW40192   0.890   1.399  15.547  0.3383 -0.3664  0.0611
 9520SOL    HW140193   0.943   1.465  15.503 -1.8137  3.2699  2.9062
 9520SOL    HW240194   0.801   1.409  15.514 -0.5136 -1.4338  2.0477
 9521SOL     OW40195   0.944   0.784   6.204  0.2941  0.4428 -0.6930
 9521SOL    HW140196   0.964   0.768   6.112 -1.7099  0.0682 -1.0697
 9521SOL    HW240197   1.028   0.751   6.237 -0.5588 -1.3566 -0.3045
 9522SOL     OW40198   1.730   1.484   5.892 -0.7901  0.2938 -0.1672
 9522SOL    HW140199   1.770   1.432   5.962 -0.5999 -0.1146 -0.5784
 9522SOL    HW240200   1.644   1.446   5.912 -1.1518  1.1636 -0.1058
 9523SOL     OW40201   4.372   4.167   9.963  0.1017  0.3638 -0.0956
 9523SOL    HW140202   4.438   4.154   9.896  1.1599  0.9397  0.8339
 9523SOL    HW240203   4.428   4.200  10.034  0.1774  1.2089 -0.5508
 9524SOL     OW40204   1.552   3.871  13.299 -0.1722  0.0634  0.8690
 9524SOL    HW140205   1.502   3.939  13.345 -2.5688 -0.0604 -1.5226
 9524SOL    HW240206   1.600   3.832  13.371 -2.4243 -2.6127  0.9231
 9525SOL     OW40207   4.066   0.287  16.011  0.3780 -0.1521 -0.1026
 9525SOL    HW140208   3.992   0.289  16.072 -0.2366 -1.3392 -0.8014
 9525SOL    HW240209   4.091   0.379  15.999 -1.0700  0.3775  0.8781
 9526SOL     OW40210   0.982   0.192   5.937 -0.2300  0.3347  0.7046
 9526SOL    HW140211   1.013   0.103   5.924 -0.9402  0.2997 -0.7723
 9526SOL    HW240212   0.905   0.175   5.991 -0.2242  0.9289  0.9004
 9527SOL     OW40213   1.185   1.259   3.086  0.4714  0.6461  0.1184
 9527SOL    HW140214   1.154   1.245   3.175 -1.3833  1.0470 -0.4786
 9527SOL    HW240215   1.200   1.172   3.049 -2.1104  0.2401  0.0682
 9528SOL     OW40216   2.170   0.072   5.162 -0.3413 -0.5178 -0.4563
 9528SOL    HW140217   2.166   0.013   5.088 -1.0376  1.1866 -1.7860
 9528SOL    HW240218   2.242   0.123   5.124  0.0679  1.6745  3.2124
 9529SOL     OW40219   1.580   3.364   2.994 -0.7030 -0.0694 -0.2631
 9529SOL    HW140220   1.511   3.425   2.968  1.6093  2.5106 -0.2998
 9529SOL    HW240221   1.656   3.419   2.973 -1.9579  1.4623 -0.7728
 9530SOL     OW40222   0.069   3.361   1.546  0.4325 -0.4500  0.1807
 9530SOL    HW140223   0.079   3.276   1.588  1.2497 -0.0657  0.7807
 9530SOL    HW240224   0.051   3.414   1.624  1.6464  2.2879 -1.3923
 9531SOL     OW40225   4.243   2.151   1.632  0.3548  0.0627  0.6729
 9531SOL    HW140226   4.324   2.123   1.590 -0.8383  0.9396 -2.2120
 9531SOL    HW240227   4.232   2.074   1.688 -0.6648  0.4416  0.9957
 9532SOL     OW40228   1.167   1.617   4.783 -0.6847  0.5179  0.0606
 9532SOL    HW140229   1.193   1.537   4.829 -2.4520 -0.6492 -1.0013
 9532SOL    HW240230   1.093   1.597   4.727  1.2511 -0.2497 -2.1845
 9533SOL     OW40231   1.583   2.218   5.834  0.5667 -0.4437  0.1612
 9533SOL    HW140232   1.512   2.278   5.856 -0.8330 -2.0399  0.0334
 9533SOL    HW240233   1.539   2.139   5.866  0.0288  0.4159  1.5048
 9534SOL     OW40234   4.498   1.473   8.231 -0.3962 -0.4635 -0.2468
 9534SOL    HW140235   4.455   1.390   8.249 -2.3149  0.1616 -2.0143
 9534SOL    HW240236   4.431   1.541   8.232 -0.5505 -0.6171 -0.2585
 9535SOL     OW40237   0.923   1.110   4.543  0.4041 -0.1692  0.8565
 9535SOL    HW140238   0.954   1.191   4.582  0.4158  0.7708 -1.0988
 9535SOL    HW240239   1.003   1.058   4.553 -0.9565 -2.4011  0.2488
 9536SOL     OW40240   4.252   4.085   2.202  0.2103  0.5160 -0.1640
 9536SOL    HW140241   4.277   4.118   2.115 -0.4115 -1.1328 -0.9623
 9536SOL    HW240242   4.186   4.023   2.173 -0.9621  2.4259 -1.6001
 9537SOL     OW40243   2.086   0.191  13.308  0.1134 -0.3814 -0.0069
 9537SOL    HW140244   2.067   0.161  13.397  2.3838 -0.6205  0.3830
 9537SOL    HW240245   2.002   0.174  13.265  0.1783 -2.1152  0.5334
 9538SOL     OW40246   3.397   2.557   9.702 -0.2011 -0.4251 -0.0395
 9538SOL    HW140247   3.446   2.630   9.665  1.8517 -0.5519  2.4009
 9538SOL    HW240248   3.381   2.496   9.630 -2.1340  1.8348 -1.4856
 9539SOL     OW40249   0.481   0.706  14.371  0.5385 -0.0474  0.4654
 9539SOL    HW140250   0.410   0.674  14.427  0.5545  1.0946  1.1314
 9539SOL    HW240251   0.527   0.770  14.425 -0.2372  1.8560 -1.1430
 9540SOL     OW40252   0.189   1.193  11.599  0.4475 -0.4925  0.3409
 9540SOL    HW140253   0.224   1.243  11.673  1.8009 -0.9542  0.0237
 9540SOL    HW240254   0.226   1.108  11.626 -2.2867 -1.6919  0.2906
 9541SOL     OW40255   4.456   2.861   3.033 -0.7450  0.0070 -0.0954
 9541SOL    HW140256   4.368   2.899   3.034 -0.4686  0.6306  0.2307
 9541SOL    HW240257   4.436   2.767   3.034  3.8386 -0.9739 -1.0218
 9542SOL     OW40258   1.152   1.149   7.334  0.3874  0.4190 -0.0967
 9542SOL    HW140259   1.101   1.162   7.255 -1.5667 -1.1083  0.9190
 9542SOL    HW240260   1.079   1.127   7.391 -0.3191  1.1301 -0.7392
 9543SOL     OW40261   0.280   4.228   6.698 -0.0641 -0.3200 -0.2345
 9543SOL    HW140262   0.198   4.215   6.745 -0.6048  1.5820 -0.6512
 9543SOL    HW240263   0.305   4.309   6.743 -0.4251 -1.1528  1.4522
 9544SOL     OW40264   1.506   3.700  11.597 -0.1615 -0.9083 -0.0860
 9544SOL    HW140265   1.442   3.769  11.579 -0.4451 -0.6170  2.0467
 9544SOL    HW240266   1.463   3.660  11.672  0.9443 -0.5752  0.7307
 9545SOL     OW40267   2.410   2.162   3.525 -0.6006 -0.4764  0.7115
 9545SOL    HW140268   2.431   2.145   3.617 -1.1345 -1.1699  0.7023
 9545SOL    HW240269   2.321   2.132   3.510 -0.5561 -0.2847  0.0314
 9546SOL     OW40270   4.670   1.302  15.868  0.7947 -0.8784  0.1573
 9546SOL    HW140271   4.694   1.243  15.940  0.9854 -0.7707  0.1830
 9546SOL    HW240272   4.668   1.253  15.786 -1.5976  1.5609 -1.2317
 9547SOL     OW40273   2.660   3.162   3.806 -0.2390 -0.2402  0.6816
 9547SOL    HW140274   2.654   3.094   3.739  0.2327  1.0734 -0.6895
 9547SOL    HW240275   2.737   3.213   3.780  0.1969 -0.6869  1.0813
 9548SOL     OW40276   1.700   3.555   3.409 -0.1658  0.6641  0.2689
 9548SOL    HW140277   1.608   3.527   3.411  0.3147 -0.9202 -0.1304
 9548SOL    HW240278   1.757   3.482   3.435 -1.8305 -0.3777  0.9851
 9549SOL     OW40279   2.465   1.401   8.687  0.0222  0.2759  0.3763
 9549SOL    HW140280   2.428   1.407   8.599  1.6004  1.5601 -0.1814
 9549SOL    HW240281   2.434   1.315   8.717 -1.8564  1.4793  1.8923
 9550SOL     OW40282   3.993   1.959   1.969  0.2170 -0.0430 -0.2468
 9550SOL    HW140283   3.907   2.001   1.973  1.6084  2.7358  0.9638
 9550SOL    HW240284   3.995   1.903   2.047 -0.7686 -0.1923 -0.3334
 9551SOL     OW40285   4.368   0.730   4.513  0.1514  0.2974 -0.4204
 9551SOL    HW140286   4.287   0.743   4.464 -1.4885  0.8012  2.4089
 9551SOL    HW240287   4.350   0.786   4.589  1.2409  1.1644 -0.8052
 9552SOL     OW40288   1.460   4.033   2.764 -0.1040  0.1788  0.5998
 9552SOL    HW140289   1.533   4.081   2.726 -0.0332  0.8919  1.6442
 9552SOL    HW240290   1.483   4.026   2.856 -0.6094 -0.7494  0.6595
 9553SOL     OW40291   0.682   0.957   5.427 -0.2452 -0.0559  0.4787
 9553SOL    HW140292   0.618   1.008   5.378 -0.6812 -1.0147  0.0360
 9553SOL    HW240293   0.751   1.023   5.429 -1.8960  1.7113 -2.1217
 9554SOL     OW40294   4.709   2.062   6.629  0.5583  0.5092  0.2419
 9554SOL    HW140295   4.721   1.999   6.557 -0.2974 -1.0393  1.4454
 9554SOL    HW240296   0.060   2.102   6.624  0.9896 -0.2892  1.3991
 9555SOL     OW40297   2.000   2.480   3.811  0.5312 -0.1848  0.1775
 9555SOL    HW140298   1.924   2.520   3.851  1.8554  1.4370  1.0392
 9555SOL    HW240299   1.988   2.386   3.825 -0.7316  0.0952  0.9309
 9556SOL     OW40300   0.608   1.691  14.369  0.2639  0.0444 -0.4349
 9556SOL    HW140301   0.661   1.712  14.293 -1.1508  2.0469 -0.8485
 9556SOL    HW240302   0.560   1.773  14.381 -1.6062 -1.1916  0.5401
 9557SOL     OW40303   1.426   4.454  11.363 -0.1579  0.3046 -0.1071
 9557SOL    HW140304   1.508   4.503  11.367  0.6865 -1.1795  1.0550
 9557SOL    HW240305   1.406   4.424  11.452 -1.0071  0.8741 -0.1090
 9558SOL     OW40306   1.206   2.209   8.080 -0.3756  0.3938  0.4997
 9558SOL    HW140307   1.151   2.145   8.033  0.6898 -1.2971  1.5475
 9558SOL    HW240308   1.262   2.154   8.134  0.1454  1.1819  0.7553
 9559SOL     OW40309   2.453   4.468   6.897  0.1516 -0.0998 -0.3558
 9559SOL    HW140310   2.384   4.530   6.923  0.1740 -0.2507  0.0644
 9559SOL    HW240311   2.428   4.404   6.964 -0.1274  0.5373  0.1518
 9560SOL     OW40312   3.266   2.723   6.177 -0.2840  0.0721  0.2877
 9560SOL    HW140313   3.178   2.694   6.151  0.4515  0.1689 -2.2782
 9560SOL    HW240314   3.328   2.660   6.141 -2.3944 -1.1188 -1.2776
 9561SOL     OW40315   0.754   3.139   5.378  0.3959 -0.1285 -0.4658
 9561SOL    HW140316   0.830   3.139   5.436 -0.4732 -2.2236  0.6817
 9561SOL    HW240317   0.704   3.205   5.426 -1.7151 -2.7905  1.0347
 9562SOL     OW40318   1.906   1.522   8.678  0.1790  0.2880  0.1440
 9562SOL    HW140319   1.973   1.477   8.730  0.5117 -0.5260 -0.9778
 9562SOL    HW240320   1.858   1.451   8.635 -2.0010  0.8686  1.6630
 9563SOL     OW40321   0.198   1.689   1.958  0.6515  0.4553 -0.0892
 9563SOL    HW140322   0.258   1.717   2.027 -0.5141 -2.0098  1.9394
 9563SOL    HW240323   0.115   1.680   2.005 -0.3555  1.1339 -1.7261
 9564SOL     OW40324   4.485   1.050   0.062 -0.2709  0.1966 -0.0656
 9564SOL    HW140325   4.568   1.083   0.097 -0.5521  1.2783 -0.4044
 9564SOL    HW240326   4.508   1.014  17.718 -0.3566  1.2781 -0.5488
 9565SOL     OW40327   3.280   4.380   6.627 -0.1523  0.2097 -0.0224
 9565SOL    HW140328   3.295   4.458   6.573 -1.8931  0.6515  0.1294
 9565SOL    HW240329   3.348   4.388   6.694 -0.7499 -1.9520  0.8238
 9566SOL     OW40330   0.446   0.493   9.593  0.2076 -0.0933  0.5607
 9566SOL    HW140331   0.408   0.408   9.573 -0.9503  0.2271  1.4209
 9566SOL    HW240332   0.535   0.459   9.598 -0.9233 -2.9525  0.7734
 9567SOL     OW40333   3.329   1.842  15.407 -0.5669  0.5029 -0.4104
 9567SOL    HW140334   3.368   1.759  15.434 -2.9269 -0.3837  0.3419
 9567SOL    HW240335   3.280   1.810  15.331 -1.3718 -0.4411  0.4965
 9568SOL     OW40336   1.785   2.113   4.172 -0.3322 -0.6878  0.0773
 9568SOL    HW140337   1.809   2.171   4.244  0.1523 -0.4038 -0.3106
 9568SOL    HW240338   1.706   2.156   4.139  1.0907  2.2295  0.4789
 9569SOL     OW40339   0.964   1.546   3.424  0.0521  0.2554 -0.3336
 9569SOL    HW140340   0.873   1.515   3.426  0.7155 -1.4535  2.0555
 9569SOL    HW240341   0.990   1.508   3.507  2.3426  0.0523 -1.1630
 9570SOL     OW40342   3.866   4.335   9.345  0.0777 -0.6839 -0.2309
 9570SOL    HW140343   3.917   4.302   9.419 -0.3699 -0.4852  0.1661
 9570SOL    HW240344   3.780   4.315   9.380 -0.2364 -1.2572 -1.3439
 9571SOL     OW40345   0.520   4.123   7.232  0.1886  0.4309  0.3625
 9571SOL    HW140346   0.448   4.081   7.280  1.4585 -2.6550 -0.3977
 9571SOL    HW240347   0.589   4.062   7.259  2.1102  1.8475 -1.3210
   4.73575   4.73575  17.74168
